<event>
 9    1  0.2075077E-005  0.8980001E+02  0.7546771E-02  0.1305770E+00
          3   -1    0    0  502    0  0.00000000000E+00  0.00000000000E+00  0.55845615543E+02  0.55845615543E+02  0.00000000000E+00 0. -1.
         -3   -1    0    0    0  501 -0.00000000000E+00 -0.00000000000E+00 -0.57301056336E+03  0.57301056336E+03  0.00000000000E+00 0.  1.
         23    2    1    2    0    0  0.64027329872E+01 -0.54083865808E+01 -0.45093218429E+03  0.45971581763E+03  0.89042419758E+02 0.  0.
         23    2    1    2    0    0 -0.39562296266E+02 -0.24407454502E+02 -0.76347616461E+02  0.12341453415E+03  0.85095767106E+02 0.  0.
        -13    1    3    3    0    0 -0.41251942543E+02 -0.94860478289E+00 -0.18980826237E+03  0.19424159976E+03  0.00000000000E+00 0. -1.
         13    1    3    3    0    0  0.47654675531E+02 -0.44597817980E+01 -0.26112392192E+03  0.26547421787E+03  0.00000000000E+00 0.  1.
        -13    1    4    4    0    0  0.15653159782E+02 -0.25764256679E+02 -0.57732921787E+02  0.65129936216E+02  0.00000000000E+00 0.  1.
         13    1    4    4    0    0 -0.55215456048E+02  0.13568021773E+01 -0.18614694674E+02  0.58284597936E+02  0.00000000000E+00 0. -1.
         21    1    1    2  502  501  0.33159563279E+02  0.29815841083E+02  0.10114852931E+02  0.45725827123E+02  0.00000000000E+00 0. -1.
<scales pt_clust_5="13000.00000" pt_clust_6="13000.00000" pt_clust_7="13000.00000" pt_clust_8="13000.00000" pt_clust_9="44.59306"></scales>
<clustering>
<clus scale="   44.593">  1  9  2 -1</clus>
<clus scale="   85.096">  7  8 -1 -1</clus>
<clus scale="   85.888">  1  7  2 -1</clus>
<clus scale="   89.042">  5  6 -1 -1</clus>
<clus scale="   44.593">  1  5  2 -1</clus>
</clustering>
</event>
<event>
 9    1  0.2075077E-005  0.9764839E+02  0.7546771E-02  0.1285886E+00
         -2   -1    0    0    0  501 -0.00000000000E+00  0.00000000000E+00  0.22834801821E+03  0.22834801821E+03  0.00000000000E+00 0.  1.
          2   -1    0    0  502    0  0.00000000000E+00 -0.00000000000E+00 -0.57650960969E+02  0.57650960969E+02  0.00000000000E+00 0. -1.
         23    2    1    2    0    0  0.11715566276E+00 -0.35658249777E+02  0.86385213942E+02  0.13140096306E+03  0.92370359984E+02 0.  0.
         23    2    1    2    0    0 -0.23903610508E+02  0.15063424815E+02  0.69369728542E+02  0.11976686565E+03  0.93454018146E+02 0.  0.
        -11    1    4    4    0    0 -0.28321873253E+02 -0.33555472251E+02  0.51741944099E+02  0.67862559646E+02  0.00000000000E+00 0.  1.
         11    1    4    4    0    0  0.44182627452E+01  0.48618897066E+02  0.17627784443E+02  0.51904306006E+02  0.00000000000E+00 0. -1.
        -11    1    3    3    0    0  0.38604845362E+02 -0.97460647591E+01  0.84541816188E+01  0.40703722809E+02  0.00000000000E+00 0. -1.
         11    1    3    3    0    0 -0.38487689699E+02 -0.25912185018E+02  0.77931032323E+02  0.90697240254E+02  0.00000000000E+00 0.  1.
         21    1    1    2  502  501  0.23786454845E+02  0.20594824962E+02  0.14942114759E+02  0.34831150466E+02  0.00000000000E+00 0. -1.
<scales pt_clust_5="13000.00000" pt_clust_6="13000.00000" pt_clust_7="13000.00000" pt_clust_8="13000.00000" pt_clust_9="31.46335"></scales>
<clustering>
<clus scale="   31.463">  2  9  1 -1</clus>
<clus scale="   92.370">  7  8 -1 -1</clus>
<clus scale="   93.454">  5  6 -1 -1</clus>
<clus scale="   96.612">  1  7  2 -1</clus>
<clus scale="   31.463">  2  5  1 -1</clus>
</clustering>
</event>
<event>
 9    1  0.2075077E-005  0.1425669E+03  0.7546771E-02  0.1212596E+00
          1   -1    0    0  502    0  0.00000000000E+00  0.00000000000E+00  0.21529372982E+03  0.21529372982E+03  0.00000000000E+00 0. -1.
         -1   -1    0    0    0  501 -0.00000000000E+00 -0.00000000000E+00 -0.18843798975E+03  0.18843798975E+03  0.00000000000E+00 0.  1.
         23    2    1    2    0    0 -0.39536584837E+02  0.11266576128E+03  0.57884320930E+01  0.15797706302E+03  0.10327890002E+03 0.  0.
         23    2    1    2    0    0 -0.38295599327E+02 -0.89608573899E+02  0.69740682761E+02  0.15110488003E+03  0.92047121047E+02 0.  0.
        -11    1    3    3    0    0  0.28476945563E+02  0.59072819213E+02  0.23371444900E+02  0.69618667288E+02  0.00000000000E+00 0.  1.
         11    1    3    3    0    0 -0.68013530400E+02  0.53592942068E+02 -0.17583012807E+02  0.88358395732E+02  0.00000000000E+00 0. -1.
        -11    1    4    4    0    0  0.27884252592E+02 -0.44984828514E+02  0.17646485526E+02  0.55790364674E+02  0.00000000000E+00 0.  1.
         11    1    4    4    0    0 -0.66179851919E+02 -0.44623745386E+02  0.52094197234E+02  0.95314515357E+02  0.00000000000E+00 0. -1.
         21    1    1    2  502  501  0.77832184164E+02 -0.23057187381E+02 -0.48673374785E+02  0.94649776517E+02  0.00000000000E+00 0.  1.
<scales pt_clust_5="13000.00000" pt_clust_6="13000.00000" pt_clust_7="13000.00000" pt_clust_8="13000.00000" pt_clust_9="81.17563"></scales>
<clustering>
<clus scale="   81.176">  2  9  1 -1</clus>
<clus scale="   92.047">  7  8 -1 -1</clus>
<clus scale="  103.279">  5  6 -1 -1</clus>
<clus scale="  134.653">  1  7  2 -1</clus>
<clus scale="  134.653">  1  5  2 -1</clus>
</clustering>
</event>
<event>
 9    1  0.2075077E-005  0.1061070E+03  0.7546771E-02  0.1269848E+00
         -3   -1    0    0    0  501 -0.00000000000E+00  0.00000000000E+00  0.11349902591E+03  0.11349902591E+03  0.00000000000E+00 0.  1.
          3   -1    0    0  502    0  0.00000000000E+00 -0.00000000000E+00 -0.15518843797E+03  0.15518843797E+03  0.00000000000E+00 0. -1.
         23    2    1    2    0    0  0.87943510497E+01 -0.53421669302E+02 -0.10359491122E+02  0.10418882453E+03  0.88412537227E+02 0.  0.
         23    2    1    2    0    0  0.40157964587E+02  0.44789623697E+02 -0.12336625967E+02  0.11128598417E+03  0.92809511484E+02 0.  0.
        -11    1    3    3    0    0  0.25812089055E+02 -0.11386735529E+02  0.31631226651E+02  0.42384622056E+02  0.00000000000E+00 0.  1.
         11    1    3    3    0    0 -0.17017738005E+02 -0.42034933773E+02 -0.41990717773E+02  0.61804202472E+02  0.00000000000E+00 0. -1.
        -13    1    4    4    0    0 -0.20425556615E+02  0.66996740800E+01 -0.30631717695E+02  0.37421800127E+02  0.00000000000E+00 0.  1.
         13    1    4    4    0    0  0.60583521202E+02  0.38089949617E+02  0.18295091728E+02  0.73864184044E+02  0.00000000000E+00 0. -1.
         21    1    1    2  502  501 -0.48952315637E+02  0.86320456055E+01 -0.18993294967E+02  0.53212655179E+02  0.00000000000E+00 0.  1.
<scales pt_clust_5="13000.00000" pt_clust_6="13000.00000" pt_clust_7="13000.00000" pt_clust_8="13000.00000" pt_clust_9="49.70756"></scales>
<clustering>
<clus scale="   49.708">  2  9  1 -1</clus>
<clus scale="   88.413">  5  6 -1 -1</clus>
<clus scale="   92.810">  7  8 -1 -1</clus>
<clus scale="  102.283">  1  5  2 -1</clus>
<clus scale="   49.708">  2  5  1 -1</clus>
</clustering>
</event>
<event>
 9    1  0.2075077E-005  0.1285066E+03  0.7546771E-02  0.1230435E+00
          2   -1    0    0  502    0  0.00000000000E+00  0.00000000000E+00  0.59044171687E+03  0.59044171687E+03  0.00000000000E+00 0. -1.
         -2   -1    0    0    0  501 -0.00000000000E+00 -0.00000000000E+00 -0.90018321219E+02  0.90018321219E+02  0.00000000000E+00 0.  1.
         23    2    1    2    0    0 -0.21305736146E+02 -0.89097857537E+02 -0.25881844499E+02  0.13211338574E+03  0.91606300045E+02 0.  0.
         23    2    1    2    0    0  0.78157529288E+00  0.61808996263E+02  0.32115576225E+03  0.34037494414E+03  0.94303319647E+02 0.  0.
        -11    1    3    3    0    0 -0.19092449374E+02  0.15634230646E+02 -0.27059570343E+01  0.24824846313E+02  0.00000000000E+00 0. -1.
         11    1    3    3    0    0 -0.22132867715E+01 -0.10473208818E+03 -0.23175887465E+02  0.10728853943E+03  0.00000000000E+00 0.  1.
        -11    1    4    4    0    0  0.28957767877E+02 -0.49717630160E+01  0.17256766595E+03  0.17505104992E+03  0.00000000000E+00 0.  1.
         11    1    4    4    0    0 -0.28176192584E+02  0.66780759279E+02  0.14858809630E+03  0.16532389422E+03  0.00000000000E+00 0. -1.
         21    1    1    2  502  501  0.20524160853E+02  0.27288861273E+02  0.20514947790E+03  0.20797170820E+03  0.00000000000E+00 0. -1.
<scales pt_clust_5="13000.00000" pt_clust_6="13000.00000" pt_clust_7="13000.00000" pt_clust_8="13000.00000" pt_clust_9="34.14562"></scales>
<clustering>
<clus scale="   34.146">  1  9  2 -1</clus>
<clus scale="   91.606">  5  6 -1 -1</clus>
<clus scale="   94.303">  7  8 -1 -1</clus>
<clus scale="  126.541">  2  5  1 -1</clus>
<clus scale="   34.146">  1  5  2 -1</clus>
</clustering>
</event>
<event>
 9    1  0.2075077E-005  0.2106062E+03  0.7546771E-02  0.1141091E+00
         -2   -1    0    0    0  501 -0.00000000000E+00  0.00000000000E+00  0.97898374032E+02  0.97898374032E+02  0.00000000000E+00 0.  1.
          2   -1    0    0  502    0  0.00000000000E+00 -0.00000000000E+00 -0.61247886812E+03  0.61247886812E+03  0.00000000000E+00 0. -1.
         23    2    1    2    0    0 -0.18162456334E+02  0.15576986139E+03 -0.13891947759E+03  0.22847536123E+03  0.91149574307E+02 0.  0.
         23    2    1    2    0    0  0.34821997966E+02 -0.21669072563E+03 -0.31220924601E+03  0.39237524128E+03  0.91193610298E+02 0.  0.
        -11    1    3    3    0    0 -0.45948748841E+02  0.14074001852E+03 -0.10149431478E+03  0.17949968319E+03  0.00000000000E+00 0.  1.
         11    1    3    3    0    0  0.27786292507E+02  0.15029842877E+02 -0.37425162812E+02  0.48975678042E+02  0.00000000000E+00 0. -1.
        -13    1    4    4    0    0  0.43462174302E+02 -0.39515468503E+02 -0.97979215234E+02  0.11423816991E+03  0.00000000000E+00 0.  1.
         13    1    4    4    0    0 -0.86401763356E+01 -0.17717525713E+03 -0.21423003078E+03  0.27813707138E+03  0.00000000000E+00 0. -1.
         21    1    1    2  502  501 -0.16659541632E+02  0.60920864243E+02 -0.63451770482E+02  0.89526639637E+02  0.00000000000E+00 0.  1.
<scales pt_clust_5="13000.00000" pt_clust_6="13000.00000" pt_clust_7="13000.00000" pt_clust_8="13000.00000" pt_clust_9="63.15768"></scales>
<clustering>
<clus scale="   63.158">  1  9  2 -1</clus>
<clus scale="   91.150">  5  6 -1 -1</clus>
<clus scale="   91.194">  7  8 -1 -1</clus>
<clus scale="  210.587">  1  5  2 -1</clus>
<clus scale="  210.606">  2  5  1 -1</clus>
</clustering>
</event>
<event>
 9    1  0.2075077E-005  0.1523491E+03  0.7546771E-02  0.1198247E+00
         -3   -1    0    0    0  501 -0.00000000000E+00  0.00000000000E+00  0.27398123019E+03  0.27398123019E+03  0.00000000000E+00 0.  1.
          3   -1    0    0  502    0  0.00000000000E+00 -0.00000000000E+00 -0.26007147517E+03  0.26007147517E+03  0.00000000000E+00 0. -1.
         23    2    1    2    0    0 -0.46484601035E+02 -0.12548533887E+03  0.18940192220E+03  0.24970361365E+03  0.92581953601E+02 0.  0.
         23    2    1    2    0    0  0.34670097630E+02  0.35207808418E+02 -0.16330843823E+03  0.19249018769E+03  0.89113528247E+02 0.  0.
        -11    1    4    4    0    0  0.62822548447E+02  0.36711622608E+02 -0.10530643725E+03  0.12799945919E+03  0.00000000000E+00 0. -1.
         11    1    4    4    0    0 -0.28152450817E+02 -0.15038141898E+01 -0.58002000989E+02  0.64490728502E+02  0.00000000000E+00 0.  1.
        -13    1    3    3    0    0 -0.38865263326E+02 -0.43375883461E+01  0.29702486535E+02  0.49107647799E+02  0.00000000000E+00 0. -1.
         13    1    3    3    0    0 -0.76193377093E+01 -0.12114775053E+03  0.15969943566E+03  0.20059596585E+03  0.00000000000E+00 0.  1.
         21    1    1    2  502  501  0.11814503405E+02  0.90277530453E+02 -0.12183728945E+02  0.91858904013E+02  0.00000000000E+00 0. -1.
<scales pt_clust_5="13000.00000" pt_clust_6="13000.00000" pt_clust_7="13000.00000" pt_clust_8="13000.00000" pt_clust_9="91.04732"></scales>
<clustering>
<clus scale="   89.114">  5  6 -1 -1</clus>
<clus scale="   91.047">  2  9  1 -1</clus>
<clus scale="   92.582">  7  8 -1 -1</clus>
<clus scale="  150.267">  2  5  1 -1</clus>
<clus scale="   91.047">  2  5  1 -1</clus>
</clustering>
</event>
<event>
 9    1  0.2075077E-005  0.1266378E+03  0.7546771E-02  0.1232891E+00
         -1   -1    0    0    0  501 -0.00000000000E+00  0.00000000000E+00  0.14321591976E+03  0.14321591976E+03  0.00000000000E+00 0.  1.
          1   -1    0    0  502    0  0.00000000000E+00 -0.00000000000E+00 -0.22590277823E+03  0.22590277823E+03  0.00000000000E+00 0. -1.
         23    2    1    2    0    0  0.51588569374E+02  0.70557195719E+02  0.69807866065E+02  0.14458032737E+03  0.91600406885E+02 0.  0.
         23    2    1    2    0    0 -0.33426818549E+02 -0.83201964668E+02 -0.83817644427E+02  0.15238380939E+03  0.90307855267E+02 0.  0.
        -11    1    3    3    0    0  0.21826875916E+02  0.57365399275E+02 -0.64001186981E+01  0.61710315715E+02  0.00000000000E+00 0. -1.
         11    1    3    3    0    0  0.29761693458E+02  0.13191796444E+02  0.76207984763E+02  0.82870011660E+02  0.00000000000E+00 0.  1.
        -13    1    4    4    0    0 -0.49063387370E+02 -0.17561544914E+02 -0.11289123552E+02  0.53320429017E+02  0.00000000000E+00 0.  1.
         13    1    4    4    0    0  0.15636568821E+02 -0.65640419754E+02 -0.72528520874E+02  0.99063380369E+02  0.00000000000E+00 0. -1.
         21    1    1    2  502  501 -0.18161750825E+02  0.12644768948E+02 -0.68677080103E+02  0.72154561230E+02  0.00000000000E+00 0. -1.
<scales pt_clust_5="13000.00000" pt_clust_6="13000.00000" pt_clust_7="13000.00000" pt_clust_8="13000.00000" pt_clust_9="22.13006"></scales>
<clustering>
<clus scale="   22.130">  2  9  1 -1</clus>
<clus scale="   90.308">  7  8 -1 -1</clus>
<clus scale="   91.600">  5  6 -1 -1</clus>
<clus scale="  125.706">  2  7  1 -1</clus>
<clus scale="   22.130">  2  5  1 -1</clus>
</clustering>
</event>
<event>
 9    1  0.2075077E-005  0.1000491E+03  0.7546771E-02  0.1280227E+00
          2   -1    0    0  502    0  0.00000000000E+00  0.00000000000E+00  0.22312901266E+03  0.22312901266E+03  0.00000000000E+00 0. -1.
         -2   -1    0    0    0  501 -0.00000000000E+00 -0.00000000000E+00 -0.17067636882E+03  0.17067636882E+03  0.00000000000E+00 0.  1.
         23    2    1    2    0    0 -0.19282086049E+02  0.16723609243E+02 -0.70091927846E+02  0.11809211327E+03  0.91549936749E+02 0.  0.
         23    2    1    2    0    0  0.63420388742E+02 -0.27147629679E+02 -0.28358519986E+02  0.11814235389E+03  0.91620252243E+02 0.  0.
        -11    1    3    3    0    0  0.28496493345E+02  0.33782361854E+02 -0.35506421556E+02  0.56692187090E+02  0.00000000000E+00 0. -1.
         11    1    3    3    0    0 -0.47778579394E+02 -0.17058752610E+02 -0.34585506290E+02  0.61399926180E+02  0.00000000000E+00 0.  1.
        -13    1    4    4    0    0  0.48545144461E+01 -0.45576102474E+02 -0.33139785267E+02  0.56559639274E+02  0.00000000000E+00 0.  1.
         13    1    4    4    0    0  0.58565874296E+02  0.18428472795E+02  0.47812652806E+01  0.61582714614E+02  0.00000000000E+00 0. -1.
         21    1    1    2  502  501 -0.44138302693E+02  0.10424020435E+02  0.15090309167E+03  0.15757091433E+03  0.00000000000E+00 0. -1.
<scales pt_clust_5="13000.00000" pt_clust_6="13000.00000" pt_clust_7="13000.00000" pt_clust_8="13000.00000" pt_clust_9="45.35251"></scales>
<clustering>
<clus scale="   45.353">  1  9  2 -1</clus>
<clus scale="   91.550">  5  6 -1 -1</clus>
<clus scale="   91.620">  7  8 -1 -1</clus>
<clus scale="   99.985">  2  5  1 -1</clus>
<clus scale="   45.353">  1  5  2 -1</clus>
</clustering>
</event>
<event>
 9    1  0.2075077E-005  0.1184997E+03  0.7546771E-02  0.1251452E+00
          1   -1    0    0  502    0  0.00000000000E+00  0.00000000000E+00  0.12872294587E+03  0.12872294587E+03  0.00000000000E+00 0. -1.
         -1   -1    0    0    0  501 -0.00000000000E+00 -0.00000000000E+00 -0.15789178744E+03  0.15789178744E+03  0.00000000000E+00 0.  1.
         23    2    1    2    0    0  0.48681182990E+02 -0.29251567045E+02 -0.86282280336E+02  0.13851433569E+03  0.92282596079E+02 0.  0.
         23    2    1    2    0    0 -0.27972434022E+02  0.16922388935E+02  0.41331643457E+02  0.11929196171E+03  0.10702075997E+03 0.  0.
        -13    1    3    3    0    0  0.17822700376E+02  0.24124301905E+02  0.28580532099E+01  0.30129703935E+02  0.00000000000E+00 0. -1.
         13    1    3    3    0    0  0.30858482614E+02 -0.53375868950E+02 -0.89140333546E+02  0.10838463175E+03  0.00000000000E+00 0.  1.
        -13    1    4    4    0    0 -0.16974098113E+02  0.58357880858E+02  0.15327151526E+01  0.60795653469E+02  0.00000000000E+00 0. -1.
         13    1    4    4    0    0 -0.10998335909E+02 -0.41435491923E+02  0.39798928305E+02  0.58496308241E+02  0.00000000000E+00 0.  1.
         21    1    1    2  502  501 -0.20708748968E+02  0.12329178110E+02  0.15781795312E+02  0.28808435917E+02  0.00000000000E+00 0. -1.
<scales pt_clust_5="13000.00000" pt_clust_6="13000.00000" pt_clust_7="13000.00000" pt_clust_8="13000.00000" pt_clust_9="24.10106"></scales>
<clustering>
<clus scale="   24.101">  1  9  2 -1</clus>
<clus scale="   92.283">  5  6 -1 -1</clus>
<clus scale="  105.379">  2  5  1 -1</clus>
<clus scale="  107.021">  7  8 -1 -1</clus>
<clus scale="   24.101">  1  5  2 -1</clus>
</clustering>
</event>
<event>
 9    1  0.2075077E-005  0.2053518E+03  0.7546771E-02  0.1145520E+00
          2   -1    0    0  502    0  0.00000000000E+00  0.00000000000E+00  0.87587066958E+03  0.87587066958E+03  0.00000000000E+00 0. -1.
         -2   -1    0    0    0  501 -0.00000000000E+00 -0.00000000000E+00 -0.74476930193E+02  0.74476930193E+02  0.00000000000E+00 0.  1.
         23    2    1    2    0    0 -0.32636996310E+02  0.18439695809E+03  0.18123402498E+03  0.27513041775E+03  0.88224505003E+02 0.  0.
         23    2    1    2    0    0  0.69466092623E+02 -0.16793218585E+03  0.37228889801E+03  0.42408492069E+03  0.90676564251E+02 0.  0.
        -13    1    3    3    0    0 -0.46218722755E+01  0.31042729969E+02 -0.55152591294E+01  0.31865826061E+02  0.00000000000E+00 0.  1.
         13    1    3    3    0    0 -0.28015124035E+02  0.15335422812E+03  0.18674928411E+03  0.24326459169E+03  0.00000000000E+00 0. -1.
        -13    1    4    4    0    0  0.79297967871E+02 -0.88171823940E+02  0.26233977697E+03  0.28789685102E+03  0.00000000000E+00 0.  1.
         13    1    4    4    0    0 -0.98318752475E+01 -0.79760361910E+02  0.10994912104E+03  0.13618806967E+03  0.00000000000E+00 0. -1.
         21    1    1    2  502  501 -0.36829096313E+02 -0.16464772235E+02  0.24787081640E+03  0.25113226134E+03  0.00000000000E+00 0. -1.
<scales pt_clust_5="13000.00000" pt_clust_6="13000.00000" pt_clust_7="13000.00000" pt_clust_8="13000.00000" pt_clust_9="40.34193"></scales>
<clustering>
<clus scale="   40.342">  1  9  2 -1</clus>
<clus scale="   88.225">  5  6 -1 -1</clus>
<clus scale="   90.677">  7  8 -1 -1</clus>
<clus scale="  204.281">  2  5  1 -1</clus>
<clus scale="   40.342">  1  5  2 -1</clus>
</clustering>
</event>
<event>
 9    1  0.2075077E-005  0.1002574E+03  0.7546771E-02  0.1281523E+00
         -1   -1    0    0    0  501 -0.00000000000E+00  0.00000000000E+00  0.47659025318E+02  0.47659025318E+02  0.00000000000E+00 0.  1.
          1   -1    0    0  502    0  0.00000000000E+00 -0.00000000000E+00 -0.47258091199E+03  0.47258091199E+03  0.00000000000E+00 0. -1.
         23    2    1    2    0    0 -0.21904723503E+01 -0.32919465508E+02 -0.25338077601E+02  0.10155116737E+03  0.92639797278E+02 0.  0.
         23    2    1    2    0    0 -0.83569831648E+01  0.66371898758E+01 -0.31224268050E+03  0.32687112691E+03  0.96100731663E+02 0.  0.
        -11    1    4    4    0    0 -0.93117627425E+01  0.50587402339E+02 -0.14146696468E+03  0.15052805817E+03  0.00000000000E+00 0.  1.
         11    1    4    4    0    0  0.95477957769E+00 -0.43950212463E+02 -0.17077571582E+03  0.17634306874E+03  0.00000000000E+00 0. -1.
        -13    1    3    3    0    0  0.15425665776E+02  0.24483664523E+02 -0.29548472762E+02  0.41358351462E+02  0.00000000000E+00 0.  1.
         13    1    3    3    0    0 -0.17616138126E+02 -0.57403130031E+02  0.42103951612E+01  0.60192815911E+02  0.00000000000E+00 0. -1.
         21    1    1    2  502  501  0.10547455515E+02  0.26282275632E+02 -0.87341128564E+02  0.91817643017E+02  0.00000000000E+00 0.  1.
<scales pt_clust_5="13000.00000" pt_clust_6="13000.00000" pt_clust_7="13000.00000" pt_clust_8="13000.00000" pt_clust_9="28.31973"></scales>
<clustering>
<clus scale="   28.320">  2  9  1 -1</clus>
<clus scale="   92.640">  7  8 -1 -1</clus>
<clus scale="   96.101">  5  6 -1 -1</clus>
<clus scale="   96.945">  1  7  2 -1</clus>
<clus scale="   28.320">  2  5  1 -1</clus>
</clustering>
</event>
<event>
 9    1  0.2075077E-005  0.9525598E+02  0.7546771E-02  0.1297795E+00
         -1   -1    0    0    0  501 -0.00000000000E+00  0.00000000000E+00  0.42418206987E+02  0.42418206987E+02  0.00000000000E+00 0.  1.
          1   -1    0    0  502    0  0.00000000000E+00 -0.00000000000E+00 -0.57761654358E+03  0.57761654358E+03  0.00000000000E+00 0. -1.
         23    2    1    2    0    0  0.98212438556E+01 -0.18145409951E+02 -0.25191785609E+02  0.86121815085E+02  0.79728465670E+02 0.  0.
         23    2    1    2    0    0 -0.57715008527E+02  0.15991410148E+02 -0.34421310157E+03  0.36132695611E+03  0.92129053544E+02 0.  0.
        -11    1    4    4    0    0  0.20937980158E+02  0.22690535274E+02 -0.10273292814E+03  0.10727214890E+03  0.00000000000E+00 0.  1.
         11    1    4    4    0    0 -0.78652988685E+02 -0.66991251259E+01 -0.24148017343E+03  0.25405480721E+03  0.00000000000E+00 0. -1.
        -11    1    3    3    0    0  0.35854342765E+02  0.85628551270E+01  0.61901807986E+01  0.37378800427E+02  0.00000000000E+00 0.  1.
         11    1    3    3    0    0 -0.26033098909E+02 -0.26708265078E+02 -0.31381966408E+02  0.48743014658E+02  0.00000000000E+00 0. -1.
         21    1    1    2  502  501  0.47893764671E+02  0.21539998029E+01 -0.16579344941E+03  0.17258597937E+03  0.00000000000E+00 0. -1.
<scales pt_clust_5="13000.00000" pt_clust_6="13000.00000" pt_clust_7="13000.00000" pt_clust_8="13000.00000" pt_clust_9="47.94218"></scales>
<clustering>
<clus scale="   47.942">  2  9  1 -1</clus>
<clus scale="   79.728">  7  8 -1 -1</clus>
<clus scale="   83.322">  1  7  2 -1</clus>
<clus scale="   92.129">  5  6 -1 -1</clus>
<clus scale="   47.942">  2  5  1 -1</clus>
</clustering>
</event>
<event>
 9    1  0.2075077E-005  0.1147396E+03  0.7546771E-02  0.1252324E+00
          1   -1    0    0  502    0  0.00000000000E+00  0.00000000000E+00  0.74478699455E+03  0.74478699455E+03  0.00000000000E+00 0. -1.
         -1   -1    0    0    0  501 -0.00000000000E+00 -0.00000000000E+00 -0.51365601995E+02  0.51365601995E+02  0.00000000000E+00 0.  1.
         23    2    1    2    0    0  0.72176113703E+02  0.12247671880E+01  0.13777303252E+03  0.18064752851E+03  0.91876164599E+02 0.  0.
         23    2    1    2    0    0 -0.35692399138E+02 -0.85030262863E+02  0.14356825135E+03  0.19340977251E+03  0.91057148805E+02 0.  0.
        -13    1    3    3    0    0  0.34419070421E+01 -0.21642862175E+02  0.92870286955E+02  0.95420911787E+02  0.00000000000E+00 0.  1.
         13    1    3    3    0    0  0.68734206661E+02  0.22867629363E+02  0.44902745566E+02  0.85226616719E+02  0.00000000000E+00 0. -1.
        -13    1    4    4    0    0 -0.65374342898E+02 -0.43399653431E+02  0.86746327148E+02  0.11697119261E+03  0.00000000000E+00 0.  1.
         13    1    4    4    0    0  0.29681943761E+02 -0.41630609432E+02  0.56821924205E+02  0.76438579902E+02  0.00000000000E+00 0. -1.
         21    1    1    2  502  501 -0.36483714565E+02  0.83805495675E+02  0.41208010869E+03  0.42209529553E+03  0.00000000000E+00 0.  1.
<scales pt_clust_5="13000.00000" pt_clust_6="13000.00000" pt_clust_7="13000.00000" pt_clust_8="13000.00000" pt_clust_9="91.40253"></scales>
<clustering>
<clus scale="   91.057">  7  8 -1 -1</clus>
<clus scale="   91.403">  1  9  2 -1</clus>
<clus scale="   91.876">  5  6 -1 -1</clus>
<clus scale="  114.085">  1  7  2 -1</clus>
<clus scale="   91.403">  1  5  2 -1</clus>
</clustering>
</event>
<event>
 9    1  0.2075077E-005  0.1016494E+03  0.7546771E-02  0.1278286E+00
         -2   -1    0    0    0  501 -0.00000000000E+00  0.00000000000E+00  0.24410575565E+03  0.24410575565E+03  0.00000000000E+00 0.  1.
          2   -1    0    0  502    0  0.00000000000E+00 -0.00000000000E+00 -0.22496220887E+03  0.22496220887E+03  0.00000000000E+00 0. -1.
         23    2    1    2    0    0 -0.39075501201E+02 -0.32719782218E+02  0.88186737593E+02  0.13025452290E+03  0.81190277160E+02 0.  0.
         23    2    1    2    0    0  0.18977530520E+02  0.64718169755E+02  0.11094368380E+03  0.15490286481E+03  0.84485551373E+02 0.  0.
        -11    1    4    4    0    0  0.45771907798E+02  0.64418773410E+02  0.67842413367E+02  0.10415103918E+03  0.00000000000E+00 0.  1.
         11    1    4    4    0    0 -0.26794377277E+02  0.29939634517E+00  0.43101270437E+02  0.50751825634E+02  0.00000000000E+00 0. -1.
        -13    1    3    3    0    0 -0.63521441000E+02 -0.32592724356E+02  0.64533442401E+02  0.96238372471E+02  0.00000000000E+00 0.  1.
         13    1    3    3    0    0  0.24445939799E+02 -0.12705786123E+00  0.23653295191E+02  0.34016150425E+02  0.00000000000E+00 0. -1.
         21    1    1    2  502  501  0.20097970681E+02 -0.31998387538E+02 -0.17998687462E+03  0.18391057682E+03  0.00000000000E+00 0. -1.
<scales pt_clust_5="13000.00000" pt_clust_6="13000.00000" pt_clust_7="13000.00000" pt_clust_8="13000.00000" pt_clust_9="37.78657"></scales>
<clustering>
<clus scale="   37.787">  2  9  1 -1</clus>
<clus scale="   81.190">  7  8 -1 -1</clus>
<clus scale="   84.486">  5  6 -1 -1</clus>
<clus scale="   98.928">  1  7  2 -1</clus>
<clus scale="   37.787">  2  5  1 -1</clus>
</clustering>
</event>
<event>
 9    1  0.2075077E-005  0.9857949E+02  0.7546771E-02  0.1284013E+00
          4   -1    0    0  502    0  0.00000000000E+00  0.00000000000E+00  0.22776271329E+03  0.22776271329E+03  0.00000000000E+00 0.  1.
         -4   -1    0    0    0  501 -0.00000000000E+00 -0.00000000000E+00 -0.26529748768E+03  0.26529748768E+03  0.00000000000E+00 0. -1.
         23    2    1    2    0    0  0.26188011020E+02  0.16048078488E+02 -0.10742267348E+03  0.14331895582E+03  0.89762684759E+02 0.  0.
         23    2    1    2    0    0 -0.19239909907E+02 -0.44385451994E+02 -0.11962543089E+03  0.15799509763E+03  0.91169976856E+02 0.  0.
        -11    1    4    4    0    0 -0.26080857107E+02  0.18619486097E+02 -0.14340590253E+02  0.35107675781E+02  0.00000000000E+00 0. -1.
         11    1    4    4    0    0  0.68409472008E+01 -0.63004938091E+02 -0.10528484063E+03  0.12288742185E+03  0.00000000000E+00 0.  1.
        -13    1    3    3    0    0  0.48630414955E+02 -0.19853450409E+02 -0.58665816623E+02  0.78744871528E+02  0.00000000000E+00 0.  1.
         13    1    3    3    0    0 -0.22442403935E+02  0.35901528897E+02 -0.48756856856E+02  0.64574084291E+02  0.00000000000E+00 0. -1.
         21    1    1    2  502  501 -0.69481011133E+01  0.28337373506E+02  0.18951332998E+03  0.19174614751E+03  0.00000000000E+00 0.  1.
<scales pt_clust_5="13000.00000" pt_clust_6="13000.00000" pt_clust_7="13000.00000" pt_clust_8="13000.00000" pt_clust_9="29.17675"></scales>
<clustering>
<clus scale="   29.177">  1  9  2 -1</clus>
<clus scale="   89.763">  7  8 -1 -1</clus>
<clus scale="   91.170">  5  6 -1 -1</clus>
<clus scale="   97.279">  2  7  1 -1</clus>
<clus scale="   29.177">  1  5  2 -1</clus>
</clustering>
</event>
<event>
 9    1  0.2075077E-005  0.9707623E+02  0.7546771E-02  0.1290055E+00
          2   -1    0    0  502    0  0.00000000000E+00  0.00000000000E+00  0.47417913806E+02  0.47417913806E+02  0.00000000000E+00 0. -1.
         -2   -1    0    0    0  501 -0.00000000000E+00 -0.00000000000E+00 -0.28564832089E+03  0.28564832089E+03  0.00000000000E+00 0.  1.
         23    2    1    2    0    0  0.44604002043E+01 -0.32893765803E+02 -0.14604010979E+03  0.17606233324E+03  0.92565309485E+02 0.  0.
         23    2    1    2    0    0  0.23529128719E+02  0.22104501373E+02 -0.86963905075E+02  0.12655497484E+03  0.86088396381E+02 0.  0.
        -11    1    3    3    0    0  0.26041159666E+02 -0.21547286738E+02 -0.14780151282E+03  0.15161700022E+03  0.00000000000E+00 0.  1.
         11    1    3    3    0    0 -0.21580759462E+02 -0.11346479065E+02  0.17614030281E+01  0.24445333026E+02  0.00000000000E+00 0. -1.
        -11    1    4    4    0    0 -0.20106752279E+01  0.38433933301E+02 -0.45643112640E+01  0.38756199261E+02  0.00000000000E+00 0. -1.
         11    1    4    4    0    0  0.25539803947E+02 -0.16329431928E+02 -0.82399593811E+02  0.87798775578E+02  0.00000000000E+00 0.  1.
         21    1    1    2  502  501 -0.27989528924E+02  0.10789264430E+02 -0.52263922159E+01  0.30448926613E+02  0.00000000000E+00 0.  1.
<scales pt_clust_5="13000.00000" pt_clust_6="13000.00000" pt_clust_7="13000.00000" pt_clust_8="13000.00000" pt_clust_9="29.99703"></scales>
<clustering>
<clus scale="   29.997">  1  9  2 -1</clus>
<clus scale="   86.088">  7  8 -1 -1</clus>
<clus scale="   90.921">  1  7  2 -1</clus>
<clus scale="   92.565">  5  6 -1 -1</clus>
<clus scale="   29.997">  1  5  2 -1</clus>
</clustering>
</event>
<event>
 9    1  0.2075077E-005  0.2016535E+03  0.7546771E-02  0.1148600E+00
         -1   -1    0    0    0  501 -0.00000000000E+00  0.00000000000E+00  0.49743116223E+03  0.49743116223E+03  0.00000000000E+00 0.  1.
          1   -1    0    0  502    0  0.00000000000E+00 -0.00000000000E+00 -0.17502157954E+03  0.17502157954E+03  0.00000000000E+00 0. -1.
         23    2    1    2    0    0  0.90566163726E+02 -0.15901739938E+03  0.34891287865E+03  0.40463166413E+03  0.92183639608E+02 0.  0.
         23    2    1    2    0    0 -0.55739339914E+02  0.16172361544E+03  0.35818518171E+02  0.19637711514E+03  0.89552237831E+02 0.  0.
        -13    1    4    4    0    0 -0.75405633945E+02  0.98711144432E+02  0.71864974112E+01  0.12442485849E+03  0.00000000000E+00 0. -1.
         13    1    4    4    0    0  0.19666294032E+02  0.63012471006E+02  0.28632020760E+02  0.71952256643E+02  0.00000000000E+00 0.  1.
        -13    1    3    3    0    0 -0.94548238941E+00 -0.90002402850E+02  0.16403123910E+03  0.18710311022E+03  0.00000000000E+00 0. -1.
         13    1    3    3    0    0  0.91511646115E+02 -0.69014996527E+02  0.18488163956E+03  0.21752855391E+03  0.00000000000E+00 0.  1.
         21    1    1    2  502  501 -0.34826823812E+02 -0.27062160602E+01 -0.62321814126E+02  0.71443962503E+02  0.00000000000E+00 0. -1.
<scales pt_clust_5="13000.00000" pt_clust_6="13000.00000" pt_clust_7="13000.00000" pt_clust_8="13000.00000" pt_clust_9="34.93181"></scales>
<clustering>
<clus scale="   34.932">  2  9  1 -1</clus>
<clus scale="   89.552">  5  6 -1 -1</clus>
<clus scale="   92.184">  7  8 -1 -1</clus>
<clus scale="  200.464">  2  5  1 -1</clus>
<clus scale="   34.932">  2  5  1 -1</clus>
</clustering>
</event>
<event>
 9    1  0.2075077E-005  0.1054678E+03  0.7546771E-02  0.1270302E+00
          1   -1    0    0  502    0  0.00000000000E+00  0.00000000000E+00  0.37312622579E+03  0.37312622579E+03  0.00000000000E+00 0. -1.
         -1   -1    0    0    0  501 -0.00000000000E+00 -0.00000000000E+00 -0.59644351884E+02  0.59644351884E+02  0.00000000000E+00 0.  1.
         23    2    1    2    0    0 -0.42300505146E+02  0.32706986216E+02  0.11090916240E+02  0.10566294587E+03  0.90457559239E+02 0.  0.
         23    2    1    2    0    0  0.35509163356E+02 -0.88774669768E+01  0.23961339713E+03  0.25961696270E+03  0.92987510622E+02 0.  0.
        -13    1    4    4    0    0  0.25607153364E+02 -0.36428919194E+02  0.21980173857E+03  0.22426679811E+03  0.00000000000E+00 0. -1.
         13    1    4    4    0    0  0.99020099923E+01  0.27551452217E+02  0.19811658566E+02  0.35350164587E+02  0.00000000000E+00 0.  1.
        -13    1    3    3    0    0  0.13402557292E+02  0.45747378842E+02  0.82868276413E+01  0.48385149842E+02  0.00000000000E+00 0. -1.
         13    1    3    3    0    0 -0.55703062437E+02 -0.13040392626E+02  0.28040885987E+01  0.57277796026E+02  0.00000000000E+00 0.  1.
         21    1    1    2  502  501  0.67913417895E+01 -0.23829519240E+02  0.62777560534E+02  0.67490669111E+02  0.00000000000E+00 0.  1.
<scales pt_clust_5="13000.00000" pt_clust_6="13000.00000" pt_clust_7="13000.00000" pt_clust_8="13000.00000" pt_clust_9="24.77838"></scales>
<clustering>
<clus scale="   24.778">  1  9  2 -1</clus>
<clus scale="   90.458">  7  8 -1 -1</clus>
<clus scale="   92.988">  5  6 -1 -1</clus>
<clus scale="  103.244">  2  7  1 -1</clus>
<clus scale="   24.778">  1  5  2 -1</clus>
</clustering>
</event>
<event>
 9    1  0.2075077E-005  0.1115934E+03  0.7546771E-02  0.1262239E+00
          2   -1    0    0  502    0  0.00000000000E+00  0.00000000000E+00  0.19397983195E+03  0.19397983195E+03  0.00000000000E+00 0. -1.
         -2   -1    0    0    0  501 -0.00000000000E+00 -0.00000000000E+00 -0.35259078924E+03  0.35259078924E+03  0.00000000000E+00 0.  1.
         23    2    1    2    0    0  0.15207024206E+02 -0.40773675144E+02 -0.30708505455E+03  0.32350937172E+03  0.91996394987E+02 0.  0.
         23    2    1    2    0    0 -0.55868550947E+02  0.31721722663E+02  0.88040271329E+02  0.14966135220E+03  0.10256640918E+03 0.  0.
        -11    1    4    4    0    0 -0.23438427611E+02  0.68244558388E+02  0.54029868728E+02  0.90143809289E+02  0.00000000000E+00 0. -1.
         11    1    4    4    0    0 -0.32430123336E+02 -0.36522835725E+02  0.34010402601E+02  0.59517542910E+02  0.00000000000E+00 0.  1.
        -13    1    3    3    0    0 -0.12697010495E+02 -0.63185669961E+02 -0.16931055873E+03  0.18116210493E+03  0.00000000000E+00 0.  1.
         13    1    3    3    0    0  0.27904034701E+02  0.22411994816E+02 -0.13777449582E+03  0.14234726679E+03  0.00000000000E+00 0. -1.
         21    1    1    2  502  501  0.40661526741E+02  0.90519524818E+01  0.60433825936E+02  0.73399897261E+02  0.00000000000E+00 0. -1.
<scales pt_clust_5="13000.00000" pt_clust_6="13000.00000" pt_clust_7="13000.00000" pt_clust_8="13000.00000" pt_clust_9="41.65690"></scales>
<clustering>
<clus scale="   41.657">  1  9  2 -1</clus>
<clus scale="   91.996">  7  8 -1 -1</clus>
<clus scale="  101.963">  2  7  1 -1</clus>
<clus scale="  102.566">  5  6 -1 -1</clus>
<clus scale="   41.657">  1  5  2 -1</clus>
</clustering>
</event>
<event>
 9    1  0.2075077E-005  0.1035141E+03  0.7546771E-02  0.1273325E+00
          4   -1    0    0  502    0  0.00000000000E+00  0.00000000000E+00  0.23839047868E+03  0.23839047868E+03  0.00000000000E+00 0. -1.
         -4   -1    0    0    0  501 -0.00000000000E+00 -0.00000000000E+00 -0.98139295625E+02  0.98139295625E+02  0.00000000000E+00 0.  1.
         23    2    1    2    0    0  0.24136146103E+02  0.35474996045E+02 -0.32159739131E+02  0.10818556463E+03  0.93961900151E+02 0.  0.
         23    2    1    2    0    0 -0.52613287050E+02 -0.14615188918E+02  0.98005930326E+02  0.14599020599E+03  0.93414218105E+02 0.  0.
        -13    1    4    4    0    0  0.30531681167E+01 -0.23489539389E+02  0.84865853582E+02  0.88109553401E+02  0.00000000000E+00 0. -1.
         13    1    4    4    0    0 -0.55666455167E+02  0.88743504702E+01  0.13140076743E+02  0.57880652587E+02  0.00000000000E+00 0.  1.
        -13    1    3    3    0    0  0.10266222236E+02 -0.21742313406E+02  0.18640870653E+02  0.30423766531E+02  0.00000000000E+00 0.  1.
         13    1    3    3    0    0  0.13869923868E+02  0.57217309451E+02 -0.50800609784E+02  0.77761798097E+02  0.00000000000E+00 0. -1.
         21    1    1    2  502  501  0.28477140947E+02 -0.20859807126E+02  0.74404991859E+02  0.82354003688E+02  0.00000000000E+00 0. -1.
<scales pt_clust_5="13000.00000" pt_clust_6="13000.00000" pt_clust_7="13000.00000" pt_clust_8="13000.00000" pt_clust_9="35.29985"></scales>
<clustering>
<clus scale="   35.300">  1  9  2 -1</clus>
<clus scale="   93.414">  5  6 -1 -1</clus>
<clus scale="   93.962">  7  8 -1 -1</clus>
<clus scale="  103.017">  1  5  2 -1</clus>
<clus scale="   35.300">  1  5  2 -1</clus>
</clustering>
</event>
<event>
 9    1  0.2075077E-005  0.1268589E+03  0.7546771E-02  0.1234287E+00
          1   -1    0    0  502    0  0.00000000000E+00  0.00000000000E+00  0.38475388330E+03  0.38475388330E+03  0.00000000000E+00 0. -1.
         -1   -1    0    0    0  501 -0.00000000000E+00 -0.00000000000E+00 -0.54084584162E+02  0.54084584162E+02  0.00000000000E+00 0.  1.
         23    2    1    2    0    0 -0.63978427850E+02 -0.30553949757E+02  0.12657305187E+03  0.17399792787E+03  0.96061221970E+02 0.  0.
         23    2    1    2    0    0  0.91122364281E+02  0.27931419801E+02  0.12269566171E+03  0.17899342970E+03  0.88887417492E+02 0.  0.
        -11    1    3    3    0    0 -0.28917430967E+02  0.15788695555E+02 -0.18915912903E+01  0.33001194503E+02  0.00000000000E+00 0. -1.
         11    1    3    3    0    0 -0.35060996883E+02 -0.46342645312E+02  0.12846464316E+03  0.14099673336E+03  0.00000000000E+00 0.  1.
        -13    1    4    4    0    0  0.38803888127E+02 -0.21505594024E+02  0.10333292620E+02  0.45552269368E+02  0.00000000000E+00 0.  1.
         13    1    4    4    0    0  0.52318476154E+02  0.49437013826E+02  0.11236236909E+03  0.13344116033E+03  0.00000000000E+00 0. -1.
         21    1    1    2  502  501 -0.27143936431E+02  0.26225299564E+01  0.81400585563E+02  0.85847109901E+02  0.00000000000E+00 0. -1.
<scales pt_clust_5="13000.00000" pt_clust_6="13000.00000" pt_clust_7="13000.00000" pt_clust_8="13000.00000" pt_clust_9="27.27033"></scales>
<clustering>
<clus scale="   27.270">  1  9  2 -1</clus>
<clus scale="   88.887">  7  8 -1 -1</clus>
<clus scale="   96.061">  5  6 -1 -1</clus>
<clus scale="  121.517">  1  7  2 -1</clus>
<clus scale="   27.270">  1  5  2 -1</clus>
</clustering>
</event>
<event>
 9    1  0.2075077E-005  0.9480914E+02  0.7546771E-02  0.1293590E+00
          1   -1    0    0  502    0  0.00000000000E+00  0.00000000000E+00  0.69823025643E+02  0.69823025643E+02  0.00000000000E+00 0. -1.
         -1   -1    0    0    0  501 -0.00000000000E+00 -0.00000000000E+00 -0.25166554051E+03  0.25166554051E+03  0.00000000000E+00 0.  1.
         23    2    1    2    0    0 -0.21358447455E+02 -0.93904600143E+00 -0.15343877566E+03  0.17941764912E+03  0.90499557213E+02 0.  0.
         23    2    1    2    0    0  0.44164853332E+02 -0.19867758830E+02 -0.42456067192E+02  0.10815155386E+03  0.86884859723E+02 0.  0.
        -13    1    4    4    0    0  0.62967995561E+02 -0.40137158253E+01 -0.49356549482E+01  0.63288538216E+02  0.00000000000E+00 0.  1.
         13    1    4    4    0    0 -0.18803142230E+02 -0.15854043005E+02 -0.37520412244E+02  0.44863015639E+02  0.00000000000E+00 0. -1.
        -13    1    3    3    0    0 -0.32243613506E+02  0.39092009655E+02 -0.96148341973E+02  0.10868458720E+03  0.00000000000E+00 0.  1.
         13    1    3    3    0    0  0.10885166050E+02 -0.40031055656E+02 -0.57290433684E+02  0.70733061920E+02  0.00000000000E+00 0. -1.
         21    1    1    2  502  501 -0.22806405876E+02  0.20806804831E+02  0.14052327986E+02  0.33919363174E+02  0.00000000000E+00 0. -1.
<scales pt_clust_5="13000.00000" pt_clust_6="13000.00000" pt_clust_7="13000.00000" pt_clust_8="13000.00000" pt_clust_9="30.87159"></scales>
<clustering>
<clus scale="   30.872">  1  9  2 -1</clus>
<clus scale="   86.885">  5  6 -1 -1</clus>
<clus scale="   90.500">  7  8 -1 -1</clus>
<clus scale="   91.365">  1  5  2 -1</clus>
<clus scale="   30.872">  1  5  2 -1</clus>
</clustering>
</event>
<event>
 9    1  0.2075077E-005  0.3054721E+03  0.7546771E-02  0.1083187E+00
         -1   -1    0    0    0  501 -0.00000000000E+00  0.00000000000E+00  0.87853038768E+02  0.87853038768E+02  0.00000000000E+00 0.  1.
          1   -1    0    0  502    0  0.00000000000E+00 -0.00000000000E+00 -0.16416321497E+04  0.16416321497E+04  0.00000000000E+00 0. -1.
         23    2    1    2    0    0  0.30205930147E+03  0.75526167539E+02 -0.66014831204E+03  0.73876256659E+03  0.11415039344E+03 0.  0.
         23    2    1    2    0    0 -0.26891857654E+03  0.52801792545E+02 -0.67214095949E+03  0.73260613277E+03  0.99161717663E+02 0.  0.
        -11    1    4    4    0    0 -0.18126658255E+03  0.72738449378E+02 -0.52529772546E+03  0.56043390006E+03  0.00000000000E+00 0.  1.
         11    1    4    4    0    0 -0.87651993989E+02 -0.19936656833E+02 -0.14684323403E+03  0.17217223271E+03  0.00000000000E+00 0. -1.
        -11    1    3    3    0    0  0.47530278985E+02  0.57675847870E+02 -0.18307787813E+03  0.19774513978E+03  0.00000000000E+00 0.  1.
         11    1    3    3    0    0  0.25452902248E+03  0.17850319669E+02 -0.47707043391E+03  0.54101742681E+03  0.00000000000E+00 0. -1.
         21    1    1    2  502  501 -0.33140724929E+02 -0.12832796008E+03 -0.22148983940E+03  0.25811648910E+03  0.00000000000E+00 0.  1.
<scales pt_clust_5="13000.00000" pt_clust_6="13000.00000" pt_clust_7="13000.00000" pt_clust_8="13000.00000" pt_clust_9="132.53819"></scales>
<clustering>
<clus scale="   99.162">  5  6 -1 -1</clus>
<clus scale="  114.150">  7  8 -1 -1</clus>
<clus scale="  132.538">  1  9  2 -1</clus>
<clus scale="  300.193">  2  5  1 -1</clus>
<clus scale="  300.193">  2  5  1 -1</clus>
</clustering>
</event>
<event>
 9    1  0.2075077E-005  0.9390379E+02  0.7546771E-02  0.1293743E+00
          1   -1    0    0  502    0  0.00000000000E+00  0.00000000000E+00  0.20714562772E+03  0.20714562772E+03  0.00000000000E+00 0. -1.
         -1   -1    0    0    0  501 -0.00000000000E+00 -0.00000000000E+00 -0.84017976114E+02  0.84017976114E+02  0.00000000000E+00 0.  1.
         23    2    1    2    0    0 -0.86437983289E+00  0.18602365712E+02 -0.23966588225E+02  0.96713908105E+02  0.91828032252E+02 0.  0.
         23    2    1    2    0    0 -0.27630107959E+02 -0.17106954332E+02  0.12383418550E+03  0.15763662445E+03  0.91969174817E+02 0.  0.
        -11    1    4    4    0    0  0.15922714121E+02  0.27459035521E+02  0.63037107877E+02  0.70577676543E+02  0.00000000000E+00 0.  1.
         11    1    4    4    0    0 -0.43552822081E+02 -0.44565989854E+02  0.60797077628E+02  0.87058947908E+02  0.00000000000E+00 0. -1.
        -13    1    3    3    0    0  0.10603136824E+02 -0.31455596527E+02  0.10557720785E+02  0.34833124057E+02  0.00000000000E+00 0. -1.
         13    1    3    3    0    0 -0.11467516657E+02  0.50057962239E+02 -0.34524309010E+02  0.61880784048E+02  0.00000000000E+00 0.  1.
         21    1    1    2  502  501  0.28494487792E+02 -0.14954113794E+01  0.23260054328E+02  0.36813071280E+02  0.00000000000E+00 0. -1.
<scales pt_clust_5="13000.00000" pt_clust_6="13000.00000" pt_clust_7="13000.00000" pt_clust_8="13000.00000" pt_clust_9="28.53370"></scales>
<clustering>
<clus scale="   28.534">  1  9  2 -1</clus>
<clus scale="   91.828">  7  8 -1 -1</clus>
<clus scale="   91.969">  5  6 -1 -1</clus>
<clus scale="   93.766">  2  7  1 -1</clus>
<clus scale="   28.534">  1  5  2 -1</clus>
</clustering>
</event>
<event>
 9    1  0.2075077E-005  0.1005663E+03  0.7546771E-02  0.1279424E+00
          1   -1    0    0  502    0  0.00000000000E+00  0.00000000000E+00  0.97669722493E+02  0.97669722493E+02  0.00000000000E+00 0. -1.
         -1   -1    0    0    0  501 -0.00000000000E+00 -0.00000000000E+00 -0.26237359453E+03  0.26237359453E+03  0.00000000000E+00 0.  1.
         23    2    1    2    0    0  0.46531310886E+02  0.41774992829E+02 -0.15244395756E+03  0.18834698906E+03  0.91242069108E+02 0.  0.
         23    2    1    2    0    0 -0.20222571127E+02  0.15602038436E+02 -0.40611878973E+02  0.10250017637E+03  0.90579166785E+02 0.  0.
        -11    1    4    4    0    0 -0.46251934944E+02 -0.18715373046E+02 -0.29706900964E+02  0.58068981731E+02  0.00000000000E+00 0.  1.
         11    1    4    4    0    0  0.26029363817E+02  0.34317411482E+02 -0.10904978009E+02  0.44431194638E+02  0.00000000000E+00 0. -1.
        -13    1    3    3    0    0  0.57338087208E+02  0.63691734952E+02 -0.11096665124E+03  0.14020660125E+03  0.00000000000E+00 0.  1.
         13    1    3    3    0    0 -0.10806776322E+02 -0.21916742124E+02 -0.41477306318E+02  0.48140387817E+02  0.00000000000E+00 0. -1.
         21    1    1    2  502  501 -0.26308739759E+02 -0.57377031264E+02  0.28351964492E+02  0.69196151591E+02  0.00000000000E+00 0. -1.
<scales pt_clust_5="13000.00000" pt_clust_6="13000.00000" pt_clust_7="13000.00000" pt_clust_8="13000.00000" pt_clust_9="63.12110"></scales>
<clustering>
<clus scale="   63.121">  1  9  2 -1</clus>
<clus scale="   90.579">  5  6 -1 -1</clus>
<clus scale="   91.242">  7  8 -1 -1</clus>
<clus scale="   99.965">  1  5  2 -1</clus>
<clus scale="   63.121">  1  5  2 -1</clus>
</clustering>
</event>
<event>
 9    1  0.2075077E-005  0.1124959E+03  0.7546771E-02  0.1256269E+00
          1   -1    0    0  502    0  0.00000000000E+00  0.00000000000E+00  0.46936065610E+02  0.46936065610E+02  0.00000000000E+00 0. -1.
         -1   -1    0    0    0  501 -0.00000000000E+00 -0.00000000000E+00 -0.44715362895E+03  0.44715362895E+03  0.00000000000E+00 0.  1.
         23    2    1    2    0    0  0.17559590079E+02 -0.64619754968E+02 -0.24825629571E+03  0.27279863528E+03  0.91125491043E+02 0.  0.
         23    2    1    2    0    0 -0.49998731207E+02  0.49318058152E+02 -0.14499530692E+03  0.18475389448E+03  0.90433503275E+02 0.  0.
        -13    1    3    3    0    0  0.44781156804E+02 -0.71712021516E+02 -0.19585896416E+03  0.21332768193E+03  0.00000000000E+00 0.  1.
         13    1    3    3    0    0 -0.27221566724E+02  0.70922665480E+01 -0.52397331548E+02  0.59470953356E+02  0.00000000000E+00 0. -1.
        -13    1    4    4    0    0 -0.72584567493E+01  0.32495243474E+02 -0.67740251432E+00  0.33302926552E+02  0.00000000000E+00 0. -1.
         13    1    4    4    0    0 -0.42740274458E+02  0.16822814678E+02 -0.14431790440E+03  0.15145096793E+03  0.00000000000E+00 0.  1.
         21    1    1    2  502  501  0.32439141128E+02  0.15301696816E+02 -0.69659607097E+01  0.36537164794E+02  0.00000000000E+00 0. -1.
<scales pt_clust_5="13000.00000" pt_clust_6="13000.00000" pt_clust_7="13000.00000" pt_clust_8="13000.00000" pt_clust_9="35.86697"></scales>
<clustering>
<clus scale="   35.867">  1  9  2 -1</clus>
<clus scale="   90.434">  7  8 -1 -1</clus>
<clus scale="   91.125">  5  6 -1 -1</clus>
<clus scale="  111.936">  1  7  2 -1</clus>
<clus scale="   35.867">  1  5  2 -1</clus>
</clustering>
</event>
<event>
 9    1  0.2075077E-005  0.3520695E+03  0.7546771E-02  0.1081909E+00
          1   -1    0    0  502    0  0.00000000000E+00  0.00000000000E+00  0.52998814699E+03  0.52998814699E+03  0.00000000000E+00 0. -1.
         -1   -1    0    0    0  501 -0.00000000000E+00 -0.00000000000E+00 -0.74721427169E+03  0.74721427169E+03  0.00000000000E+00 0.  1.
         23    2    1    2    0    0 -0.11914039879E+03 -0.33564651041E+03 -0.54818566540E+03  0.65981921804E+03  0.89447538635E+02 0.  0.
         23    2    1    2    0    0  0.17844705873E+03  0.32281273997E+02  0.18876259043E+03  0.27713664409E+03  0.91038291566E+02 0.  0.
        -13    1    3    3    0    0 -0.80705728577E+02 -0.27643474451E+03 -0.48991585792E+03  0.56828437462E+03  0.00000000000E+00 0.  1.
         13    1    3    3    0    0 -0.38434670209E+02 -0.59211765902E+02 -0.58269807474E+02  0.91534843412E+02  0.00000000000E+00 0. -1.
        -13    1    4    4    0    0  0.16235228072E+02  0.37236103376E+02  0.38421184870E+02  0.55913303175E+02  0.00000000000E+00 0. -1.
         13    1    4    4    0    0  0.16221183066E+03 -0.49548293791E+01  0.15034140556E+03  0.22122334092E+03  0.00000000000E+00 0.  1.
         21    1    1    2  502  501 -0.59306659944E+02  0.30336523641E+03  0.14219695027E+03  0.34024655655E+03  0.00000000000E+00 0. -1.
<scales pt_clust_5="13000.00000" pt_clust_6="13000.00000" pt_clust_7="13000.00000" pt_clust_8="13000.00000" pt_clust_9="340.51738"></scales>
<clustering>
<clus scale="   89.448">  5  6 -1 -1</clus>
<clus scale="   91.038">  7  8 -1 -1</clus>
<clus scale="  202.912">  1  7  2 -1</clus>
<clus scale="  340.517">  1  9  2 -1</clus>
<clus scale="  202.912">  1  5  2 -1</clus>
</clustering>
</event>
<event>
 9    1  0.2075077E-005  0.1048152E+03  0.7546771E-02  0.1271148E+00
         -4   -1    0    0    0  501 -0.00000000000E+00  0.00000000000E+00  0.40642838509E+02  0.40642838509E+02  0.00000000000E+00 0.  1.
          4   -1    0    0  502    0  0.00000000000E+00 -0.00000000000E+00 -0.60279790575E+03  0.60279790575E+03  0.00000000000E+00 0. -1.
         23    2    1    2    0    0  0.43532365991E+02  0.17680552040E+02 -0.62136337159E+02  0.11919024166E+03  0.90209314939E+02 0.  0.
         23    2    1    2    0    0 -0.44084683471E+02 -0.56931845685E+02 -0.33837016297E+03  0.35790379131E+03  0.91739098951E+02 0.  0.
        -11    1    3    3    0    0  0.35137831565E+02  0.53397695185E+02 -0.30873253837E+02  0.70986892174E+02  0.00000000000E+00 0.  1.
         11    1    3    3    0    0  0.83945344264E+01 -0.35717143144E+02 -0.31263083323E+02  0.48203349484E+02  0.00000000000E+00 0. -1.
        -13    1    4    4    0    0  0.23225426523E+02 -0.37845670388E+01 -0.31777294136E+02  0.39541621204E+02  0.00000000000E+00 0.  1.
         13    1    4    4    0    0 -0.67310109994E+02 -0.53147278646E+02 -0.30659286884E+03  0.31836217011E+03  0.00000000000E+00 0. -1.
         21    1    1    2  502  501  0.55231747947E+00  0.39251293645E+02 -0.16164856711E+03  0.16634671128E+03  0.00000000000E+00 0.  1.
<scales pt_clust_5="13000.00000" pt_clust_6="13000.00000" pt_clust_7="13000.00000" pt_clust_8="13000.00000" pt_clust_9="39.25518"></scales>
<clustering>
<clus scale="   39.255">  2  9  1 -1</clus>
<clus scale="   90.209">  5  6 -1 -1</clus>
<clus scale="   91.739">  7  8 -1 -1</clus>
<clus scale="  103.479">  1  5  2 -1</clus>
<clus scale="   39.255">  2  5  1 -1</clus>
</clustering>
</event>
<event>
 9    1  0.2075077E-005  0.2036769E+03  0.7546771E-02  0.1147419E+00
         -1   -1    0    0    0  501 -0.00000000000E+00  0.00000000000E+00  0.32821211414E+03  0.32821211414E+03  0.00000000000E+00 0.  1.
          1   -1    0    0  502    0  0.00000000000E+00 -0.00000000000E+00 -0.18242156144E+03  0.18242156144E+03  0.00000000000E+00 0. -1.
         23    2    1    2    0    0  0.18331326648E+03 -0.20817174452E+01  0.10525764809E+03  0.23007564565E+03  0.90815984415E+02 0.  0.
         23    2    1    2    0    0 -0.17205248265E+03  0.26455920718E+02  0.93808201022E+02  0.22089929843E+03  0.98460900581E+02 0.  0.
        -13    1    3    3    0    0  0.13860723795E+03 -0.26302743837E+02  0.11015951316E+03  0.17899418730E+03  0.00000000000E+00 0.  1.
         13    1    3    3    0    0  0.44706028524E+02  0.24221026392E+02 -0.49018650754E+01  0.51081458349E+02  0.00000000000E+00 0. -1.
        -13    1    4    4    0    0 -0.59626676376E+02 -0.35554758467E+01  0.85422135950E+02  0.10423494258E+03  0.00000000000E+00 0.  1.
         13    1    4    4    0    0 -0.11242580627E+03  0.30011396565E+02  0.83860650713E+01  0.11666435585E+03  0.00000000000E+00 0. -1.
         21    1    1    2  502  501 -0.11260783833E+02 -0.24374203273E+02 -0.53275296404E+02  0.59658731504E+02  0.00000000000E+00 0. -1.
<scales pt_clust_5="13000.00000" pt_clust_6="13000.00000" pt_clust_7="13000.00000" pt_clust_8="13000.00000" pt_clust_9="26.84971"></scales>
<clustering>
<clus scale="   26.850">  2  9  1 -1</clus>
<clus scale="   90.816">  5  6 -1 -1</clus>
<clus scale="   98.461">  7  8 -1 -1</clus>
<clus scale="  200.093">  1  5  2 -1</clus>
<clus scale="   26.850">  2  5  1 -1</clus>
</clustering>
</event>
<event>
 9    1  0.2075077E-005  0.9092356E+02  0.7546771E-02  0.1301664E+00
         -1   -1    0    0    0  501 -0.00000000000E+00  0.00000000000E+00  0.19705632059E+03  0.19705632059E+03  0.00000000000E+00 0.  1.
          1   -1    0    0  502    0  0.00000000000E+00 -0.00000000000E+00 -0.62274825910E+02  0.62274825910E+02  0.00000000000E+00 0. -1.
         23    2    1    2    0    0 -0.33890142655E+01  0.17544343856E+01  0.11104175427E+03  0.14246196353E+03  0.89166004764E+02 0.  0.
         23    2    1    2    0    0 -0.17840977487E+02  0.15607232382E+01  0.15820785557E+02  0.93969124757E+02  0.90879936274E+02 0.  0.
        -11    1    3    3    0    0 -0.29860315321E+02 -0.32712332146E+02  0.69021743040E+02  0.82010585401E+02  0.00000000000E+00 0. -1.
         11    1    3    3    0    0  0.26471301055E+02  0.34466766532E+02  0.42020011225E+02  0.60451378132E+02  0.00000000000E+00 0.  1.
        -13    1    4    4    0    0  0.31207505618E+02 -0.77399140307E+00  0.29546774703E+02  0.42982779865E+02  0.00000000000E+00 0.  1.
         13    1    4    4    0    0 -0.49048483105E+02  0.23347146412E+01 -0.13725989146E+02  0.50986344891E+02  0.00000000000E+00 0. -1.
         21    1    1    2  502  501  0.21229991752E+02 -0.33151576238E+01  0.79189548539E+01  0.22900058206E+02  0.00000000000E+00 0.  1.
<scales pt_clust_5="13000.00000" pt_clust_6="13000.00000" pt_clust_7="13000.00000" pt_clust_8="13000.00000" pt_clust_9="21.48727"></scales>
<clustering>
<clus scale="   21.487">  2  9  1 -1</clus>
<clus scale="   89.166">  5  6 -1 -1</clus>
<clus scale="   89.210">  1  5  2 -1</clus>
<clus scale="   90.880">  7  8 -1 -1</clus>
<clus scale="   21.487">  2  5  1 -1</clus>
</clustering>
</event>
<event>
 9    1  0.2075077E-005  0.9825367E+02  0.7546771E-02  0.1285861E+00
         -2   -1    0    0    0  501 -0.00000000000E+00  0.00000000000E+00  0.57174134688E+02  0.57174134688E+02  0.00000000000E+00 0.  1.
          2   -1    0    0  502    0  0.00000000000E+00 -0.00000000000E+00 -0.56862613623E+03  0.56862613623E+03  0.00000000000E+00 0. -1.
         23    2    1    2    0    0  0.50517020497E+01  0.26981685271E+02 -0.38568939471E+02  0.10897400927E+03  0.98154167366E+02 0.  0.
         23    2    1    2    0    0  0.12988685126E+02  0.40705509842E+02 -0.12800674860E+03  0.16490768649E+03  0.94779601714E+02 0.  0.
        -11    1    3    3    0    0  0.65784888487E+00 -0.28270989947E+02 -0.45028398404E+02  0.53171781055E+02  0.00000000000E+00 0.  1.
         11    1    3    3    0    0  0.43938531648E+01  0.55252675218E+02  0.64594589331E+01  0.55802228218E+02  0.00000000000E+00 0. -1.
        -13    1    4    4    0    0 -0.26263058886E+02 -0.18782840723E+02 -0.33350130276E+02  0.46419549299E+02  0.00000000000E+00 0.  1.
         13    1    4    4    0    0  0.39251744011E+02  0.59488350565E+02 -0.94656618328E+02  0.11848813719E+03  0.00000000000E+00 0. -1.
         21    1    1    2  502  501 -0.18040387175E+02 -0.67687195113E+02 -0.34487631346E+03  0.35191857516E+03  0.00000000000E+00 0. -1.
<scales pt_clust_5="13000.00000" pt_clust_6="13000.00000" pt_clust_7="13000.00000" pt_clust_8="13000.00000" pt_clust_9="70.05007"></scales>
<clustering>
<clus scale="   70.050">  2  9  1 -1</clus>
<clus scale="   94.780">  7  8 -1 -1</clus>
<clus scale="   94.883">  2  7  1 -1</clus>
<clus scale="   98.154">  5  6 -1 -1</clus>
<clus scale="   70.050">  2  5  1 -1</clus>
</clustering>
</event>
<event>
 9    1  0.2075077E-005  0.1283601E+03  0.7546771E-02  0.1230574E+00
         -2   -1    0    0    0  501 -0.00000000000E+00  0.00000000000E+00  0.16119104097E+03  0.16119104097E+03  0.00000000000E+00 0.  1.
          2   -1    0    0  502    0  0.00000000000E+00 -0.00000000000E+00 -0.43190165744E+03  0.43190165744E+03  0.00000000000E+00 0. -1.
         23    2    1    2    0    0  0.79410641245E+02  0.36565933411E+02  0.11425798328E+03  0.17163892056E+03  0.93605100715E+02 0.  0.
         23    2    1    2    0    0 -0.73727339665E+02 -0.57480690485E+02 -0.22605026245E+03  0.26106436140E+03  0.91192813570E+02 0.  0.
        -11    1    3    3    0    0  0.13673998287E+02  0.39483800681E+02  0.23892394232E+01  0.41852804093E+02  0.00000000000E+00 0. -1.
         11    1    3    3    0    0  0.65736642957E+02 -0.29178672699E+01  0.11186874385E+03  0.12978611647E+03  0.00000000000E+00 0.  1.
        -13    1    4    4    0    0 -0.87773642017E+02 -0.25353067011E+02 -0.18972455466E+03  0.21057634454E+03  0.00000000000E+00 0. -1.
         13    1    4    4    0    0  0.14046302352E+02 -0.32127623474E+02 -0.36325707792E+02  0.50488016860E+02  0.00000000000E+00 0.  1.
         21    1    1    2  502  501 -0.56833015799E+01  0.20914757074E+02 -0.15891833730E+03  0.16038941645E+03  0.00000000000E+00 0. -1.
<scales pt_clust_5="13000.00000" pt_clust_6="13000.00000" pt_clust_7="13000.00000" pt_clust_8="13000.00000" pt_clust_9="21.67319"></scales>
<clustering>
<clus scale="   21.673">  2  9  1 -1</clus>
<clus scale="   91.193">  7  8 -1 -1</clus>
<clus scale="   93.605">  5  6 -1 -1</clus>
<clus scale="  126.612">  2  7  1 -1</clus>
<clus scale="   21.673">  2  5  1 -1</clus>
</clustering>
</event>
<event>
 9    1  0.2075077E-005  0.1707514E+03  0.7546771E-02  0.1177234E+00
          1   -1    0    0  502    0  0.00000000000E+00  0.00000000000E+00  0.94595505492E+03  0.94595505492E+03  0.00000000000E+00 0. -1.
         -1   -1    0    0    0  501 -0.00000000000E+00 -0.00000000000E+00 -0.37032630388E+02  0.37032630388E+02  0.00000000000E+00 0.  1.
         23    2    1    2    0    0  0.13815870615E+03 -0.12533119309E+01  0.34246232853E+03  0.38011517975E+03  0.90098304852E+02 0.  0.
         23    2    1    2    0    0 -0.15377062145E+03  0.23507044605E+02  0.48995117615E+03  0.52167783004E+03  0.88868544328E+02 0.  0.
        -11    1    4    4    0    0 -0.56386414377E+02  0.96177295123E+01  0.32198383066E+03  0.32702525231E+03  0.00000000000E+00 0. -1.
         11    1    4    4    0    0 -0.97384207070E+02  0.13889315092E+02  0.16796734550E+03  0.19465257772E+03  0.00000000000E+00 0.  1.
        -13    1    3    3    0    0  0.13922065200E+03 -0.21855132703E+02  0.31977562817E+03  0.34945169786E+03  0.00000000000E+00 0. -1.
         13    1    3    3    0    0 -0.10619458485E+01  0.20601820772E+02  0.22686700363E+02  0.30663481887E+02  0.00000000000E+00 0.  1.
         21    1    1    2  502  501  0.15611915300E+02 -0.22253732674E+02  0.76508919848E+02  0.81194675524E+02  0.00000000000E+00 0. -1.
<scales pt_clust_5="13000.00000" pt_clust_6="13000.00000" pt_clust_7="13000.00000" pt_clust_8="13000.00000" pt_clust_9="27.18383"></scales>
<clustering>
<clus scale="   27.184">  1  9  2 -1</clus>
<clus scale="   88.869">  5  6 -1 -1</clus>
<clus scale="   90.098">  7  8 -1 -1</clus>
<clus scale="  170.106">  1  5  2 -1</clus>
<clus scale="   27.184">  1  5  2 -1</clus>
</clustering>
</event>
<event>
 9    1  0.2075077E-005  0.1215114E+03  0.7546771E-02  0.1242134E+00
         -2   -1    0    0    0  501 -0.00000000000E+00  0.00000000000E+00  0.14288165382E+02  0.14288165382E+02  0.00000000000E+00 0.  1.
          2   -1    0    0  502    0  0.00000000000E+00 -0.00000000000E+00 -0.12213498517E+04  0.12213498517E+04  0.00000000000E+00 0. -1.
         23    2    1    2    0    0  0.93736251455E+01 -0.66096346503E+02 -0.40792359057E+03  0.42282016577E+03  0.88986768492E+02 0.  0.
         23    2    1    2    0    0 -0.22616127527E+02  0.82424998944E+02 -0.70857862963E+03  0.71985008452E+03  0.93782195187E+02 0.  0.
        -13    1    4    4    0    0 -0.24199768962E+02 -0.15525308387E+02 -0.14556777944E+03  0.14838006075E+03  0.00000000000E+00 0.  1.
         13    1    4    4    0    0  0.15836414348E+01  0.97950307331E+02 -0.56301085020E+03  0.57147002377E+03  0.00000000000E+00 0. -1.
        -13    1    3    3    0    0 -0.30641520663E+02 -0.59730446576E+02 -0.19942189499E+03  0.21041796796E+03  0.00000000000E+00 0.  1.
         13    1    3    3    0    0  0.40015145809E+02 -0.63658999272E+01 -0.20850169558E+03  0.21240219781E+03  0.00000000000E+00 0. -1.
         21    1    1    2  502  501  0.13242502382E+02 -0.16328652440E+02 -0.90559466132E+02  0.92967766812E+02  0.00000000000E+00 0. -1.
<scales pt_clust_5="13000.00000" pt_clust_6="13000.00000" pt_clust_7="13000.00000" pt_clust_8="13000.00000" pt_clust_9="21.02353"></scales>
<clustering>
<clus scale="   21.024">  1  9  2 -1</clus>
<clus scale="   88.987">  7  8 -1 -1</clus>
<clus scale="   93.782">  5  6 -1 -1</clus>
<clus scale="  117.850">  1  7  2 -1</clus>
<clus scale="  121.511">  2  5  1 -1</clus>
</clustering>
</event>
<event>
 9    1  0.2075077E-005  0.1169981E+03  0.7546771E-02  0.1248812E+00
         -2   -1    0    0    0  501 -0.00000000000E+00  0.00000000000E+00  0.24980281172E+03  0.24980281172E+03  0.00000000000E+00 0.  1.
          2   -1    0    0  502    0  0.00000000000E+00 -0.00000000000E+00 -0.15275990820E+03  0.15275990820E+03  0.00000000000E+00 0. -1.
         23    2    1    2    0    0 -0.65354191073E+02  0.18921913856E+02  0.12654644647E+03  0.16894005587E+03  0.88868049656E+02 0.  0.
         23    2    1    2    0    0  0.83893674510E+02 -0.96063977503E+01  0.62765842777E+02  0.13904924903E+03  0.90910456697E+02 0.  0.
        -11    1    4    4    0    0  0.37125003886E+01 -0.34761863313E+02  0.37568568273E+02  0.51318292277E+02  0.00000000000E+00 0.  1.
         11    1    4    4    0    0  0.80181174121E+02  0.25155465562E+02  0.25197274503E+02  0.87730956757E+02  0.00000000000E+00 0. -1.
        -11    1    3    3    0    0 -0.61877688616E+02 -0.25731123838E+02  0.71987776539E+02  0.98352321038E+02  0.00000000000E+00 0.  1.
         11    1    3    3    0    0 -0.34765024568E+01  0.44653037694E+02  0.54558669930E+02  0.70587734835E+02  0.00000000000E+00 0. -1.
         21    1    1    2  502  501 -0.18539483437E+02 -0.93155161057E+01 -0.92269385726E+02  0.94573415020E+02  0.00000000000E+00 0.  1.
<scales pt_clust_5="13000.00000" pt_clust_6="13000.00000" pt_clust_7="13000.00000" pt_clust_8="13000.00000" pt_clust_9="20.74828"></scales>
<clustering>
<clus scale="   20.748">  2  9  1 -1</clus>
<clus scale="   88.868">  7  8 -1 -1</clus>
<clus scale="   90.910">  5  6 -1 -1</clus>
<clus scale="  115.418">  1  7  2 -1</clus>
<clus scale="   20.748">  2  5  1 -1</clus>
</clustering>
</event>
<event>
 9    1  0.2075077E-005  0.3207444E+03  0.7546771E-02  0.1075366E+00
          1   -1    0    0  502    0  0.00000000000E+00  0.00000000000E+00  0.61503786147E+03  0.61503786147E+03  0.00000000000E+00 0. -1.
         -1   -1    0    0    0  501 -0.00000000000E+00 -0.00000000000E+00 -0.27425033676E+03  0.27425033676E+03  0.00000000000E+00 0.  1.
         23    2    1    2    0    0  0.30466658550E+03  0.69735515882E+02 -0.99506750153E+02  0.34018077753E+03  0.90203090746E+02 0.  0.
         23    2    1    2    0    0 -0.27834847983E+03 -0.70501115736E+02  0.41067434803E+03  0.50947701703E+03  0.92006125920E+02 0.  0.
        -11    1    4    4    0    0 -0.46334911246E+02 -0.14540678462E+02  0.21862386981E+02  0.53257105581E+02  0.00000000000E+00 0.  1.
         11    1    4    4    0    0 -0.23201356859E+03 -0.55960437273E+02  0.38881196105E+03  0.45621991145E+03  0.00000000000E+00 0. -1.
        -11    1    3    3    0    0  0.30084818358E+02 -0.19567430459E+02 -0.42730834690E+01  0.36141940634E+02  0.00000000000E+00 0. -1.
         11    1    3    3    0    0  0.27458176714E+03  0.89302946341E+02 -0.95233666684E+02  0.30403883690E+03  0.00000000000E+00 0.  1.
         21    1    1    2  502  501 -0.26318105665E+02  0.76559985373E+00  0.29619926839E+02  0.39630403668E+02  0.00000000000E+00 0.  1.
<scales pt_clust_5="13000.00000" pt_clust_6="13000.00000" pt_clust_7="13000.00000" pt_clust_8="13000.00000" pt_clust_9="26.32924"></scales>
<clustering>
<clus scale="   26.329">  1  9  2 -1</clus>
<clus scale="   90.203">  7  8 -1 -1</clus>
<clus scale="   92.006">  5  6 -1 -1</clus>
<clus scale="  320.232">  2  7  1 -1</clus>
<clus scale="   26.329">  1  5  2 -1</clus>
</clustering>
</event>
<event>
 9    1  0.2075077E-005  0.9773308E+02  0.7546771E-02  0.1285287E+00
          2   -1    0    0  502    0  0.00000000000E+00  0.00000000000E+00  0.34083398561E+03  0.34083398561E+03  0.00000000000E+00 0. -1.
         -2   -1    0    0    0  501 -0.00000000000E+00 -0.00000000000E+00 -0.76160159297E+02  0.76160159297E+02  0.00000000000E+00 0.  1.
         23    2    1    2    0    0  0.14221048685E+02 -0.18155213464E+02 -0.19009986262E+01  0.94001674778E+02  0.91109006491E+02 0.  0.
         23    2    1    2    0    0 -0.39261582752E+02  0.62308991005E+02  0.11855417629E+03  0.16651021285E+03  0.90811210908E+02 0.  0.
        -13    1    3    3    0    0  0.36072060713E+02 -0.33201480401E+02  0.26006035432E+02  0.55496357933E+02  0.00000000000E+00 0.  1.
         13    1    3    3    0    0 -0.21851012029E+02  0.15046266937E+02 -0.27907034058E+02  0.38505316845E+02  0.00000000000E+00 0. -1.
        -13    1    4    4    0    0 -0.11311960363E+02  0.53771000270E+02  0.12503457398E+03  0.13657571383E+03  0.00000000000E+00 0. -1.
         13    1    4    4    0    0 -0.27949622389E+02  0.85379907350E+01 -0.64803976881E+01  0.29934499021E+02  0.00000000000E+00 0.  1.
         21    1    1    2  502  501  0.25040534067E+02 -0.44153777541E+02  0.14802064865E+03  0.15648225728E+03  0.00000000000E+00 0.  1.
<scales pt_clust_5="13000.00000" pt_clust_6="13000.00000" pt_clust_7="13000.00000" pt_clust_8="13000.00000" pt_clust_9="50.76007"></scales>
<clustering>
<clus scale="   50.760">  1  9  2 -1</clus>
<clus scale="   90.811">  7  8 -1 -1</clus>
<clus scale="   91.109">  5  6 -1 -1</clus>
<clus scale="   97.456">  1  7  2 -1</clus>
<clus scale="   50.760">  1  5  2 -1</clus>
</clustering>
</event>
<event>
 9    1  0.2075077E-005  0.9814510E+02  0.7546771E-02  0.1284291E+00
         -1   -1    0    0    0  501 -0.00000000000E+00  0.00000000000E+00  0.45668673938E+03  0.45668673938E+03  0.00000000000E+00 0.  1.
          1   -1    0    0  502    0  0.00000000000E+00 -0.00000000000E+00 -0.10477764767E+03  0.10477764767E+03  0.00000000000E+00 0. -1.
         23    2    1    2    0    0 -0.33116352713E+02  0.32997510068E+02  0.35254605580E+03  0.36721609025E+03  0.91506322156E+02 0.  0.
         23    2    1    2    0    0  0.11562588006E+02  0.39325624672E+02  0.40776417929E+02  0.10816537862E+03  0.91415724445E+02 0.  0.
        -13    1    4    4    0    0  0.12571439962E+02  0.64075791732E+02  0.61435472869E+01  0.65585755787E+02  0.00000000000E+00 0. -1.
         13    1    4    4    0    0 -0.10088519561E+01 -0.24750167060E+02  0.34632870642E+02  0.42579622834E+02  0.00000000000E+00 0.  1.
        -13    1    3    3    0    0  0.29671320428E+02  0.22625117262E+02  0.98789726559E+02  0.10560157793E+03  0.00000000000E+00 0. -1.
         13    1    3    3    0    0 -0.62787673141E+02  0.10372392806E+02  0.25375632924E+03  0.26161451233E+03  0.00000000000E+00 0.  1.
         21    1    1    2  502  501  0.21553764707E+02 -0.72323134739E+02 -0.41413382013E+02  0.86082918174E+02  0.00000000000E+00 0. -1.
<scales pt_clust_5="13000.00000" pt_clust_6="13000.00000" pt_clust_7="13000.00000" pt_clust_8="13000.00000" pt_clust_9="75.46655"></scales>
<clustering>
<clus scale="   75.467">  2  9  1 -1</clus>
<clus scale="   91.416">  5  6 -1 -1</clus>
<clus scale="   91.506">  7  8 -1 -1</clus>
<clus scale="   98.061">  2  5  1 -1</clus>
<clus scale="   75.467">  2  5  1 -1</clus>
</clustering>
</event>
<event>
 9    1  0.2075077E-005  0.1066414E+03  0.7546771E-02  0.1267835E+00
         -1   -1    0    0    0  501 -0.00000000000E+00  0.00000000000E+00  0.28679608602E+03  0.28679608602E+03  0.00000000000E+00 0.  1.
          1   -1    0    0  502    0  0.00000000000E+00 -0.00000000000E+00 -0.10082912824E+03  0.10082912824E+03  0.00000000000E+00 0. -1.
         23    2    1    2    0    0  0.43161867739E+02  0.38033844443E+02  0.21631707320E+03  0.24231257835E+03  0.92805114729E+02 0.  0.
         23    2    1    2    0    0 -0.37806330489E+02 -0.82415227414E+01  0.51172321145E+01  0.98684351017E+02  0.90637595671E+02 0.  0.
        -13    1    3    3    0    0  0.33930777285E+02 -0.26895139482E+02  0.77212354756E+02  0.88523408779E+02  0.00000000000E+00 0. -1.
         13    1    3    3    0    0  0.92310904536E+01  0.64928983925E+02  0.13910471844E+03  0.15378916957E+03  0.00000000000E+00 0.  1.
        -13    1    4    4    0    0  0.14459879388E+02  0.25998362277E+02  0.18161046070E+02  0.34854361956E+02  0.00000000000E+00 0.  1.
         13    1    4    4    0    0 -0.52266209877E+02 -0.34239885019E+02 -0.13043813956E+02  0.63829989061E+02  0.00000000000E+00 0. -1.
         21    1    1    2  502  501 -0.53555372500E+01 -0.29792321702E+02 -0.35467347529E+02  0.46628284896E+02  0.00000000000E+00 0. -1.
<scales pt_clust_5="13000.00000" pt_clust_6="13000.00000" pt_clust_7="13000.00000" pt_clust_8="13000.00000" pt_clust_9="30.26986"></scales>
<clustering>
<clus scale="   30.270">  2  9  1 -1</clus>
<clus scale="   90.638">  7  8 -1 -1</clus>
<clus scale="   92.805">  5  6 -1 -1</clus>
<clus scale="  104.761">  2  7  1 -1</clus>
<clus scale="   30.270">  2  5  1 -1</clus>
</clustering>
</event>
<event>
 9    1  0.2075077E-005  0.2554526E+03  0.7546771E-02  0.1109913E+00
          1   -1    0    0  502    0  0.00000000000E+00  0.00000000000E+00  0.23659913223E+03  0.23659913223E+03  0.00000000000E+00 0. -1.
         -1   -1    0    0    0  501 -0.00000000000E+00 -0.00000000000E+00 -0.33942277713E+03  0.33942277713E+03  0.00000000000E+00 0.  1.
         23    2    1    2    0    0  0.66977445269E+02  0.21787693100E+03 -0.86043227733E+02  0.26016505150E+03  0.91247365694E+02 0.  0.
         23    2    1    2    0    0 -0.97354023007E+02 -0.23370869530E+03 -0.43192603644E+02  0.27260197570E+03  0.91371090025E+02 0.  0.
        -11    1    4    4    0    0 -0.58102725282E+02 -0.13507737109E+03 -0.70383287043E+02  0.16302033603E+03  0.00000000000E+00 0.  1.
         11    1    4    4    0    0 -0.39251297725E+02 -0.98631324211E+02  0.27190683398E+02  0.10958163967E+03  0.00000000000E+00 0. -1.
        -13    1    3    3    0    0  0.26931231823E+02  0.19217488414E+02  0.11799878376E+02  0.35126062093E+02  0.00000000000E+00 0.  1.
         13    1    3    3    0    0  0.40046213446E+02  0.19865944259E+03 -0.97843106109E+02  0.22503898941E+03  0.00000000000E+00 0. -1.
         21    1    1    2  502  501  0.30376577738E+02  0.15831764293E+02  0.26412186479E+02  0.43254882156E+02  0.00000000000E+00 0.  1.
<scales pt_clust_5="13000.00000" pt_clust_6="13000.00000" pt_clust_7="13000.00000" pt_clust_8="13000.00000" pt_clust_9="34.25465"></scales>
<clustering>
<clus scale="   34.255">  1  9  2 -1</clus>
<clus scale="   91.247">  7  8 -1 -1</clus>
<clus scale="   91.371">  5  6 -1 -1</clus>
<clus scale="  255.408">  2  7  1 -1</clus>
<clus scale="   34.255">  1  5  2 -1</clus>
</clustering>
</event>
<event>
 9    1  0.2075077E-005  0.1047497E+03  0.7546771E-02  0.1273574E+00
          1   -1    0    0  502    0  0.00000000000E+00  0.00000000000E+00  0.10949852089E+03  0.10949852089E+03  0.00000000000E+00 0. -1.
         -1   -1    0    0    0  501 -0.00000000000E+00 -0.00000000000E+00 -0.26216402143E+03  0.26216402143E+03  0.00000000000E+00 0.  1.
         23    2    1    2    0    0 -0.30875846114E+02 -0.21507638292E+02 -0.21148940676E+03  0.23607102238E+03  0.97907415758E+02 0.  0.
         23    2    1    2    0    0  0.39444595994E+02  0.25304726337E+01  0.56331291436E+02  0.11462083994E+03  0.91664841178E+02 0.  0.
        -11    1    4    4    0    0  0.32425829788E+02 -0.41757089473E+02  0.42078474284E+02  0.67569867225E+02  0.00000000000E+00 0.  1.
         11    1    4    4    0    0  0.70187662064E+01  0.44287562107E+02  0.14252817153E+02  0.47050972713E+02  0.00000000000E+00 0. -1.
        -13    1    3    3    0    0  0.54806054995E+01 -0.52774538648E+02 -0.14246650929E+03  0.15202596895E+03  0.00000000000E+00 0.  1.
         13    1    3    3    0    0 -0.36356451613E+02  0.31266900356E+02 -0.69022897471E+02  0.84045053436E+02  0.00000000000E+00 0. -1.
         21    1    1    2  502  501 -0.85687498807E+01  0.18977165658E+02  0.24926147860E+01  0.20970679994E+02  0.00000000000E+00 0. -1.
<scales pt_clust_5="13000.00000" pt_clust_6="13000.00000" pt_clust_7="13000.00000" pt_clust_8="13000.00000" pt_clust_9="20.82201"></scales>
<clustering>
<clus scale="   20.822">  1  9  2 -1</clus>
<clus scale="   91.665">  5  6 -1 -1</clus>
<clus scale="   97.907">  7  8 -1 -1</clus>
<clus scale="   98.940">  1  5  2 -1</clus>
<clus scale="   20.822">  1  5  2 -1</clus>
</clustering>
</event>
<event>
 9    1  0.2075077E-005  0.9899450E+02  0.7546771E-02  0.1283180E+00
         -1   -1    0    0    0  501 -0.00000000000E+00  0.00000000000E+00  0.63496826158E+02  0.63496826158E+02  0.00000000000E+00 0.  1.
          1   -1    0    0  502    0  0.00000000000E+00 -0.00000000000E+00 -0.32635226920E+03  0.32635226920E+03  0.00000000000E+00 0. -1.
         23    2    1    2    0    0 -0.20062317547E+02 -0.17873417540E+02 -0.13357267349E+02  0.97289314686E+02  0.92546412795E+02 0.  0.
         23    2    1    2    0    0  0.59366033915E+02  0.26775587907E+02 -0.17211773699E+03  0.20531436216E+03  0.91039627810E+02 0.  0.
        -11    1    3    3    0    0  0.80058962666E+01 -0.51754633597E+02 -0.70969030087E+01  0.52848864757E+02  0.00000000000E+00 0.  1.
         11    1    3    3    0    0 -0.28068213813E+02  0.33881216058E+02 -0.62603643399E+01  0.44440449929E+02  0.00000000000E+00 0. -1.
        -13    1    4    4    0    0  0.41316724805E+02  0.51074178072E+02 -0.15954072209E+03  0.17253662052E+03  0.00000000000E+00 0. -1.
         13    1    4    4    0    0  0.18049309109E+02 -0.24298590165E+02 -0.12577014899E+02  0.32777741641E+02  0.00000000000E+00 0.  1.
         21    1    1    2  502  501 -0.39303716368E+02 -0.89021703673E+01 -0.77380438705E+02  0.87245418514E+02  0.00000000000E+00 0. -1.
<scales pt_clust_5="13000.00000" pt_clust_6="13000.00000" pt_clust_7="13000.00000" pt_clust_8="13000.00000" pt_clust_9="40.29926"></scales>
<clustering>
<clus scale="   40.299">  2  9  1 -1</clus>
<clus scale="   91.040">  7  8 -1 -1</clus>
<clus scale="   92.546">  5  6 -1 -1</clus>
<clus scale="   97.587">  2  7  1 -1</clus>
<clus scale="   40.299">  2  5  1 -1</clus>
</clustering>
</event>
<event>
 9    1  0.2075077E-005  0.2258041E+03  0.7546771E-02  0.1164697E+00
          2   -1    0    0  502    0  0.00000000000E+00  0.00000000000E+00  0.17927250181E+03  0.17927250181E+03  0.00000000000E+00 0. -1.
         -2   -1    0    0    0  501 -0.00000000000E+00 -0.00000000000E+00 -0.62583196086E+03  0.62583196086E+03  0.00000000000E+00 0.  1.
         23    2    1    2    0    0  0.18251162639E+03 -0.11325512269E+03 -0.47190551510E+03  0.52645458370E+03  0.91227172107E+02 0.  0.
         23    2    1    2    0    0 -0.33273240551E+02  0.14954205460E+02  0.19434296947E+02  0.99847991293E+02  0.90891103359E+02 0.  0.
        -11    1    3    3    0    0  0.21292923424E+02  0.15595031423E+02 -0.66334726899E+02  0.71392503709E+02  0.00000000000E+00 0.  1.
         11    1    3    3    0    0  0.16121870297E+03 -0.12885015412E+03 -0.40557078821E+03  0.45506207999E+03  0.00000000000E+00 0. -1.
        -11    1    4    4    0    0 -0.15155674558E+02  0.53358163642E+02  0.10435265309E+02  0.56441853802E+02  0.00000000000E+00 0.  1.
         11    1    4    4    0    0 -0.18117565993E+02 -0.38403958182E+02  0.89990316382E+01  0.43406137492E+02  0.00000000000E+00 0. -1.
         21    1    1    2  502  501 -0.14923838584E+03  0.98300917235E+02  0.59117591053E+01  0.17880188767E+03  0.00000000000E+00 0.  1.
<scales pt_clust_5="13000.00000" pt_clust_6="13000.00000" pt_clust_7="13000.00000" pt_clust_8="13000.00000" pt_clust_9="206.55531"></scales>
<clustering>
<clus scale="   90.891">  7  8 -1 -1</clus>
<clus scale="   91.227">  5  6 -1 -1</clus>
<clus scale="   97.938">  1  7  2 -1</clus>
<clus scale="  206.555">  1  9  2 -1</clus>
<clus scale="   97.938">  1  5  2 -1</clus>
</clustering>
</event>
<event>
 9    1  0.3637533E-005  0.2557679E+03  0.7546771E-02  0.1109907E+00
         -1   -1    0    0    0  501 -0.00000000000E+00  0.00000000000E+00  0.47873927890E+03  0.47873927890E+03  0.00000000000E+00 0.  1.
          1   -1    0    0  502    0  0.00000000000E+00 -0.00000000000E+00 -0.29007852651E+03  0.29007852651E+03  0.00000000000E+00 0. -1.
         23    2    1    2    0    0 -0.22981429218E+03 -0.50940336625E+02  0.35033411224E+03  0.43190274053E+03  0.91632201204E+02 0.  0.
         23    2    1    2    0    0  0.25228875047E+03  0.54518905390E+02 -0.15169669090E+03  0.31206669766E+03  0.88044381431E+02 0.  0.
        -11    1    3    3    0    0 -0.20861156616E+03 -0.60958548392E+02  0.34516532288E+03  0.40788948292E+03  0.00000000000E+00 0.  1.
         11    1    3    3    0    0 -0.21202726023E+02  0.10018211767E+02  0.51687893559E+01  0.24013257614E+02  0.00000000000E+00 0. -1.
        -11    1    4    4    0    0  0.24323867990E+03  0.32162212734E+02 -0.12262482401E+03  0.27429238194E+03  0.00000000000E+00 0. -1.
         11    1    4    4    0    0  0.90500705705E+01  0.22356692656E+02 -0.29071866889E+02  0.37774315722E+02  0.00000000000E+00 0.  1.
         21    1    1    2  502  501 -0.22474458289E+02 -0.35785687652E+01 -0.99766689609E+01  0.24848367217E+02  0.00000000000E+00 0. -1.
<scales pt_clust_5="13000.00000" pt_clust_6="13000.00000" pt_clust_7="13000.00000" pt_clust_8="13000.00000" pt_clust_9="22.75758"></scales>
<clustering>
<clus scale="   22.758">  2  9  1 -1</clus>
<clus scale="   88.044">  7  8 -1 -1</clus>
<clus scale="   91.632">  5  6 -1 -1</clus>
<clus scale="  254.505">  2  7  1 -1</clus>
<clus scale="   22.758">  2  5  1 -1</clus>
</clustering>
</event>
<event>
 9    1  0.2075077E-005  0.1145614E+03  0.7546771E-02  0.1253816E+00
          2   -1    0    0  502    0  0.00000000000E+00  0.00000000000E+00  0.19557869457E+03  0.19557869457E+03  0.00000000000E+00 0. -1.
         -2   -1    0    0    0  501 -0.00000000000E+00 -0.00000000000E+00 -0.10344618972E+03  0.10344618972E+03  0.00000000000E+00 0.  1.
         23    2    1    2    0    0 -0.57608718723E+02 -0.10670400066E+02 -0.20425278273E+02  0.11284010795E+03  0.94250071937E+02 0.  0.
         23    2    1    2    0    0  0.79635973382E+02  0.11123794541E+02  0.73800559733E+02  0.14160307742E+03  0.90217968582E+02 0.  0.
        -11    1    4    4    0    0  0.72914512757E+02 -0.30027928006E+02  0.52947789765E+02  0.94982477710E+02  0.00000000000E+00 0.  1.
         11    1    4    4    0    0  0.67214606247E+01  0.41151722547E+02  0.20852769968E+02  0.46620599705E+02  0.00000000000E+00 0. -1.
        -11    1    3    3    0    0 -0.52819607124E+02  0.17416071658E+02 -0.47794980429E+02  0.73332057130E+02  0.00000000000E+00 0.  1.
         11    1    3    3    0    0 -0.47891115988E+01 -0.28086471723E+02  0.27369702156E+02  0.39508050824E+02  0.00000000000E+00 0. -1.
         21    1    1    2  502  501 -0.22027254659E+02 -0.45339447571E+00  0.38757223387E+02  0.44581698925E+02  0.00000000000E+00 0. -1.
<scales pt_clust_5="13000.00000" pt_clust_6="13000.00000" pt_clust_7="13000.00000" pt_clust_8="13000.00000" pt_clust_9="22.03192"></scales>
<clustering>
<clus scale="   22.032">  1  9  2 -1</clus>
<clus scale="   90.218">  5  6 -1 -1</clus>
<clus scale="   94.250">  7  8 -1 -1</clus>
<clus scale="  111.268">  1  5  2 -1</clus>
<clus scale="   22.032">  1  5  2 -1</clus>
</clustering>
</event>
<event>
 9    1  0.2075077E-005  0.1024588E+03  0.7546771E-02  0.1277870E+00
         -3   -1    0    0    0  501 -0.00000000000E+00  0.00000000000E+00  0.14939058036E+03  0.14939058036E+03  0.00000000000E+00 0.  1.
          3   -1    0    0  502    0  0.00000000000E+00 -0.00000000000E+00 -0.30233554478E+03  0.30233554478E+03  0.00000000000E+00 0. -1.
         23    2    1    2    0    0 -0.39739208694E+02  0.10395453125E+02  0.91747005385E+02  0.13588312485E+03  0.91429975767E+02 0.  0.
         23    2    1    2    0    0  0.11746266445E+02  0.21093381286E+02 -0.41081063728E+02  0.10791860879E+03  0.96829059778E+02 0.  0.
        -11    1    4    4    0    0 -0.41934808299E+02  0.11374259504E+02 -0.28406585208E+02  0.51911809924E+02  0.00000000000E+00 0.  1.
         11    1    4    4    0    0  0.53681074744E+02  0.97191217818E+01 -0.12674478519E+02  0.56006798870E+02  0.00000000000E+00 0. -1.
        -11    1    3    3    0    0  0.22311640779E+02  0.21161827565E+02  0.54878786954E+02  0.62907181765E+02  0.00000000000E+00 0.  1.
         11    1    3    3    0    0 -0.62050849472E+02 -0.10766374440E+02  0.36868218431E+02  0.72975943085E+02  0.00000000000E+00 0. -1.
         21    1    1    2  502  501  0.27992942248E+02 -0.31488834411E+02 -0.20361090608E+03  0.20792439150E+03  0.00000000000E+00 0. -1.
<scales pt_clust_5="13000.00000" pt_clust_6="13000.00000" pt_clust_7="13000.00000" pt_clust_8="13000.00000" pt_clust_9="42.13255"></scales>
<clustering>
<clus scale="   42.133">  2  9  1 -1</clus>
<clus scale="   91.430">  7  8 -1 -1</clus>
<clus scale="   96.829">  5  6 -1 -1</clus>
<clus scale="   97.372">  1  7  2 -1</clus>
<clus scale="   42.133">  2  5  1 -1</clus>
</clustering>
</event>
<event>
 9    1  0.2075077E-005  0.1050785E+03  0.7546771E-02  0.1270389E+00
         -2   -1    0    0    0  501 -0.00000000000E+00  0.00000000000E+00  0.12328052276E+03  0.12328052276E+03  0.00000000000E+00 0.  1.
          2   -1    0    0  502    0  0.00000000000E+00 -0.00000000000E+00 -0.22273336898E+03  0.22273336898E+03  0.00000000000E+00 0. -1.
         23    2    1    2    0    0 -0.50165102369E+02  0.16752332427E+02  0.75783637151E+02  0.13093543311E+03  0.92756400570E+02 0.  0.
         23    2    1    2    0    0  0.25936160051E+02 -0.96372422633E+01 -0.15691405136E+03  0.18387945755E+03  0.91782757400E+02 0.  0.
        -13    1    3    3    0    0 -0.33124094307E+02  0.50395307994E+02  0.19876737940E+02  0.63497853527E+02  0.00000000000E+00 0.  1.
         13    1    3    3    0    0 -0.17041008063E+02 -0.33642975567E+02  0.55906899212E+02  0.67437579585E+02  0.00000000000E+00 0. -1.
        -13    1    4    4    0    0  0.16545986599E+02  0.31839272819E+02 -0.21240764317E+02  0.41697470366E+02  0.00000000000E+00 0.  1.
         13    1    4    4    0    0  0.93901734520E+01 -0.41476515082E+02 -0.13567328705E+03  0.14218198718E+03  0.00000000000E+00 0. -1.
         21    1    1    2  502  501  0.24228942318E+02 -0.71150901635E+01 -0.18322432011E+02  0.31199001085E+02  0.00000000000E+00 0. -1.
<scales pt_clust_5="13000.00000" pt_clust_6="13000.00000" pt_clust_7="13000.00000" pt_clust_8="13000.00000" pt_clust_9="25.25205"></scales>
<clustering>
<clus scale="   25.252">  2  9  1 -1</clus>
<clus scale="   91.783">  7  8 -1 -1</clus>
<clus scale="   92.756">  5  6 -1 -1</clus>
<clus scale="  104.220">  2  7  1 -1</clus>
<clus scale="   25.252">  2  5  1 -1</clus>
</clustering>
</event>
<event>
 9    1  0.2075077E-005  0.9085767E+02  0.7546771E-02  0.1309097E+00
         -2   -1    0    0    0  501 -0.00000000000E+00  0.00000000000E+00  0.39281148533E+02  0.39281148533E+02  0.00000000000E+00 0.  1.
          2   -1    0    0  502    0  0.00000000000E+00 -0.00000000000E+00 -0.51372896923E+03  0.51372896923E+03  0.00000000000E+00 0. -1.
         23    2    1    2    0    0  0.14113702947E+02  0.68314246017E+01 -0.28314368061E+02  0.83141900844E+02  0.76583335421E+02 0.  0.
         23    2    1    2    0    0 -0.20816039211E+02  0.36454903249E+02 -0.35839159271E+03  0.37180057968E+03  0.89603961219E+02 0.  0.
        -13    1    4    4    0    0  0.32505237087E+02  0.28456132287E+02 -0.12475873843E+03  0.13202683332E+03  0.00000000000E+00 0. -1.
         13    1    4    4    0    0 -0.53321276298E+02  0.79987709614E+01 -0.23363285428E+03  0.23977374636E+03  0.00000000000E+00 0.  1.
        -13    1    3    3    0    0  0.42129477043E+01  0.26599403480E+02  0.17606803634E+02  0.32175716435E+02  0.00000000000E+00 0.  1.
         13    1    3    3    0    0  0.99007552424E+01 -0.19767978879E+02 -0.45921171696E+02  0.50966184409E+02  0.00000000000E+00 0. -1.
         21    1    1    2  502  501  0.67023362647E+01 -0.43286327851E+02 -0.87741859926E+02  0.98067637238E+02  0.00000000000E+00 0. -1.
<scales pt_clust_5="13000.00000" pt_clust_6="13000.00000" pt_clust_7="13000.00000" pt_clust_8="13000.00000" pt_clust_9="43.80214"></scales>
<clustering>
<clus scale="   43.802">  2  9  1 -1</clus>
<clus scale="   76.583">  7  8 -1 -1</clus>
<clus scale="   78.046">  1  7  2 -1</clus>
<clus scale="   89.604">  5  6 -1 -1</clus>
<clus scale="   43.802">  2  5  1 -1</clus>
</clustering>
</event>
<event>
 9    1  0.2075077E-005  0.1189279E+03  0.7546771E-02  0.1244949E+00
         -2   -1    0    0    0  501 -0.00000000000E+00  0.00000000000E+00  0.39480870977E+03  0.39480870977E+03  0.00000000000E+00 0.  1.
          2   -1    0    0  502    0  0.00000000000E+00 -0.00000000000E+00 -0.33720182594E+03  0.33720182594E+03  0.00000000000E+00 0. -1.
         23    2    1    2    0    0  0.46380305881E+02  0.60902943811E+02  0.36624239211E+03  0.38500148136E+03  0.90732295971E+02 0.  0.
         23    2    1    2    0    0 -0.70663538089E+02 -0.52809247752E+02 -0.20992532010E+03  0.24503413325E+03  0.90503779896E+02 0.  0.
        -11    1    4    4    0    0 -0.42998009221E+02  0.20460495546E+02 -0.89553811786E+02  0.10142655412E+03  0.00000000000E+00 0. -1.
         11    1    4    4    0    0 -0.27665528867E+02 -0.73269743298E+02 -0.12037150832E+03  0.14360757914E+03  0.00000000000E+00 0.  1.
        -11    1    3    3    0    0  0.61315925950E+02  0.46824265577E+02  0.35114852168E+03  0.35952390588E+03  0.00000000000E+00 0.  1.
         11    1    3    3    0    0 -0.14935620069E+02  0.14078678234E+02  0.15093870428E+02  0.25477575476E+02  0.00000000000E+00 0. -1.
         21    1    1    2  502  501  0.24283232208E+02 -0.80936960590E+01 -0.98710188178E+02  0.10197492110E+03  0.00000000000E+00 0. -1.
<scales pt_clust_5="13000.00000" pt_clust_6="13000.00000" pt_clust_7="13000.00000" pt_clust_8="13000.00000" pt_clust_9="25.59655"></scales>
<clustering>
<clus scale="   25.597">  2  9  1 -1</clus>
<clus scale="   90.504">  5  6 -1 -1</clus>
<clus scale="   90.732">  7  8 -1 -1</clus>
<clus scale="  118.754">  2  5  1 -1</clus>
<clus scale="   25.597">  2  5  1 -1</clus>
</clustering>
</event>
<event>
 9    1  0.2075077E-005  0.1140681E+03  0.7546771E-02  0.1253766E+00
         -1   -1    0    0    0  501 -0.00000000000E+00  0.00000000000E+00  0.53163423829E+03  0.53163423829E+03  0.00000000000E+00 0.  1.
          1   -1    0    0  502    0  0.00000000000E+00 -0.00000000000E+00 -0.68969614567E+02  0.68969614567E+02  0.00000000000E+00 0. -1.
         23    2    1    2    0    0  0.22921813754E+02  0.70131059168E+02  0.43498188177E+03  0.45028102896E+03  0.89999958744E+02 0.  0.
         23    2    1    2    0    0  0.74671718486E+01 -0.57259799631E+02  0.42887911686E+02  0.11398610755E+03  0.88425202490E+02 0.  0.
        -11    1    3    3    0    0  0.57676031781E+02  0.40361420365E+02  0.24989696840E+03  0.25962292601E+03  0.00000000000E+00 0. -1.
         11    1    3    3    0    0 -0.34754218027E+02  0.29769638803E+02  0.18508491337E+03  0.19065810295E+03  0.00000000000E+00 0.  1.
        -13    1    4    4    0    0 -0.38066092026E+02 -0.87206440047E+01  0.16368834781E+02  0.42344016650E+02  0.00000000000E+00 0.  1.
         13    1    4    4    0    0  0.45533263874E+02 -0.48539155626E+02  0.26519076906E+02  0.71642090896E+02  0.00000000000E+00 0. -1.
         21    1    1    2  502  501 -0.30388985602E+02 -0.12871259537E+02 -0.15205169734E+02  0.36336716344E+02  0.00000000000E+00 0.  1.
<scales pt_clust_5="13000.00000" pt_clust_6="13000.00000" pt_clust_7="13000.00000" pt_clust_8="13000.00000" pt_clust_9="33.00242"></scales>
<clustering>
<clus scale="   33.002">  2  9  1 -1</clus>
<clus scale="   88.425">  7  8 -1 -1</clus>
<clus scale="   90.000">  5  6 -1 -1</clus>
<clus scale="  112.830">  2  7  1 -1</clus>
<clus scale="   33.002">  2  5  1 -1</clus>
</clustering>
</event>
<event>
 9    1  0.2075077E-005  0.1167984E+03  0.7546771E-02  0.1251039E+00
          1   -1    0    0  502    0  0.00000000000E+00  0.00000000000E+00  0.58278644036E+02  0.58278644036E+02  0.00000000000E+00 0. -1.
         -1   -1    0    0    0  501 -0.00000000000E+00 -0.00000000000E+00 -0.45685258498E+03  0.45685258498E+03  0.00000000000E+00 0.  1.
         23    2    1    2    0    0 -0.23227578431E+01 -0.69110726162E+02 -0.30540873182E+03  0.32481953841E+03  0.86322368960E+02 0.  0.
         23    2    1    2    0    0 -0.34978802121E+02  0.70313655336E+02 -0.91932705667E+02  0.15297039338E+03  0.93705881112E+02 0.  0.
        -11    1    3    3    0    0  0.14132876859E+02 -0.80594652924E+02 -0.28366879808E+03  0.29523418381E+03  0.00000000000E+00 0.  1.
         11    1    3    3    0    0 -0.16455634702E+02  0.11483926761E+02 -0.21739933746E+02  0.29585354596E+02  0.00000000000E+00 0. -1.
        -11    1    4    4    0    0  0.31384805257E+01  0.39968575859E+02 -0.96044207513E+02  0.10407606311E+03  0.00000000000E+00 0.  1.
         11    1    4    4    0    0 -0.38117282647E+02  0.30345079477E+02  0.41115018460E+01  0.48894330267E+02  0.00000000000E+00 0. -1.
         21    1    1    2  502  501  0.37301559965E+02 -0.12029291741E+01 -0.12325034602E+01  0.37341297235E+02  0.00000000000E+00 0.  1.
<scales pt_clust_5="13000.00000" pt_clust_6="13000.00000" pt_clust_7="13000.00000" pt_clust_8="13000.00000" pt_clust_9="37.32095"></scales>
<clustering>
<clus scale="   37.321">  1  9  2 -1</clus>
<clus scale="   86.322">  5  6 -1 -1</clus>
<clus scale="   93.706">  7  8 -1 -1</clus>
<clus scale="  110.962">  2  5  1 -1</clus>
<clus scale="   37.321">  1  5  2 -1</clus>
</clustering>
</event>
<event>
 9    1  0.2075077E-005  0.9143290E+02  0.7546771E-02  0.1302242E+00
         -2   -1    0    0    0  501 -0.00000000000E+00  0.00000000000E+00  0.36018172405E+03  0.36018172405E+03  0.00000000000E+00 0.  1.
          2   -1    0    0  502    0  0.00000000000E+00 -0.00000000000E+00 -0.70775321937E+02  0.70775321937E+02  0.00000000000E+00 0. -1.
         23    2    1    2    0    0 -0.13073762057E+02  0.67231879385E+01  0.30491276562E+03  0.31831479300E+03  0.90201930650E+02 0.  0.
         23    2    1    2    0    0  0.22798416557E+02  0.11718894374E+02 -0.52777793590E+01  0.89419349671E+02  0.85503595583E+02 0.  0.
        -11    1    3    3    0    0 -0.50402840630E+01  0.46938729840E+02  0.20391829190E+03  0.20931153479E+03  0.00000000000E+00 0.  1.
         11    1    3    3    0    0 -0.80334779940E+01 -0.40215541902E+02  0.10099447371E+03  0.10900325821E+03  0.00000000000E+00 0. -1.
        -13    1    4    4    0    0 -0.24877092579E+02  0.27644250102E+02 -0.11118408380E+02  0.38816147462E+02  0.00000000000E+00 0.  1.
         13    1    4    4    0    0  0.47675509136E+02 -0.15925355728E+02  0.58406290213E+01  0.50603202209E+02  0.00000000000E+00 0. -1.
         21    1    1    2  502  501 -0.97246544997E+01 -0.18442082313E+02 -0.10228584144E+02  0.23222903323E+02  0.00000000000E+00 0.  1.
<scales pt_clust_5="13000.00000" pt_clust_6="13000.00000" pt_clust_7="13000.00000" pt_clust_8="13000.00000" pt_clust_9="20.84896"></scales>
<clustering>
<clus scale="   20.849">  2  9  1 -1</clus>
<clus scale="   85.504">  7  8 -1 -1</clus>
<clus scale="   86.801">  2  7  1 -1</clus>
<clus scale="   90.202">  5  6 -1 -1</clus>
<clus scale="   20.849">  2  5  1 -1</clus>
</clustering>
</event>
<event>
 9    1  0.2075077E-005  0.9530489E+02  0.7546771E-02  0.1291428E+00
          1   -1    0    0  502    0  0.00000000000E+00  0.00000000000E+00  0.23440585925E+03  0.23440585925E+03  0.00000000000E+00 0. -1.
         -1   -1    0    0    0  501 -0.00000000000E+00 -0.00000000000E+00 -0.91417396288E+02  0.91417396288E+02  0.00000000000E+00 0.  1.
         23    2    1    2    0    0  0.10842884815E+02 -0.29180906605E+02 -0.23731765627E+02  0.98816897092E+02  0.90733064479E+02 0.  0.
         23    2    1    2    0    0 -0.53154220799E+01  0.59425258324E+01  0.45286652182E+02  0.10324574814E+03  0.92440447409E+02 0.  0.
        -11    1    3    3    0    0 -0.29710226730E+02  0.80900182764E+01 -0.30479788487E+02  0.43326244636E+02  0.00000000000E+00 0. -1.
         11    1    3    3    0    0  0.40553111545E+02 -0.37270924881E+02  0.67480228598E+01  0.55490652456E+02  0.00000000000E+00 0.  1.
        -13    1    4    4    0    0 -0.37302427028E+02  0.27097093291E+01  0.57717806830E+02  0.68776150024E+02  0.00000000000E+00 0. -1.
         13    1    4    4    0    0  0.31987004949E+02  0.32328165033E+01 -0.12431154648E+02  0.34469598112E+02  0.00000000000E+00 0.  1.
         21    1    1    2  502  501 -0.55274627347E+01  0.23238380772E+02  0.12143357641E+03  0.12376061031E+03  0.00000000000E+00 0. -1.
<scales pt_clust_5="13000.00000" pt_clust_6="13000.00000" pt_clust_7="13000.00000" pt_clust_8="13000.00000" pt_clust_9="23.88672"></scales>
<clustering>
<clus scale="   23.887">  1  9  2 -1</clus>
<clus scale="   90.733">  5  6 -1 -1</clus>
<clus scale="   92.440">  7  8 -1 -1</clus>
<clus scale="   93.650">  2  5  1 -1</clus>
<clus scale="   23.887">  1  5  2 -1</clus>
</clustering>
</event>
<event>
 9    1  0.2075077E-005  0.1838416E+03  0.7546771E-02  0.1164425E+00
          1   -1    0    0  502    0  0.00000000000E+00  0.00000000000E+00  0.18680257357E+04  0.18680257357E+04  0.00000000000E+00 0. -1.
         -1   -1    0    0    0  501 -0.00000000000E+00 -0.00000000000E+00 -0.35253197149E+02  0.35253197149E+02  0.00000000000E+00 0.  1.
         23    2    1    2    0    0  0.14399315829E+03  0.32807315919E+02  0.35462471853E+03  0.39488368465E+03  0.91455365043E+02 0.  0.
         23    2    1    2    0    0 -0.16470519728E+03 -0.10394102401E+03  0.87993747647E+03  0.90561451849E+03  0.88972777362E+02 0.  0.
        -11    1    3    3    0    0  0.12508274660E+03  0.61453708321E+02  0.28219563024E+03  0.31473262540E+03  0.00000000000E+00 0. -1.
         11    1    3    3    0    0  0.18910411685E+02 -0.28646392402E+02  0.72429088297E+02  0.80151059252E+02  0.00000000000E+00 0.  1.
        -13    1    4    4    0    0 -0.51573965381E+02 -0.73834798189E+02  0.50011565451E+03  0.50816052504E+03  0.00000000000E+00 0. -1.
         13    1    4    4    0    0 -0.11313123190E+03 -0.30106225823E+02  0.37982182197E+03  0.39745399345E+03  0.00000000000E+00 0.  1.
         21    1    1    2  502  501  0.20712038990E+02  0.71133708093E+02  0.59821034351E+03  0.60278072968E+03  0.00000000000E+00 0. -1.
<scales pt_clust_5="13000.00000" pt_clust_6="13000.00000" pt_clust_7="13000.00000" pt_clust_8="13000.00000" pt_clust_9="74.08774"></scales>
<clustering>
<clus scale="   74.088">  1  9  2 -1</clus>
<clus scale="   88.973">  7  8 -1 -1</clus>
<clus scale="   91.455">  5  6 -1 -1</clus>
<clus scale="  182.619">  1  7  2 -1</clus>
<clus scale="   74.088">  1  5  2 -1</clus>
</clustering>
</event>
<event>
 9    1  0.2075077E-005  0.9859936E+02  0.7546771E-02  0.1284918E+00
          1   -1    0    0  502    0  0.00000000000E+00  0.00000000000E+00  0.58248491027E+03  0.58248491027E+03  0.00000000000E+00 0. -1.
         -1   -1    0    0    0  501 -0.00000000000E+00 -0.00000000000E+00 -0.27423466997E+02  0.27423466997E+02  0.00000000000E+00 0.  1.
         23    2    1    2    0    0 -0.22666143903E+02 -0.42092093492E+02  0.13702309215E+03  0.17214863705E+03  0.92597662186E+02 0.  0.
         23    2    1    2    0    0  0.64625984062E+01  0.82255759369E+01  0.25356957885E+03  0.26906038351E+03  0.89367406709E+02 0.  0.
        -11    1    4    4    0    0  0.34073338151E+02  0.34961246653E+02  0.10833698045E+03  0.11882837403E+03  0.00000000000E+00 0.  1.
         11    1    4    4    0    0 -0.27610739745E+02 -0.26735670716E+02  0.14523259839E+03  0.15023200949E+03  0.00000000000E+00 0. -1.
        -11    1    3    3    0    0 -0.24455904913E+02  0.16556045144E+01 -0.36835377217E+01  0.24787108778E+02  0.00000000000E+00 0.  1.
         11    1    3    3    0    0  0.17897610098E+01 -0.43747698006E+02  0.14070662987E+03  0.14736152827E+03  0.00000000000E+00 0. -1.
         21    1    1    2  502  501  0.16203545497E+02  0.33866517555E+02  0.16446877228E+03  0.16869935670E+03  0.00000000000E+00 0. -1.
<scales pt_clust_5="13000.00000" pt_clust_6="13000.00000" pt_clust_7="13000.00000" pt_clust_8="13000.00000" pt_clust_9="37.54325"></scales>
<clustering>
<clus scale="   37.543">  1  9  2 -1</clus>
<clus scale="   89.367">  5  6 -1 -1</clus>
<clus scale="   92.598">  7  8 -1 -1</clus>
<clus scale="   95.572">  1  5  2 -1</clus>
<clus scale="   37.543">  1  5  2 -1</clus>
</clustering>
</event>
<event>
 9    1  0.2075077E-005  0.1107737E+03  0.7546771E-02  0.1259198E+00
         -4   -1    0    0    0  501 -0.00000000000E+00  0.00000000000E+00  0.21461821052E+03  0.21461821052E+03  0.00000000000E+00 0.  1.
          4   -1    0    0  502    0  0.00000000000E+00 -0.00000000000E+00 -0.91493276201E+02  0.91493276201E+02  0.00000000000E+00 0. -1.
         23    2    1    2    0    0  0.66481894778E+02  0.40447270116E+02  0.52059626039E+02  0.13062214286E+03  0.91083014599E+02 0.  0.
         23    2    1    2    0    0 -0.57733190220E+02  0.90632143571E+01  0.35029916829E+02  0.11363162534E+03  0.90938375266E+02 0.  0.
        -11    1    3    3    0    0 -0.22513201974E+02  0.14413652696E+02  0.15853197634E+02  0.31079278023E+02  0.00000000000E+00 0. -1.
         11    1    3    3    0    0  0.88995096752E+02  0.26033617420E+02  0.36206428405E+02  0.99542864836E+02  0.00000000000E+00 0.  1.
        -13    1    4    4    0    0 -0.27140417158E+02  0.22761699705E+02 -0.26042752389E+02  0.43965010735E+02  0.00000000000E+00 0. -1.
         13    1    4    4    0    0 -0.30592773062E+02 -0.13698485348E+02  0.61072669218E+02  0.69666614601E+02  0.00000000000E+00 0.  1.
         21    1    1    2  502  501 -0.87487045574E+01 -0.49510484473E+02  0.36035391449E+02  0.61857718525E+02  0.00000000000E+00 0.  1.
<scales pt_clust_5="13000.00000" pt_clust_6="13000.00000" pt_clust_7="13000.00000" pt_clust_8="13000.00000" pt_clust_9="50.27751"></scales>
<clustering>
<clus scale="   50.278">  1  9  2 -1</clus>
<clus scale="   90.938">  7  8 -1 -1</clus>
<clus scale="   91.083">  5  6 -1 -1</clus>
<clus scale="  110.655">  2  7  1 -1</clus>
<clus scale="  110.655">  2  5  1 -1</clus>
</clustering>
</event>
<event>
 9    1  0.2075077E-005  0.8166979E+02  0.7546771E-02  0.1326543E+00
          2   -1    0    0  502    0  0.00000000000E+00  0.00000000000E+00  0.47055203829E+03  0.47055203829E+03  0.00000000000E+00 0. -1.
         -2   -1    0    0    0  501 -0.00000000000E+00 -0.00000000000E+00 -0.22093199638E+02  0.22093199638E+02  0.00000000000E+00 0.  1.
         23    2    1    2    0    0 -0.15497975814E+02  0.13584726507E+02  0.17565676352E+03  0.19290113953E+03  0.77011810883E+02 0.  0.
         23    2    1    2    0    0 -0.22212254716E+02 -0.16865880675E+02  0.20881267836E+03  0.22539713908E+03  0.80145451972E+02 0.  0.
        -13    1    3    3    0    0  0.17987203561E+02  0.31531795079E+02  0.51117842126E+02  0.62696310709E+02  0.00000000000E+00 0. -1.
         13    1    3    3    0    0 -0.33485179375E+02 -0.17947068572E+02  0.12453892139E+03  0.13020482883E+03  0.00000000000E+00 0.  1.
        -13    1    4    4    0    0 -0.41771734915E+02  0.10425713281E+02  0.66822890216E+02  0.79491332811E+02  0.00000000000E+00 0.  1.
         13    1    4    4    0    0  0.19559480200E+02 -0.27291593956E+02  0.14198978814E+03  0.14590580627E+03  0.00000000000E+00 0. -1.
         21    1    1    2  502  501  0.37710230530E+02  0.32811541684E+01  0.63989396773E+02  0.74346959310E+02  0.00000000000E+00 0. -1.
<scales pt_clust_5="13000.00000" pt_clust_6="13000.00000" pt_clust_7="13000.00000" pt_clust_8="13000.00000" pt_clust_9="37.85271"></scales>
<clustering>
<clus scale="   37.853">  2  9  1 -1</clus>
<clus scale="   77.012">  5  6 -1 -1</clus>
<clus scale="   78.597">  2  5  1 -1</clus>
<clus scale="   80.145">  7  8 -1 -1</clus>
<clus scale="   81.670">  1  5  2 -1</clus>
</clustering>
</event>
<event>
 9    1  0.2075077E-005  0.1266353E+03  0.7546771E-02  0.1239071E+00
         -1   -1    0    0    0  501 -0.00000000000E+00  0.00000000000E+00  0.17830726207E+03  0.17830726207E+03  0.00000000000E+00 0.  1.
          1   -1    0    0  502    0  0.00000000000E+00 -0.00000000000E+00 -0.12959771475E+03  0.12959771475E+03  0.00000000000E+00 0. -1.
         23    2    1    2    0    0 -0.50081705711E+02 -0.18689455025E+02  0.86204559329E+02  0.15378502202E+03  0.11559037145E+03 0.  0.
         23    2    1    2    0    0  0.53590889898E+02 -0.17254838130E+02 -0.33036964946E+02  0.11773066011E+03  0.97976294879E+02 0.  0.
        -13    1    3    3    0    0 -0.55875191754E+02 -0.44244219090E+02  0.84939656639E+01  0.71775590761E+02  0.00000000000E+00 0. -1.
         13    1    3    3    0    0  0.57934860429E+01  0.25554764065E+02  0.77710593665E+02  0.82009431255E+02  0.00000000000E+00 0.  1.
        -13    1    4    4    0    0  0.20049349553E+02  0.30928473680E+02 -0.44636384911E+02  0.57887423155E+02  0.00000000000E+00 0.  1.
         13    1    4    4    0    0  0.33541540345E+02 -0.48183311810E+02  0.11599419965E+02  0.59843236955E+02  0.00000000000E+00 0. -1.
         21    1    1    2  502  501 -0.35091841866E+01  0.35944293155E+02 -0.44580470641E+01  0.36389294685E+02  0.00000000000E+00 0. -1.
<scales pt_clust_5="13000.00000" pt_clust_6="13000.00000" pt_clust_7="13000.00000" pt_clust_8="13000.00000" pt_clust_9="36.11518"></scales>
<clustering>
<clus scale="   36.115">  2  9  1 -1</clus>
<clus scale="   97.976">  7  8 -1 -1</clus>
<clus scale="  110.791">  2  7  1 -1</clus>
<clus scale="  115.590">  5  6 -1 -1</clus>
<clus scale="   36.115">  2  5  1 -1</clus>
</clustering>
</event>
<event>
 9    1  0.2075077E-005  0.1057012E+03  0.7546771E-02  0.1269067E+00
         -1   -1    0    0    0  501 -0.00000000000E+00  0.00000000000E+00  0.37710525537E+02  0.37710525537E+02  0.00000000000E+00 0.  1.
          1   -1    0    0  502    0  0.00000000000E+00 -0.00000000000E+00 -0.56780131564E+03  0.56780131564E+03  0.00000000000E+00 0. -1.
         23    2    1    2    0    0 -0.79132946201E+01 -0.24461243382E+02 -0.69192362815E+02  0.11719345951E+03  0.91026101865E+02 0.  0.
         23    2    1    2    0    0  0.47337951177E+02  0.40129756102E+02 -0.39244001701E+03  0.40778044170E+03  0.91784763112E+02 0.  0.
        -13    1    4    4    0    0  0.47276563598E+02 -0.16667416128E+02 -0.13150190514E+03  0.14073246704E+03  0.00000000000E+00 0.  1.
         13    1    4    4    0    0  0.61387579014E-01  0.56797172230E+02 -0.26093811187E+03  0.26704797466E+03  0.00000000000E+00 0. -1.
        -13    1    3    3    0    0 -0.20227293514E+02 -0.40848273512E+02 -0.58120099369E+00  0.45585772412E+02  0.00000000000E+00 0.  1.
         13    1    3    3    0    0  0.12313998894E+02  0.16387030130E+02 -0.68611161822E+02  0.71607687100E+02  0.00000000000E+00 0. -1.
         21    1    1    2  502  501 -0.39424656557E+02 -0.15668512720E+02 -0.68458410285E+02  0.80537939968E+02  0.00000000000E+00 0.  1.
<scales pt_clust_5="13000.00000" pt_clust_6="13000.00000" pt_clust_7="13000.00000" pt_clust_8="13000.00000" pt_clust_9="42.42412"></scales>
<clustering>
<clus scale="   42.424">  1  9  2 -1</clus>
<clus scale="   91.026">  7  8 -1 -1</clus>
<clus scale="   91.785">  5  6 -1 -1</clus>
<clus scale="  105.043">  1  7  2 -1</clus>
<clus scale="  105.701">  2  5  1 -1</clus>
</clustering>
</event>
<event>
 9    1  0.2075077E-005  0.1023798E+03  0.7546771E-02  0.1275374E+00
          1   -1    0    0  502    0  0.00000000000E+00  0.00000000000E+00  0.23497860661E+03  0.23497860661E+03  0.00000000000E+00 0. -1.
         -1   -1    0    0    0  501 -0.00000000000E+00 -0.00000000000E+00 -0.24743628617E+03  0.24743628617E+03  0.00000000000E+00 0.  1.
         23    2    1    2    0    0 -0.35410206947E+02  0.16367415329E+02 -0.16098138681E+03  0.18941581232E+03  0.91878006163E+02 0.  0.
         23    2    1    2    0    0  0.51294363327E+02 -0.41346788143E+02 -0.25972218545E+02  0.11601008756E+03  0.91886428160E+02 0.  0.
        -11    1    3    3    0    0 -0.23167348994E+02  0.54331103605E+02 -0.10801702095E+03  0.12311081062E+03  0.00000000000E+00 0. -1.
         11    1    3    3    0    0 -0.12242857953E+02 -0.37963688276E+02 -0.52964365864E+02  0.66305001695E+02  0.00000000000E+00 0.  1.
        -13    1    4    4    0    0  0.13265260191E+02 -0.61738990875E+02 -0.34598105846E+02  0.72004854353E+02  0.00000000000E+00 0.  1.
         13    1    4    4    0    0  0.38029103136E+02  0.20392202733E+02  0.86258873017E+01  0.44005233204E+02  0.00000000000E+00 0. -1.
         21    1    1    2  502  501 -0.15884156380E+02  0.24979372814E+02  0.17449592579E+03  0.17698899290E+03  0.00000000000E+00 0.  1.
<scales pt_clust_5="13000.00000" pt_clust_6="13000.00000" pt_clust_7="13000.00000" pt_clust_8="13000.00000" pt_clust_9="29.60195"></scales>
<clustering>
<clus scale="   29.602">  1  9  2 -1</clus>
<clus scale="   91.878">  5  6 -1 -1</clus>
<clus scale="   91.886">  7  8 -1 -1</clus>
<clus scale="  102.372">  2  5  1 -1</clus>
<clus scale="   29.602">  1  5  2 -1</clus>
</clustering>
</event>
<event>
 9    1  0.2075077E-005  0.9632150E+02  0.7546771E-02  0.1289230E+00
         -2   -1    0    0    0  501 -0.00000000000E+00  0.00000000000E+00  0.71969594230E+02  0.71969594230E+02  0.00000000000E+00 0.  1.
          2   -1    0    0  502    0  0.00000000000E+00 -0.00000000000E+00 -0.21512042713E+03  0.21512042713E+03  0.00000000000E+00 0. -1.
         23    2    1    2    0    0  0.17863932016E+02 -0.15067177403E+02  0.50199670156E+00  0.93216782067E+02  0.90238442785E+02 0.  0.
         23    2    1    2    0    0 -0.65546957187E+00  0.31879937979E+02 -0.13834104439E+03  0.16923556164E+03  0.92117700114E+02 0.  0.
        -11    1    4    4    0    0 -0.80828316365E+01  0.51126890314E+02 -0.31874800644E+02  0.60788929885E+02  0.00000000000E+00 0.  1.
         11    1    4    4    0    0  0.74273620646E+01 -0.19246952334E+02 -0.10646624375E+03  0.10844663175E+03  0.00000000000E+00 0. -1.
        -13    1    3    3    0    0  0.40323125897E+02 -0.97270458853E+01 -0.32671353568E+02  0.52801394373E+02  0.00000000000E+00 0.  1.
         13    1    3    3    0    0 -0.22459193880E+02 -0.53401315174E+01  0.33173350270E+02  0.40415387694E+02  0.00000000000E+00 0. -1.
         21    1    1    2  502  501 -0.17208462444E+02 -0.16812760577E+02 -0.53117852087E+01  0.24637677651E+02  0.00000000000E+00 0. -1.
<scales pt_clust_5="13000.00000" pt_clust_6="13000.00000" pt_clust_7="13000.00000" pt_clust_8="13000.00000" pt_clust_9="24.05826"></scales>
<clustering>
<clus scale="   24.058">  1  9  2 -1</clus>
<clus scale="   90.238">  7  8 -1 -1</clus>
<clus scale="   92.118">  5  6 -1 -1</clus>
<clus scale="   94.526">  1  7  2 -1</clus>
<clus scale="   96.322">  2  5  1 -1</clus>
</clustering>
</event>
<event>
 9    1  0.2075077E-005  0.2451896E+03  0.7546771E-02  0.1116548E+00
          3   -1    0    0  502    0  0.00000000000E+00  0.00000000000E+00  0.41060895305E+03  0.41060895305E+03  0.00000000000E+00 0. -1.
         -3   -1    0    0    0  501 -0.00000000000E+00 -0.00000000000E+00 -0.47107547949E+03  0.47107547949E+03  0.00000000000E+00 0.  1.
         23    2    1    2    0    0 -0.21101971759E+03  0.10874129038E+03 -0.36341668115E+03  0.44341637161E+03  0.90511905476E+02 0.  0.
         23    2    1    2    0    0  0.17157653200E+03 -0.64989482135E+02  0.10360880764E+03  0.23040522571E+03  0.93218259446E+02 0.  0.
        -11    1    3    3    0    0 -0.98068177842E+02  0.10522275094E+02 -0.19194900842E+03  0.21580664404E+03  0.00000000000E+00 0. -1.
         11    1    3    3    0    0 -0.11295153975E+03  0.98219015289E+02 -0.17146767273E+03  0.22760972758E+03  0.00000000000E+00 0.  1.
        -13    1    4    4    0    0  0.11819443700E+03 -0.55610858040E+02  0.22037962350E+02  0.13246948424E+03  0.00000000000E+00 0.  1.
         13    1    4    4    0    0  0.53382094994E+02 -0.93786240954E+01  0.81570845292E+02  0.97935741471E+02  0.00000000000E+00 0. -1.
         21    1    1    2  502  501  0.39443185594E+02 -0.43751808248E+02  0.19934134706E+03  0.20786283521E+03  0.00000000000E+00 0. -1.
<scales pt_clust_5="13000.00000" pt_clust_6="13000.00000" pt_clust_7="13000.00000" pt_clust_8="13000.00000" pt_clust_9="58.90658"></scales>
<clustering>
<clus scale="   58.907">  1  9  2 -1</clus>
<clus scale="   90.512">  5  6 -1 -1</clus>
<clus scale="   93.218">  7  8 -1 -1</clus>
<clus scale="  244.174">  2  5  1 -1</clus>
<clus scale="   58.907">  1  5  2 -1</clus>
</clustering>
</event>
<event>
 9    1  0.2075077E-005  0.1110866E+03  0.7546771E-02  0.1263121E+00
         -1   -1    0    0    0  501 -0.00000000000E+00  0.00000000000E+00  0.76376465344E+02  0.76376465344E+02  0.00000000000E+00 0.  1.
          1   -1    0    0  502    0  0.00000000000E+00 -0.00000000000E+00 -0.33950807647E+03  0.33950807647E+03  0.00000000000E+00 0. -1.
         23    2    1    2    0    0  0.56530411421E+02 -0.88838182609E+01  0.13113404578E+02  0.11402558128E+03  0.97751021300E+02 0.  0.
         23    2    1    2    0    0 -0.35929254492E+02  0.36614557456E+01 -0.17764903195E+03  0.20099841944E+03  0.86815139678E+02 0.  0.
        -11    1    4    4    0    0 -0.37764360977E+02 -0.35174620792E+02 -0.12746133675E+03  0.13751288403E+03  0.00000000000E+00 0. -1.
         11    1    4    4    0    0  0.18351064849E+01  0.38836076537E+02 -0.50187695195E+02  0.63485535404E+02  0.00000000000E+00 0.  1.
        -11    1    3    3    0    0  0.23602957363E+02 -0.13601005982E+02  0.54499622370E+02  0.60928612314E+02  0.00000000000E+00 0.  1.
         11    1    3    3    0    0  0.32927454058E+02  0.47171877216E+01 -0.41386217792E+02  0.53096968970E+02  0.00000000000E+00 0. -1.
         21    1    1    2  502  501 -0.20601156929E+02  0.52223625153E+01 -0.98595983754E+02  0.10086054109E+03  0.00000000000E+00 0.  1.
<scales pt_clust_5="13000.00000" pt_clust_6="13000.00000" pt_clust_7="13000.00000" pt_clust_8="13000.00000" pt_clust_9="21.25278"></scales>
<clustering>
<clus scale="   21.253">  2  9  1 -1</clus>
<clus scale="   86.815">  5  6 -1 -1</clus>
<clus scale="   97.751">  7  8 -1 -1</clus>
<clus scale="  101.596">  2  5  1 -1</clus>
<clus scale="   21.253">  2  5  1 -1</clus>
</clustering>
</event>
<event>
 9    1  0.2075077E-005  0.1363950E+03  0.7546771E-02  0.1218838E+00
          1   -1    0    0  502    0  0.00000000000E+00  0.00000000000E+00  0.66894451834E+03  0.66894451834E+03  0.00000000000E+00 0. -1.
         -1   -1    0    0    0  501 -0.00000000000E+00 -0.00000000000E+00 -0.33961139933E+02  0.33961139933E+02  0.00000000000E+00 0.  1.
         23    2    1    2    0    0  0.71579537288E+02 -0.63551902501E+02  0.23460436822E+03  0.27001211626E+03  0.93299833166E+02 0.  0.
         23    2    1    2    0    0 -0.63774513843E+02  0.83913301727E+02  0.30813598322E+03  0.33810809486E+03  0.90888221613E+02 0.  0.
        -11    1    4    4    0    0 -0.87316024826E+02  0.63012239455E+02  0.23639016670E+03  0.25975939141E+03  0.00000000000E+00 0. -1.
         11    1    4    4    0    0  0.23541510982E+02  0.20901062273E+02  0.71745816527E+02  0.78348703452E+02  0.00000000000E+00 0.  1.
        -13    1    3    3    0    0  0.56063934917E+02 -0.68374354979E+01  0.18387717325E+03  0.19235573858E+03  0.00000000000E+00 0. -1.
         13    1    3    3    0    0  0.15515602371E+02 -0.56714467003E+02  0.50727194967E+02  0.77656377675E+02  0.00000000000E+00 0.  1.
         21    1    1    2  502  501 -0.78050234445E+01 -0.20361399226E+02  0.92243026965E+02  0.94785447159E+02  0.00000000000E+00 0.  1.
<scales pt_clust_5="13000.00000" pt_clust_6="13000.00000" pt_clust_7="13000.00000" pt_clust_8="13000.00000" pt_clust_9="21.80608"></scales>
<clustering>
<clus scale="   21.806">  1  9  2 -1</clus>
<clus scale="   90.888">  5  6 -1 -1</clus>
<clus scale="   93.300">  7  8 -1 -1</clus>
<clus scale="  134.757">  1  5  2 -1</clus>
<clus scale="   21.806">  1  5  2 -1</clus>
</clustering>
</event>
<event>
 9    1  0.2075077E-005  0.9831600E+02  0.7546771E-02  0.1285670E+00
          2   -1    0    0  502    0  0.00000000000E+00  0.00000000000E+00  0.35602537803E+03  0.35602537803E+03  0.00000000000E+00 0. -1.
         -2   -1    0    0    0  501 -0.00000000000E+00 -0.00000000000E+00 -0.66225916963E+02  0.66225916963E+02  0.00000000000E+00 0.  1.
         23    2    1    2    0    0 -0.12239279058E+02 -0.33800769842E+02  0.47349497314E+01  0.97768744155E+02  0.90796561559E+02 0.  0.
         23    2    1    2    0    0  0.90711554961E+01  0.67510665154E+01  0.10165795710E+03  0.13906494759E+03  0.94217071942E+02 0.  0.
        -11    1    4    4    0    0  0.30448552655E+02 -0.13660388933E+02  0.18295083635E+00  0.33372953954E+02  0.00000000000E+00 0.  1.
         11    1    4    4    0    0 -0.21377397159E+02  0.20411455449E+02  0.10147500626E+03  0.10569199363E+03  0.00000000000E+00 0. -1.
        -13    1    3    3    0    0  0.84070221389E+00 -0.64289163376E+02  0.59608444111E+01  0.64570387748E+02  0.00000000000E+00 0.  1.
         13    1    3    3    0    0 -0.13079981272E+02  0.30488393534E+02 -0.12258946798E+01  0.33198356407E+02  0.00000000000E+00 0. -1.
         21    1    1    2  502  501  0.31681235624E+01  0.27049703326E+02  0.18340655424E+03  0.18541760325E+03  0.00000000000E+00 0. -1.
<scales pt_clust_5="13000.00000" pt_clust_6="13000.00000" pt_clust_7="13000.00000" pt_clust_8="13000.00000" pt_clust_9="27.23460"></scales>
<clustering>
<clus scale="   27.235">  1  9  2 -1</clus>
<clus scale="   90.797">  7  8 -1 -1</clus>
<clus scale="   94.217">  5  6 -1 -1</clus>
<clus scale="   95.043">  2  7  1 -1</clus>
<clus scale="   27.235">  1  5  2 -1</clus>
</clustering>
</event>
<event>
 9    1  0.2075077E-005  0.1321729E+03  0.7546771E-02  0.1224836E+00
         -1   -1    0    0    0  501 -0.00000000000E+00  0.00000000000E+00  0.66250424967E+03  0.66250424967E+03  0.00000000000E+00 0.  1.
          1   -1    0    0  502    0  0.00000000000E+00 -0.00000000000E+00 -0.14129769456E+03  0.14129769456E+03  0.00000000000E+00 0. -1.
         23    2    1    2    0    0  0.92154034074E+02 -0.96355589368E+00  0.43400966909E+03  0.45308075609E+03  0.91784989178E+02 0.  0.
         23    2    1    2    0    0 -0.95520521493E+02 -0.96849370466E+02  0.16034356530E+03  0.22853633436E+03  0.89525563973E+02 0.  0.
        -11    1    3    3    0    0  0.71236950325E+02  0.11660398785E+02  0.41726300598E+03  0.42346084134E+03  0.00000000000E+00 0. -1.
         11    1    3    3    0    0  0.20917083749E+02 -0.12623954679E+02  0.16746663113E+02  0.29619914748E+02  0.00000000000E+00 0.  1.
        -13    1    4    4    0    0 -0.26057075063E+02 -0.81908695126E+02  0.11744559597E+03  0.14553856366E+03  0.00000000000E+00 0. -1.
         13    1    4    4    0    0 -0.69463446431E+02 -0.14940675340E+02  0.42897969328E+02  0.82997770706E+02  0.00000000000E+00 0.  1.
         21    1    1    2  502  501  0.33664874191E+01  0.97812926360E+02 -0.73146679288E+02  0.12218485377E+03  0.00000000000E+00 0. -1.
<scales pt_clust_5="13000.00000" pt_clust_6="13000.00000" pt_clust_7="13000.00000" pt_clust_8="13000.00000" pt_clust_9="97.87084"></scales>
<clustering>
<clus scale="   89.526">  7  8 -1 -1</clus>
<clus scale="   91.785">  5  6 -1 -1</clus>
<clus scale="   97.871">  2  9  1 -1</clus>
<clus scale="  130.614">  2  7  1 -1</clus>
<clus scale="   97.871">  2  5  1 -1</clus>
</clustering>
</event>
<event>
 9    1  0.2075077E-005  0.1088253E+03  0.7546771E-02  0.1263401E+00
          2   -1    0    0  502    0  0.00000000000E+00  0.00000000000E+00  0.65679444657E+03  0.65679444657E+03  0.00000000000E+00 0. -1.
         -2   -1    0    0    0  501 -0.00000000000E+00 -0.00000000000E+00 -0.32770569675E+02  0.32770569675E+02  0.00000000000E+00 0.  1.
         23    2    1    2    0    0 -0.64956035556E+01 -0.39897142727E+02  0.18038161139E+03  0.20676813143E+03  0.92636707553E+02 0.  0.
         23    2    1    2    0    0  0.64299795816E+02  0.62018015643E+02  0.27452780506E+03  0.30271257569E+03  0.91042241408E+02 0.  0.
        -11    1    4    4    0    0  0.12072429757E+02  0.43674492757E+02  0.22139351936E+03  0.22598295354E+03  0.00000000000E+00 0. -1.
         11    1    4    4    0    0  0.52227366059E+02  0.18343522886E+02  0.53134285705E+02  0.76729622146E+02  0.00000000000E+00 0.  1.
        -11    1    3    3    0    0  0.14091071791E+01  0.29359809352E+02  0.73554331281E+02  0.79209997086E+02  0.00000000000E+00 0. -1.
         11    1    3    3    0    0 -0.79047107347E+01 -0.69256952079E+02  0.10682728011E+03  0.12755813435E+03  0.00000000000E+00 0.  1.
         21    1    1    2  502  501 -0.57804192260E+02 -0.22120872915E+02  0.16911446045E+03  0.18008430913E+03  0.00000000000E+00 0. -1.
<scales pt_clust_5="13000.00000" pt_clust_6="13000.00000" pt_clust_7="13000.00000" pt_clust_8="13000.00000" pt_clust_9="61.89231"></scales>
<clustering>
<clus scale="   61.892">  1  9  2 -1</clus>
<clus scale="   91.042">  5  6 -1 -1</clus>
<clus scale="   92.637">  7  8 -1 -1</clus>
<clus scale="  107.471">  1  5  2 -1</clus>
<clus scale="   61.892">  1  5  2 -1</clus>
</clustering>
</event>
<event>
 9    1  0.2075077E-005  0.1244355E+03  0.7546771E-02  0.1236431E+00
         -1   -1    0    0    0  501 -0.00000000000E+00  0.00000000000E+00  0.45718994859E+03  0.45718994859E+03  0.00000000000E+00 0.  1.
          1   -1    0    0  502    0  0.00000000000E+00 -0.00000000000E+00 -0.55875156197E+02  0.55875156197E+02  0.00000000000E+00 0. -1.
         23    2    1    2    0    0  0.80724327545E+02 -0.35191860238E+02  0.21058899486E+03  0.24578087097E+03  0.91135216560E+02 0.  0.
         23    2    1    2    0    0 -0.46467152334E+02  0.76934546294E+02  0.16316284778E+03  0.20665650013E+03  0.89480017264E+02 0.  0.
        -11    1    3    3    0    0  0.12642364201E+02 -0.48636203000E+02  0.50239143922E+02  0.71058294357E+02  0.00000000000E+00 0. -1.
         11    1    3    3    0    0  0.68081963344E+02  0.13444342762E+02  0.16034985093E+03  0.17472257662E+03  0.00000000000E+00 0.  1.
        -13    1    4    4    0    0 -0.82245724744E+01  0.78981003183E+02  0.69726171858E+02  0.10567583214E+03  0.00000000000E+00 0.  1.
         13    1    4    4    0    0 -0.38242579860E+02 -0.20464568891E+01  0.93436675919E+02  0.10098066799E+03  0.00000000000E+00 0. -1.
         21    1    1    2  502  501 -0.34257175211E+02 -0.41742686056E+02  0.27562949758E+02  0.60627733686E+02  0.00000000000E+00 0. -1.
<scales pt_clust_5="13000.00000" pt_clust_6="13000.00000" pt_clust_7="13000.00000" pt_clust_8="13000.00000" pt_clust_9="54.00005"></scales>
<clustering>
<clus scale="   54.000">  2  9  1 -1</clus>
<clus scale="   89.480">  7  8 -1 -1</clus>
<clus scale="   91.135">  5  6 -1 -1</clus>
<clus scale="  123.228">  2  7  1 -1</clus>
<clus scale="   54.000">  2  5  1 -1</clus>
</clustering>
</event>
<event>
 9    1  0.2075077E-005  0.9525615E+02  0.7546771E-02  0.1290756E+00
         -1   -1    0    0    0  501 -0.00000000000E+00  0.00000000000E+00  0.29908670247E+02  0.29908670247E+02  0.00000000000E+00 0.  1.
          1   -1    0    0  502    0  0.00000000000E+00 -0.00000000000E+00 -0.56852973222E+03  0.56852973222E+03  0.00000000000E+00 0. -1.
         23    2    1    2    0    0 -0.20795741277E+02  0.75452380824E+01 -0.10795160339E+03  0.14251178433E+03  0.90369610627E+02 0.  0.
         23    2    1    2    0    0  0.28507817674E+02 -0.39717796351E+02 -0.22032819223E+03  0.24299940531E+03  0.90077742414E+02 0.  0.
        -13    1    4    4    0    0 -0.18532760569E+02 -0.23310492510E+02 -0.16849251508E+03  0.17110397399E+03  0.00000000000E+00 0. -1.
         13    1    4    4    0    0  0.47040578244E+02 -0.16407303842E+02 -0.51835677142E+02  0.71895431326E+02  0.00000000000E+00 0.  1.
        -13    1    3    3    0    0  0.24079574066E+02 -0.51024984166E+01  0.33292100604E+00  0.24616502873E+02  0.00000000000E+00 0.  1.
         13    1    3    3    0    0 -0.44875315343E+02  0.12647736499E+02 -0.10828452440E+03  0.11789528146E+03  0.00000000000E+00 0. -1.
         21    1    1    2  502  501 -0.77120763971E+01  0.32172558269E+02 -0.21034126635E+03  0.21292721282E+03  0.00000000000E+00 0. -1.
<scales pt_clust_5="13000.00000" pt_clust_6="13000.00000" pt_clust_7="13000.00000" pt_clust_8="13000.00000" pt_clust_9="33.08398"></scales>
<clustering>
<clus scale="   33.084">  2  9  1 -1</clus>
<clus scale="   90.078">  5  6 -1 -1</clus>
<clus scale="   90.370">  7  8 -1 -1</clus>
<clus scale="   94.979">  2  5  1 -1</clus>
<clus scale="   33.084">  2  5  1 -1</clus>
</clustering>
</event>
<event>
 9    1  0.2075077E-005  0.9615957E+02  0.7546771E-02  0.1295957E+00
          4   -1    0    0  502    0  0.00000000000E+00  0.00000000000E+00  0.49011333372E+03  0.49011333372E+03  0.00000000000E+00 0.  1.
         -4   -1    0    0    0  501 -0.00000000000E+00 -0.00000000000E+00 -0.55992864528E+02  0.55992864528E+02  0.00000000000E+00 0. -1.
         23    2    1    2    0    0  0.26341748325E+02 -0.13732970476E+02 -0.92728285622E+01  0.84617575244E+02  0.78687143218E+02 0.  0.
         23    2    1    2    0    0 -0.30355004256E+02 -0.15464451493E+02  0.32026229897E+03  0.33487962437E+03  0.91737926372E+02 0.  0.
        -11    1    3    3    0    0 -0.38248550722E+01  0.30113419064E+02 -0.79521350900E+01  0.31379674577E+02  0.00000000000E+00 0.  1.
         11    1    3    3    0    0  0.30166603397E+02 -0.43846389540E+02 -0.13206934721E+01  0.53237900668E+02  0.00000000000E+00 0. -1.
        -13    1    4    4    0    0 -0.41326147861E+02 -0.47499602101E+02  0.18403487649E+03  0.19450680826E+03  0.00000000000E+00 0. -1.
         13    1    4    4    0    0  0.10971143605E+02  0.32035150607E+02  0.13622742248E+03  0.14037281611E+03  0.00000000000E+00 0.  1.
         21    1    1    2  502  501  0.40132559309E+01  0.29197421970E+02  0.12313099879E+03  0.12660899864E+03  0.00000000000E+00 0.  1.
<scales pt_clust_5="13000.00000" pt_clust_6="13000.00000" pt_clust_7="13000.00000" pt_clust_8="13000.00000" pt_clust_9="29.47195"></scales>
<clustering>
<clus scale="   29.472">  1  9  2 -1</clus>
<clus scale="   78.687">  5  6 -1 -1</clus>
<clus scale="   83.800">  2  5  1 -1</clus>
<clus scale="   91.738">  7  8 -1 -1</clus>
<clus scale="   29.472">  1  5  2 -1</clus>
</clustering>
</event>
<event>
 9    1  0.2075077E-005  0.1304751E+03  0.7546771E-02  0.1226794E+00
         -2   -1    0    0    0  501 -0.00000000000E+00  0.00000000000E+00  0.21297576319E+03  0.21297576319E+03  0.00000000000E+00 0.  1.
          2   -1    0    0  502    0  0.00000000000E+00 -0.00000000000E+00 -0.45266396025E+03  0.45266396025E+03  0.00000000000E+00 0. -1.
         23    2    1    2    0    0  0.68176811095E+01  0.93419866744E+02  0.17372926251E+03  0.21712935594E+03  0.90496123012E+02 0.  0.
         23    2    1    2    0    0 -0.39479496001E+02 -0.96642918495E+02 -0.36285744230E+03  0.38823186750E+03  0.90332581118E+02 0.  0.
        -11    1    4    4    0    0 -0.66359312996E+02 -0.55799523720E+02 -0.19517097232E+03  0.21356229467E+03  0.00000000000E+00 0.  1.
         11    1    4    4    0    0  0.26879816995E+02 -0.40843394775E+02 -0.16768646999E+03  0.17466957284E+03  0.00000000000E+00 0. -1.
        -11    1    3    3    0    0 -0.23458704405E+00  0.39098156608E+02  0.46215024513E+01  0.39371044768E+02  0.00000000000E+00 0. -1.
         11    1    3    3    0    0  0.70522681535E+01  0.54321710136E+02  0.16910776006E+03  0.17775831118E+03  0.00000000000E+00 0.  1.
         21    1    1    2  502  501  0.32661814891E+02  0.32230517505E+01 -0.50560017274E+02  0.60278499992E+02  0.00000000000E+00 0.  1.
<scales pt_clust_5="13000.00000" pt_clust_6="13000.00000" pt_clust_7="13000.00000" pt_clust_8="13000.00000" pt_clust_9="32.82045"></scales>
<clustering>
<clus scale="   32.820">  2  9  1 -1</clus>
<clus scale="   90.333">  5  6 -1 -1</clus>
<clus scale="   90.496">  7  8 -1 -1</clus>
<clus scale="  130.362">  2  5  1 -1</clus>
<clus scale="   32.820">  2  5  1 -1</clus>
</clustering>
</event>
<event>
 9    1  0.2075077E-005  0.1132513E+03  0.7546771E-02  0.1255344E+00
          1   -1    0    0  502    0  0.00000000000E+00  0.00000000000E+00  0.63110613688E+03  0.63110613688E+03  0.00000000000E+00 0. -1.
         -1   -1    0    0    0  501 -0.00000000000E+00 -0.00000000000E+00 -0.44105879494E+02  0.44105879494E+02  0.00000000000E+00 0.  1.
         23    2    1    2    0    0  0.10414532081E+02 -0.55380483594E+02  0.66731360311E+02  0.12685408665E+03  0.91996871742E+02 0.  0.
         23    2    1    2    0    0 -0.27229660368E+02  0.90978415601E+02  0.41645123355E+03  0.43732609391E+03  0.93829398294E+02 0.  0.
        -13    1    3    3    0    0 -0.37663090283E+02 -0.45030095841E+02  0.36352087428E+02  0.69048476895E+02  0.00000000000E+00 0.  1.
         13    1    3    3    0    0  0.48077622364E+02 -0.10350387753E+02  0.30379272883E+02  0.57805609760E+02  0.00000000000E+00 0. -1.
        -13    1    4    4    0    0  0.32578899300E+02  0.54341746166E+02  0.19928148540E+03  0.20911126340E+03  0.00000000000E+00 0.  1.
         13    1    4    4    0    0 -0.59808559668E+02  0.36636669435E+02  0.21716974814E+03  0.22821483051E+03  0.00000000000E+00 0. -1.
         21    1    1    2  502  501  0.16815128287E+02 -0.35597932008E+02  0.10381766353E+03  0.11103183581E+03  0.00000000000E+00 0.  1.
<scales pt_clust_5="13000.00000" pt_clust_6="13000.00000" pt_clust_7="13000.00000" pt_clust_8="13000.00000" pt_clust_9="39.36955"></scales>
<clustering>
<clus scale="   39.370">  1  9  2 -1</clus>
<clus scale="   91.997">  5  6 -1 -1</clus>
<clus scale="   93.829">  7  8 -1 -1</clus>
<clus scale="  111.738">  2  5  1 -1</clus>
<clus scale="   39.370">  1  5  2 -1</clus>
</clustering>
</event>
<event>
 9    1  0.2075077E-005  0.1067864E+03  0.7546771E-02  0.1269056E+00
          1   -1    0    0  502    0  0.00000000000E+00  0.00000000000E+00  0.69232355867E+03  0.69232355867E+03  0.00000000000E+00 0. -1.
         -1   -1    0    0    0  501 -0.00000000000E+00 -0.00000000000E+00 -0.49056198771E+02  0.49056198771E+02  0.00000000000E+00 0.  1.
         23    2    1    2    0    0  0.19713152034E+02  0.50936459693E+02  0.52236318895E+02  0.12146341401E+03  0.95087310629E+02 0.  0.
         23    2    1    2    0    0  0.40607316678E+02 -0.41625163866E+02  0.22770041952E+03  0.25149484611E+03  0.89557624678E+02 0.  0.
        -13    1    4    4    0    0  0.52455740922E+02 -0.70708920925E+01  0.60656669176E+02  0.80503625920E+02  0.00000000000E+00 0.  1.
         13    1    4    4    0    0 -0.11848424244E+02 -0.34554271773E+02  0.16704375034E+03  0.17099122019E+03  0.00000000000E+00 0. -1.
        -13    1    3    3    0    0  0.53893462446E+02  0.43739619903E+02  0.51668311933E+02  0.86529036177E+02  0.00000000000E+00 0.  1.
         13    1    3    3    0    0 -0.34180310412E+02  0.71968397899E+01  0.56800696175E+00  0.34934377835E+02  0.00000000000E+00 0. -1.
         21    1    1    2  502  501 -0.60320468712E+02 -0.93112958274E+01  0.36333062149E+03  0.36842149732E+03  0.00000000000E+00 0.  1.
<scales pt_clust_5="13000.00000" pt_clust_6="13000.00000" pt_clust_7="13000.00000" pt_clust_8="13000.00000" pt_clust_9="61.03490"></scales>
<clustering>
<clus scale="   61.035">  1  9  2 -1</clus>
<clus scale="   89.558">  5  6 -1 -1</clus>
<clus scale="   95.087">  7  8 -1 -1</clus>
<clus scale="  101.894">  1  5  2 -1</clus>
<clus scale="   61.035">  1  5  2 -1</clus>
</clustering>
</event>
<event>
 9    1  0.2075077E-005  0.1083581E+03  0.7546771E-02  0.1264129E+00
          2   -1    0    0  502    0  0.00000000000E+00  0.00000000000E+00  0.19373105702E+03  0.19373105702E+03  0.00000000000E+00 0. -1.
         -2   -1    0    0    0  501 -0.00000000000E+00 -0.00000000000E+00 -0.20421043706E+03  0.20421043706E+03  0.00000000000E+00 0.  1.
         23    2    1    2    0    0  0.36619686966E+02  0.42634499762E+02 -0.15411329005E+03  0.18768076994E+03  0.91183678325E+02 0.  0.
         23    2    1    2    0    0 -0.11574411345E+02 -0.67968868073E+02  0.12504838733E+03  0.17007966265E+03  0.92391874353E+02 0.  0.
        -11    1    4    4    0    0  0.38333959876E+02 -0.47185241228E+02  0.73444641183E+02  0.95341778816E+02  0.00000000000E+00 0. -1.
         11    1    4    4    0    0 -0.49908371220E+02 -0.20783626845E+02  0.51603746149E+02  0.74737883830E+02  0.00000000000E+00 0.  1.
        -13    1    3    3    0    0 -0.38933476201E+01  0.57097690507E+02 -0.53863146947E+02  0.78590985590E+02  0.00000000000E+00 0.  1.
         13    1    3    3    0    0  0.40513034586E+02 -0.14463190745E+02 -0.10025014311E+03  0.10908978435E+03  0.00000000000E+00 0. -1.
         21    1    1    2  502  501 -0.25045275622E+02  0.25334368311E+02  0.18585522682E+02  0.40181061484E+02  0.00000000000E+00 0.  1.
<scales pt_clust_5="13000.00000" pt_clust_6="13000.00000" pt_clust_7="13000.00000" pt_clust_8="13000.00000" pt_clust_9="35.62437"></scales>
<clustering>
<clus scale="   35.624">  1  9  2 -1</clus>
<clus scale="   91.184">  7  8 -1 -1</clus>
<clus scale="   92.392">  5  6 -1 -1</clus>
<clus scale="  107.330">  2  7  1 -1</clus>
<clus scale="   35.624">  1  5  2 -1</clus>
</clustering>
</event>
<event>
 9    1  0.2075077E-005  0.1150884E+03  0.7546771E-02  0.1252457E+00
         -2   -1    0    0    0  501 -0.00000000000E+00  0.00000000000E+00  0.28592201437E+02  0.28592201437E+02  0.00000000000E+00 0.  1.
          2   -1    0    0  502    0  0.00000000000E+00 -0.00000000000E+00 -0.62527655916E+03  0.62527655916E+03  0.00000000000E+00 0. -1.
         23    2    1    2    0    0 -0.45324376133E+02  0.41421230692E+02 -0.19671754053E+03  0.22551759422E+03  0.91599001782E+02 0.  0.
         23    2    1    2    0    0  0.69626088236E+02 -0.26416621636E+02 -0.27488412857E+03  0.30004921590E+03  0.94459609135E+02 0.  0.
        -11    1    4    4    0    0 -0.11162175309E+02 -0.34321875420E+02 -0.11818545725E+03  0.12357340974E+03  0.00000000000E+00 0. -1.
         11    1    4    4    0    0  0.80788263545E+02  0.79052537838E+01 -0.15669867133E+03  0.17647580616E+03  0.00000000000E+00 0.  1.
        -11    1    3    3    0    0  0.22717111920E+02  0.15322294969E+02 -0.10421501579E+03  0.10775717802E+03  0.00000000000E+00 0.  1.
         11    1    3    3    0    0 -0.68041488053E+02  0.26098935723E+02 -0.92502524737E+02  0.11776041621E+03  0.00000000000E+00 0. -1.
         21    1    1    2  502  501 -0.24301712103E+02 -0.15004609056E+02 -0.12508268862E+03  0.12830195048E+03  0.00000000000E+00 0. -1.
<scales pt_clust_5="13000.00000" pt_clust_6="13000.00000" pt_clust_7="13000.00000" pt_clust_8="13000.00000" pt_clust_9="28.56066"></scales>
<clustering>
<clus scale="   28.561">  2  9  1 -1</clus>
<clus scale="   91.599">  7  8 -1 -1</clus>
<clus scale="   94.460">  5  6 -1 -1</clus>
<clus scale="  112.752">  1  7  2 -1</clus>
<clus scale="   28.561">  2  5  1 -1</clus>
</clustering>
</event>
<event>
 9    1  0.2075077E-005  0.1833558E+03  0.7546771E-02  0.1180911E+00
         -2   -1    0    0    0  501 -0.00000000000E+00  0.00000000000E+00  0.52965879664E+02  0.52965879664E+02  0.00000000000E+00 0.  1.
          2   -1    0    0  502    0  0.00000000000E+00 -0.00000000000E+00 -0.15324318179E+04  0.15324318179E+04  0.00000000000E+00 0. -1.
         23    2    1    2    0    0  0.15372313873E+02 -0.85891192615E+02 -0.10443825017E+03  0.16401621910E+03  0.91544344592E+02 0.  0.
         23    2    1    2    0    0  0.14987853826E+03  0.37036801047E+02 -0.83464166625E+03  0.85418517357E+03  0.95761677345E+02 0.  0.
        -11    1    3    3    0    0  0.24153031969E+02 -0.96449109704E+01 -0.78983152985E+02  0.83154865862E+02  0.00000000000E+00 0. -1.
         11    1    3    3    0    0 -0.87807180967E+01 -0.76246281645E+02 -0.25455097185E+02  0.80861353239E+02  0.00000000000E+00 0.  1.
        -13    1    4    4    0    0  0.68436446007E+02 -0.30885770595E+02 -0.37890981954E+03  0.38627726999E+03  0.00000000000E+00 0.  1.
         13    1    4    4    0    0  0.81442092257E+02  0.67922571642E+02 -0.45573184671E+03  0.46790790358E+03  0.00000000000E+00 0. -1.
         21    1    1    2  502  501 -0.16525085214E+03  0.48854391568E+02 -0.54038602184E+03  0.56719630491E+03  0.00000000000E+00 0.  1.
<scales pt_clust_5="13000.00000" pt_clust_6="13000.00000" pt_clust_7="13000.00000" pt_clust_8="13000.00000" pt_clust_9="156.36192"></scales>
<clustering>
<clus scale="   91.544">  5  6 -1 -1</clus>
<clus scale="   95.762">  7  8 -1 -1</clus>
<clus scale="  126.467">  1  5  2 -1</clus>
<clus scale="  156.362">  1  9  2 -1</clus>
<clus scale="  183.356">  2  5  1 -1</clus>
</clustering>
</event>
<event>
 9    1  0.2075077E-005  0.1050205E+03  0.7546771E-02  0.1272402E+00
         -3   -1    0    0    0  501 -0.00000000000E+00  0.00000000000E+00  0.11168887314E+03  0.11168887314E+03  0.00000000000E+00 0.  1.
          3   -1    0    0  502    0  0.00000000000E+00 -0.00000000000E+00 -0.18214393974E+03  0.18214393974E+03  0.00000000000E+00 0. -1.
         23    2    1    2    0    0 -0.40490313156E+02 -0.20129474332E+02  0.55328601091E+02  0.11535392098E+03  0.90557229368E+02 0.  0.
         23    2    1    2    0    0  0.38706137018E+02 -0.48609576093E+00 -0.11701768083E+03  0.15600607408E+03  0.95636583961E+02 0.  0.
        -11    1    4    4    0    0  0.59924434095E+02  0.12868744870E+02 -0.11566244149E+03  0.13089821530E+03  0.00000000000E+00 0. -1.
         11    1    4    4    0    0 -0.21218297077E+02 -0.13354840631E+02 -0.13552393392E+01  0.25107858786E+02  0.00000000000E+00 0.  1.
        -13    1    3    3    0    0  0.22411516249E+02  0.16653775728E+02  0.10674638339E+02  0.29892678205E+02  0.00000000000E+00 0. -1.
         13    1    3    3    0    0 -0.62901829405E+02 -0.36783250060E+02  0.44653962752E+02  0.85461242777E+02  0.00000000000E+00 0.  1.
         21    1    1    2  502  501  0.17841761383E+01  0.20615570092E+02 -0.87659868636E+01  0.22472817812E+02  0.00000000000E+00 0. -1.
<scales pt_clust_5="13000.00000" pt_clust_6="13000.00000" pt_clust_7="13000.00000" pt_clust_8="13000.00000" pt_clust_9="20.69263"></scales>
<clustering>
<clus scale="   20.693">  2  9  1 -1</clus>
<clus scale="   90.557">  7  8 -1 -1</clus>
<clus scale="   95.637">  5  6 -1 -1</clus>
<clus scale="  100.417">  1  7  2 -1</clus>
<clus scale="   20.693">  2  5  1 -1</clus>
</clustering>
</event>
<event>
 9    1  0.2075077E-005  0.2530701E+03  0.7546771E-02  0.1111480E+00
          1   -1    0    0  502    0  0.00000000000E+00  0.00000000000E+00  0.30561517432E+03  0.30561517432E+03  0.00000000000E+00 0. -1.
         -1   -1    0    0    0  501 -0.00000000000E+00 -0.00000000000E+00 -0.23423802768E+03  0.23423802768E+03  0.00000000000E+00 0.  1.
         23    2    1    2    0    0  0.24166962556E+03  0.16531760380E+02 -0.32518508777E+00  0.25903467669E+03  0.91767919015E+02 0.  0.
         23    2    1    2    0    0 -0.22885742081E+03 -0.35299624647E+02  0.69610383829E+02  0.25799832449E+03  0.89976371022E+02 0.  0.
        -11    1    4    4    0    0 -0.20010907109E+03 -0.30643319336E+01  0.76509206169E+02  0.21425846329E+03  0.00000000000E+00 0. -1.
         11    1    4    4    0    0 -0.28748349715E+02 -0.32235292714E+02 -0.68988223396E+01  0.43739861195E+02  0.00000000000E+00 0.  1.
        -13    1    3    3    0    0  0.12375628244E+03  0.22443719742E+02 -0.43858967357E+02  0.13320265394E+03  0.00000000000E+00 0.  1.
         13    1    3    3    0    0  0.11791334312E+03 -0.59119593620E+01  0.43533782269E+02  0.12583202274E+03  0.00000000000E+00 0. -1.
         21    1    1    2  502  501 -0.12812204756E+02  0.18767864267E+02  0.20919478989E+01  0.22820200829E+02  0.00000000000E+00 0.  1.
<scales pt_clust_5="13000.00000" pt_clust_6="13000.00000" pt_clust_7="13000.00000" pt_clust_8="13000.00000" pt_clust_9="22.72411"></scales>
<clustering>
<clus scale="   22.724">  2  9  1 -1</clus>
<clus scale="   89.976">  5  6 -1 -1</clus>
<clus scale="   91.768">  7  8 -1 -1</clus>
<clus scale="  252.426">  1  5  2 -1</clus>
<clus scale="  252.426">  1  5  2 -1</clus>
</clustering>
</event>
<event>
 9    1  0.2075077E-005  0.1010950E+03  0.7546771E-02  0.1278045E+00
          1   -1    0    0  502    0  0.00000000000E+00  0.00000000000E+00  0.34605392899E+03  0.34605392899E+03  0.00000000000E+00 0. -1.
         -1   -1    0    0    0  501 -0.00000000000E+00 -0.00000000000E+00 -0.73265098755E+02  0.73265098755E+02  0.00000000000E+00 0.  1.
         23    2    1    2    0    0  0.25264052717E+02 -0.25984417218E+02 -0.22222016560E+01  0.98394119308E+02  0.91449451810E+02 0.  0.
         23    2    1    2    0    0 -0.69122410515E+02  0.35173337658E+02  0.21227436046E+03  0.24382833426E+03  0.91524757097E+02 0.  0.
        -11    1    4    4    0    0 -0.40231285111E+02  0.39803376168E+02  0.20635620822E+03  0.21397604943E+03  0.00000000000E+00 0. -1.
         11    1    4    4    0    0 -0.28891125404E+02 -0.46300385105E+01  0.59181522341E+01  0.29852284830E+02  0.00000000000E+00 0.  1.
        -11    1    3    3    0    0  0.91780276165E+01 -0.39315936049E+02 -0.38976235425E+02  0.56117073572E+02  0.00000000000E+00 0.  1.
         11    1    3    3    0    0  0.16086025101E+02  0.13331518831E+02  0.36754033769E+02  0.42277045736E+02  0.00000000000E+00 0. -1.
         21    1    1    2  502  501  0.43858357798E+02 -0.91889204396E+01  0.62736671432E+02  0.77096574178E+02  0.00000000000E+00 0.  1.
<scales pt_clust_5="13000.00000" pt_clust_6="13000.00000" pt_clust_7="13000.00000" pt_clust_8="13000.00000" pt_clust_9="44.81062"></scales>
<clustering>
<clus scale="   44.811">  1  9  2 -1</clus>
<clus scale="   91.449">  7  8 -1 -1</clus>
<clus scale="   91.525">  5  6 -1 -1</clus>
<clus scale="  101.027">  2  7  1 -1</clus>
<clus scale="   44.811">  1  5  2 -1</clus>
</clustering>
</event>
<event>
 9    1  0.2075077E-005  0.1088492E+03  0.7546771E-02  0.1263014E+00
         -1   -1    0    0    0  501 -0.00000000000E+00  0.00000000000E+00  0.94491273446E+02  0.94491273446E+02  0.00000000000E+00 0.  1.
          1   -1    0    0  502    0  0.00000000000E+00 -0.00000000000E+00 -0.18222410667E+03  0.18222410667E+03  0.00000000000E+00 0. -1.
         23    2    1    2    0    0 -0.54727826940E+01 -0.60252180905E+02  0.11618634011E+02  0.11019070995E+03  0.91360403070E+02 0.  0.
         23    2    1    2    0    0  0.27638815885E+02  0.49043969111E+02 -0.73019406880E+02  0.13032612818E+03  0.92107821905E+02 0.  0.
        -11    1    3    3    0    0  0.27554383568E+02 -0.44660146728E+02 -0.25301959515E+02  0.58257719787E+02  0.00000000000E+00 0. -1.
         11    1    3    3    0    0 -0.33027166262E+02 -0.15592034178E+02  0.36920593526E+02  0.51932990164E+02  0.00000000000E+00 0.  1.
        -13    1    4    4    0    0 -0.22257453238E+02  0.72823083571E+01 -0.59399493457E+02  0.63849244809E+02  0.00000000000E+00 0.  1.
         13    1    4    4    0    0  0.49896269123E+02  0.41761660754E+02 -0.13619913423E+02  0.66476883373E+02  0.00000000000E+00 0. -1.
         21    1    1    2  502  501 -0.22166033191E+02  0.11208211794E+02 -0.26332060350E+02  0.36198541978E+02  0.00000000000E+00 0. -1.
<scales pt_clust_5="13000.00000" pt_clust_6="13000.00000" pt_clust_7="13000.00000" pt_clust_8="13000.00000" pt_clust_9="24.83862"></scales>
<clustering>
<clus scale="   24.839">  2  9  1 -1</clus>
<clus scale="   91.360">  5  6 -1 -1</clus>
<clus scale="   92.108">  7  8 -1 -1</clus>
<clus scale="  108.217">  1  5  2 -1</clus>
<clus scale="   24.839">  2  5  1 -1</clus>
</clustering>
</event>
<event>
 9    1  0.2075077E-005  0.1396034E+03  0.7546771E-02  0.1217528E+00
          1   -1    0    0  502    0  0.00000000000E+00  0.00000000000E+00  0.57518955686E+03  0.57518955686E+03  0.00000000000E+00 0. -1.
         -1   -1    0    0    0  501 -0.00000000000E+00 -0.00000000000E+00 -0.43668572353E+02  0.43668572353E+02  0.00000000000E+00 0.  1.
         23    2    1    2    0    0  0.21423980912E+02 -0.92115141560E+02  0.14750246931E+03  0.20021474811E+03  0.96875077523E+02 0.  0.
         23    2    1    2    0    0 -0.44774925343E+02  0.10440327949E+03  0.33604509092E+03  0.36389199412E+03  0.81155662439E+02 0.  0.
        -11    1    4    4    0    0 -0.24054726217E+02  0.28594827318E+02  0.30006149953E+02  0.47923512368E+02  0.00000000000E+00 0.  1.
         11    1    4    4    0    0 -0.20720199126E+02  0.75808452174E+02  0.30603894097E+03  0.31596848176E+03  0.00000000000E+00 0. -1.
        -13    1    3    3    0    0  0.15813087905E+02 -0.11258129390E+03  0.13007571453E+03  0.17275500860E+03  0.00000000000E+00 0.  1.
         13    1    3    3    0    0  0.56108930069E+01  0.20466152338E+02  0.17426754775E+02  0.27459739508E+02  0.00000000000E+00 0. -1.
         21    1    1    2  502  501  0.23350944431E+02 -0.12288137933E+02  0.47973424275E+02  0.54751386981E+02  0.00000000000E+00 0.  1.
<scales pt_clust_5="13000.00000" pt_clust_6="13000.00000" pt_clust_7="13000.00000" pt_clust_8="13000.00000" pt_clust_9="26.38683"></scales>
<clustering>
<clus scale="   26.387">  1  9  2 -1</clus>
<clus scale="   81.156">  5  6 -1 -1</clus>
<clus scale="   96.875">  7  8 -1 -1</clus>
<clus scale="  129.192">  1  5  2 -1</clus>
<clus scale="   26.387">  1  5  2 -1</clus>
</clustering>
</event>
<event>
 9    1  0.2075077E-005  0.9701954E+02  0.7546771E-02  0.1287284E+00
         -2   -1    0    0    0  501 -0.00000000000E+00  0.00000000000E+00  0.56843955693E+02  0.56843955693E+02  0.00000000000E+00 0.  1.
          2   -1    0    0  502    0  0.00000000000E+00 -0.00000000000E+00 -0.45236244181E+03  0.45236244181E+03  0.00000000000E+00 0. -1.
         23    2    1    2    0    0  0.11790990230E+02 -0.12774431857E+02 -0.38750800309E+02  0.10131735625E+03  0.91985697768E+02 0.  0.
         23    2    1    2    0    0  0.43008163935E+01  0.84022774007E+02 -0.20577613777E+03  0.24015794671E+03  0.90849859190E+02 0.  0.
        -11    1    3    3    0    0 -0.29465791020E+02 -0.35013898206E+02 -0.11829543863E+02  0.47266732657E+02  0.00000000000E+00 0. -1.
         11    1    3    3    0    0  0.41256781251E+02  0.22239466349E+02 -0.26921256446E+02  0.54050623597E+02  0.00000000000E+00 0.  1.
        -11    1    4    4    0    0 -0.21937979836E+02  0.81839596397E+02 -0.19323410505E+03  0.21099387160E+03  0.00000000000E+00 0.  1.
         11    1    4    4    0    0  0.26238796229E+02  0.21831776109E+01 -0.12542032727E+02  0.29164075109E+02  0.00000000000E+00 0. -1.
         21    1    1    2  502  501 -0.16091806624E+02 -0.71248342150E+02 -0.15099154803E+03  0.16773109454E+03  0.00000000000E+00 0. -1.
<scales pt_clust_5="13000.00000" pt_clust_6="13000.00000" pt_clust_7="13000.00000" pt_clust_8="13000.00000" pt_clust_9="73.04295"></scales>
<clustering>
<clus scale="   73.043">  2  9  1 -1</clus>
<clus scale="   90.850">  7  8 -1 -1</clus>
<clus scale="   91.986">  5  6 -1 -1</clus>
<clus scale="   95.943">  2  7  1 -1</clus>
<clus scale="   73.043">  2  5  1 -1</clus>
</clustering>
</event>
<event>
 9    1  0.2075077E-005  0.1025682E+03  0.7546771E-02  0.1276185E+00
          1   -1    0    0  502    0  0.00000000000E+00  0.00000000000E+00  0.71528667678E+02  0.71528667678E+02  0.00000000000E+00 0. -1.
         -1   -1    0    0    0  501 -0.00000000000E+00 -0.00000000000E+00 -0.26847411806E+03  0.26847411806E+03  0.00000000000E+00 0.  1.
         23    2    1    2    0    0  0.27940833589E+02  0.44946917037E+02 -0.15794985138E+03  0.19104753667E+03  0.93541916719E+02 0.  0.
         23    2    1    2    0    0  0.14322111910E+02 -0.29401875052E+02 -0.38094913004E+02  0.10391508779E+03  0.90980931668E+02 0.  0.
        -11    1    3    3    0    0 -0.23574849999E+02  0.20690045415E+02 -0.11641797568E+03  0.12056946791E+03  0.00000000000E+00 0.  1.
         11    1    3    3    0    0  0.51515683588E+02  0.24256871622E+02 -0.41531875706E+02  0.70478068760E+02  0.00000000000E+00 0. -1.
        -11    1    4    4    0    0 -0.68259058891E+01 -0.27727188640E+02 -0.64207710900E+02  0.70271047524E+02  0.00000000000E+00 0.  1.
         11    1    4    4    0    0  0.21148017799E+02 -0.16746864119E+01  0.26112797896E+02  0.33644040265E+02  0.00000000000E+00 0. -1.
         21    1    1    2  502  501 -0.42262945499E+02 -0.15545041985E+02 -0.90068599364E+00  0.45040161277E+02  0.00000000000E+00 0. -1.
<scales pt_clust_5="13000.00000" pt_clust_6="13000.00000" pt_clust_7="13000.00000" pt_clust_8="13000.00000" pt_clust_9="45.03115"></scales>
<clustering>
<clus scale="   45.031">  1  9  2 -1</clus>
<clus scale="   90.981">  7  8 -1 -1</clus>
<clus scale="   93.542">  5  6 -1 -1</clus>
<clus scale="  100.238">  1  7  2 -1</clus>
<clus scale="   45.031">  1  5  2 -1</clus>
</clustering>
</event>
<event>
 9    1  0.2075077E-005  0.1271342E+03  0.7546771E-02  0.1232022E+00
         -1   -1    0    0    0  501 -0.00000000000E+00  0.00000000000E+00  0.33443503999E+02  0.33443503999E+02  0.00000000000E+00 0.  1.
          1   -1    0    0  502    0  0.00000000000E+00 -0.00000000000E+00 -0.60946891844E+03  0.60946891844E+03  0.00000000000E+00 0. -1.
         23    2    1    2    0    0  0.12018020453E+02  0.83229227438E+02 -0.23791285745E+03  0.26883750245E+03  0.92733693274E+02 0.  0.
         23    2    1    2    0    0 -0.41556402199E+02 -0.82810101626E+02 -0.27219616801E+03  0.30184153437E+03  0.91831968792E+02 0.  0.
        -11    1    4    4    0    0  0.18393308635E+01 -0.33357744482E+02 -0.15465525049E+02  0.36814463462E+02  0.00000000000E+00 0. -1.
         11    1    4    4    0    0 -0.43395733062E+02 -0.49452357144E+02 -0.25673064296E+03  0.26502707090E+03  0.00000000000E+00 0.  1.
        -11    1    3    3    0    0  0.34962624923E+02  0.98074553611E+01 -0.29837274273E+02  0.46998236757E+02  0.00000000000E+00 0.  1.
         11    1    3    3    0    0 -0.22944604471E+02  0.73421772077E+02 -0.20807558318E+03  0.22183926569E+03  0.00000000000E+00 0. -1.
         21    1    1    2  502  501  0.29538381746E+02 -0.41912581164E+00 -0.65916388975E+02  0.72233385620E+02  0.00000000000E+00 0. -1.
<scales pt_clust_5="13000.00000" pt_clust_6="13000.00000" pt_clust_7="13000.00000" pt_clust_8="13000.00000" pt_clust_9="29.54136"></scales>
<clustering>
<clus scale="   29.541">  2  9  1 -1</clus>
<clus scale="   91.832">  5  6 -1 -1</clus>
<clus scale="   92.734">  7  8 -1 -1</clus>
<clus scale="  126.478">  2  5  1 -1</clus>
<clus scale="   29.541">  2  5  1 -1</clus>
</clustering>
</event>
<event>
 9    1  0.2075077E-005  0.9395983E+02  0.7546771E-02  0.1295029E+00
         -1   -1    0    0    0  501 -0.00000000000E+00  0.00000000000E+00  0.60353717142E+02  0.60353717142E+02  0.00000000000E+00 0.  1.
          1   -1    0    0  502    0  0.00000000000E+00 -0.00000000000E+00 -0.42345245892E+03  0.42345245892E+03  0.00000000000E+00 0. -1.
         23    2    1    2    0    0  0.18956352482E+02 -0.50444467038E+01  0.86343657797E+01  0.93837726969E+02  0.91357413428E+02 0.  0.
         23    2    1    2    0    0 -0.39563881442E+02  0.37871519373E+01 -0.30796314075E+03  0.32293965150E+03  0.88707830642E+02 0.  0.
        -13    1    3    3    0    0  0.52268423616E+02 -0.17226655024E+02 -0.62175022460E+01  0.55384141095E+02  0.00000000000E+00 0.  1.
         13    1    3    3    0    0 -0.33312071133E+02  0.12182208320E+02  0.14851868026E+02  0.38453585874E+02  0.00000000000E+00 0. -1.
        -13    1    4    4    0    0  0.23568566381E+02 -0.17045389015E+02 -0.68503095032E+02  0.74422420257E+02  0.00000000000E+00 0.  1.
         13    1    4    4    0    0 -0.63132447823E+02  0.20832540952E+02 -0.23946004571E+03  0.24851723124E+03  0.00000000000E+00 0. -1.
         21    1    1    2  502  501  0.20607528960E+02  0.12572947665E+01 -0.63769966817E+02  0.67028797600E+02  0.00000000000E+00 0.  1.
<scales pt_clust_5="13000.00000" pt_clust_6="13000.00000" pt_clust_7="13000.00000" pt_clust_8="13000.00000" pt_clust_9="20.64585"></scales>
<clustering>
<clus scale="   20.646">  2  9  1 -1</clus>
<clus scale="   88.708">  7  8 -1 -1</clus>
<clus scale="   91.357">  5  6 -1 -1</clus>
<clus scale="   91.386">  2  7  1 -1</clus>
<clus scale="   20.646">  2  5  1 -1</clus>
</clustering>
</event>
<event>
 9    1  0.2075077E-005  0.1916029E+03  0.7546771E-02  0.1157367E+00
         -1   -1    0    0    0  501 -0.00000000000E+00  0.00000000000E+00  0.39816777807E+03  0.39816777807E+03  0.00000000000E+00 0.  1.
          1   -1    0    0  502    0  0.00000000000E+00 -0.00000000000E+00 -0.13210159401E+03  0.13210159401E+03  0.00000000000E+00 0. -1.
         23    2    1    2    0    0  0.56758007639E+02  0.16689554426E+03  0.22112711828E+03  0.29784516787E+03  0.93482337680E+02 0.  0.
         23    2    1    2    0    0 -0.80045629305E+02 -0.12291079069E+03  0.19963059613E+02  0.17673962148E+03  0.96560886565E+02 0.  0.
        -11    1    4    4    0    0 -0.43492745327E+02 -0.10886308842E+02 -0.24139231685E+02  0.50919869625E+02  0.00000000000E+00 0. -1.
         11    1    4    4    0    0 -0.36552883978E+02 -0.11202448184E+03  0.44102291297E+02  0.12581975186E+03  0.00000000000E+00 0.  1.
        -13    1    3    3    0    0  0.72481890217E+02  0.68068184303E+02  0.11289809358E+03  0.15044228680E+03  0.00000000000E+00 0.  1.
         13    1    3    3    0    0 -0.15723882579E+02  0.98827359953E+02  0.10822902470E+03  0.14740288106E+03  0.00000000000E+00 0. -1.
         21    1    1    2  502  501  0.23287621666E+02 -0.43984753570E+02  0.24976006162E+02  0.55684582726E+02  0.00000000000E+00 0. -1.
<scales pt_clust_5="13000.00000" pt_clust_6="13000.00000" pt_clust_7="13000.00000" pt_clust_8="13000.00000" pt_clust_9="49.76919"></scales>
<clustering>
<clus scale="   49.769">  2  9  1 -1</clus>
<clus scale="   93.482">  7  8 -1 -1</clus>
<clus scale="   96.561">  5  6 -1 -1</clus>
<clus scale="  190.070">  1  7  2 -1</clus>
<clus scale="   49.769">  2  5  1 -1</clus>
</clustering>
</event>
<event>
 9    1  0.2075077E-005  0.9330678E+02  0.7546771E-02  0.1295063E+00
          2   -1    0    0  502    0  0.00000000000E+00  0.00000000000E+00  0.93608307397E+02  0.93608307397E+02  0.00000000000E+00 0. -1.
         -2   -1    0    0    0  501 -0.00000000000E+00 -0.00000000000E+00 -0.20467179357E+03  0.20467179357E+03  0.00000000000E+00 0.  1.
         23    2    1    2    0    0 -0.67610334642E+01  0.14718082033E+02 -0.12914521802E+03  0.15920157461E+03  0.91675081174E+02 0.  0.
         23    2    1    2    0    0 -0.12068156681E+02 -0.23149167536E+02 -0.18440498868E+02  0.97132192306E+02  0.91722878391E+02 0.  0.
        -11    1    3    3    0    0  0.48752172273E+01  0.48295799628E+02 -0.10655966165E+03  0.11709489099E+03  0.00000000000E+00 0.  1.
         11    1    3    3    0    0 -0.11636250692E+02 -0.33577717595E+02 -0.22585556373E+02  0.42106683623E+02  0.00000000000E+00 0. -1.
        -11    1    4    4    0    0 -0.36495900899E+02 -0.16078354806E+02  0.24803702725E+02  0.46964752151E+02  0.00000000000E+00 0.  1.
         11    1    4    4    0    0  0.24427744218E+02 -0.70708127303E+01 -0.43244201594E+02  0.50167440155E+02  0.00000000000E+00 0. -1.
         21    1    1    2  502  501  0.18829190145E+02  0.84310855031E+01  0.36522230714E+02  0.41946334054E+02  0.00000000000E+00 0. -1.
<scales pt_clust_5="13000.00000" pt_clust_6="13000.00000" pt_clust_7="13000.00000" pt_clust_8="13000.00000" pt_clust_9="20.63060"></scales>
<clustering>
<clus scale="   20.631">  1  9  2 -1</clus>
<clus scale="   91.675">  5  6 -1 -1</clus>
<clus scale="   91.723">  7  8 -1 -1</clus>
<clus scale="   93.260">  2  5  1 -1</clus>
<clus scale="   20.631">  1  5  2 -1</clus>
</clustering>
</event>
<event>
 9    1  0.2075077E-005  0.1408117E+03  0.7546771E-02  0.1212251E+00
         -1   -1    0    0    0  501 -0.00000000000E+00  0.00000000000E+00  0.96433082059E+03  0.96433082059E+03  0.00000000000E+00 0.  1.
          1   -1    0    0  502    0  0.00000000000E+00 -0.00000000000E+00 -0.29075690726E+02  0.29075690726E+02  0.00000000000E+00 0. -1.
         23    2    1    2    0    0 -0.41597765181E+02 -0.97968775889E+02  0.62406433252E+03  0.63986009532E+03  0.92932208329E+02 0.  0.
         23    2    1    2    0    0  0.59922550061E+02  0.87183147931E+02  0.29473960855E+03  0.32666205020E+03  0.92978733610E+02 0.  0.
        -13    1    4    4    0    0  0.42761810322E+02  0.10603800673E+03  0.25482566344E+03  0.27930046553E+03  0.00000000000E+00 0.  1.
         13    1    4    4    0    0  0.17160739739E+02 -0.18854858802E+02  0.39913945107E+02  0.47361584674E+02  0.00000000000E+00 0. -1.
        -13    1    3    3    0    0 -0.31197610784E+02 -0.11526046364E+03  0.56384095719E+03  0.57634615502E+03  0.00000000000E+00 0. -1.
         13    1    3    3    0    0 -0.10400154397E+02  0.17291687755E+02  0.60223375328E+02  0.63513940303E+02  0.00000000000E+00 0.  1.
         21    1    1    2  502  501 -0.18324784879E+02  0.10785627958E+02  0.16451188791E+02  0.26884365790E+02  0.00000000000E+00 0.  1.
<scales pt_clust_5="13000.00000" pt_clust_6="13000.00000" pt_clust_7="13000.00000" pt_clust_8="13000.00000" pt_clust_9="21.26329"></scales>
<clustering>
<clus scale="   21.263">  2  9  1 -1</clus>
<clus scale="   92.932">  7  8 -1 -1</clus>
<clus scale="   92.979">  5  6 -1 -1</clus>
<clus scale="  140.781">  1  7  2 -1</clus>
<clus scale="   21.263">  2  5  1 -1</clus>
</clustering>
</event>
<event>
 9    1  0.2075077E-005  0.9670407E+02  0.7546771E-02  0.1289243E+00
         -2   -1    0    0    0  501 -0.00000000000E+00  0.00000000000E+00  0.33764481359E+03  0.33764481359E+03  0.00000000000E+00 0.  1.
          2   -1    0    0  502    0  0.00000000000E+00 -0.00000000000E+00 -0.14969525578E+03  0.14969525578E+03  0.00000000000E+00 0. -1.
         23    2    1    2    0    0 -0.14047806155E+02  0.14403436503E+02  0.18082562077E+03  0.20583149135E+03  0.96249144738E+02 0.  0.
         23    2    1    2    0    0 -0.55139952845E+02  0.31465412481E+02  0.10448717778E+03  0.15356133127E+03  0.92914076207E+02 0.  0.
        -13    1    3    3    0    0  0.20293222120E+02  0.41030970733E+02  0.49121587311E+02  0.67143769356E+02  0.00000000000E+00 0. -1.
         13    1    3    3    0    0 -0.34341028275E+02 -0.26627534230E+02  0.13170403346E+03  0.13868772199E+03  0.00000000000E+00 0.  1.
        -13    1    4    4    0    0  0.63995217133E+01 -0.25847714729E+02  0.37784379253E+02  0.46224642242E+02  0.00000000000E+00 0. -1.
         13    1    4    4    0    0 -0.61539474559E+02  0.57313127209E+02  0.66702798531E+02  0.10733668903E+03  0.00000000000E+00 0.  1.
         21    1    1    2  502  501  0.69187759000E+02 -0.45868848983E+02 -0.97363240744E+02  0.12794724675E+03  0.00000000000E+00 0. -1.
<scales pt_clust_5="13000.00000" pt_clust_6="13000.00000" pt_clust_7="13000.00000" pt_clust_8="13000.00000" pt_clust_9="83.01143"></scales>
<clustering>
<clus scale="   83.011">  2  9  1 -1</clus>
<clus scale="   92.914">  7  8 -1 -1</clus>
<clus scale="   93.385">  2  7  1 -1</clus>
<clus scale="   96.249">  5  6 -1 -1</clus>
<clus scale="   83.011">  2  5  1 -1</clus>
</clustering>
</event>
<event>
 9    1  0.2075077E-005  0.1317481E+03  0.7546771E-02  0.1228321E+00
         -1   -1    0    0    0  501 -0.00000000000E+00  0.00000000000E+00  0.39324570084E+02  0.39324570084E+02  0.00000000000E+00 0.  1.
          1   -1    0    0  502    0  0.00000000000E+00 -0.00000000000E+00 -0.94448300371E+03  0.94448300371E+03  0.00000000000E+00 0. -1.
         23    2    1    2    0    0 -0.15615572380E+01 -0.74543244569E+02 -0.10652086564E+03  0.15824165746E+03  0.90191981734E+02 0.  0.
         23    2    1    2    0    0 -0.23496784630E+01  0.12332613892E+03 -0.60782246164E+03  0.62857486740E+03  0.10219276652E+03 0.  0.
        -11    1    3    3    0    0 -0.33651547192E+02 -0.70216560704E+02 -0.48316699816E+02  0.91636758490E+02  0.00000000000E+00 0. -1.
         11    1    3    3    0    0  0.32089989954E+02 -0.43266838659E+01 -0.58204165820E+02  0.66604898974E+02  0.00000000000E+00 0.  1.
        -13    1    4    4    0    0  0.40883866228E+02  0.66597719728E+02 -0.42888192930E+03  0.43594317987E+03  0.00000000000E+00 0. -1.
         13    1    4    4    0    0 -0.43233544691E+02  0.56728419188E+02 -0.17894053234E+03  0.19263168753E+03  0.00000000000E+00 0.  1.
         21    1    1    2  502  501  0.39112357010E+01 -0.48782894346E+02 -0.19081510635E+03  0.19699104893E+03  0.00000000000E+00 0. -1.
<scales pt_clust_5="13000.00000" pt_clust_6="13000.00000" pt_clust_7="13000.00000" pt_clust_8="13000.00000" pt_clust_9="48.93944"></scales>
<clustering>
<clus scale="   48.939">  2  9  1 -1</clus>
<clus scale="   90.192">  5  6 -1 -1</clus>
<clus scale="  102.193">  7  8 -1 -1</clus>
<clus scale="  122.674">  1  5  2 -1</clus>
<clus scale="   48.939">  2  5  1 -1</clus>
</clustering>
</event>
<event>
 9    1  0.2075077E-005  0.1617560E+03  0.7546771E-02  0.1187652E+00
          2   -1    0    0  502    0  0.00000000000E+00  0.00000000000E+00  0.45506751646E+02  0.45506751646E+02  0.00000000000E+00 0. -1.
         -2   -1    0    0    0  501 -0.00000000000E+00 -0.00000000000E+00 -0.76462207979E+03  0.76462207979E+03  0.00000000000E+00 0.  1.
         23    2    1    2    0    0 -0.12286350577E+03 -0.34987511669E+02 -0.46315592100E+03  0.49046547790E+03  0.98607356872E+02 0.  0.
         23    2    1    2    0    0  0.13036582866E+03  0.99807391496E+01 -0.24102333928E+03  0.28958496189E+03  0.93125375933E+02 0.  0.
        -11    1    4    4    0    0  0.99161035189E+02  0.48643421581E+01 -0.85937312073E+02  0.13130801320E+03  0.00000000000E+00 0. -1.
         11    1    4    4    0    0  0.31204793471E+02  0.51163969915E+01 -0.15508602720E+03  0.15827694869E+03  0.00000000000E+00 0.  1.
        -13    1    3    3    0    0 -0.76230119342E+02  0.28688051464E+02 -0.20787932231E+03  0.22326631639E+03  0.00000000000E+00 0.  1.
         13    1    3    3    0    0 -0.46633386426E+02 -0.63675563133E+02 -0.25527659869E+03  0.26719916150E+03  0.00000000000E+00 0. -1.
         21    1    1    2  502  501 -0.75023228927E+01  0.25006772520E+02 -0.14936067866E+02  0.30078391645E+02  0.00000000000E+00 0. -1.
<scales pt_clust_5="13000.00000" pt_clust_6="13000.00000" pt_clust_7="13000.00000" pt_clust_8="13000.00000" pt_clust_9="26.10792"></scales>
<clustering>
<clus scale="   26.108">  1  9  2 -1</clus>
<clus scale="   93.125">  5  6 -1 -1</clus>
<clus scale="   98.607">  7  8 -1 -1</clus>
<clus scale="  158.474">  1  5  2 -1</clus>
<clus scale="   26.108">  1  5  2 -1</clus>
</clustering>
</event>
<event>
 9    1  0.2075077E-005  0.9643331E+02  0.7546771E-02  0.1287981E+00
          2   -1    0    0  502    0  0.00000000000E+00  0.00000000000E+00  0.31201832067E+03  0.31201832067E+03  0.00000000000E+00 0. -1.
         -2   -1    0    0    0  501 -0.00000000000E+00 -0.00000000000E+00 -0.81865640242E+02  0.81865640242E+02  0.00000000000E+00 0.  1.
         23    2    1    2    0    0  0.86194361325E+01  0.28392178164E+02 -0.31881154958E+02  0.10113467366E+03  0.91276523349E+02 0.  0.
         23    2    1    2    0    0  0.14219050488E+02 -0.44425230531E+02  0.20044260104E+03  0.22513172010E+03  0.91275805006E+02 0.  0.
        -13    1    4    4    0    0 -0.33538172781E+02 -0.23252244624E+02  0.43154391118E+02  0.59395095642E+02  0.00000000000E+00 0.  1.
         13    1    4    4    0    0  0.47757223269E+02 -0.21172985907E+02  0.15728820992E+03  0.16573662446E+03  0.00000000000E+00 0. -1.
        -13    1    3    3    0    0  0.37953866312E+02 -0.14445442952E+02 -0.27471053704E+02  0.49028823989E+02  0.00000000000E+00 0. -1.
         13    1    3    3    0    0 -0.29334430180E+02  0.42837621115E+02 -0.44101012538E+01  0.52105849670E+02  0.00000000000E+00 0.  1.
         21    1    1    2  502  501 -0.22838486620E+02  0.16033052367E+02  0.61591234347E+02  0.67617567153E+02  0.00000000000E+00 0. -1.
<scales pt_clust_5="13000.00000" pt_clust_6="13000.00000" pt_clust_7="13000.00000" pt_clust_8="13000.00000" pt_clust_9="27.90439"></scales>
<clustering>
<clus scale="   27.904">  1  9  2 -1</clus>
<clus scale="   91.276">  5  6 -1 -1</clus>
<clus scale="   91.277">  7  8 -1 -1</clus>
<clus scale="   96.433">  1  5  2 -1</clus>
<clus scale="   27.904">  1  5  2 -1</clus>
</clustering>
</event>
<event>
 9    1  0.2075077E-005  0.9204295E+02  0.7546771E-02  0.1298147E+00
         -4   -1    0    0    0  501 -0.00000000000E+00  0.00000000000E+00  0.48035214806E+02  0.48035214806E+02  0.00000000000E+00 0.  1.
          4   -1    0    0  502    0  0.00000000000E+00 -0.00000000000E+00 -0.36798356075E+03  0.36798356075E+03  0.00000000000E+00 0. -1.
         23    2    1    2    0    0  0.40205573354E+02 -0.18182096937E+02 -0.49159684913E+02  0.10980225794E+03  0.87708519824E+02 0.  0.
         23    2    1    2    0    0  0.22549788662E+01 -0.15300126133E+02 -0.16173312184E+03  0.18449113659E+03  0.87408226120E+02 0.  0.
        -11    1    3    3    0    0  0.64686244550E+01 -0.39831115887E+02 -0.56114955954E+02  0.69117647361E+02  0.00000000000E+00 0.  1.
         11    1    3    3    0    0  0.33736948899E+02  0.21649018950E+02  0.69552710403E+01  0.40684610576E+02  0.00000000000E+00 0. -1.
        -13    1    4    4    0    0  0.41953065580E+02  0.80194721372E+01 -0.76285955655E+02  0.87429506891E+02  0.00000000000E+00 0. -1.
         13    1    4    4    0    0 -0.39698086714E+02 -0.23319598270E+02 -0.85447166180E+02  0.97061629702E+02  0.00000000000E+00 0.  1.
         21    1    1    2  502  501 -0.42460552220E+02  0.33482223070E+02 -0.10905553919E+03  0.12172538102E+03  0.00000000000E+00 0.  1.
<scales pt_clust_5="13000.00000" pt_clust_6="13000.00000" pt_clust_7="13000.00000" pt_clust_8="13000.00000" pt_clust_9="54.07363"></scales>
<clustering>
<clus scale="   54.074">  2  9  1 -1</clus>
<clus scale="   87.408">  7  8 -1 -1</clus>
<clus scale="   87.709">  5  6 -1 -1</clus>
<clus scale="   91.757">  2  7  1 -1</clus>
<clus scale="   54.074">  2  5  1 -1</clus>
</clustering>
</event>
<event>
 9    1  0.2075077E-005  0.9181266E+02  0.7546771E-02  0.1298628E+00
         -2   -1    0    0    0  501 -0.00000000000E+00  0.00000000000E+00  0.49034159783E+02  0.49034159783E+02  0.00000000000E+00 0.  1.
          2   -1    0    0  502    0  0.00000000000E+00 -0.00000000000E+00 -0.33127328959E+03  0.33127328959E+03  0.00000000000E+00 0. -1.
         23    2    1    2    0    0  0.38097345848E+00 -0.29114314395E+02 -0.63091208741E+02  0.11464605011E+03  0.91188967218E+02 0.  0.
         23    2    1    2    0    0  0.32436154274E+01 -0.16683502066E+02 -0.93304262925E+02  0.13169422443E+03  0.91371893854E+02 0.  0.
        -11    1    4    4    0    0 -0.41548263938E+02  0.44629415783E+01 -0.30636729276E+02  0.51814913534E+02  0.00000000000E+00 0.  1.
         11    1    4    4    0    0  0.44791879366E+02 -0.21146443644E+02 -0.62667533649E+02  0.79879310898E+02  0.00000000000E+00 0. -1.
        -13    1    3    3    0    0 -0.25284069131E+02  0.25154077134E+02 -0.24862593286E+02  0.43475973746E+02  0.00000000000E+00 0.  1.
         13    1    3    3    0    0  0.25665042590E+02 -0.54268391529E+02 -0.38228615455E+02  0.71170076365E+02  0.00000000000E+00 0. -1.
         21    1    1    2  502  501 -0.36245888858E+01  0.45797816461E+02 -0.12584365814E+03  0.13396717483E+03  0.00000000000E+00 0. -1.
<scales pt_clust_5="13000.00000" pt_clust_6="13000.00000" pt_clust_7="13000.00000" pt_clust_8="13000.00000" pt_clust_9="45.94102"></scales>
<clustering>
<clus scale="   45.941">  2  9  1 -1</clus>
<clus scale="   91.189">  7  8 -1 -1</clus>
<clus scale="   91.372">  5  6 -1 -1</clus>
<clus scale="   91.631">  1  7  2 -1</clus>
<clus scale="   45.941">  2  5  1 -1</clus>
</clustering>
</event>
<event>
 9    1  0.2075077E-005  0.1913752E+03  0.7546771E-02  0.1157526E+00
         -2   -1    0    0    0  501 -0.00000000000E+00  0.00000000000E+00  0.11341693638E+03  0.11341693638E+03  0.00000000000E+00 0.  1.
          2   -1    0    0  502    0  0.00000000000E+00 -0.00000000000E+00 -0.11629153940E+04  0.11629153940E+04  0.00000000000E+00 0. -1.
         23    2    1    2    0    0 -0.15693190638E+03  0.11261000822E+03 -0.38982002406E+02  0.21563438039E+03  0.87578263882E+02 0.  0.
         23    2    1    2    0    0  0.12516578446E+03  0.42024628298E+02 -0.42039496306E+03  0.44982616899E+03  0.90438456231E+02 0.  0.
        -13    1    3    3    0    0 -0.89497265014E+02  0.10814535345E+03 -0.45924532568E+02  0.14769644752E+03  0.00000000000E+00 0. -1.
         13    1    3    3    0    0 -0.67434641365E+02  0.44646547716E+01  0.69425301622E+01  0.67937932875E+02  0.00000000000E+00 0.  1.
        -13    1    4    4    0    0  0.10108321966E+03  0.67097160042E+02 -0.36283581662E+03  0.38258290083E+03  0.00000000000E+00 0. -1.
         13    1    4    4    0    0  0.24082564797E+02 -0.25072531744E+02 -0.57559146438E+02  0.67243268169E+02  0.00000000000E+00 0.  1.
         21    1    1    2  502  501  0.31766121917E+02 -0.15463463652E+03 -0.59012149215E+03  0.61087178100E+03  0.00000000000E+00 0. -1.
<scales pt_clust_5="13000.00000" pt_clust_6="13000.00000" pt_clust_7="13000.00000" pt_clust_8="13000.00000" pt_clust_9="157.86373"></scales>
<clustering>
<clus scale="   87.578">  5  6 -1 -1</clus>
<clus scale="   90.438">  7  8 -1 -1</clus>
<clus scale="  157.864">  2  9  1 -1</clus>
<clus scale="  190.040">  1  5  2 -1</clus>
<clus scale="  157.864">  2  5  1 -1</clus>
</clustering>
</event>
<event>
 9    1  0.2075077E-005  0.9107785E+02  0.7546771E-02  0.1319177E+00
         -3   -1    0    0    0  501 -0.00000000000E+00  0.00000000000E+00  0.38741057194E+02  0.38741057194E+02  0.00000000000E+00 0.  1.
          3   -1    0    0  502    0  0.00000000000E+00 -0.00000000000E+00 -0.38073187767E+03  0.38073187767E+03  0.00000000000E+00 0. -1.
         23    2    1    2    0    0  0.20142899133E+00  0.15187790395E+02 -0.33342308187E+02  0.96407855740E+02  0.89174298890E+02 0.  0.
         23    2    1    2    0    0  0.19019351415E+02 -0.26481224755E+02 -0.19297710093E+03  0.20526501348E+03  0.61891625315E+02 0.  0.
        -11    1    4    4    0    0  0.35132338006E+02 -0.72311893035E+01 -0.59719032678E+02  0.69663004073E+02  0.00000000000E+00 0.  1.
         11    1    4    4    0    0 -0.16112986591E+02 -0.19250035451E+02 -0.13325806825E+03  0.13560200941E+03  0.00000000000E+00 0. -1.
        -11    1    3    3    0    0 -0.35756985144E+02  0.81251925405E+00  0.11111018315E+02  0.37452328394E+02  0.00000000000E+00 0. -1.
         11    1    3    3    0    0  0.35958414136E+02  0.14375271141E+02 -0.44453326503E+02  0.58955527346E+02  0.00000000000E+00 0.  1.
         21    1    1    2  502  501 -0.19220780406E+02  0.11293434360E+02 -0.11567141136E+03  0.11780006564E+03  0.00000000000E+00 0. -1.
<scales pt_clust_5="13000.00000" pt_clust_6="13000.00000" pt_clust_7="13000.00000" pt_clust_8="13000.00000" pt_clust_9="22.29305"></scales>
<clustering>
<clus scale="   22.293">  2  9  1 -1</clus>
<clus scale="   61.892">  5  6 -1 -1</clus>
<clus scale="   64.604">  2  5  1 -1</clus>
<clus scale="   89.174">  7  8 -1 -1</clus>
<clus scale="   22.293">  2  5  1 -1</clus>
</clustering>
</event>
<event>
 9    1  0.3375040E-005  0.4522777E+03  0.7546771E-02  0.1079594E+00
         -2   -1    0    0    0  501 -0.00000000000E+00  0.00000000000E+00  0.88152100656E+03  0.88152100656E+03  0.00000000000E+00 0.  1.
          2   -1    0    0  502    0  0.00000000000E+00 -0.00000000000E+00 -0.58738430075E+03  0.58738430075E+03  0.00000000000E+00 0. -1.
         23    2    1    2    0    0  0.42466039525E+03 -0.18987524587E+03 -0.22746023865E+03  0.52564610934E+03  0.90424619494E+02 0.  0.
         23    2    1    2    0    0 -0.38622063228E+02 -0.20005258058E+02 -0.12514918284E+03  0.16136663956E+03  0.92114061233E+02 0.  0.
        -13    1    4    4    0    0 -0.27296118019E+02 -0.47161924392E+02 -0.30925224877E+02  0.62655364534E+02  0.00000000000E+00 0. -1.
         13    1    4    4    0    0 -0.11325945208E+02  0.27156666334E+02 -0.94223957968E+02  0.98711275022E+02  0.00000000000E+00 0.  1.
        -13    1    3    3    0    0  0.34998114699E+03 -0.12050572772E+03 -0.15893608731E+03  0.40282640617E+03  0.00000000000E+00 0. -1.
         13    1    3    3    0    0  0.74679248258E+02 -0.69369518145E+02 -0.68524151346E+02  0.12281970317E+03  0.00000000000E+00 0.  1.
         21    1    1    2  502  501 -0.38603833202E+03  0.20988050392E+03  0.64674612731E+03  0.78189255842E+03  0.00000000000E+00 0.  1.
<scales pt_clust_5="13000.00000" pt_clust_6="13000.00000" pt_clust_7="13000.00000" pt_clust_8="13000.00000" pt_clust_9="443.14615"></scales>
<clustering>
<clus scale="   90.425">  7  8 -1 -1</clus>
<clus scale="   92.114">  5  6 -1 -1</clus>
<clus scale="  101.867">  2  5  1 -1</clus>
<clus scale="  443.146">  1  9  2 -1</clus>
<clus scale="  101.867">  2  5  1 -1</clus>
</clustering>
</event>
<event>
 9    1  0.2075077E-005  0.1619525E+03  0.7546771E-02  0.1186566E+00
         -2   -1    0    0    0  501 -0.00000000000E+00  0.00000000000E+00  0.31173389830E+03  0.31173389830E+03  0.00000000000E+00 0.  1.
          2   -1    0    0  502    0  0.00000000000E+00 -0.00000000000E+00 -0.33226408624E+03  0.33226408624E+03  0.00000000000E+00 0. -1.
         23    2    1    2    0    0  0.14092109425E+03  0.24627906584E+02  0.24836580321E+03  0.30067442633E+03  0.90852902319E+02 0.  0.
         23    2    1    2    0    0 -0.64452798836E+02  0.22693020196E+02 -0.20049540626E+03  0.23033988537E+03  0.90492642905E+02 0.  0.
        -13    1    3    3    0    0  0.10614152716E+03 -0.20944207660E+02  0.19137573546E+03  0.21983938625E+03  0.00000000000E+00 0.  1.
         13    1    3    3    0    0  0.34779567088E+02  0.45572114244E+02  0.56990067743E+02  0.80835040081E+02  0.00000000000E+00 0. -1.
        -13    1    4    4    0    0  0.94995822049E+01 -0.19541476428E+02 -0.15520789805E+02  0.26702177424E+02  0.00000000000E+00 0.  1.
         13    1    4    4    0    0 -0.73952381041E+02  0.42234496624E+02 -0.18497461645E+03  0.20363770795E+03  0.00000000000E+00 0. -1.
         21    1    1    2  502  501 -0.76468295410E+02 -0.47320926780E+02 -0.68400584886E+02  0.11298367283E+03  0.00000000000E+00 0. -1.
<scales pt_clust_5="13000.00000" pt_clust_6="13000.00000" pt_clust_7="13000.00000" pt_clust_8="13000.00000" pt_clust_9="89.92592"></scales>
<clustering>
<clus scale="   89.926">  2  9  1 -1</clus>
<clus scale="   90.493">  7  8 -1 -1</clus>
<clus scale="   90.853">  5  6 -1 -1</clus>
<clus scale="  161.751">  2  7  1 -1</clus>
<clus scale="   89.926">  2  5  1 -1</clus>
</clustering>
</event>
<event>
 9    1  0.2075077E-005  0.1009513E+03  0.7546771E-02  0.1282203E+00
          1   -1    0    0  502    0  0.00000000000E+00  0.00000000000E+00  0.76196412568E+02  0.76196412568E+02  0.00000000000E+00 0. -1.
         -1   -1    0    0    0  501 -0.00000000000E+00 -0.00000000000E+00 -0.21187672585E+03  0.21187672585E+03  0.00000000000E+00 0.  1.
         23    2    1    2    0    0 -0.78419210131E+01 -0.64495387323E+01 -0.10061316935E+03  0.14205029203E+03  0.99760630229E+02 0.  0.
         23    2    1    2    0    0  0.25196460077E+02 -0.62662394324E+01 -0.59886317096E+02  0.11317680557E+03  0.92458049880E+02 0.  0.
        -11    1    3    3    0    0  0.60619303908E+01  0.22752633341E+02  0.10896060088E+02  0.25945200894E+02  0.00000000000E+00 0.  1.
         11    1    3    3    0    0 -0.13903851404E+02 -0.29202172073E+02 -0.11150922944E+03  0.11610509113E+03  0.00000000000E+00 0. -1.
        -11    1    4    4    0    0 -0.19615357215E+02 -0.18306075120E+02  0.10550139034E+02  0.28830193524E+02  0.00000000000E+00 0. -1.
         11    1    4    4    0    0  0.44811817292E+02  0.12039835688E+02 -0.70436456129E+02  0.84346612051E+02  0.00000000000E+00 0.  1.
         21    1    1    2  502  501 -0.17354539064E+02  0.12715778165E+02  0.24819173165E+02  0.32846040813E+02  0.00000000000E+00 0. -1.
<scales pt_clust_5="13000.00000" pt_clust_6="13000.00000" pt_clust_7="13000.00000" pt_clust_8="13000.00000" pt_clust_9="21.51444"></scales>
<clustering>
<clus scale="   21.514">  1  9  2 -1</clus>
<clus scale="   92.458">  7  8 -1 -1</clus>
<clus scale="   93.741">  1  7  2 -1</clus>
<clus scale="   99.761">  5  6 -1 -1</clus>
<clus scale="   21.514">  1  5  2 -1</clus>
</clustering>
</event>
<event>
 9    1  0.2075077E-005  0.3317044E+03  0.7546771E-02  0.1070461E+00
         -1   -1    0    0    0  501 -0.00000000000E+00  0.00000000000E+00  0.37728873166E+03  0.37728873166E+03  0.00000000000E+00 0.  1.
          1   -1    0    0  502    0  0.00000000000E+00 -0.00000000000E+00 -0.10429767615E+04  0.10429767615E+04  0.00000000000E+00 0. -1.
         23    2    1    2    0    0 -0.29666812637E+03  0.12043959096E+03  0.21489062706E+03  0.39611898760E+03  0.90634422078E+02 0.  0.
         23    2    1    2    0    0  0.34526069647E+03  0.36914576849E+02 -0.59913198022E+03  0.69805786146E+03  0.88079587391E+02 0.  0.
        -11    1    3    3    0    0 -0.22524468196E+03  0.12447759262E+03  0.19174658785E+03  0.32093082084E+03  0.00000000000E+00 0.  1.
         11    1    3    3    0    0 -0.71423444416E+02 -0.40380016625E+01  0.23144039206E+02  0.75188166758E+02  0.00000000000E+00 0. -1.
        -11    1    4    4    0    0  0.26884864741E+03 -0.48004900952E+01 -0.48451111217E+03  0.55412422591E+03  0.00000000000E+00 0. -1.
         11    1    4    4    0    0  0.76412049055E+02  0.41715066944E+02 -0.11462086804E+03  0.14393363555E+03  0.00000000000E+00 0.  1.
         21    1    1    2  502  501 -0.48592570093E+02 -0.15735416781E+03 -0.28144667666E+03  0.32608864408E+03  0.00000000000E+00 0. -1.
<scales pt_clust_5="13000.00000" pt_clust_6="13000.00000" pt_clust_7="13000.00000" pt_clust_8="13000.00000" pt_clust_9="164.68628"></scales>
<clustering>
<clus scale="   88.080">  7  8 -1 -1</clus>
<clus scale="   90.634">  5  6 -1 -1</clus>
<clus scale="  164.686">  2  9  1 -1</clus>
<clus scale="  331.015">  2  7  1 -1</clus>
<clus scale="  164.686">  2  5  1 -1</clus>
</clustering>
</event>
<event>
 9    1  0.2075077E-005  0.1048715E+03  0.7546771E-02  0.1271002E+00
         -1   -1    0    0    0  501 -0.00000000000E+00  0.00000000000E+00  0.38664769725E+03  0.38664769725E+03  0.00000000000E+00 0.  1.
          1   -1    0    0  502    0  0.00000000000E+00 -0.00000000000E+00 -0.42554541962E+02  0.42554541962E+02  0.00000000000E+00 0. -1.
         23    2    1    2    0    0 -0.28459472555E+02 -0.21859515984E+02  0.16326782931E+03  0.19046689226E+03  0.91287857585E+02 0.  0.
         23    2    1    2    0    0  0.67307821214E+02  0.23467700574E+02  0.13792534001E+03  0.18083725331E+03  0.92723443642E+02 0.  0.
        -11    1    3    3    0    0  0.16007207933E+02 -0.15595077734E+02  0.12963093366E+01  0.22385655524E+02  0.00000000000E+00 0. -1.
         11    1    3    3    0    0 -0.44466680488E+02 -0.62644382499E+01  0.16197151998E+03  0.16808123674E+03  0.00000000000E+00 0.  1.
        -11    1    4    4    0    0  0.70764762560E+02 -0.39844196072E+00  0.13975766929E+03  0.15665253430E+03  0.00000000000E+00 0. -1.
         11    1    4    4    0    0 -0.34569413451E+01  0.23866142534E+02 -0.18323292845E+01  0.24184719009E+02  0.00000000000E+00 0.  1.
         21    1    1    2  502  501 -0.38848348660E+02 -0.16081845900E+01  0.42899985965E+02  0.57898093639E+02  0.00000000000E+00 0.  1.
<scales pt_clust_5="13000.00000" pt_clust_6="13000.00000" pt_clust_7="13000.00000" pt_clust_8="13000.00000" pt_clust_9="38.88162"></scales>
<clustering>
<clus scale="   38.882">  2  9  1 -1</clus>
<clus scale="   91.288">  5  6 -1 -1</clus>
<clus scale="   92.723">  7  8 -1 -1</clus>
<clus scale="  103.604">  1  5  2 -1</clus>
<clus scale="   38.882">  2  5  1 -1</clus>
</clustering>
</event>
<event>
 9    1  0.3016267E-005  0.1598542E+03  0.7546771E-02  0.1190282E+00
         -1   -1    0    0    0  501 -0.00000000000E+00  0.00000000000E+00  0.15089769810E+03  0.15089769810E+03  0.00000000000E+00 0.  1.
          1   -1    0    0  502    0  0.00000000000E+00 -0.00000000000E+00 -0.72713862653E+03  0.72713862653E+03  0.00000000000E+00 0. -1.
         23    2    1    2    0    0 -0.12613785063E+03 -0.11379681256E+01  0.89555790885E+02  0.18188025781E+03  0.95645889448E+02 0.  0.
         23    2    1    2    0    0  0.15231676709E+03  0.93608089557E+01 -0.56564182070E+03  0.59231024603E+03  0.87136306689E+02 0.  0.
        -13    1    3    3    0    0 -0.13025438050E+03  0.22720192242E+02  0.64773265885E+02  0.14723446182E+03  0.00000000000E+00 0.  1.
         13    1    3    3    0    0  0.41165298726E+01 -0.23858160367E+02  0.24782525000E+02  0.34645795989E+02  0.00000000000E+00 0. -1.
        -13    1    4    4    0    0  0.12898198278E+03  0.22933349752E+02 -0.53781615138E+03  0.55354178081E+03  0.00000000000E+00 0. -1.
         13    1    4    4    0    0  0.23334784309E+02 -0.13572540796E+02 -0.27825669316E+02  0.38768465217E+02  0.00000000000E+00 0.  1.
         21    1    1    2  502  501 -0.26178916461E+02 -0.82228408301E+01 -0.10015489862E+03  0.10384582079E+03  0.00000000000E+00 0. -1.
<scales pt_clust_5="13000.00000" pt_clust_6="13000.00000" pt_clust_7="13000.00000" pt_clust_8="13000.00000" pt_clust_9="27.43995"></scales>
<clustering>
<clus scale="   27.440">  2  9  1 -1</clus>
<clus scale="   87.136">  7  8 -1 -1</clus>
<clus scale="   95.646">  5  6 -1 -1</clus>
<clus scale="  154.913">  2  7  1 -1</clus>
<clus scale="   27.440">  2  5  1 -1</clus>
</clustering>
</event>
<event>
 9    1  0.2075077E-005  0.9670445E+02  0.7546771E-02  0.1288339E+00
          2   -1    0    0  502    0  0.00000000000E+00  0.00000000000E+00  0.39888930017E+03  0.39888930017E+03  0.00000000000E+00 0. -1.
         -2   -1    0    0    0  501 -0.00000000000E+00 -0.00000000000E+00 -0.39915448133E+02  0.39915448133E+02  0.00000000000E+00 0.  1.
         23    2    1    2    0    0  0.17716296238E+02  0.10813439083E+02  0.85127428250E+02  0.12628016328E+03  0.90935158110E+02 0.  0.
         23    2    1    2    0    0 -0.29019865304E+02 -0.44216912249E+02  0.14038673571E+03  0.17448455085E+03  0.89101823833E+02 0.  0.
        -11    1    4    4    0    0  0.63268918543E+01 -0.31823059319E+02  0.35800181803E+01  0.32642812304E+02  0.00000000000E+00 0.  1.
         11    1    4    4    0    0 -0.35346757159E+02 -0.12393852931E+02  0.13680671753E+03  0.14184173855E+03  0.00000000000E+00 0. -1.
        -13    1    3    3    0    0 -0.20085919367E+02 -0.30790240185E+02  0.28779823870E+02  0.46687913955E+02  0.00000000000E+00 0.  1.
         13    1    3    3    0    0  0.37802215605E+02  0.41603679268E+02  0.56347604379E+02  0.79592249325E+02  0.00000000000E+00 0. -1.
         21    1    1    2  502  501  0.11303569066E+02  0.33403473167E+02  0.13345968808E+03  0.13804003417E+03  0.00000000000E+00 0. -1.
<scales pt_clust_5="13000.00000" pt_clust_6="13000.00000" pt_clust_7="13000.00000" pt_clust_8="13000.00000" pt_clust_9="35.26418"></scales>
<clustering>
<clus scale="   35.264">  1  9  2 -1</clus>
<clus scale="   89.102">  5  6 -1 -1</clus>
<clus scale="   90.935">  7  8 -1 -1</clus>
<clus scale="   94.983">  1  5  2 -1</clus>
<clus scale="   35.264">  1  5  2 -1</clus>
</clustering>
</event>
<event>
 9    1  0.2075077E-005  0.1181512E+03  0.7546771E-02  0.1249774E+00
         -1   -1    0    0    0  501 -0.00000000000E+00  0.00000000000E+00  0.65037375177E+03  0.65037375177E+03  0.00000000000E+00 0.  1.
          1   -1    0    0  502    0  0.00000000000E+00 -0.00000000000E+00 -0.58616870098E+02  0.58616870098E+02  0.00000000000E+00 0. -1.
         23    2    1    2    0    0 -0.49853751443E+02  0.49507736213E+02  0.52567052023E+03  0.53979704915E+03  0.10057308761E+03 0.  0.
         23    2    1    2    0    0 -0.61532433341E+01 -0.37820344278E+02  0.41191539153E+02  0.10679861482E+03  0.90779735544E+02 0.  0.
        -13    1    4    4    0    0  0.36565652161E+02 -0.20904274094E+02  0.43816254727E+02  0.60777461050E+02  0.00000000000E+00 0. -1.
         13    1    4    4    0    0 -0.42718895495E+02 -0.16916070183E+02 -0.26247155742E+01  0.46021153773E+02  0.00000000000E+00 0.  1.
        -13    1    3    3    0    0 -0.32664998716E+01 -0.27793608735E+02  0.72236173779E+02  0.77467538429E+02  0.00000000000E+00 0. -1.
         13    1    3    3    0    0 -0.46587251571E+02  0.77301344948E+02  0.45343434645E+03  0.46232951072E+03  0.00000000000E+00 0.  1.
         21    1    1    2  502  501  0.56006994777E+02 -0.11687391935E+02  0.24894822286E+02  0.62394957896E+02  0.00000000000E+00 0. -1.
<scales pt_clust_5="13000.00000" pt_clust_6="13000.00000" pt_clust_7="13000.00000" pt_clust_8="13000.00000" pt_clust_9="57.21345"></scales>
<clustering>
<clus scale="   57.213">  2  9  1 -1</clus>
<clus scale="   90.780">  5  6 -1 -1</clus>
<clus scale="  100.573">  7  8 -1 -1</clus>
<clus scale="  109.935">  2  5  1 -1</clus>
<clus scale="   57.213">  2  5  1 -1</clus>
</clustering>
</event>
<event>
 9    1  0.2075077E-005  0.1007810E+03  0.7546771E-02  0.1279104E+00
         -1   -1    0    0    0  501 -0.00000000000E+00  0.00000000000E+00  0.26502218097E+02  0.26502218097E+02  0.00000000000E+00 0.  1.
          1   -1    0    0  502    0  0.00000000000E+00 -0.00000000000E+00 -0.58167529782E+03  0.58167529782E+03  0.00000000000E+00 0. -1.
         23    2    1    2    0    0 -0.14293000537E+02  0.36624690157E+02 -0.13079668933E+03  0.16402326875E+03  0.90830616860E+02 0.  0.
         23    2    1    2    0    0 -0.19261210005E+01 -0.48919036732E+02 -0.28669593066E+03  0.30497766921E+03  0.91760775703E+02 0.  0.
        -11    1    4    4    0    0  0.25688987726E+02 -0.57813511134E+02 -0.25165459796E+03  0.25948480270E+03  0.00000000000E+00 0.  1.
         11    1    4    4    0    0 -0.27615108726E+02  0.88944744020E+01 -0.35041332707E+02  0.45492866504E+02  0.00000000000E+00 0. -1.
        -13    1    3    3    0    0 -0.18490195839E+02 -0.13124070603E+02  0.13956581059E+01  0.22717315707E+02  0.00000000000E+00 0.  1.
         13    1    3    3    0    0  0.41971953019E+01  0.49748760760E+02 -0.13219234744E+03  0.14130595305E+03  0.00000000000E+00 0. -1.
         21    1    1    2  502  501  0.16219121538E+02  0.12294346575E+02 -0.13768045973E+03  0.13917657796E+03  0.00000000000E+00 0. -1.
<scales pt_clust_5="13000.00000" pt_clust_6="13000.00000" pt_clust_7="13000.00000" pt_clust_8="13000.00000" pt_clust_9="20.35217"></scales>
<clustering>
<clus scale="   20.352">  2  9  1 -1</clus>
<clus scale="   90.831">  7  8 -1 -1</clus>
<clus scale="   91.761">  5  6 -1 -1</clus>
<clus scale="   99.935">  1  7  2 -1</clus>
<clus scale="   20.352">  2  5  1 -1</clus>
</clustering>
</event>
<event>
 9    1  0.2075077E-005  0.1085726E+03  0.7546771E-02  0.1264451E+00
         -2   -1    0    0    0  501 -0.00000000000E+00  0.00000000000E+00  0.46660684272E+02  0.46660684272E+02  0.00000000000E+00 0.  1.
          2   -1    0    0  502    0  0.00000000000E+00 -0.00000000000E+00 -0.43923707201E+03  0.43923707201E+03  0.00000000000E+00 0. -1.
         23    2    1    2    0    0 -0.72966976421E+02 -0.88644324013E+01 -0.84614607323E+02  0.14272017412E+03  0.88355297056E+02 0.  0.
         23    2    1    2    0    0  0.27755920237E+02 -0.15132753771E+02 -0.23434540003E+03  0.25351557234E+03  0.91394680132E+02 0.  0.
        -13    1    3    3    0    0 -0.16574984488E+02 -0.43514278657E+02 -0.21587174908E+02  0.51324737489E+02  0.00000000000E+00 0.  1.
         13    1    3    3    0    0 -0.56391991933E+02  0.34649846256E+02 -0.63027432415E+02  0.91395436629E+02  0.00000000000E+00 0. -1.
        -13    1    4    4    0    0  0.10480242516E+02  0.18549341692E+02 -0.61124605596E+01  0.22164740795E+02  0.00000000000E+00 0.  1.
         13    1    4    4    0    0  0.17275677721E+02 -0.33682095462E+02 -0.22823293947E+03  0.23135083154E+03  0.00000000000E+00 0. -1.
         21    1    1    2  502  501  0.45211056184E+02  0.23997186172E+02 -0.73616380386E+02  0.89662009829E+02  0.00000000000E+00 0. -1.
<scales pt_clust_5="13000.00000" pt_clust_6="13000.00000" pt_clust_7="13000.00000" pt_clust_8="13000.00000" pt_clust_9="51.18500"></scales>
<clustering>
<clus scale="   51.185">  2  9  1 -1</clus>
<clus scale="   88.355">  5  6 -1 -1</clus>
<clus scale="   91.395">  7  8 -1 -1</clus>
<clus scale="  106.027">  1  5  2 -1</clus>
<clus scale="   51.185">  2  5  1 -1</clus>
</clustering>
</event>
<event>
 9    1  0.2075077E-005  0.9134455E+02  0.7546771E-02  0.1299803E+00
          2   -1    0    0  502    0  0.00000000000E+00  0.00000000000E+00  0.35967545510E+03  0.35967545510E+03  0.00000000000E+00 0. -1.
         -2   -1    0    0    0  501 -0.00000000000E+00 -0.00000000000E+00 -0.48665476740E+02  0.48665476740E+02  0.00000000000E+00 0.  1.
         23    2    1    2    0    0  0.80793853916E+01  0.13541327342E+02  0.32868509870E+02  0.98198749018E+02  0.91181200656E+02 0.  0.
         23    2    1    2    0    0  0.10528178929E+02  0.16056308007E+02  0.14277522512E+03  0.17033416692E+03  0.90886280219E+02 0.  0.
        -13    1    3    3    0    0 -0.15947631090E+02 -0.34386004795E+02  0.20831672101E+02  0.43251391026E+02  0.00000000000E+00 0. -1.
         13    1    3    3    0    0  0.24027016481E+02  0.47927332137E+02  0.12036837769E+02  0.54947357992E+02  0.00000000000E+00 0.  1.
        -13    1    4    4    0    0 -0.36688950652E+02  0.20427981422E+02  0.44318437107E+02  0.61053299604E+02  0.00000000000E+00 0. -1.
         13    1    4    4    0    0  0.47217129581E+02 -0.43716734149E+01  0.98456788015E+02  0.10928086731E+03  0.00000000000E+00 0.  1.
         21    1    1    2  502  501 -0.18607564321E+02 -0.29597635350E+02  0.13536624337E+03  0.13980801591E+03  0.00000000000E+00 0. -1.
<scales pt_clust_5="13000.00000" pt_clust_6="13000.00000" pt_clust_7="13000.00000" pt_clust_8="13000.00000" pt_clust_9="34.96086"></scales>
<clustering>
<clus scale="   34.961">  1  9  2 -1</clus>
<clus scale="   90.886">  7  8 -1 -1</clus>
<clus scale="   91.050">  1  7  2 -1</clus>
<clus scale="   91.181">  5  6 -1 -1</clus>
<clus scale="   34.961">  1  5  2 -1</clus>
</clustering>
</event>
<event>
 9    1  0.2075077E-005  0.1348420E+03  0.7546771E-02  0.1222988E+00
         -1   -1    0    0    0  501 -0.00000000000E+00  0.00000000000E+00  0.49354596379E+03  0.49354596379E+03  0.00000000000E+00 0.  1.
          1   -1    0    0  502    0  0.00000000000E+00 -0.00000000000E+00 -0.45417191039E+02  0.45417191039E+02  0.00000000000E+00 0. -1.
         23    2    1    2    0    0 -0.43230788674E+02 -0.68802937807E+02  0.22880113131E+03  0.25930542605E+03  0.91030769255E+02 0.  0.
         23    2    1    2    0    0  0.41193024944E+02  0.94636363658E+02  0.20320649163E+03  0.24913872087E+03  0.10061966690E+03 0.  0.
        -11    1    3    3    0    0 -0.35341753921E+01 -0.77356896615E+02  0.17910309009E+03  0.19512687342E+03  0.00000000000E+00 0.  1.
         11    1    3    3    0    0 -0.39696613281E+02  0.85539588076E+01  0.49698041220E+02  0.64178552635E+02  0.00000000000E+00 0. -1.
        -11    1    4    4    0    0 -0.25945884893E+02  0.36724824481E+02  0.28544124592E+02  0.53260386074E+02  0.00000000000E+00 0. -1.
         11    1    4    4    0    0  0.67138909836E+02  0.57911539177E+02  0.17466236704E+03  0.19587833480E+03  0.00000000000E+00 0.  1.
         21    1    1    2  502  501  0.20377637299E+01 -0.25833425851E+02  0.16121149810E+02  0.30519007903E+02  0.00000000000E+00 0.  1.
<scales pt_clust_5="13000.00000" pt_clust_6="13000.00000" pt_clust_7="13000.00000" pt_clust_8="13000.00000" pt_clust_9="25.91367"></scales>
<clustering>
<clus scale="   25.914">  2  9  1 -1</clus>
<clus scale="   91.031">  5  6 -1 -1</clus>
<clus scale="  100.620">  7  8 -1 -1</clus>
<clus scale="  127.846">  1  5  2 -1</clus>
<clus scale="   25.914">  2  5  1 -1</clus>
</clustering>
</event>
<event>
 9    1  0.2075077E-005  0.1724139E+03  0.7546771E-02  0.1176707E+00
          2   -1    0    0  502    0  0.00000000000E+00  0.00000000000E+00  0.27493348446E+03  0.27493348446E+03  0.00000000000E+00 0. -1.
         -2   -1    0    0    0  501 -0.00000000000E+00 -0.00000000000E+00 -0.29988561142E+03  0.29988561142E+03  0.00000000000E+00 0.  1.
         23    2    1    2    0    0  0.12470646696E+03 -0.54921076421E+02 -0.19289480129E+03  0.25217280113E+03  0.88400733755E+02 0.  0.
         23    2    1    2    0    0 -0.13796814226E+03  0.12090864547E+03  0.12082670701E+03  0.24048702456E+03  0.97881596984E+02 0.  0.
        -11    1    4    4    0    0 -0.47826394575E+02 -0.93907489185E+01  0.37321434568E+02  0.61387618145E+02  0.00000000000E+00 0.  1.
         11    1    4    4    0    0 -0.90141747681E+02  0.13029939439E+03  0.83505272445E+02  0.17909940641E+03  0.00000000000E+00 0. -1.
        -13    1    3    3    0    0  0.10716581483E+03 -0.70022501341E+02 -0.18963404360E+03  0.22879845510E+03  0.00000000000E+00 0.  1.
         13    1    3    3    0    0  0.17540652132E+02  0.15101424920E+02 -0.32607576891E+01  0.23374346034E+02  0.00000000000E+00 0. -1.
         21    1    1    2  502  501  0.13261675299E+02 -0.65987569045E+02  0.47115967319E+02  0.82159270181E+02  0.00000000000E+00 0.  1.
<scales pt_clust_5="13000.00000" pt_clust_6="13000.00000" pt_clust_7="13000.00000" pt_clust_8="13000.00000" pt_clust_9="67.30699"></scales>
<clustering>
<clus scale="   67.307">  1  9  2 -1</clus>
<clus scale="   88.401">  7  8 -1 -1</clus>
<clus scale="   97.882">  5  6 -1 -1</clus>
<clus scale="  167.214">  2  7  1 -1</clus>
<clus scale="   67.307">  1  5  2 -1</clus>
</clustering>
</event>
<event>
 9    1  0.2075077E-005  0.1558723E+03  0.7546771E-02  0.1194008E+00
         -2   -1    0    0    0  501 -0.00000000000E+00  0.00000000000E+00  0.61144490088E+02  0.61144490088E+02  0.00000000000E+00 0.  1.
          2   -1    0    0  502    0  0.00000000000E+00 -0.00000000000E+00 -0.57536555463E+03  0.57536555463E+03  0.00000000000E+00 0. -1.
         23    2    1    2    0    0 -0.12475312644E+03 -0.28143412764E+02 -0.94712849816E+02  0.18332223268E+03  0.91000674922E+02 0.  0.
         23    2    1    2    0    0  0.11389631701E+03  0.94421304513E+01 -0.38437939292E+03  0.41193684366E+03  0.94249247230E+02 0.  0.
        -11    1    3    3    0    0 -0.62123962229E+02  0.93268594170E+01  0.11606283060E+01  0.62830916337E+02  0.00000000000E+00 0.  1.
         11    1    3    3    0    0 -0.62629164208E+02 -0.37470272181E+02 -0.95873478122E+02  0.12049131634E+03  0.00000000000E+00 0. -1.
        -11    1    4    4    0    0  0.59638014468E+02 -0.41902381049E+02 -0.17213382606E+03  0.18692928177E+03  0.00000000000E+00 0. -1.
         11    1    4    4    0    0  0.54258302537E+02  0.51344511500E+02 -0.21224556686E+03  0.22500756189E+03  0.00000000000E+00 0.  1.
         21    1    1    2  502  501  0.10856809432E+02  0.18701282313E+02 -0.35128821799E+02  0.41250968378E+02  0.00000000000E+00 0.  1.
<scales pt_clust_5="13000.00000" pt_clust_6="13000.00000" pt_clust_7="13000.00000" pt_clust_8="13000.00000" pt_clust_9="21.62425"></scales>
<clustering>
<clus scale="   21.624">  2  9  1 -1</clus>
<clus scale="   91.001">  5  6 -1 -1</clus>
<clus scale="   94.249">  7  8 -1 -1</clus>
<clus scale="  153.930">  1  5  2 -1</clus>
<clus scale="   21.624">  2  5  1 -1</clus>
</clustering>
</event>
<event>
 9    1  0.2075077E-005  0.1241333E+03  0.7546771E-02  0.1237971E+00
         -2   -1    0    0    0  501 -0.00000000000E+00  0.00000000000E+00  0.57972014415E+02  0.57972014415E+02  0.00000000000E+00 0.  1.
          2   -1    0    0  502    0  0.00000000000E+00 -0.00000000000E+00 -0.53709648900E+03  0.53709648900E+03  0.00000000000E+00 0. -1.
         23    2    1    2    0    0  0.20566644368E+02 -0.93629447027E+02 -0.61603268452E+02  0.14867518654E+03  0.95498105725E+02 0.  0.
         23    2    1    2    0    0  0.33063026227E+01  0.40064108881E+02 -0.24848870731E+03  0.26747671981E+03  0.90449397568E+02 0.  0.
        -13    1    4    4    0    0  0.40322200851E+02  0.32514743322E+02 -0.83848484021E+02  0.98557884958E+02  0.00000000000E+00 0.  1.
         13    1    4    4    0    0 -0.37015898228E+02  0.75493655589E+01 -0.16464022329E+03  0.16891883485E+03  0.00000000000E+00 0. -1.
        -13    1    3    3    0    0  0.38085805704E+02 -0.78968143984E+02 -0.52063465676E+01  0.87827116570E+02  0.00000000000E+00 0.  1.
         13    1    3    3    0    0 -0.17519161336E+02 -0.14661303043E+02 -0.56396921884E+02  0.60848069968E+02  0.00000000000E+00 0. -1.
         21    1    1    2  502  501 -0.23872946991E+02  0.53565338146E+02 -0.16903249883E+03  0.17891659707E+03  0.00000000000E+00 0. -1.
<scales pt_clust_5="13000.00000" pt_clust_6="13000.00000" pt_clust_7="13000.00000" pt_clust_8="13000.00000" pt_clust_9="58.64438"></scales>
<clustering>
<clus scale="   58.644">  2  9  1 -1</clus>
<clus scale="   90.449">  5  6 -1 -1</clus>
<clus scale="   95.498">  7  8 -1 -1</clus>
<clus scale="  120.292">  2  5  1 -1</clus>
<clus scale="   58.644">  2  5  1 -1</clus>
</clustering>
</event>
<event>
 9    1  0.2075077E-005  0.9553388E+02  0.7546771E-02  0.1292002E+00
         -1   -1    0    0    0  501 -0.00000000000E+00  0.00000000000E+00  0.54953672519E+03  0.54953672519E+03  0.00000000000E+00 0.  1.
          1   -1    0    0  502    0  0.00000000000E+00 -0.00000000000E+00 -0.22360160114E+02  0.22360160114E+02  0.00000000000E+00 0. -1.
         23    2    1    2    0    0  0.32080700746E+01  0.30112326674E+01  0.24996884853E+03  0.26741473842E+03  0.94904466993E+02 0.  0.
         23    2    1    2    0    0 -0.16632043691E+01  0.24762793414E+02  0.24029185879E+03  0.25825916895E+03  0.91332681776E+02 0.  0.
        -13    1    4    4    0    0 -0.33856504542E+01  0.59612563467E+02  0.14784487599E+03  0.15944662965E+03  0.00000000000E+00 0.  1.
         13    1    4    4    0    0  0.17224460851E+01 -0.34849770053E+02  0.92446982802E+02  0.98812539297E+02  0.00000000000E+00 0. -1.
        -13    1    3    3    0    0 -0.17797487823E+02  0.43268479382E+02  0.15903353911E+03  0.16577267098E+03  0.00000000000E+00 0.  1.
         13    1    3    3    0    0  0.21005557898E+02 -0.40257246714E+02  0.90935309411E+02  0.10164206744E+03  0.00000000000E+00 0. -1.
         21    1    1    2  502  501 -0.15448657055E+01 -0.27774026081E+02  0.36915857765E+02  0.46222977937E+02  0.00000000000E+00 0.  1.
<scales pt_clust_5="13000.00000" pt_clust_6="13000.00000" pt_clust_7="13000.00000" pt_clust_8="13000.00000" pt_clust_9="27.81696"></scales>
<clustering>
<clus scale="   27.817">  2  9  1 -1</clus>
<clus scale="   91.333">  5  6 -1 -1</clus>
<clus scale="   91.987">  2  5  1 -1</clus>
<clus scale="   94.904">  7  8 -1 -1</clus>
<clus scale="   27.817">  2  5  1 -1</clus>
</clustering>
</event>
<event>
 9    1  0.2075077E-005  0.9511584E+02  0.7546771E-02  0.1292074E+00
          2   -1    0    0  502    0  0.00000000000E+00  0.00000000000E+00  0.56851818407E+03  0.56851818407E+03  0.00000000000E+00 0. -1.
         -2   -1    0    0    0  501 -0.00000000000E+00 -0.00000000000E+00 -0.33806999059E+02  0.33806999059E+02  0.00000000000E+00 0.  1.
         23    2    1    2    0    0 -0.15961114221E+02  0.20352643866E+02  0.61173978072E+02  0.11291194231E+03  0.91311904167E+02 0.  0.
         23    2    1    2    0    0 -0.27390851219E+01 -0.36766311227E+02  0.33351856815E+03  0.34720098699E+03  0.89188709143E+02 0.  0.
        -11    1    3    3    0    0 -0.33249581476E+02  0.17993214023E+01 -0.12057277927E+02  0.35413982787E+02  0.00000000000E+00 0.  1.
         11    1    3    3    0    0  0.17288467254E+02  0.18553322463E+02  0.73231255999E+02  0.77497959519E+02  0.00000000000E+00 0. -1.
        -13    1    4    4    0    0  0.30389737965E+02  0.92096884411E+01  0.60117026884E+02  0.67988318527E+02  0.00000000000E+00 0.  1.
         13    1    4    4    0    0 -0.33128823086E+02 -0.45975999668E+02  0.27340154127E+03  0.27921266847E+03  0.00000000000E+00 0. -1.
         21    1    1    2  502  501  0.18700199343E+02  0.16413667362E+02  0.14001863879E+03  0.14221225383E+03  0.00000000000E+00 0. -1.
<scales pt_clust_5="13000.00000" pt_clust_6="13000.00000" pt_clust_7="13000.00000" pt_clust_8="13000.00000" pt_clust_9="24.88184"></scales>
<clustering>
<clus scale="   24.882">  1  9  2 -1</clus>
<clus scale="   89.189">  7  8 -1 -1</clus>
<clus scale="   91.312">  5  6 -1 -1</clus>
<clus scale="   93.079">  1  7  2 -1</clus>
<clus scale="   24.882">  1  5  2 -1</clus>
</clustering>
</event>
<event>
 9    1  0.2075077E-005  0.1040317E+03  0.7546771E-02  0.1275948E+00
          1   -1    0    0  502    0  0.00000000000E+00  0.00000000000E+00  0.39729081419E+03  0.39729081419E+03  0.00000000000E+00 0. -1.
         -1   -1    0    0    0  501 -0.00000000000E+00 -0.00000000000E+00 -0.36535371403E+02  0.36535371403E+02  0.00000000000E+00 0.  1.
         23    2    1    2    0    0  0.16935320563E+02  0.25513725008E+02  0.12577751127E+03  0.16269111734E+03  0.98542691623E+02 0.  0.
         23    2    1    2    0    0  0.13447121135E+02 -0.38235002072E+02  0.19896380398E+03  0.22232993496E+03  0.90560831684E+02 0.  0.
        -11    1    3    3    0    0 -0.56052965286E+01  0.49972090910E+02  0.24197973526E+02  0.55804759133E+02  0.00000000000E+00 0.  1.
         11    1    3    3    0    0  0.22540617092E+02 -0.24458365902E+02  0.10157953775E+03  0.10688635820E+03  0.00000000000E+00 0. -1.
        -13    1    4    4    0    0 -0.34259192511E+02 -0.36583640037E+02  0.12018963447E+03  0.13022136240E+03  0.00000000000E+00 0. -1.
         13    1    4    4    0    0  0.47706313646E+02 -0.16513620350E+01  0.78774169513E+02  0.92108572569E+02  0.00000000000E+00 0.  1.
         21    1    1    2  502  501 -0.30382441698E+02  0.12721277064E+02  0.36014127527E+02  0.48805133287E+02  0.00000000000E+00 0. -1.
<scales pt_clust_5="13000.00000" pt_clust_6="13000.00000" pt_clust_7="13000.00000" pt_clust_8="13000.00000" pt_clust_9="32.93818"></scales>
<clustering>
<clus scale="   32.938">  2  9  1 -1</clus>
<clus scale="   90.561">  7  8 -1 -1</clus>
<clus scale="   96.505">  1  7  2 -1</clus>
<clus scale="   98.543">  5  6 -1 -1</clus>
<clus scale="   96.505">  1  5  2 -1</clus>
</clustering>
</event>
<event>
 9    1  0.2075077E-005  0.9425507E+02  0.7546771E-02  0.1293753E+00
         -2   -1    0    0    0  501 -0.00000000000E+00  0.00000000000E+00  0.31213015653E+02  0.31213015653E+02  0.00000000000E+00 0.  1.
          2   -1    0    0  502    0  0.00000000000E+00 -0.00000000000E+00 -0.68616055767E+03  0.68616055767E+03  0.00000000000E+00 0. -1.
         23    2    1    2    0    0 -0.27283956962E+02 -0.26729328079E+01 -0.70006384975E+02  0.11767029702E+03  0.90519865150E+02 0.  0.
         23    2    1    2    0    0 -0.11190970456E+02 -0.42264421586E+01 -0.39364038751E+03  0.40444983628E+03  0.92107625952E+02 0.  0.
        -13    1    4    4    0    0  0.13878084431E+02  0.38827683094E+02 -0.21872232306E+03  0.22257503186E+03  0.00000000000E+00 0. -1.
         13    1    4    4    0    0 -0.25069054887E+02 -0.43054125252E+02 -0.17491806445E+03  0.18187480442E+03  0.00000000000E+00 0.  1.
        -13    1    3    3    0    0 -0.33732787836E+02 -0.25588573660E+02  0.14377381096E+01  0.42364409213E+02  0.00000000000E+00 0.  1.
         13    1    3    3    0    0  0.64488308739E+01  0.22915640853E+02 -0.71444123084E+02  0.75305887808E+02  0.00000000000E+00 0. -1.
         21    1    1    2  502  501  0.38474927418E+02  0.68993749665E+01 -0.19130076954E+03  0.19525344002E+03  0.00000000000E+00 0.  1.
<scales pt_clust_5="13000.00000" pt_clust_6="13000.00000" pt_clust_7="13000.00000" pt_clust_8="13000.00000" pt_clust_9="39.08864"></scales>
<clustering>
<clus scale="   39.089">  2  9  1 -1</clus>
<clus scale="   90.520">  7  8 -1 -1</clus>
<clus scale="   92.108">  5  6 -1 -1</clus>
<clus scale="   92.704">  1  7  2 -1</clus>
<clus scale="   39.089">  2  5  1 -1</clus>
</clustering>
</event>
<event>
 9    1  0.2075077E-005  0.1112907E+03  0.7546771E-02  0.1259208E+00
         -1   -1    0    0    0  501 -0.00000000000E+00  0.00000000000E+00  0.34897064156E+02  0.34897064156E+02  0.00000000000E+00 0.  1.
          1   -1    0    0  502    0  0.00000000000E+00 -0.00000000000E+00 -0.60838006396E+03  0.60838006396E+03  0.00000000000E+00 0. -1.
         23    2    1    2    0    0  0.22588619284E+02  0.42097965370E+02 -0.14739017061E+03  0.17997769995E+03  0.91573061952E+02 0.  0.
         23    2    1    2    0    0 -0.52941482656E+02 -0.66521062209E+02 -0.20715658999E+03  0.24092393310E+03  0.88896774175E+02 0.  0.
        -11    1    3    3    0    0 -0.27727700845E+02  0.45029315717E+02 -0.76183400094E+02  0.92738207434E+02  0.00000000000E+00 0. -1.
         11    1    3    3    0    0  0.50316320129E+02 -0.29313503470E+01 -0.71206770520E+02  0.87239492514E+02  0.00000000000E+00 0.  1.
        -13    1    4    4    0    0  0.18847687851E+02 -0.36460034282E+02 -0.10319252078E+03  0.11105523753E+03  0.00000000000E+00 0. -1.
         13    1    4    4    0    0 -0.71789170507E+02 -0.30061027926E+02 -0.10396406921E+03  0.12986869557E+03  0.00000000000E+00 0.  1.
         21    1    1    2  502  501  0.30352863372E+02  0.24423096839E+02 -0.21893623920E+03  0.22237549507E+03  0.00000000000E+00 0. -1.
<scales pt_clust_5="13000.00000" pt_clust_6="13000.00000" pt_clust_7="13000.00000" pt_clust_8="13000.00000" pt_clust_9="38.95875"></scales>
<clustering>
<clus scale="   38.959">  2  9  1 -1</clus>
<clus scale="   88.897">  7  8 -1 -1</clus>
<clus scale="   91.573">  5  6 -1 -1</clus>
<clus scale="  109.099">  2  7  1 -1</clus>
<clus scale="   38.959">  2  5  1 -1</clus>
</clustering>
</event>
<event>
 9    1  0.2075077E-005  0.1890611E+03  0.7546771E-02  0.1159337E+00
          1   -1    0    0  502    0  0.00000000000E+00  0.00000000000E+00  0.21081975012E+03  0.21081975012E+03  0.00000000000E+00 0. -1.
         -1   -1    0    0    0  501 -0.00000000000E+00 -0.00000000000E+00 -0.38209837702E+03  0.38209837702E+03  0.00000000000E+00 0.  1.
         23    2    1    2    0    0  0.15128445965E+03 -0.51346588871E+02 -0.25822943318E+03  0.31650315783E+03  0.89265608349E+02 0.  0.
         23    2    1    2    0    0 -0.19078624466E+03  0.57007042571E+02  0.54585280937E+02  0.22503443812E+03  0.89508387257E+02 0.  0.
        -13    1    3    3    0    0  0.32489022239E+02  0.89963130049E+01 -0.10663045052E+02  0.35357753655E+02  0.00000000000E+00 0. -1.
         13    1    3    3    0    0  0.11879543741E+03 -0.60342901876E+02 -0.24756638813E+03  0.28114540418E+03  0.00000000000E+00 0.  1.
        -13    1    4    4    0    0 -0.13375970185E+03  0.78404382353E+02  0.53821684561E+02  0.16412092719E+03  0.00000000000E+00 0. -1.
         13    1    4    4    0    0 -0.57026542809E+02 -0.21397339782E+02  0.76359637567E+00  0.60913510930E+02  0.00000000000E+00 0.  1.
         21    1    1    2  502  501  0.39501785009E+02 -0.56604537003E+01  0.32365525342E+02  0.51380531193E+02  0.00000000000E+00 0. -1.
<scales pt_clust_5="13000.00000" pt_clust_6="13000.00000" pt_clust_7="13000.00000" pt_clust_8="13000.00000" pt_clust_9="39.90528"></scales>
<clustering>
<clus scale="   39.905">  1  9  2 -1</clus>
<clus scale="   89.266">  5  6 -1 -1</clus>
<clus scale="   89.508">  7  8 -1 -1</clus>
<clus scale="  188.946">  2  5  1 -1</clus>
<clus scale="   39.905">  1  5  2 -1</clus>
</clustering>
</event>
<event>
 9    1  0.2075077E-005  0.9859096E+02  0.7546771E-02  0.1285344E+00
         -2   -1    0    0    0  501 -0.00000000000E+00  0.00000000000E+00  0.27962189837E+03  0.27962189837E+03  0.00000000000E+00 0.  1.
          2   -1    0    0  502    0  0.00000000000E+00 -0.00000000000E+00 -0.74645207202E+02  0.74645207202E+02  0.00000000000E+00 0. -1.
         23    2    1    2    0    0 -0.10898672022E+02 -0.35918904884E+02  0.20608348225E+03  0.22665700672E+03  0.86568171168E+02 0.  0.
         23    2    1    2    0    0  0.34493042002E+02  0.34618236542E+02  0.52622107229E+01  0.10313663941E+03  0.90671292475E+02 0.  0.
        -11    1    4    4    0    0  0.57132243980E+01  0.56914800669E+02 -0.17960606120E+02  0.59954306271E+02  0.00000000000E+00 0. -1.
         11    1    4    4    0    0  0.28779817604E+02 -0.22296564127E+02  0.23222816842E+02  0.43182333138E+02  0.00000000000E+00 0.  1.
        -11    1    3    3    0    0  0.18579659773E+02 -0.41396647681E+02  0.18375223854E+03  0.18927168664E+03  0.00000000000E+00 0.  1.
         11    1    3    3    0    0 -0.29478331795E+02  0.54777427974E+01  0.22331243708E+02  0.37385320075E+02  0.00000000000E+00 0. -1.
         21    1    1    2  502  501 -0.23594369980E+02  0.13006683419E+01 -0.63690018072E+01  0.24473459439E+02  0.00000000000E+00 0. -1.
<scales pt_clust_5="13000.00000" pt_clust_6="13000.00000" pt_clust_7="13000.00000" pt_clust_8="13000.00000" pt_clust_9="23.63019"></scales>
<clustering>
<clus scale="   23.630">  2  9  1 -1</clus>
<clus scale="   86.568">  7  8 -1 -1</clus>
<clus scale="   90.671">  5  6 -1 -1</clus>
<clus scale="   94.831">  1  7  2 -1</clus>
<clus scale="   23.630">  2  5  1 -1</clus>
</clustering>
</event>
<event>
 9    1  0.2075077E-005  0.1021107E+03  0.7546771E-02  0.1278113E+00
          2   -1    0    0  502    0  0.00000000000E+00  0.00000000000E+00  0.37767578857E+03  0.37767578857E+03  0.00000000000E+00 0. -1.
         -2   -1    0    0    0  501 -0.00000000000E+00 -0.00000000000E+00 -0.78336000457E+02  0.78336000457E+02  0.00000000000E+00 0.  1.
         23    2    1    2    0    0  0.22614508671E+02  0.34273257147E+02 -0.17654071761E+02  0.10214614654E+03  0.91848227227E+02 0.  0.
         23    2    1    2    0    0 -0.53644230532E+02 -0.33397142433E+02  0.15373490113E+03  0.18768171178E+03  0.87160383888E+02 0.  0.
        -11    1    3    3    0    0  0.21515324780E+02  0.61359885148E+01  0.35518553175E+02  0.41977698544E+02  0.00000000000E+00 0. -1.
         11    1    3    3    0    0  0.10991838914E+01  0.28137268632E+02 -0.53172624936E+02  0.60168447993E+02  0.00000000000E+00 0.  1.
        -11    1    4    4    0    0 -0.71533524126E+02 -0.11350109036E+02  0.76284036328E+02  0.10519089432E+03  0.00000000000E+00 0.  1.
         11    1    4    4    0    0  0.17889293594E+02 -0.22047033397E+02  0.77450864806E+02  0.82490817465E+02  0.00000000000E+00 0. -1.
         21    1    1    2  502  501  0.31029721861E+02 -0.87611471402E+00  0.16325895874E+03  0.16618393071E+03  0.00000000000E+00 0. -1.
<scales pt_clust_5="13000.00000" pt_clust_6="13000.00000" pt_clust_7="13000.00000" pt_clust_8="13000.00000" pt_clust_9="31.04209"></scales>
<clustering>
<clus scale="   31.042">  1  9  2 -1</clus>
<clus scale="   87.160">  7  8 -1 -1</clus>
<clus scale="   91.848">  5  6 -1 -1</clus>
<clus scale="   97.915">  1  7  2 -1</clus>
<clus scale="   31.042">  1  5  2 -1</clus>
</clustering>
</event>
<event>
 9    1  0.2075077E-005  0.9634775E+02  0.7546771E-02  0.1288454E+00
         -1   -1    0    0    0  501 -0.00000000000E+00  0.00000000000E+00  0.75693202189E+02  0.75693202189E+02  0.00000000000E+00 0.  1.
          1   -1    0    0  502    0  0.00000000000E+00 -0.00000000000E+00 -0.32809133583E+03  0.32809133583E+03  0.00000000000E+00 0. -1.
         23    2    1    2    0    0  0.22605703052E+02 -0.25400475731E+02  0.20046190013E+02  0.99544066739E+02  0.91383639187E+02 0.  0.
         23    2    1    2    0    0 -0.11802407605E+02 -0.12215552721E+02 -0.21793311661E+03  0.23713496866E+03  0.91921887982E+02 0.  0.
        -11    1    3    3    0    0  0.47104607408E+02 -0.32979108632E+02  0.37386555965E+02  0.68587318158E+02  0.00000000000E+00 0.  1.
         11    1    3    3    0    0 -0.24498904357E+02  0.75786329012E+01 -0.17340365952E+02  0.30956748581E+02  0.00000000000E+00 0. -1.
        -11    1    4    4    0    0 -0.40737263287E+02  0.10533341392E+02 -0.17766592292E+03  0.18258054680E+03  0.00000000000E+00 0. -1.
         11    1    4    4    0    0  0.28934855683E+02 -0.22748894113E+02 -0.40267193688E+02  0.54554421858E+02  0.00000000000E+00 0.  1.
         21    1    1    2  502  501 -0.10803295447E+02  0.37616028452E+02 -0.54511207039E+02  0.67105502620E+02  0.00000000000E+00 0. -1.
<scales pt_clust_5="13000.00000" pt_clust_6="13000.00000" pt_clust_7="13000.00000" pt_clust_8="13000.00000" pt_clust_9="39.13664"></scales>
<clustering>
<clus scale="   39.137">  2  9  1 -1</clus>
<clus scale="   91.384">  5  6 -1 -1</clus>
<clus scale="   91.922">  7  8 -1 -1</clus>
<clus scale="   95.834">  1  5  2 -1</clus>
<clus scale="   39.137">  2  5  1 -1</clus>
</clustering>
</event>
<event>
 9    1  0.2075077E-005  0.1035673E+03  0.7546771E-02  0.1273028E+00
          2   -1    0    0  502    0  0.00000000000E+00  0.00000000000E+00  0.74843593905E+02  0.74843593905E+02  0.00000000000E+00 0. -1.
         -2   -1    0    0    0  501 -0.00000000000E+00 -0.00000000000E+00 -0.22941434505E+03  0.22941434505E+03  0.00000000000E+00 0.  1.
         23    2    1    2    0    0  0.47395132065E+02  0.19091619183E+02 -0.14249884793E+03  0.17706129078E+03  0.91836760434E+02 0.  0.
         23    2    1    2    0    0 -0.43070321340E+02  0.17715785768E+01 -0.22000924405E+02  0.10369000081E+03  0.91702696380E+02 0.  0.
        -13    1    4    4    0    0  0.10801724605E+02  0.35510041906E+02 -0.24979064390E+01  0.37200535846E+02  0.00000000000E+00 0.  1.
         13    1    4    4    0    0 -0.53872045945E+02 -0.33738463329E+02 -0.19503017966E+02  0.66489464969E+02  0.00000000000E+00 0. -1.
        -13    1    3    3    0    0 -0.23511950525E+02  0.22239138166E+02 -0.60487587611E+02  0.68601307122E+02  0.00000000000E+00 0.  1.
         13    1    3    3    0    0  0.70907082591E+02 -0.31475189833E+01 -0.82011260316E+02  0.10845998366E+03  0.00000000000E+00 0. -1.
         21    1    1    2  502  501 -0.43248107251E+01 -0.20863197759E+02  0.99290211825E+01  0.23506647362E+02  0.00000000000E+00 0. -1.
<scales pt_clust_5="13000.00000" pt_clust_6="13000.00000" pt_clust_7="13000.00000" pt_clust_8="13000.00000" pt_clust_9="21.30674"></scales>
<clustering>
<clus scale="   21.307">  1  9  2 -1</clus>
<clus scale="   91.703">  5  6 -1 -1</clus>
<clus scale="   91.837">  7  8 -1 -1</clus>
<clus scale="  103.448">  1  5  2 -1</clus>
<clus scale="   21.307">  1  5  2 -1</clus>
</clustering>
</event>
<event>
 9    1  0.2075077E-005  0.1037599E+03  0.7546771E-02  0.1272817E+00
         -1   -1    0    0    0  501 -0.00000000000E+00  0.00000000000E+00  0.46975681065E+02  0.46975681065E+02  0.00000000000E+00 0.  1.
          1   -1    0    0  502    0  0.00000000000E+00 -0.00000000000E+00 -0.50124687095E+03  0.50124687095E+03  0.00000000000E+00 0. -1.
         23    2    1    2    0    0  0.13009260457E+02  0.51606922420E+02 -0.34241570741E+02  0.11052195054E+03  0.90609608131E+02 0.  0.
         23    2    1    2    0    0 -0.21799221440E+02 -0.27923989899E+02 -0.32787282402E+03  0.34214423280E+03  0.91143469532E+02 0.  0.
        -11    1    4    4    0    0 -0.16068941442E+02 -0.52294085613E+02 -0.29884919503E+03  0.30381527881E+03  0.00000000000E+00 0. -1.
         11    1    4    4    0    0 -0.57302799980E+01  0.24370095714E+02 -0.29023628993E+02  0.38328953988E+02  0.00000000000E+00 0.  1.
        -13    1    3    3    0    0 -0.22956781717E+02 -0.15753000974E+02 -0.15618140675E+02  0.31923301594E+02  0.00000000000E+00 0. -1.
         13    1    3    3    0    0  0.35966042174E+02  0.67359923393E+02 -0.18623430065E+02  0.78598648949E+02  0.00000000000E+00 0.  1.
         21    1    1    2  502  501  0.87899609834E+01 -0.23682932521E+02 -0.92156795118E+02  0.95556368670E+02  0.00000000000E+00 0.  1.
<scales pt_clust_5="13000.00000" pt_clust_6="13000.00000" pt_clust_7="13000.00000" pt_clust_8="13000.00000" pt_clust_9="25.26153"></scales>
<clustering>
<clus scale="   25.262">  2  9  1 -1</clus>
<clus scale="   90.610">  7  8 -1 -1</clus>
<clus scale="   91.143">  5  6 -1 -1</clus>
<clus scale="  103.291">  1  7  2 -1</clus>
<clus scale="   25.262">  2  5  1 -1</clus>
</clustering>
</event>
<event>
 9    1  0.2075077E-005  0.1286205E+03  0.7546771E-02  0.1229781E+00
         -4   -1    0    0    0  501 -0.00000000000E+00  0.00000000000E+00  0.63903644657E+03  0.63903644657E+03  0.00000000000E+00 0.  1.
          4   -1    0    0  502    0  0.00000000000E+00 -0.00000000000E+00 -0.11408389518E+03  0.11408389518E+03  0.00000000000E+00 0. -1.
         23    2    1    2    0    0  0.87646467523E+02 -0.11646647054E+02  0.56639877584E+03  0.58060326188E+03  0.92059908681E+02 0.  0.
         23    2    1    2    0    0 -0.96341278597E+02 -0.82618672258E+01 -0.57014563596E+02  0.14579027938E+03  0.93028192977E+02 0.  0.
        -11    1    3    3    0    0  0.92715967150E+02 -0.35487426051E+02  0.50252061932E+03  0.51223293609E+03  0.00000000000E+00 0.  1.
         11    1    3    3    0    0 -0.50694996272E+01  0.23840778997E+02  0.63878156516E+02  0.68370325797E+02  0.00000000000E+00 0. -1.
        -11    1    4    4    0    0 -0.52225275342E+02 -0.24452432977E+02  0.15196162779E+02  0.59634924551E+02  0.00000000000E+00 0.  1.
         11    1    4    4    0    0 -0.44116003255E+02  0.16190565752E+02 -0.72210726374E+02  0.86155354831E+02  0.00000000000E+00 0. -1.
         21    1    1    2  502  501  0.86948110735E+01  0.19908514280E+02  0.15568339146E+02  0.26726800485E+02  0.00000000000E+00 0.  1.
<scales pt_clust_5="13000.00000" pt_clust_6="13000.00000" pt_clust_7="13000.00000" pt_clust_8="13000.00000" pt_clust_9="21.72438"></scales>
<clustering>
<clus scale="   21.724">  2  9  1 -1</clus>
<clus scale="   92.060">  5  6 -1 -1</clus>
<clus scale="   93.028">  7  8 -1 -1</clus>
<clus scale="  127.922">  1  5  2 -1</clus>
<clus scale="   21.724">  2  5  1 -1</clus>
</clustering>
</event>
<event>
 9    1  0.2075077E-005  0.9398283E+02  0.7546771E-02  0.1294774E+00
         -2   -1    0    0    0  501 -0.00000000000E+00  0.00000000000E+00  0.89173371083E+02  0.89173371083E+02  0.00000000000E+00 0.  1.
          2   -1    0    0  502    0  0.00000000000E+00 -0.00000000000E+00 -0.48463717114E+03  0.48463717114E+03  0.00000000000E+00 0. -1.
         23    2    1    2    0    0  0.12948849520E+01  0.17346872986E+02  0.48649258479E+02  0.10539167904E+03  0.91858940398E+02 0.  0.
         23    2    1    2    0    0  0.17636342729E+02 -0.52695483225E+02 -0.36203696752E+03  0.37707117386E+03  0.89577060516E+02 0.  0.
        -11    1    4    4    0    0  0.39129015987E+02 -0.67436573342E+02 -0.24247211732E+03  0.25469883980E+03  0.00000000000E+00 0. -1.
         11    1    4    4    0    0 -0.21492673259E+02  0.14741090117E+02 -0.11956485020E+03  0.12237233406E+03  0.00000000000E+00 0.  1.
        -13    1    3    3    0    0 -0.27146748908E+02 -0.23505809502E+00 -0.16778933916E+02  0.31914477153E+02  0.00000000000E+00 0. -1.
         13    1    3    3    0    0  0.28441633860E+02  0.17581931081E+02  0.65428192396E+02  0.73477201888E+02  0.00000000000E+00 0.  1.
         21    1    1    2  502  501 -0.18931227681E+02  0.35348610239E+02 -0.82076091019E+02  0.91347689321E+02  0.00000000000E+00 0.  1.
<scales pt_clust_5="13000.00000" pt_clust_6="13000.00000" pt_clust_7="13000.00000" pt_clust_8="13000.00000" pt_clust_9="40.09882"></scales>
<clustering>
<clus scale="   40.099">  2  9  1 -1</clus>
<clus scale="   89.577">  5  6 -1 -1</clus>
<clus scale="   91.754">  2  5  1 -1</clus>
<clus scale="   91.859">  7  8 -1 -1</clus>
<clus scale="   40.099">  2  5  1 -1</clus>
</clustering>
</event>
<event>
 9    1  0.2075077E-005  0.1059512E+03  0.7546771E-02  0.1272495E+00
          4   -1    0    0  502    0  0.00000000000E+00  0.00000000000E+00  0.14461986039E+03  0.14461986039E+03  0.00000000000E+00 0. -1.
         -4   -1    0    0    0  501 -0.00000000000E+00 -0.00000000000E+00 -0.12447514215E+03  0.12447514215E+03  0.00000000000E+00 0.  1.
         23    2    1    2    0    0 -0.27042541958E+02 -0.35210083962E+02 -0.21390779011E+02  0.10449881926E+03  0.92148731474E+02 0.  0.
         23    2    1    2    0    0  0.54540201178E+02  0.31874992152E+02 -0.11774222052E+02  0.10451981295E+03  0.82432459165E+02 0.  0.
        -11    1    4    4    0    0  0.59144850285E+01  0.42399316913E+02  0.18110006694E+02  0.46482852218E+02  0.00000000000E+00 0. -1.
         11    1    4    4    0    0  0.48625716150E+02 -0.10524324762E+02 -0.29884228746E+02  0.58036960728E+02  0.00000000000E+00 0.  1.
        -13    1    3    3    0    0 -0.52951017272E+02 -0.10701974262E+02  0.12337090753E+02  0.55412510244E+02  0.00000000000E+00 0.  1.
         13    1    3    3    0    0  0.25908475314E+02 -0.24508109700E+02 -0.33727869764E+02  0.49086309018E+02  0.00000000000E+00 0. -1.
         21    1    1    2  502  501 -0.27497659221E+02  0.33350918103E+01  0.53309719302E+02  0.60076370330E+02  0.00000000000E+00 0. -1.
<scales pt_clust_5="13000.00000" pt_clust_6="13000.00000" pt_clust_7="13000.00000" pt_clust_8="13000.00000" pt_clust_9="27.69917"></scales>
<clustering>
<clus scale="   27.699">  1  9  2 -1</clus>
<clus scale="   82.432">  5  6 -1 -1</clus>
<clus scale="   92.149">  7  8 -1 -1</clus>
<clus scale="   97.619">  1  5  2 -1</clus>
<clus scale="   27.699">  1  5  2 -1</clus>
</clustering>
</event>
<event>
 9    1  0.2075077E-005  0.2411542E+03  0.7546771E-02  0.1142662E+00
          2   -1    0    0  502    0  0.00000000000E+00  0.00000000000E+00  0.11884442809E+04  0.11884442809E+04  0.00000000000E+00 0. -1.
         -2   -1    0    0    0  501 -0.00000000000E+00 -0.00000000000E+00 -0.33792243307E+03  0.33792243307E+03  0.00000000000E+00 0.  1.
         23    2    1    2    0    0  0.35579257289E+02  0.93500298263E+02  0.40051668957E+02  0.14088110542E+03  0.90747784294E+02 0.  0.
         23    2    1    2    0    0 -0.46171403319E+02 -0.31261050576E+03 -0.17734781182E+03  0.37360327382E+03  0.90939722093E+02 0.  0.
        -11    1    3    3    0    0  0.58888695881E+02  0.64905728190E+02  0.16850833861E+01  0.87655413754E+02  0.00000000000E+00 0. -1.
         11    1    3    3    0    0 -0.23309438593E+02  0.28594570074E+02  0.38366585571E+02  0.53225691668E+02  0.00000000000E+00 0.  1.
        -13    1    4    4    0    0  0.17151063115E+02 -0.18390926268E+03 -0.11172905447E+03  0.21587069620E+03  0.00000000000E+00 0. -1.
         13    1    4    4    0    0 -0.63322466434E+02 -0.12870124308E+03 -0.65618757350E+02  0.15773257762E+03  0.00000000000E+00 0.  1.
         21    1    1    2  502  501  0.10592146030E+02  0.21911020750E+03  0.98781799074E+03  0.10118823348E+04  0.00000000000E+00 0. -1.
<scales pt_clust_5="13000.00000" pt_clust_6="13000.00000" pt_clust_7="13000.00000" pt_clust_8="13000.00000" pt_clust_9="223.35016"></scales>
<clustering>
<clus scale="   90.748">  5  6 -1 -1</clus>
<clus scale="   90.940">  7  8 -1 -1</clus>
<clus scale="  135.068">  2  5  1 -1</clus>
<clus scale="  223.350">  1  9  2 -1</clus>
<clus scale="  223.350">  1  5  2 -1</clus>
</clustering>
</event>
<event>
 9    1  0.2075077E-005  0.1470767E+03  0.7546771E-02  0.1221039E+00
          1   -1    0    0  502    0  0.00000000000E+00  0.00000000000E+00  0.99159012929E+03  0.99159012929E+03  0.00000000000E+00 0. -1.
         -1   -1    0    0    0  501 -0.00000000000E+00 -0.00000000000E+00 -0.10580830868E+03  0.10580830868E+03  0.00000000000E+00 0.  1.
         23    2    1    2    0    0 -0.42657279933E+02  0.24002536821E+02  0.54478847938E+02  0.11618567558E+03  0.90196457978E+02 0.  0.
         23    2    1    2    0    0  0.66967894124E+01 -0.14593753745E+03  0.25122682399E+02  0.16507064138E+03  0.72626136140E+02 0.  0.
        -13    1    3    3    0    0  0.70164296302E+00  0.51347369834E+02  0.26544544890E+02  0.57807071844E+02  0.00000000000E+00 0.  1.
         13    1    3    3    0    0 -0.43358922896E+02 -0.27344833013E+02  0.27934303048E+02  0.58378603735E+02  0.00000000000E+00 0. -1.
        -13    1    4    4    0    0  0.12841374198E+02 -0.11366738493E+03 -0.12561952278E+02  0.11507813838E+03  0.00000000000E+00 0.  1.
         13    1    4    4    0    0 -0.61445847856E+01 -0.32270152521E+02  0.37684634677E+02  0.49992503004E+02  0.00000000000E+00 0. -1.
         21    1    1    2  502  501  0.35960490521E+02  0.12193500063E+03  0.80618029027E+03  0.81614212100E+03  0.00000000000E+00 0. -1.
<scales pt_clust_5="13000.00000" pt_clust_6="13000.00000" pt_clust_7="13000.00000" pt_clust_8="13000.00000" pt_clust_9="127.89443"></scales>
<clustering>
<clus scale="   72.626">  7  8 -1 -1</clus>
<clus scale="   90.196">  5  6 -1 -1</clus>
<clus scale="  102.621">  2  5  1 -1</clus>
<clus scale="  127.894">  1  9  2 -1</clus>
<clus scale="  127.894">  1  5  2 -1</clus>
</clustering>
</event>
<event>
 9    1  0.2075077E-005  0.1127234E+03  0.7546771E-02  0.1256120E+00
          1   -1    0    0  502    0  0.00000000000E+00  0.00000000000E+00  0.27101738414E+03  0.27101738414E+03  0.00000000000E+00 0. -1.
         -1   -1    0    0    0  501 -0.00000000000E+00 -0.00000000000E+00 -0.98608259108E+02  0.98608259108E+02  0.00000000000E+00 0.  1.
         23    2    1    2    0    0  0.55654198518E+02  0.19717111785E+02 -0.33288002748E+02  0.11544872608E+03  0.93456743564E+02 0.  0.
         23    2    1    2    0    0 -0.79093220434E+02 -0.14590462068E+02  0.14988095423E+03  0.19342236577E+03  0.92083071390E+02 0.  0.
        -11    1    4    4    0    0 -0.15570480586E+02  0.12945898613E+02 -0.74145219669E+01  0.21564120492E+02  0.00000000000E+00 0.  1.
         11    1    4    4    0    0 -0.63522739848E+02 -0.27536360681E+02  0.15729547620E+03  0.17185824528E+03  0.00000000000E+00 0. -1.
        -11    1    3    3    0    0  0.49790900123E+02  0.52878238140E+02 -0.37100897328E+02  0.81558067574E+02  0.00000000000E+00 0.  1.
         11    1    3    3    0    0  0.58632983955E+01 -0.33161126355E+02  0.38128945796E+01  0.33890658510E+02  0.00000000000E+00 0. -1.
         21    1    1    2  502  501  0.23439021915E+02 -0.51266497178E+01  0.55816173542E+02  0.60754551390E+02  0.00000000000E+00 0. -1.
<scales pt_clust_5="13000.00000" pt_clust_6="13000.00000" pt_clust_7="13000.00000" pt_clust_8="13000.00000" pt_clust_9="23.99313"></scales>
<clustering>
<clus scale="   23.993">  1  9  2 -1</clus>
<clus scale="   92.083">  5  6 -1 -1</clus>
<clus scale="   93.457">  7  8 -1 -1</clus>
<clus scale="  111.587">  1  5  2 -1</clus>
<clus scale="   23.993">  1  5  2 -1</clus>
</clustering>
</event>
<event>
 9    1  0.2075077E-005  0.1598314E+03  0.7546771E-02  0.1209014E+00
         -2   -1    0    0    0  501 -0.00000000000E+00  0.00000000000E+00  0.40735573644E+02  0.40735573644E+02  0.00000000000E+00 0.  1.
          2   -1    0    0  502    0  0.00000000000E+00 -0.00000000000E+00 -0.16696784904E+04  0.16696784904E+04  0.00000000000E+00 0. -1.
         23    2    1    2    0    0  0.44763361163E+02  0.11877469266E+03 -0.19608296906E+03  0.25048150643E+03  0.90450363136E+02 0.  0.
         23    2    1    2    0    0 -0.29032150162E+02  0.40505505772E+02 -0.33660015186E+03  0.35205025674E+03  0.90311457177E+02 0.  0.
        -11    1    4    4    0    0 -0.14996347356E+01  0.64115628103E+02 -0.25140081272E+03  0.25945217538E+03  0.00000000000E+00 0.  1.
         11    1    4    4    0    0 -0.27532515427E+02 -0.23610122331E+02 -0.85199339138E+02  0.92598081361E+02  0.00000000000E+00 0. -1.
        -11    1    3    3    0    0 -0.12736976237E+02  0.82254040698E+02 -0.13703811836E+03  0.16033528513E+03  0.00000000000E+00 0.  1.
         11    1    3    3    0    0  0.57500337400E+02  0.36520651961E+02 -0.59044850697E+02  0.90146221300E+02  0.00000000000E+00 0. -1.
         21    1    1    2  502  501 -0.15731211001E+02 -0.15928019843E+03 -0.10962597958E+04  0.11078823009E+04  0.00000000000E+00 0. -1.
<scales pt_clust_5="13000.00000" pt_clust_6="13000.00000" pt_clust_7="13000.00000" pt_clust_8="13000.00000" pt_clust_9="131.77566"></scales>
<clustering>
<clus scale="   90.311">  5  6 -1 -1</clus>
<clus scale="   90.450">  7  8 -1 -1</clus>
<clus scale="  103.149">  2  5  1 -1</clus>
<clus scale="  131.776">  2  9  1 -1</clus>
<clus scale="  103.149">  2  5  1 -1</clus>
</clustering>
</event>
<event>
 9    1  0.2075077E-005  0.9582615E+02  0.7546771E-02  0.1290596E+00
          1   -1    0    0  502    0  0.00000000000E+00  0.00000000000E+00  0.92066023815E+02  0.92066023815E+02  0.00000000000E+00 0. -1.
         -1   -1    0    0    0  501 -0.00000000000E+00 -0.00000000000E+00 -0.16213911249E+03  0.16213911249E+03  0.00000000000E+00 0.  1.
         23    2    1    2    0    0 -0.18043084246E+02  0.41880088266E+02 -0.46221468870E+02  0.11328712949E+03  0.92833479096E+02 0.  0.
         23    2    1    2    0    0  0.19435063247E+02  0.24606971438E+01 -0.50628441095E+01  0.92740616390E+02  0.90506424215E+02 0.  0.
        -11    1    4    4    0    0 -0.77834963707E+01  0.35844925202E+02  0.21127097873E+02  0.42329608349E+02  0.00000000000E+00 0. -1.
         11    1    4    4    0    0  0.27218559618E+02 -0.33384228058E+02 -0.26189941982E+02  0.50411008041E+02  0.00000000000E+00 0.  1.
        -11    1    3    3    0    0 -0.31639695973E+02 -0.17784579190E+02 -0.36228637418E+02  0.51282314567E+02  0.00000000000E+00 0.  1.
         11    1    3    3    0    0  0.13596611727E+02  0.59664667456E+02 -0.99928314523E+01  0.62004814922E+02  0.00000000000E+00 0. -1.
         21    1    1    2  502  501 -0.13919790008E+01 -0.44340785410E+02 -0.18788775699E+02  0.48177390429E+02  0.00000000000E+00 0.  1.
<scales pt_clust_5="13000.00000" pt_clust_6="13000.00000" pt_clust_7="13000.00000" pt_clust_8="13000.00000" pt_clust_9="44.36263"></scales>
<clustering>
<clus scale="   44.363">  2  9  1 -1</clus>
<clus scale="   90.506">  5  6 -1 -1</clus>
<clus scale="   92.833">  7  8 -1 -1</clus>
<clus scale="   93.574">  1  5  2 -1</clus>
<clus scale="   93.574">  1  5  2 -1</clus>
</clustering>
</event>
<event>
 9    1  0.2075077E-005  0.1111758E+03  0.7546771E-02  0.1263101E+00
         -2   -1    0    0    0  501 -0.00000000000E+00  0.00000000000E+00  0.19320959942E+03  0.19320959942E+03  0.00000000000E+00 0.  1.
          2   -1    0    0  502    0  0.00000000000E+00 -0.00000000000E+00 -0.75173297870E+02  0.75173297870E+02  0.00000000000E+00 0. -1.
         23    2    1    2    0    0  0.45881960150E+02  0.15485301673E+02  0.84536669367E+02  0.14137055540E+03  0.10244138144E+03 0.  0.
         23    2    1    2    0    0 -0.27562868727E+02 -0.27735604033E+02  0.32770467279E+02  0.10496260947E+03  0.91729332260E+02 0.  0.
        -11    1    3    3    0    0  0.73636763014E+02  0.94003680844E+01  0.30375440693E+02  0.80208523142E+02  0.00000000000E+00 0. -1.
         11    1    3    3    0    0 -0.27754802864E+02  0.60849335886E+01  0.54161228674E+02  0.61162032261E+02  0.00000000000E+00 0.  1.
        -13    1    4    4    0    0 -0.54685490160E+02 -0.38928281365E+02  0.10096157790E+02  0.67881119070E+02  0.00000000000E+00 0.  1.
         13    1    4    4    0    0  0.27122621433E+02  0.11192677332E+02  0.22674309489E+02  0.37081490397E+02  0.00000000000E+00 0. -1.
         21    1    1    2  502  501 -0.18319091423E+02  0.12250302360E+02  0.72916490666E+00  0.22049732423E+02  0.00000000000E+00 0. -1.
<scales pt_clust_5="13000.00000" pt_clust_6="13000.00000" pt_clust_7="13000.00000" pt_clust_8="13000.00000" pt_clust_9="22.03767"></scales>
<clustering>
<clus scale="   22.038">  2  9  1 -1</clus>
<clus scale="   91.729">  7  8 -1 -1</clus>
<clus scale="  101.391">  2  7  1 -1</clus>
<clus scale="  102.441">  5  6 -1 -1</clus>
<clus scale="   22.038">  2  5  1 -1</clus>
</clustering>
</event>
<event>
 9    1  0.2075077E-005  0.9611571E+02  0.7546771E-02  0.1289931E+00
          1   -1    0    0  502    0  0.00000000000E+00  0.00000000000E+00  0.89983598622E+02  0.89983598622E+02  0.00000000000E+00 0. -1.
         -1   -1    0    0    0  501 -0.00000000000E+00 -0.00000000000E+00 -0.40232618812E+03  0.40232618812E+03  0.00000000000E+00 0.  1.
         23    2    1    2    0    0 -0.52628104012E+01 -0.21088255115E+02 -0.34422094054E+03  0.35683903180E+03  0.91507524466E+02 0.  0.
         23    2    1    2    0    0 -0.15309324732E+02  0.15758715888E+02  0.49098944229E+02  0.10811813967E+03  0.93787596469E+02 0.  0.
        -11    1    4    4    0    0  0.27717056791E+02 -0.23450826002E+02  0.89205620100E+01  0.37386533724E+02  0.00000000000E+00 0.  1.
         11    1    4    4    0    0 -0.43026381523E+02  0.39209541890E+02  0.40178382219E+02  0.70731605947E+02  0.00000000000E+00 0. -1.
        -11    1    3    3    0    0  0.78532316099E+01 -0.52505024609E+02 -0.27017420792E+03  0.27534079516E+03  0.00000000000E+00 0.  1.
         11    1    3    3    0    0 -0.13116042011E+02  0.31416769495E+02 -0.74046732624E+02  0.81498236643E+02  0.00000000000E+00 0. -1.
         21    1    1    2  502  501  0.20572135133E+02  0.53295392269E+01 -0.17220593182E+02  0.27352615266E+02  0.00000000000E+00 0. -1.
<scales pt_clust_5="13000.00000" pt_clust_6="13000.00000" pt_clust_7="13000.00000" pt_clust_8="13000.00000" pt_clust_9="21.25128"></scales>
<clustering>
<clus scale="   21.251">  1  9  2 -1</clus>
<clus scale="   91.508">  7  8 -1 -1</clus>
<clus scale="   93.788">  5  6 -1 -1</clus>
<clus scale="   93.892">  2  7  1 -1</clus>
<clus scale="   21.251">  1  5  2 -1</clus>
</clustering>
</event>
<event>
 9    1  0.2075077E-005  0.1296062E+03  0.7546771E-02  0.1228268E+00
         -2   -1    0    0    0  501 -0.00000000000E+00  0.00000000000E+00  0.86720733910E+02  0.86720733910E+02  0.00000000000E+00 0.  1.
          2   -1    0    0  502    0  0.00000000000E+00 -0.00000000000E+00 -0.35083356572E+03  0.35083356572E+03  0.00000000000E+00 0. -1.
         23    2    1    2    0    0 -0.16710595376E+02 -0.10129143857E+03 -0.16638137202E+02  0.13790256728E+03  0.90559874821E+02 0.  0.
         23    2    1    2    0    0  0.36486035799E+02  0.64054046332E+02 -0.13179998144E+03  0.17653255963E+03  0.91424055054E+02 0.  0.
        -13    1    4    4    0    0 -0.14248732075E+02 -0.16455118845E+02 -0.18462539352E+02  0.28542296006E+02  0.00000000000E+00 0.  1.
         13    1    4    4    0    0  0.50734767874E+02  0.80509165178E+02 -0.11333744209E+03  0.14799026362E+03  0.00000000000E+00 0. -1.
        -13    1    3    3    0    0 -0.38619632784E+02 -0.98442618286E+02 -0.32586772944E+02  0.11065406862E+03  0.00000000000E+00 0.  1.
         13    1    3    3    0    0  0.21909037407E+02 -0.28488202817E+01  0.15948635742E+02  0.27248498659E+02  0.00000000000E+00 0. -1.
         21    1    1    2  502  501 -0.19775440422E+02  0.37237392236E+02 -0.11567471317E+03  0.12311917272E+03  0.00000000000E+00 0. -1.
<scales pt_clust_5="13000.00000" pt_clust_6="13000.00000" pt_clust_7="13000.00000" pt_clust_8="13000.00000" pt_clust_9="42.16268"></scales>
<clustering>
<clus scale="   42.163">  2  9  1 -1</clus>
<clus scale="   90.560">  7  8 -1 -1</clus>
<clus scale="   91.424">  5  6 -1 -1</clus>
<clus scale="  128.998">  1  7  2 -1</clus>
<clus scale="   42.163">  2  5  1 -1</clus>
</clustering>
</event>
<event>
 9    1  0.2075077E-005  0.4682881E+03  0.7546771E-02  0.1022487E+00
          1   -1    0    0  502    0  0.00000000000E+00  0.00000000000E+00  0.86668609396E+03  0.86668609396E+03  0.00000000000E+00 0. -1.
         -1   -1    0    0    0  501 -0.00000000000E+00 -0.00000000000E+00 -0.39127545520E+03  0.39127545520E+03  0.00000000000E+00 0.  1.
         23    2    1    2    0    0 -0.45982369847E+03  0.83212009753E+01 -0.86372589490E+02  0.47751772060E+03  0.95162351875E+02 0.  0.
         23    2    1    2    0    0  0.45518978699E+03  0.18388412842E+02  0.38934488072E+03  0.60588764761E+03  0.89300221085E+02 0.  0.
        -11    1    4    4    0    0  0.41276768662E+03  0.22505100798E+02  0.38156599285E+03  0.56256221841E+03  0.00000000000E+00 0. -1.
         11    1    4    4    0    0  0.42422100370E+02 -0.41166879556E+01  0.77788878641E+01  0.43325429206E+02  0.00000000000E+00 0.  1.
        -13    1    3    3    0    0 -0.18009513904E+03  0.25089531069E+02  0.74807678328E+01  0.18198820171E+03  0.00000000000E+00 0. -1.
         13    1    3    3    0    0 -0.27972855943E+03 -0.16768330094E+02 -0.93853357323E+02  0.29552951889E+03  0.00000000000E+00 0.  1.
         21    1    1    2  502  501  0.46339114779E+01 -0.26709613817E+02  0.17243834753E+03  0.17455618094E+03  0.00000000000E+00 0. -1.
<scales pt_clust_5="13000.00000" pt_clust_6="13000.00000" pt_clust_7="13000.00000" pt_clust_8="13000.00000" pt_clust_9="27.10861"></scales>
<clustering>
<clus scale="   27.109">  1  9  2 -1</clus>
<clus scale="   89.300">  5  6 -1 -1</clus>
<clus scale="   95.162">  7  8 -1 -1</clus>
<clus scale="  467.132">  1  5  2 -1</clus>
<clus scale="   27.109">  1  5  2 -1</clus>
</clustering>
</event>
<event>
 9    1  0.2075077E-005  0.1067470E+03  0.7546771E-02  0.1267166E+00
         -1   -1    0    0    0  501 -0.00000000000E+00  0.00000000000E+00  0.27610804831E+03  0.27610804831E+03  0.00000000000E+00 0.  1.
          1   -1    0    0  502    0  0.00000000000E+00 -0.00000000000E+00 -0.17433299295E+03  0.17433299295E+03  0.00000000000E+00 0. -1.
         23    2    1    2    0    0 -0.77186417676E+02 -0.20913560396E+02  0.21443346532E+03  0.24663131801E+03  0.91924838279E+02 0.  0.
         23    2    1    2    0    0  0.52332985879E+02 -0.44427004768E+01 -0.12767191135E+03  0.16526055644E+03  0.90843027086E+02 0.  0.
        -13    1    3    3    0    0 -0.45677984768E+02 -0.49596029472E+02  0.75092311742E+02  0.10092125502E+03  0.00000000000E+00 0. -1.
         13    1    3    3    0    0 -0.31508432908E+02  0.28682469076E+02  0.13934115358E+03  0.14571006299E+03  0.00000000000E+00 0.  1.
        -13    1    4    4    0    0  0.70103203137E+00  0.25550999415E+02 -0.14198418417E+01  0.25600018904E+02  0.00000000000E+00 0.  1.
         13    1    4    4    0    0  0.51631953848E+02 -0.29993699892E+02 -0.12625206951E+03  0.13966053754E+03  0.00000000000E+00 0. -1.
         21    1    1    2  502  501  0.24853431797E+02  0.25356260873E+02  0.15013501386E+02  0.38549166806E+02  0.00000000000E+00 0. -1.
<scales pt_clust_5="13000.00000" pt_clust_6="13000.00000" pt_clust_7="13000.00000" pt_clust_8="13000.00000" pt_clust_9="35.50539"></scales>
<clustering>
<clus scale="   35.505">  1  9  2 -1</clus>
<clus scale="   90.843">  7  8 -1 -1</clus>
<clus scale="   91.925">  5  6 -1 -1</clus>
<clus scale="  105.817">  2  7  1 -1</clus>
<clus scale="  105.817">  2  5  1 -1</clus>
</clustering>
</event>
<event>
 9    1  0.2075077E-005  0.1744733E+03  0.7546771E-02  0.1173597E+00
          3   -1    0    0  502    0  0.00000000000E+00  0.00000000000E+00  0.15729525751E+03  0.15729525751E+03  0.00000000000E+00 0. -1.
         -3   -1    0    0    0  501 -0.00000000000E+00 -0.00000000000E+00 -0.36378402276E+03  0.36378402276E+03  0.00000000000E+00 0.  1.
         23    2    1    2    0    0 -0.12836165865E+03 -0.50768190541E+02 -0.12839540090E+03  0.21003898955E+03  0.92611411714E+02 0.  0.
         23    2    1    2    0    0  0.16478140871E+03  0.32009534064E+01 -0.13270424843E+03  0.22997618705E+03  0.90085905091E+02 0.  0.
        -11    1    3    3    0    0 -0.68315945407E+02 -0.64887514118E+02 -0.40257170544E+02  0.10246022480E+03  0.00000000000E+00 0. -1.
         11    1    3    3    0    0 -0.60045713242E+02  0.14119323577E+02 -0.88138230352E+02  0.10757876476E+03  0.00000000000E+00 0.  1.
        -11    1    4    4    0    0  0.50664091267E+02  0.26608709491E+02 -0.88474611734E+02  0.10536902052E+03  0.00000000000E+00 0.  1.
         11    1    4    4    0    0  0.11411731745E+03 -0.23407756085E+02 -0.44229636697E+02  0.12460716652E+03  0.00000000000E+00 0. -1.
         21    1    1    2  502  501 -0.36419750066E+02  0.47567237135E+02  0.54610884079E+02  0.81064103667E+02  0.00000000000E+00 0.  1.
<scales pt_clust_5="13000.00000" pt_clust_6="13000.00000" pt_clust_7="13000.00000" pt_clust_8="13000.00000" pt_clust_9="59.90860"></scales>
<clustering>
<clus scale="   59.909">  1  9  2 -1</clus>
<clus scale="   90.086">  7  8 -1 -1</clus>
<clus scale="   92.611">  5  6 -1 -1</clus>
<clus scale="  173.146">  1  7  2 -1</clus>
<clus scale="   59.909">  1  5  2 -1</clus>
</clustering>
</event>
<event>
 9    1  0.2075077E-005  0.9240219E+02  0.7546771E-02  0.1297723E+00
         -2   -1    0    0    0  501 -0.00000000000E+00  0.00000000000E+00  0.26459362742E+02  0.26459362742E+02  0.00000000000E+00 0.  1.
          2   -1    0    0  502    0  0.00000000000E+00 -0.00000000000E+00 -0.62955766215E+03  0.62955766215E+03  0.00000000000E+00 0. -1.
         23    2    1    2    0    0  0.11502693727E+01  0.48108689855E+01 -0.11646233767E+03  0.14798088193E+03  0.91161382960E+02 0.  0.
         23    2    1    2    0    0 -0.18396424472E+00  0.27136041120E+02 -0.22774848656E+03  0.24718318895E+03  0.92161582002E+02 0.  0.
        -11    1    3    3    0    0 -0.44239928329E+02  0.97397523478E+01 -0.51632898854E+02  0.68687628278E+02  0.00000000000E+00 0. -1.
         11    1    3    3    0    0  0.45390197702E+02 -0.49288833622E+01 -0.64829438812E+02  0.79293253656E+02  0.00000000000E+00 0.  1.
        -11    1    4    4    0    0  0.18942395850E+02 -0.28564470471E+02 -0.11473944155E+03  0.11974924961E+03  0.00000000000E+00 0.  1.
         11    1    4    4    0    0 -0.19126360095E+02  0.55700511591E+02 -0.11300904501E+03  0.12743393934E+03  0.00000000000E+00 0. -1.
         21    1    1    2  502  501 -0.96630512795E+00 -0.31946910105E+02 -0.25888747518E+03  0.26085295401E+03  0.00000000000E+00 0. -1.
<scales pt_clust_5="13000.00000" pt_clust_6="13000.00000" pt_clust_7="13000.00000" pt_clust_8="13000.00000" pt_clust_9="31.96152"></scales>
<clustering>
<clus scale="   31.962">  2  9  1 -1</clus>
<clus scale="   91.161">  5  6 -1 -1</clus>
<clus scale="   91.405">  1  5  2 -1</clus>
<clus scale="   92.162">  7  8 -1 -1</clus>
<clus scale="   31.962">  2  5  1 -1</clus>
</clustering>
</event>
<event>
 9    1  0.2075077E-005  0.1049199E+03  0.7546771E-02  0.1271247E+00
          1   -1    0    0  502    0  0.00000000000E+00  0.00000000000E+00  0.59803838769E+03  0.59803838769E+03  0.00000000000E+00 0. -1.
         -1   -1    0    0    0  501 -0.00000000000E+00 -0.00000000000E+00 -0.38552050874E+02  0.38552050874E+02  0.00000000000E+00 0.  1.
         23    2    1    2    0    0  0.47661752556E+01 -0.42455644745E+02  0.81804287918E+02  0.13012966783E+03  0.91741979111E+02 0.  0.
         23    2    1    2    0    0 -0.25156396387E+02  0.66417719444E+02  0.23031652806E+03  0.25710230779E+03  0.89508300381E+02 0.  0.
        -11    1    3    3    0    0 -0.86076197094E+01 -0.69795172823E+02  0.51367624897E+02  0.87086681841E+02  0.00000000000E+00 0.  1.
         11    1    3    3    0    0  0.13373794965E+02  0.27339528078E+02  0.30436663020E+02  0.43042985992E+02  0.00000000000E+00 0. -1.
        -13    1    4    4    0    0 -0.52289279575E+00  0.37066311972E+02  0.17733419373E+02  0.41093297053E+02  0.00000000000E+00 0.  1.
         13    1    4    4    0    0 -0.24633503592E+02  0.29351407472E+02  0.21258310868E+03  0.21600901073E+03  0.00000000000E+00 0. -1.
         21    1    1    2  502  501  0.20390221132E+02 -0.23962074699E+02  0.24736552084E+03  0.24935846295E+03  0.00000000000E+00 0.  1.
<scales pt_clust_5="13000.00000" pt_clust_6="13000.00000" pt_clust_7="13000.00000" pt_clust_8="13000.00000" pt_clust_9="31.46335"></scales>
<clustering>
<clus scale="   31.463">  1  9  2 -1</clus>
<clus scale="   89.508">  7  8 -1 -1</clus>
<clus scale="   91.742">  5  6 -1 -1</clus>
<clus scale="  102.972">  1  7  2 -1</clus>
<clus scale="   31.463">  1  5  2 -1</clus>
</clustering>
</event>
<event>
 9    1  0.2075077E-005  0.9694979E+02  0.7546771E-02  0.1287598E+00
         -1   -1    0    0    0  501 -0.00000000000E+00  0.00000000000E+00  0.12715403657E+03  0.12715403657E+03  0.00000000000E+00 0.  1.
          1   -1    0    0  502    0  0.00000000000E+00 -0.00000000000E+00 -0.11490892172E+03  0.11490892172E+03  0.00000000000E+00 0. -1.
         23    2    1    2    0    0 -0.14610296745E+02 -0.59168093281E+01  0.28685512707E+02  0.98435014233E+02  0.92833851499E+02 0.  0.
         23    2    1    2    0    0  0.19265455934E+02  0.26576979739E+02  0.19719508549E+02  0.10172267017E+03  0.94239848069E+02 0.  0.
        -13    1    4    4    0    0  0.24339202634E+02 -0.20659772792E+02 -0.21775301133E+02  0.38644362281E+02  0.00000000000E+00 0. -1.
         13    1    4    4    0    0 -0.50737467005E+01  0.47236752531E+02  0.41494809682E+02  0.63078307886E+02  0.00000000000E+00 0.  1.
        -13    1    3    3    0    0 -0.47131653222E+02 -0.27516266482E+02  0.21914971313E+02  0.58811594300E+02  0.00000000000E+00 0.  1.
         13    1    3    3    0    0  0.32521356476E+02  0.21599457153E+02  0.67705413939E+01  0.39623419932E+02  0.00000000000E+00 0. -1.
         21    1    1    2  502  501 -0.46551591881E+01 -0.20660170411E+02 -0.36159906410E+02  0.41905273893E+02  0.00000000000E+00 0. -1.
<scales pt_clust_5="13000.00000" pt_clust_6="13000.00000" pt_clust_7="13000.00000" pt_clust_8="13000.00000" pt_clust_9="21.17813"></scales>
<clustering>
<clus scale="   21.178">  2  9  1 -1</clus>
<clus scale="   92.834">  7  8 -1 -1</clus>
<clus scale="   94.240">  5  6 -1 -1</clus>
<clus scale="   95.584">  1  7  2 -1</clus>
<clus scale="   21.178">  2  5  1 -1</clus>
</clustering>
</event>
<event>
 9    1  0.2075077E-005  0.1098303E+03  0.7546771E-02  0.1264756E+00
          1   -1    0    0  502    0  0.00000000000E+00  0.00000000000E+00  0.77554627741E+03  0.77554627741E+03  0.00000000000E+00 0. -1.
         -1   -1    0    0    0  501 -0.00000000000E+00 -0.00000000000E+00 -0.62307586822E+02  0.62307586822E+02  0.00000000000E+00 0.  1.
         23    2    1    2    0    0 -0.47672884309E+01 -0.49676865157E+02  0.62383015649E+01  0.10490729298E+03  0.92065768578E+02 0.  0.
         23    2    1    2    0    0  0.42822521778E+02 -0.19158063533E+02  0.47953156408E+03  0.49226313909E+03  0.10085473410E+03 0.  0.
        -11    1    4    4    0    0  0.83781528332E+00  0.39264998485E+02  0.16568782942E+03  0.17027888554E+03  0.00000000000E+00 0.  1.
         11    1    4    4    0    0  0.41984706495E+02 -0.58423062018E+02  0.31384373465E+03  0.32198425355E+03  0.00000000000E+00 0. -1.
        -13    1    3    3    0    0 -0.29824936280E+02  0.13581290335E+02 -0.11261562348E+02  0.34652576495E+02  0.00000000000E+00 0.  1.
         13    1    3    3    0    0  0.25057647849E+02 -0.63258155492E+02  0.17499863913E+02  0.70254716489E+02  0.00000000000E+00 0. -1.
         21    1    1    2  502  501 -0.38055233347E+02  0.68834928690E+02  0.22746882494E+03  0.24068343216E+03  0.00000000000E+00 0. -1.
<scales pt_clust_5="13000.00000" pt_clust_6="13000.00000" pt_clust_7="13000.00000" pt_clust_8="13000.00000" pt_clust_9="78.65398"></scales>
<clustering>
<clus scale="   78.654">  1  9  2 -1</clus>
<clus scale="   92.066">  7  8 -1 -1</clus>
<clus scale="  100.855">  5  6 -1 -1</clus>
<clus scale="  101.819">  2  7  1 -1</clus>
<clus scale="   78.654">  1  5  2 -1</clus>
</clustering>
</event>
<event>
 9    1  0.2075077E-005  0.1388774E+03  0.7546771E-02  0.1214946E+00
          1   -1    0    0  502    0  0.00000000000E+00  0.00000000000E+00  0.31974650467E+03  0.31974650467E+03  0.00000000000E+00 0. -1.
         -1   -1    0    0    0  501 -0.00000000000E+00 -0.00000000000E+00 -0.21881241493E+03  0.21881241493E+03  0.00000000000E+00 0.  1.
         23    2    1    2    0    0  0.10677131381E+03 -0.31099560060E+00 -0.17014454349E+03  0.22055253613E+03  0.91071649498E+02 0.  0.
         23    2    1    2    0    0 -0.80120225796E+02  0.20680803436E+02  0.24888295519E+03  0.27778378177E+03  0.91510424637E+02 0.  0.
        -11    1    3    3    0    0  0.62935151902E+02 -0.26885589310E+02 -0.15108375569E+03  0.16586129594E+03  0.00000000000E+00 0.  1.
         11    1    3    3    0    0  0.43836161913E+02  0.26574593710E+02 -0.19060787801E+02  0.54691240191E+02  0.00000000000E+00 0. -1.
        -13    1    4    4    0    0 -0.54819844933E+02 -0.16799774297E+02  0.57767352258E+02  0.81391122377E+02  0.00000000000E+00 0.  1.
         13    1    4    4    0    0 -0.25300380863E+02  0.37480577733E+02  0.19111560293E+03  0.19639265939E+03  0.00000000000E+00 0. -1.
         21    1    1    2  502  501 -0.26651088019E+02 -0.20369807835E+02  0.22195678050E+02  0.40222601705E+02  0.00000000000E+00 0.  1.
<scales pt_clust_5="13000.00000" pt_clust_6="13000.00000" pt_clust_7="13000.00000" pt_clust_8="13000.00000" pt_clust_9="33.54414"></scales>
<clustering>
<clus scale="   33.544">  1  9  2 -1</clus>
<clus scale="   91.072">  5  6 -1 -1</clus>
<clus scale="   91.510">  7  8 -1 -1</clus>
<clus scale="  138.589">  2  5  1 -1</clus>
<clus scale="   33.544">  1  5  2 -1</clus>
</clustering>
</event>
<event>
 9    1  0.2075077E-005  0.2467944E+03  0.7546771E-02  0.1115355E+00
          1   -1    0    0  502    0  0.00000000000E+00  0.00000000000E+00  0.64537563885E+03  0.64537563885E+03  0.00000000000E+00 0. -1.
         -1   -1    0    0    0  501 -0.00000000000E+00 -0.00000000000E+00 -0.27242053206E+03  0.27242053206E+03  0.00000000000E+00 0.  1.
         23    2    1    2    0    0 -0.18296397939E+03  0.15004006625E+03 -0.16258385413E+03  0.30122862164E+03  0.91199416886E+02 0.  0.
         23    2    1    2    0    0  0.15974557131E+03 -0.11638479466E+03  0.26476309331E+03  0.34272207776E+03  0.91076116674E+02 0.  0.
        -13    1    3    3    0    0 -0.10005065292E+03  0.38645702568E+02 -0.10745053198E+03  0.15181976255E+03  0.00000000000E+00 0. -1.
         13    1    3    3    0    0 -0.82913326465E+02  0.11139436368E+03 -0.55133322152E+02  0.14940885910E+03  0.00000000000E+00 0.  1.
        -13    1    4    4    0    0  0.35831073986E+02  0.24061231597E+01  0.13383319229E+02  0.38324515982E+02  0.00000000000E+00 0.  1.
         13    1    4    4    0    0  0.12391449732E+03 -0.11879091782E+03  0.25137977408E+03  0.30439756178E+03  0.00000000000E+00 0. -1.
         21    1    1    2  502  501  0.23218408084E+02 -0.33655271585E+02  0.27077586762E+03  0.27384547150E+03  0.00000000000E+00 0. -1.
<scales pt_clust_5="13000.00000" pt_clust_6="13000.00000" pt_clust_7="13000.00000" pt_clust_8="13000.00000" pt_clust_9="40.88731"></scales>
<clustering>
<clus scale="   40.887">  1  9  2 -1</clus>
<clus scale="   91.076">  7  8 -1 -1</clus>
<clus scale="   91.199">  5  6 -1 -1</clus>
<clus scale="  246.749">  1  7  2 -1</clus>
<clus scale="   40.887">  1  5  2 -1</clus>
</clustering>
</event>
<event>
 9    1  0.2075077E-005  0.1183089E+03  0.7546771E-02  0.1259064E+00
          2   -1    0    0  502    0  0.00000000000E+00  0.00000000000E+00  0.67348206737E+02  0.67348206737E+02  0.00000000000E+00 0. -1.
         -2   -1    0    0    0  501 -0.00000000000E+00 -0.00000000000E+00 -0.27819034682E+03  0.27819034682E+03  0.00000000000E+00 0.  1.
         23    2    1    2    0    0 -0.22084826175E+02 -0.22864493070E+02 -0.19586699764E+03  0.22922911216E+03  0.11476750632E+03 0.  0.
         23    2    1    2    0    0  0.12422609842E+01  0.27219164778E+02 -0.23113415053E+02  0.93514547874E+02  0.86419410811E+02 0.  0.
        -13    1    3    3    0    0 -0.63281419969E+02 -0.39535291567E+02 -0.12022678045E+03  0.14149931495E+03  0.00000000000E+00 0.  1.
         13    1    3    3    0    0  0.41196593795E+02  0.16670798498E+02 -0.75640217190E+02  0.87729797215E+02  0.00000000000E+00 0. -1.
        -13    1    4    4    0    0 -0.20112029380E+02  0.30662263118E+02 -0.48088749219E+02  0.60474754293E+02  0.00000000000E+00 0.  1.
         13    1    4    4    0    0  0.21354290364E+02 -0.34430983400E+01  0.24975334166E+02  0.33039793581E+02  0.00000000000E+00 0. -1.
         21    1    1    2  502  501  0.20842565190E+02 -0.43546717089E+01  0.81382726145E+01  0.22794893519E+02  0.00000000000E+00 0.  1.
<scales pt_clust_5="13000.00000" pt_clust_6="13000.00000" pt_clust_7="13000.00000" pt_clust_8="13000.00000" pt_clust_9="21.29262"></scales>
<clustering>
<clus scale="   21.293">  1  9  2 -1</clus>
<clus scale="   86.419">  7  8 -1 -1</clus>
<clus scale="   91.070">  1  7  2 -1</clus>
<clus scale="  114.768">  5  6 -1 -1</clus>
<clus scale="   21.293">  1  5  2 -1</clus>
</clustering>
</event>
<event>
 9    1  0.2075077E-005  0.9410699E+02  0.7546771E-02  0.1294739E+00
         -3   -1    0    0    0  501 -0.00000000000E+00  0.00000000000E+00  0.53067680078E+02  0.53067680078E+02  0.00000000000E+00 0.  1.
          3   -1    0    0  502    0  0.00000000000E+00 -0.00000000000E+00 -0.21302749286E+03  0.21302749286E+03  0.00000000000E+00 0. -1.
         23    2    1    2    0    0 -0.74722977365E+01 -0.20462812115E+02 -0.42676325115E+02  0.10449450946E+03  0.92861573696E+02 0.  0.
         23    2    1    2    0    0 -0.76682672430E+01  0.73428487968E+01 -0.90927779334E+02  0.12849487082E+03  0.90168459133E+02 0.  0.
        -11    1    4    4    0    0  0.15703544189E+02  0.43009500216E+02 -0.61549978250E+02  0.76712568928E+02  0.00000000000E+00 0. -1.
         11    1    4    4    0    0 -0.23371811432E+02 -0.35666651419E+02 -0.29377801084E+02  0.51782301896E+02  0.00000000000E+00 0.  1.
        -13    1    3    3    0    0 -0.35399573498E+01  0.24834999812E+02 -0.52312508942E+02  0.58016438235E+02  0.00000000000E+00 0. -1.
         13    1    3    3    0    0 -0.39323403867E+01 -0.45297811926E+02  0.96361838270E+01  0.46478071227E+02  0.00000000000E+00 0.  1.
         21    1    1    2  502  501  0.15140564979E+02  0.13119963318E+02 -0.26355708334E+02  0.33105792652E+02  0.00000000000E+00 0. -1.
<scales pt_clust_5="13000.00000" pt_clust_6="13000.00000" pt_clust_7="13000.00000" pt_clust_8="13000.00000" pt_clust_9="20.03422"></scales>
<clustering>
<clus scale="   20.034">  2  9  1 -1</clus>
<clus scale="   90.168">  5  6 -1 -1</clus>
<clus scale="   91.451">  2  5  1 -1</clus>
<clus scale="   92.862">  7  8 -1 -1</clus>
<clus scale="   20.034">  2  5  1 -1</clus>
</clustering>
</event>
<event>
 9    1  0.2075077E-005  0.1188536E+03  0.7546771E-02  0.1246266E+00
         -2   -1    0    0    0  501 -0.00000000000E+00  0.00000000000E+00  0.14329429233E+03  0.14329429233E+03  0.00000000000E+00 0.  1.
          2   -1    0    0  502    0  0.00000000000E+00 -0.00000000000E+00 -0.46096866824E+03  0.46096866824E+03  0.00000000000E+00 0. -1.
         23    2    1    2    0    0  0.77154481884E+02  0.40387178593E+01  0.76289917651E+02  0.14209607447E+03  0.91662519748E+02 0.  0.
         23    2    1    2    0    0 -0.50401464929E+02 -0.95002340616E+02 -0.28971212806E+03  0.32124627515E+03  0.87751351906E+02 0.  0.
        -13    1    3    3    0    0  0.81892709647E+02 -0.26490746149E+02  0.69097377199E+02  0.11037492043E+03  0.00000000000E+00 0.  1.
         13    1    3    3    0    0 -0.47382277633E+01  0.30529464009E+02  0.71925404524E+01  0.31721154032E+02  0.00000000000E+00 0. -1.
        -13    1    4    4    0    0 -0.43877983300E+02 -0.21106424635E+02 -0.19474384185E+03  0.20073844305E+03  0.00000000000E+00 0. -1.
         13    1    4    4    0    0 -0.65234816293E+01 -0.73895915981E+02 -0.94968286210E+02  0.12050783210E+03  0.00000000000E+00 0.  1.
         21    1    1    2  502  501 -0.26753016955E+02  0.90963622757E+02 -0.10425216550E+03  0.14092061096E+03  0.00000000000E+00 0. -1.
<scales pt_clust_5="13000.00000" pt_clust_6="13000.00000" pt_clust_7="13000.00000" pt_clust_8="13000.00000" pt_clust_9="94.81616"></scales>
<clustering>
<clus scale="   87.751">  7  8 -1 -1</clus>
<clus scale="   91.663">  5  6 -1 -1</clus>
<clus scale="   94.816">  2  9  1 -1</clus>
<clus scale="  115.864">  2  7  1 -1</clus>
<clus scale="   94.816">  2  5  1 -1</clus>
</clustering>
</event>
<event>
 9    1  0.2075077E-005  0.1189682E+03  0.7546771E-02  0.1245713E+00
         -2   -1    0    0    0  501 -0.00000000000E+00  0.00000000000E+00  0.43725668697E+02  0.43725668697E+02  0.00000000000E+00 0.  1.
          2   -1    0    0  502    0  0.00000000000E+00 -0.00000000000E+00 -0.77001488033E+03  0.77001488033E+03  0.00000000000E+00 0. -1.
         23    2    1    2    0    0  0.60635004278E+02 -0.43664232791E+02 -0.60543922889E+02  0.13503442771E+03  0.94792199565E+02 0.  0.
         23    2    1    2    0    0 -0.53233549631E+02  0.22983709766E+02 -0.51518147674E+03  0.52654854823E+03  0.92083429275E+02 0.  0.
        -11    1    3    3    0    0  0.51828584802E+02  0.20367382829E+02 -0.33371603618E+02  0.64920693264E+02  0.00000000000E+00 0. -1.
         11    1    3    3    0    0  0.88064194756E+01 -0.64031615620E+02 -0.27172319271E+02  0.70113734443E+02  0.00000000000E+00 0.  1.
        -11    1    4    4    0    0 -0.74063750226E+02 -0.33003233870E+01 -0.38800983165E+03  0.39502906310E+03  0.00000000000E+00 0.  1.
         11    1    4    4    0    0  0.20830200596E+02  0.26284033153E+02 -0.12717164508E+03  0.13151948513E+03  0.00000000000E+00 0. -1.
         21    1    1    2  502  501 -0.74014546468E+01  0.20680523025E+02 -0.15056381200E+03  0.15215757309E+03  0.00000000000E+00 0. -1.
<scales pt_clust_5="13000.00000" pt_clust_6="13000.00000" pt_clust_7="13000.00000" pt_clust_8="13000.00000" pt_clust_9="21.96510"></scales>
<clustering>
<clus scale="   21.965">  2  9  1 -1</clus>
<clus scale="   92.083">  7  8 -1 -1</clus>
<clus scale="   94.792">  5  6 -1 -1</clus>
<clus scale="  116.821">  2  7  1 -1</clus>
<clus scale="   21.965">  2  5  1 -1</clus>
</clustering>
</event>
<event>
 9    1  0.2075077E-005  0.1193926E+03  0.7546771E-02  0.1244497E+00
          1   -1    0    0  502    0  0.00000000000E+00  0.00000000000E+00  0.69655978962E+02  0.69655978962E+02  0.00000000000E+00 0. -1.
         -1   -1    0    0    0  501 -0.00000000000E+00 -0.00000000000E+00 -0.31772109590E+03  0.31772109590E+03  0.00000000000E+00 0.  1.
         23    2    1    2    0    0 -0.88838042943E+02  0.38166465357E+01 -0.17367534849E+03  0.21531280610E+03  0.91047861784E+02 0.  0.
         23    2    1    2    0    0  0.59043272761E+02  0.54193630575E+00 -0.86526377641E+02  0.13959855058E+03  0.92274262619E+02 0.  0.
        -11    1    4    4    0    0  0.80050047319E+02 -0.20663662325E+01 -0.87239065132E+02  0.11841847166E+03  0.00000000000E+00 0. -1.
         11    1    4    4    0    0 -0.21006774557E+02  0.26083025383E+01  0.71268749061E+00  0.21180078916E+02  0.00000000000E+00 0.  1.
        -11    1    3    3    0    0 -0.66059774305E+02 -0.14001437243E+02 -0.17373121545E+03  0.18639331868E+03  0.00000000000E+00 0.  1.
         11    1    3    3    0    0 -0.22778268638E+02  0.17818083779E+02  0.55866965352E-01  0.28919487423E+02  0.00000000000E+00 0. -1.
         21    1    1    2  502  501  0.29794770182E+02 -0.43585828415E+01  0.12136609189E+02  0.32465718184E+02  0.00000000000E+00 0. -1.
<scales pt_clust_5="13000.00000" pt_clust_6="13000.00000" pt_clust_7="13000.00000" pt_clust_8="13000.00000" pt_clust_9="30.11188"></scales>
<clustering>
<clus scale="   30.112">  1  9  2 -1</clus>
<clus scale="   91.048">  7  8 -1 -1</clus>
<clus scale="   92.274">  5  6 -1 -1</clus>
<clus scale="  118.447">  2  7  1 -1</clus>
<clus scale="   30.112">  1  5  2 -1</clus>
</clustering>
</event>
<event>
 9    1  0.2075077E-005  0.9464777E+02  0.7546771E-02  0.1292025E+00
         -1   -1    0    0    0  501 -0.00000000000E+00  0.00000000000E+00  0.56354698981E+02  0.56354698981E+02  0.00000000000E+00 0.  1.
          1   -1    0    0  502    0  0.00000000000E+00 -0.00000000000E+00 -0.34206710243E+03  0.34206710243E+03  0.00000000000E+00 0. -1.
         23    2    1    2    0    0  0.90417728017E+00  0.26399694558E+02 -0.24746557981E+02  0.97975140308E+02  0.91043805814E+02 0.  0.
         23    2    1    2    0    0 -0.25285154928E+02 -0.19947702211E+02 -0.10555996976E+03  0.14300763646E+03  0.90945186713E+02 0.  0.
        -11    1    3    3    0    0 -0.43472771087E+01  0.60224718121E+02 -0.12825887691E+02  0.61728590508E+02  0.00000000000E+00 0.  1.
         11    1    3    3    0    0  0.52514543889E+01 -0.33825023563E+02 -0.11920670291E+02  0.36246549800E+02  0.00000000000E+00 0. -1.
        -11    1    4    4    0    0  0.31891367183E+02 -0.15342177447E+02 -0.60391558349E+02  0.69997014433E+02  0.00000000000E+00 0. -1.
         11    1    4    4    0    0 -0.57176522111E+02 -0.46055247635E+01 -0.45168411407E+02  0.73010622023E+02  0.00000000000E+00 0.  1.
         21    1    1    2  502  501  0.24380977648E+02 -0.64519923472E+01 -0.15540587571E+03  0.15743902465E+03  0.00000000000E+00 0. -1.
<scales pt_clust_5="13000.00000" pt_clust_6="13000.00000" pt_clust_7="13000.00000" pt_clust_8="13000.00000" pt_clust_9="25.22024"></scales>
<clustering>
<clus scale="   25.220">  2  9  1 -1</clus>
<clus scale="   90.945">  7  8 -1 -1</clus>
<clus scale="   91.044">  5  6 -1 -1</clus>
<clus scale="   94.553">  2  7  1 -1</clus>
<clus scale="   25.220">  2  5  1 -1</clus>
</clustering>
</event>
<event>
 9    1  0.2075077E-005  0.1001780E+03  0.7546771E-02  0.1280823E+00
         -1   -1    0    0    0  501 -0.00000000000E+00  0.00000000000E+00  0.62694659195E+02  0.62694659195E+02  0.00000000000E+00 0.  1.
          1   -1    0    0  502    0  0.00000000000E+00 -0.00000000000E+00 -0.40754716328E+03  0.40754716328E+03  0.00000000000E+00 0. -1.
         23    2    1    2    0    0  0.38251277465E+02  0.25397591591E+02  0.10847904307E+01  0.10027657114E+03  0.89140428887E+02 0.  0.
         23    2    1    2    0    0 -0.51444382886E+01 -0.22955262668E+02 -0.29067570251E+03  0.30549920352E+03  0.91016427034E+02 0.  0.
        -11    1    4    4    0    0 -0.41096187396E+02 -0.31968212576E+02 -0.21526671152E+03  0.22147374635E+03  0.00000000000E+00 0. -1.
         11    1    4    4    0    0  0.35951749107E+02  0.90129499076E+01 -0.75408990993E+02  0.84025457169E+02  0.00000000000E+00 0.  1.
        -13    1    3    3    0    0  0.18886544613E+02 -0.67804672089E+01 -0.39915533895E+02  0.44675789295E+02  0.00000000000E+00 0. -1.
         13    1    3    3    0    0  0.19364732851E+02  0.32178058800E+02  0.41000324325E+02  0.55600781841E+02  0.00000000000E+00 0.  1.
         21    1    1    2  502  501 -0.33106839176E+02 -0.24423289227E+01 -0.55261592000E+02  0.64466047817E+02  0.00000000000E+00 0. -1.
<scales pt_clust_5="13000.00000" pt_clust_6="13000.00000" pt_clust_7="13000.00000" pt_clust_8="13000.00000" pt_clust_9="33.19680"></scales>
<clustering>
<clus scale="   33.197">  2  9  1 -1</clus>
<clus scale="   89.140">  7  8 -1 -1</clus>
<clus scale="   91.016">  5  6 -1 -1</clus>
<clus scale="   98.477">  1  7  2 -1</clus>
<clus scale="   33.197">  2  5  1 -1</clus>
</clustering>
</event>
<event>
 9    1  0.2075077E-005  0.1548587E+03  0.7546771E-02  0.1212159E+00
         -1   -1    0    0    0  501 -0.00000000000E+00  0.00000000000E+00  0.17832819893E+03  0.17832819893E+03  0.00000000000E+00 0.  1.
          1   -1    0    0  502    0  0.00000000000E+00 -0.00000000000E+00 -0.34353977417E+03  0.34353977417E+03  0.00000000000E+00 0. -1.
         23    2    1    2    0    0  0.94490371991E+02 -0.81439917833E+02  0.81184836090E+02  0.17576028077E+03  0.93486940638E+02 0.  0.
         23    2    1    2    0    0 -0.42453408894E+02 -0.35386949476E+02 -0.65765275147E+02  0.12478446758E+03  0.90507258357E+02 0.  0.
        -11    1    3    3    0    0  0.34110203244E+02  0.10461786436E+02 -0.50276218657E+01  0.36030985587E+02  0.00000000000E+00 0. -1.
         11    1    3    3    0    0  0.60380168747E+02 -0.91901704269E+02  0.86212457956E+02  0.13972929518E+03  0.00000000000E+00 0.  1.
        -11    1    4    4    0    0 -0.18737214155E+02 -0.65254685942E+02 -0.41014035521E+02  0.79318398505E+02  0.00000000000E+00 0.  1.
         11    1    4    4    0    0 -0.23716194739E+02  0.29867736466E+02 -0.24751239626E+02  0.45466069079E+02  0.00000000000E+00 0. -1.
         21    1    1    2  502  501 -0.52036963096E+02  0.11682686731E+03 -0.18063113618E+03  0.22132322475E+03  0.00000000000E+00 0. -1.
<scales pt_clust_5="13000.00000" pt_clust_6="13000.00000" pt_clust_7="13000.00000" pt_clust_8="13000.00000" pt_clust_9="123.45614"></scales>
<clustering>
<clus scale="   90.507">  7  8 -1 -1</clus>
<clus scale="   93.487">  5  6 -1 -1</clus>
<clus scale="  106.048">  2  7  1 -1</clus>
<clus scale="  123.456">  2  9  1 -1</clus>
<clus scale="  106.048">  2  5  1 -1</clus>
</clustering>
</event>
<event>
 9    1  0.2075077E-005  0.1035931E+03  0.7546771E-02  0.1277171E+00
         -4   -1    0    0    0  501 -0.00000000000E+00  0.00000000000E+00  0.15334636395E+03  0.15334636395E+03  0.00000000000E+00 0.  1.
          4   -1    0    0  502    0  0.00000000000E+00 -0.00000000000E+00 -0.18322441982E+03  0.18322441982E+03  0.00000000000E+00 0. -1.
         23    2    1    2    0    0  0.32967073726E+02 -0.41120810246E+02  0.72542254299E+02  0.13490171936E+03  0.10078862160E+03 0.  0.
         23    2    1    2    0    0  0.25187854404E+02  0.13537129569E+02 -0.97122512336E+02  0.13708639052E+03  0.92424099542E+02 0.  0.
        -11    1    4    4    0    0  0.19717233101E+02  0.53126604751E+02 -0.60202625550E+02  0.82677454827E+02  0.00000000000E+00 0.  1.
         11    1    4    4    0    0  0.54706213029E+01 -0.39589475182E+02 -0.36919886785E+02  0.54408935690E+02  0.00000000000E+00 0. -1.
        -13    1    3    3    0    0 -0.34956896668E+02 -0.22444010957E+02  0.15795006361E+02  0.44443227588E+02  0.00000000000E+00 0.  1.
         13    1    3    3    0    0  0.67923970394E+02 -0.18676799289E+02  0.56747247938E+02  0.90458491775E+02  0.00000000000E+00 0. -1.
         21    1    1    2  502  501 -0.58154928130E+02  0.27583680677E+02 -0.52977978366E+01  0.64582673894E+02  0.00000000000E+00 0.  1.
<scales pt_clust_5="13000.00000" pt_clust_6="13000.00000" pt_clust_7="13000.00000" pt_clust_8="13000.00000" pt_clust_9="64.36501"></scales>
<clustering>
<clus scale="   64.365">  1  9  2 -1</clus>
<clus scale="   92.424">  5  6 -1 -1</clus>
<clus scale="   95.475">  2  5  1 -1</clus>
<clus scale="  100.789">  7  8 -1 -1</clus>
<clus scale="   95.475">  2  5  1 -1</clus>
</clustering>
</event>
<event>
 9    1  0.2075077E-005  0.1132572E+03  0.7546771E-02  0.1255068E+00
         -2   -1    0    0    0  501 -0.00000000000E+00  0.00000000000E+00  0.24909004558E+03  0.24909004558E+03  0.00000000000E+00 0.  1.
          2   -1    0    0  502    0  0.00000000000E+00 -0.00000000000E+00 -0.76523564485E+02  0.76523564485E+02  0.00000000000E+00 0. -1.
         23    2    1    2    0    0 -0.32715407528E+02  0.53538903146E+02  0.12726720948E+03  0.16913704340E+03  0.92052619741E+02 0.  0.
         23    2    1    2    0    0  0.19846467344E+02 -0.70389682177E+02  0.59485000610E+02  0.13096591630E+03  0.90912135118E+02 0.  0.
        -11    1    3    3    0    0 -0.58571470454E+01  0.75825569801E+02  0.94098971999E+02  0.12098941994E+03  0.00000000000E+00 0. -1.
         11    1    3    3    0    0 -0.26858260483E+02 -0.22286666655E+02  0.33168237477E+02  0.48147623452E+02  0.00000000000E+00 0.  1.
        -13    1    4    4    0    0 -0.41461507053E+01 -0.81073312626E+02  0.65160477960E+02  0.10409591958E+03  0.00000000000E+00 0.  1.
         13    1    4    4    0    0  0.23992618049E+02  0.10683630450E+02 -0.56754773494E+01  0.26869996717E+02  0.00000000000E+00 0. -1.
         21    1    1    2  502  501  0.12868940184E+02  0.16850779030E+02 -0.14185728989E+02  0.25510650371E+02  0.00000000000E+00 0.  1.
<scales pt_clust_5="13000.00000" pt_clust_6="13000.00000" pt_clust_7="13000.00000" pt_clust_8="13000.00000" pt_clust_9="21.20279"></scales>
<clustering>
<clus scale="   21.203">  2  9  1 -1</clus>
<clus scale="   90.912">  7  8 -1 -1</clus>
<clus scale="   92.053">  5  6 -1 -1</clus>
<clus scale="  112.332">  2  7  1 -1</clus>
<clus scale="   21.203">  2  5  1 -1</clus>
</clustering>
</event>
<event>
 9    1  0.2075077E-005  0.1384008E+03  0.7546771E-02  0.1215671E+00
          1   -1    0    0  502    0  0.00000000000E+00  0.00000000000E+00  0.12164988263E+03  0.12164988263E+03  0.00000000000E+00 0. -1.
         -1   -1    0    0    0  501 -0.00000000000E+00 -0.00000000000E+00 -0.22977956086E+03  0.22977956086E+03  0.00000000000E+00 0.  1.
         23    2    1    2    0    0 -0.51546595414E+02  0.96704964191E+02 -0.12873643675E+03  0.19181663632E+03  0.90618156146E+02 0.  0.
         23    2    1    2    0    0  0.33476946582E+02 -0.86523580625E+02 -0.21134965799E+00  0.13022630674E+03  0.91388239619E+02 0.  0.
        -13    1    4    4    0    0 -0.18888281299E+02 -0.25529237246E+02  0.30632335708E+02  0.44123113169E+02  0.00000000000E+00 0.  1.
         13    1    4    4    0    0  0.52365227882E+02 -0.60994343379E+02 -0.30843685366E+02  0.86103193566E+02  0.00000000000E+00 0. -1.
        -13    1    3    3    0    0 -0.56587698610E+02  0.13449881765E+02 -0.61847565658E+02  0.84901050237E+02  0.00000000000E+00 0.  1.
         13    1    3    3    0    0  0.50411031961E+01  0.83255082425E+02 -0.66888871090E+02  0.10691558608E+03  0.00000000000E+00 0. -1.
         21    1    1    2  502  501  0.18069648832E+02 -0.10181383566E+02  0.20818108177E+02  0.29386500443E+02  0.00000000000E+00 0. -1.
<scales pt_clust_5="13000.00000" pt_clust_6="13000.00000" pt_clust_7="13000.00000" pt_clust_8="13000.00000" pt_clust_9="20.74061"></scales>
<clustering>
<clus scale="   20.741">  1  9  2 -1</clus>
<clus scale="   90.618">  7  8 -1 -1</clus>
<clus scale="   91.388">  5  6 -1 -1</clus>
<clus scale="  137.893">  2  7  1 -1</clus>
<clus scale="   20.741">  1  5  2 -1</clus>
</clustering>
</event>
<event>
 9    1  0.2075077E-005  0.1016378E+03  0.7546771E-02  0.1277748E+00
         -2   -1    0    0    0  501 -0.00000000000E+00  0.00000000000E+00  0.31632390205E+03  0.31632390205E+03  0.00000000000E+00 0.  1.
          2   -1    0    0  502    0  0.00000000000E+00 -0.00000000000E+00 -0.55793733330E+02  0.55793733330E+02  0.00000000000E+00 0. -1.
         23    2    1    2    0    0 -0.30249246430E+02  0.20585541591E+02  0.21188631776E+03  0.23486669764E+03  0.94486891037E+02 0.  0.
         23    2    1    2    0    0  0.45177525354E+02 -0.22333865346E+01  0.30901324553E+02  0.10767979724E+03  0.92704099489E+02 0.  0.
        -11    1    4    4    0    0  0.24282705618E+02  0.36138814902E+02  0.44165775815E+02  0.62018380244E+02  0.00000000000E+00 0. -1.
         11    1    4    4    0    0  0.20894819735E+02 -0.38372201437E+02 -0.13264451262E+02  0.45661416997E+02  0.00000000000E+00 0.  1.
        -13    1    3    3    0    0 -0.24810853692E+02 -0.34296022642E+02  0.12482846567E+03  0.13181024798E+03  0.00000000000E+00 0.  1.
         13    1    3    3    0    0 -0.54383927385E+01  0.54881564233E+02  0.87057852082E+02  0.10305644966E+03  0.00000000000E+00 0. -1.
         21    1    1    2  502  501 -0.14928278923E+02 -0.18352155056E+02  0.17742526416E+02  0.29571140499E+02  0.00000000000E+00 0. -1.
<scales pt_clust_5="13000.00000" pt_clust_6="13000.00000" pt_clust_7="13000.00000" pt_clust_8="13000.00000" pt_clust_9="23.65703"></scales>
<clustering>
<clus scale="   23.657">  2  9  1 -1</clus>
<clus scale="   92.704">  5  6 -1 -1</clus>
<clus scale="   94.487">  7  8 -1 -1</clus>
<clus scale="   99.983">  2  5  1 -1</clus>
<clus scale="   23.657">  2  5  1 -1</clus>
</clustering>
</event>
<event>
 9    1  0.2075077E-005  0.1375467E+03  0.7546771E-02  0.1232272E+00
          2   -1    0    0  502    0  0.00000000000E+00  0.00000000000E+00  0.80810993268E+02  0.80810993268E+02  0.00000000000E+00 0. -1.
         -2   -1    0    0    0  501 -0.00000000000E+00 -0.00000000000E+00 -0.38246446426E+03  0.38246446426E+03  0.00000000000E+00 0.  1.
         23    2    1    2    0    0  0.10427137438E+03 -0.97752285020E+01 -0.18282211769E+03  0.22943775024E+03  0.90827748568E+02 0.  0.
         23    2    1    2    0    0 -0.31652871359E+01  0.24101453230E+01 -0.68255324892E+02  0.12054772548E+03  0.99283114876E+02 0.  0.
        -11    1    4    4    0    0  0.47178420782E+02  0.55466742021E+01 -0.22990524104E+02  0.52774361017E+02  0.00000000000E+00 0.  1.
         11    1    4    4    0    0 -0.50343707918E+02 -0.31365288791E+01 -0.45264800788E+02  0.67773364464E+02  0.00000000000E+00 0. -1.
        -13    1    3    3    0    0 -0.68837662093E+01 -0.24116025502E+02 -0.21671346262E+02  0.33145379347E+02  0.00000000000E+00 0. -1.
         13    1    3    3    0    0  0.11115514059E+03  0.14340797000E+02 -0.16115077143E+03  0.19629237089E+03  0.00000000000E+00 0.  1.
         21    1    1    2  502  501 -0.10110608725E+03  0.73650831790E+01 -0.50576028407E+02  0.11328998181E+03  0.00000000000E+00 0. -1.
<scales pt_clust_5="13000.00000" pt_clust_6="13000.00000" pt_clust_7="13000.00000" pt_clust_8="13000.00000" pt_clust_9="103.29284"></scales>
<clustering>
<clus scale="   90.828">  7  8 -1 -1</clus>
<clus scale="   99.283">  5  6 -1 -1</clus>
<clus scale="   99.363">  1  5  2 -1</clus>
<clus scale="  103.293">  1  9  2 -1</clus>
<clus scale="   99.363">  1  5  2 -1</clus>
</clustering>
</event>
<event>
 9    1  0.2075077E-005  0.1505975E+03  0.7546771E-02  0.1200035E+00
         -2   -1    0    0    0  501 -0.00000000000E+00  0.00000000000E+00  0.17744305369E+03  0.17744305369E+03  0.00000000000E+00 0.  1.
          2   -1    0    0  502    0  0.00000000000E+00 -0.00000000000E+00 -0.29266992136E+03  0.29266992136E+03  0.00000000000E+00 0. -1.
         23    2    1    2    0    0  0.13447596112E+03  0.24644135187E+02  0.48096950500E+02  0.17185662310E+03  0.92359432308E+02 0.  0.
         23    2    1    2    0    0 -0.99352346472E+02 -0.45721749080E+01 -0.49040903902E+01  0.13475295125E+03  0.90788293490E+02 0.  0.
        -11    1    3    3    0    0  0.13744129073E+03  0.44661007418E+02  0.45173402870E+02  0.15141119612E+03  0.00000000000E+00 0.  1.
         11    1    3    3    0    0 -0.29653296148E+01 -0.20016872231E+02  0.29235476301E+01  0.20445426980E+02  0.00000000000E+00 0. -1.
        -11    1    4    4    0    0 -0.69407549344E+02 -0.18001366841E+02 -0.43674227684E+02  0.83957699337E+02  0.00000000000E+00 0. -1.
         11    1    4    4    0    0 -0.29944797128E+02  0.13429191932E+02  0.38770137294E+02  0.50795251912E+02  0.00000000000E+00 0.  1.
         21    1    1    2  502  501 -0.35123614647E+02 -0.20071960279E+02 -0.15841972777E+03  0.16350340071E+03  0.00000000000E+00 0. -1.
<scales pt_clust_5="13000.00000" pt_clust_6="13000.00000" pt_clust_7="13000.00000" pt_clust_8="13000.00000" pt_clust_9="40.45432"></scales>
<clustering>
<clus scale="   40.454">  2  9  1 -1</clus>
<clus scale="   90.788">  7  8 -1 -1</clus>
<clus scale="   92.359">  5  6 -1 -1</clus>
<clus scale="  149.639">  2  7  1 -1</clus>
<clus scale="   40.454">  2  5  1 -1</clus>
</clustering>
</event>
<event>
 9    1  0.2075077E-005  0.1314402E+03  0.7546771E-02  0.1225942E+00
         -1   -1    0    0    0  501 -0.00000000000E+00  0.00000000000E+00  0.33576710147E+02  0.33576710147E+02  0.00000000000E+00 0.  1.
          1   -1    0    0  502    0  0.00000000000E+00 -0.00000000000E+00 -0.80647853162E+03  0.80647853162E+03  0.00000000000E+00 0. -1.
         23    2    1    2    0    0 -0.25830953675E+02 -0.11377336327E+03 -0.31150301629E+03  0.34521013212E+03  0.92327080574E+02 0.  0.
         23    2    1    2    0    0 -0.11955642996E+02  0.82125254275E+02 -0.38446177317E+03  0.40347368858E+03  0.89959255005E+02 0.  0.
        -11    1    4    4    0    0  0.21642104537E+02  0.69115912382E+02 -0.33215632581E+03  0.33996060774E+03  0.00000000000E+00 0. -1.
         11    1    4    4    0    0 -0.33597747532E+02  0.13009341894E+02 -0.52305447353E+02  0.63513080846E+02  0.00000000000E+00 0.  1.
        -11    1    3    3    0    0 -0.30674820860E+02 -0.32611936308E+02 -0.21218154737E+03  0.21685361899E+03  0.00000000000E+00 0. -1.
         11    1    3    3    0    0  0.48438671845E+01 -0.81161426965E+02 -0.99321468915E+02  0.12835651313E+03  0.00000000000E+00 0.  1.
         21    1    1    2  502  501  0.37786596671E+02  0.31648108998E+02 -0.76937032023E+02  0.91371421066E+02  0.00000000000E+00 0.  1.
<scales pt_clust_5="13000.00000" pt_clust_6="13000.00000" pt_clust_7="13000.00000" pt_clust_8="13000.00000" pt_clust_9="49.28925"></scales>
<clustering>
<clus scale="   49.289">  1  9  2 -1</clus>
<clus scale="   89.959">  5  6 -1 -1</clus>
<clus scale="   92.327">  7  8 -1 -1</clus>
<clus scale="  129.788">  2  5  1 -1</clus>
<clus scale="  129.788">  2  5  1 -1</clus>
</clustering>
</event>
<event>
 9    1  0.2075077E-005  0.1004972E+03  0.7546771E-02  0.1280603E+00
         -3   -1    0    0    0  501 -0.00000000000E+00  0.00000000000E+00  0.12700173461E+03  0.12700173461E+03  0.00000000000E+00 0.  1.
          3   -1    0    0  502    0  0.00000000000E+00 -0.00000000000E+00 -0.11910766121E+03  0.11910766121E+03  0.00000000000E+00 0. -1.
         23    2    1    2    0    0  0.56325605629E+02 -0.20839584828E+02  0.34937449650E+02  0.11276384429E+03  0.88815522546E+02 0.  0.
         23    2    1    2    0    0 -0.29252305999E+02  0.31491605186E+02 -0.36470224632E+02  0.10276296562E+03  0.85922821275E+02 0.  0.
        -11    1    3    3    0    0  0.71190473413E+02 -0.35324594040E+02  0.43163604408E+02  0.90437863721E+02  0.00000000000E+00 0.  1.
         11    1    3    3    0    0 -0.14864867785E+02  0.14485009213E+02 -0.82261547577E+01  0.22325980566E+02  0.00000000000E+00 0. -1.
        -13    1    4    4    0    0 -0.50848666622E+02 -0.67801309966E+01 -0.12897861641E+02  0.52895291931E+02  0.00000000000E+00 0.  1.
         13    1    4    4    0    0  0.21596360623E+02  0.38271736183E+02 -0.23572362991E+02  0.49867673693E+02  0.00000000000E+00 0. -1.
         21    1    1    2  502  501 -0.27073299630E+02 -0.10652020358E+02  0.94268483859E+01  0.30582585912E+02  0.00000000000E+00 0.  1.
<scales pt_clust_5="13000.00000" pt_clust_6="13000.00000" pt_clust_7="13000.00000" pt_clust_8="13000.00000" pt_clust_9="29.09345"></scales>
<clustering>
<clus scale="   29.093">  1  9  2 -1</clus>
<clus scale="   85.923">  7  8 -1 -1</clus>
<clus scale="   88.816">  5  6 -1 -1</clus>
<clus scale="   97.950">  2  7  1 -1</clus>
<clus scale="   97.950">  2  5  1 -1</clus>
</clustering>
</event>
<event>
 9    1  0.2075077E-005  0.1556156E+03  0.7546771E-02  0.1193764E+00
         -2   -1    0    0    0  501 -0.00000000000E+00  0.00000000000E+00  0.48026958357E+03  0.48026958357E+03  0.00000000000E+00 0.  1.
          2   -1    0    0  502    0  0.00000000000E+00 -0.00000000000E+00 -0.20470154225E+03  0.20470154225E+03  0.00000000000E+00 0. -1.
         23    2    1    2    0    0 -0.11536558914E+03  0.43305394659E+02  0.40464894450E+03  0.43312273276E+03  0.93112603803E+02 0.  0.
         23    2    1    2    0    0  0.12007197270E+03 -0.68543336507E+02 -0.58226352665E+02  0.17648612741E+03  0.92960085071E+02 0.  0.
        -11    1    4    4    0    0  0.30199578964E+02  0.71739925286E+01  0.18504622705E+02  0.36137263314E+02  0.00000000000E+00 0.  1.
         11    1    4    4    0    0  0.89872393732E+02 -0.75717329036E+02 -0.76730975370E+02  0.14034886409E+03  0.00000000000E+00 0. -1.
        -13    1    3    3    0    0 -0.99206593638E+02  0.70802309009E+02  0.30325417834E+03  0.32683024931E+03  0.00000000000E+00 0.  1.
         13    1    3    3    0    0 -0.16158995504E+02 -0.27496914350E+02  0.10139476616E+03  0.10629248346E+03  0.00000000000E+00 0. -1.
         21    1    1    2  502  501 -0.47063835529E+01  0.25237941848E+02 -0.70854550514E+02  0.75362265647E+02  0.00000000000E+00 0.  1.
<scales pt_clust_5="13000.00000" pt_clust_6="13000.00000" pt_clust_7="13000.00000" pt_clust_8="13000.00000" pt_clust_9="25.67302"></scales>
<clustering>
<clus scale="   25.673">  2  9  1 -1</clus>
<clus scale="   92.960">  5  6 -1 -1</clus>
<clus scale="   93.113">  7  8 -1 -1</clus>
<clus scale="  155.524">  2  5  1 -1</clus>
<clus scale="   25.673">  2  5  1 -1</clus>
</clustering>
</event>
<event>
 9    1  0.2075077E-005  0.1211521E+03  0.7546771E-02  0.1250394E+00
          2   -1    0    0  502    0  0.00000000000E+00  0.00000000000E+00  0.48616024894E+02  0.48616024894E+02  0.00000000000E+00 0. -1.
         -2   -1    0    0    0  501 -0.00000000000E+00 -0.00000000000E+00 -0.39556206309E+03  0.39556206309E+03  0.00000000000E+00 0.  1.
         23    2    1    2    0    0  0.48642972636E+02  0.25981726107E+02 -0.26541080761E+03  0.29371583923E+03  0.11307036987E+03 0.  0.
         23    2    1    2    0    0 -0.20881714215E+02 -0.12359994581E+02 -0.70933674651E+02  0.11777231105E+03  0.90829045991E+02 0.  0.
        -11    1    3    3    0    0 -0.25109021673E+02  0.42543998031E+02 -0.88964215360E+02  0.10175994473E+03  0.00000000000E+00 0. -1.
         11    1    3    3    0    0  0.73751994309E+02 -0.16562271924E+02 -0.17644659225E+03  0.19195589450E+03  0.00000000000E+00 0.  1.
        -13    1    4    4    0    0  0.23686966849E+02 -0.28872786616E+02 -0.57175678344E+02  0.68291788669E+02  0.00000000000E+00 0.  1.
         13    1    4    4    0    0 -0.44568681064E+02  0.16512792035E+02 -0.13757996307E+02  0.49480522379E+02  0.00000000000E+00 0. -1.
         21    1    1    2  502  501 -0.27761258421E+02 -0.13621731526E+02 -0.10601555938E+02  0.32689937705E+02  0.00000000000E+00 0. -1.
<scales pt_clust_5="13000.00000" pt_clust_6="13000.00000" pt_clust_7="13000.00000" pt_clust_8="13000.00000" pt_clust_9="30.92311"></scales>
<clustering>
<clus scale="   30.923">  1  9  2 -1</clus>
<clus scale="   90.829">  7  8 -1 -1</clus>
<clus scale="  100.712">  1  7  2 -1</clus>
<clus scale="  113.070">  5  6 -1 -1</clus>
<clus scale="   30.923">  1  5  2 -1</clus>
</clustering>
</event>
<event>
 9    1  0.2075077E-005  0.1092166E+03  0.7546771E-02  0.1262903E+00
         -2   -1    0    0    0  501 -0.00000000000E+00  0.00000000000E+00  0.11077217094E+03  0.11077217094E+03  0.00000000000E+00 0.  1.
          2   -1    0    0  502    0  0.00000000000E+00 -0.00000000000E+00 -0.36834055072E+03  0.36834055072E+03  0.00000000000E+00 0. -1.
         23    2    1    2    0    0  0.42457346589E+01  0.42120114433E+02 -0.15263243863E+01  0.10269218585E+03  0.93547982692E+02 0.  0.
         23    2    1    2    0    0  0.97743423112E+01 -0.72008885711E+02  0.15127240490E+01  0.11675851391E+03  0.91375296703E+02 0.  0.
        -11    1    4    4    0    0 -0.27652334777E+02 -0.19273920007E+02  0.30900977425E+02  0.45727519252E+02  0.00000000000E+00 0. -1.
         11    1    4    4    0    0  0.37426677088E+02 -0.52734965704E+02 -0.29388253376E+02  0.71030994658E+02  0.00000000000E+00 0.  1.
        -11    1    3    3    0    0 -0.25038601143E+02  0.24027890404E+02 -0.38732711732E+02  0.52004750000E+02  0.00000000000E+00 0. -1.
         11    1    3    3    0    0  0.29284335802E+02  0.18092224029E+02  0.37206387345E+02  0.50687435849E+02  0.00000000000E+00 0.  1.
         21    1    1    2  502  501 -0.14020076970E+02  0.29888771278E+02 -0.25755477944E+03  0.25966202190E+03  0.00000000000E+00 0. -1.
<scales pt_clust_5="13000.00000" pt_clust_6="13000.00000" pt_clust_7="13000.00000" pt_clust_8="13000.00000" pt_clust_9="33.01365"></scales>
<clustering>
<clus scale="   33.014">  2  9  1 -1</clus>
<clus scale="   91.375">  5  6 -1 -1</clus>
<clus scale="   93.548">  7  8 -1 -1</clus>
<clus scale="  107.361">  2  5  1 -1</clus>
<clus scale="   33.014">  2  5  1 -1</clus>
</clustering>
</event>
<event>
 9    1  0.2075077E-005  0.1004610E+03  0.7546771E-02  0.1280048E+00
          1   -1    0    0  502    0  0.00000000000E+00  0.00000000000E+00  0.32917194085E+03  0.32917194085E+03  0.00000000000E+00 0. -1.
         -1   -1    0    0    0  501 -0.00000000000E+00 -0.00000000000E+00 -0.55839103651E+02  0.55839103651E+02  0.00000000000E+00 0.  1.
         23    2    1    2    0    0 -0.14858182777E+02 -0.27484005948E+02  0.26396494642E+02  0.10013418676E+03  0.91399913845E+02 0.  0.
         23    2    1    2    0    0  0.34922743339E+02  0.47582390889E+02  0.16655327859E+03  0.19962447572E+03  0.92877633318E+02 0.  0.
        -11    1    3    3    0    0 -0.34427817000E+02  0.20205257353E+02  0.27668193509E+02  0.48570113652E+02  0.00000000000E+00 0. -1.
         11    1    3    3    0    0  0.19569634224E+02 -0.47689263301E+02 -0.12716988665E+01  0.51564073111E+02  0.00000000000E+00 0.  1.
        -13    1    4    4    0    0 -0.19414769146E+02  0.22172068318E+02  0.86544530407E+01  0.30715361498E+02  0.00000000000E+00 0.  1.
         13    1    4    4    0    0  0.54337512485E+02  0.25410322571E+02  0.15789882555E+03  0.16890911422E+03  0.00000000000E+00 0. -1.
         21    1    1    2  502  501 -0.20064560562E+02 -0.20098384941E+02  0.80383063971E+02  0.85252382026E+02  0.00000000000E+00 0.  1.
<scales pt_clust_5="13000.00000" pt_clust_6="13000.00000" pt_clust_7="13000.00000" pt_clust_8="13000.00000" pt_clust_9="28.39950"></scales>
<clustering>
<clus scale="   28.400">  1  9  2 -1</clus>
<clus scale="   91.400">  5  6 -1 -1</clus>
<clus scale="   92.878">  7  8 -1 -1</clus>
<clus scale="   99.096">  2  5  1 -1</clus>
<clus scale="   28.400">  1  5  2 -1</clus>
</clustering>
</event>
<event>
 9    1  0.2075077E-005  0.2562420E+03  0.7546771E-02  0.1109435E+00
          2   -1    0    0  502    0  0.00000000000E+00  0.00000000000E+00  0.57528298415E+02  0.57528298415E+02  0.00000000000E+00 0. -1.
         -2   -1    0    0    0  501 -0.00000000000E+00 -0.00000000000E+00 -0.16999458864E+04  0.16999458864E+04  0.00000000000E+00 0.  1.
         23    2    1    2    0    0 -0.44579499655E+02 -0.28874683305E+03 -0.67659671504E+03  0.74242027951E+03  0.89681052776E+02 0.  0.
         23    2    1    2    0    0  0.29302665416E+02  0.18871693010E+03 -0.64860546269E+03  0.68208997386E+03  0.89916407274E+02 0.  0.
        -11    1    3    3    0    0 -0.23923324574E+02 -0.13362018127E+02 -0.39796743007E+02  0.48318213348E+02  0.00000000000E+00 0.  1.
         11    1    3    3    0    0 -0.20656175081E+02 -0.27538481493E+03 -0.63679997204E+03  0.69410206616E+03  0.00000000000E+00 0. -1.
        -11    1    4    4    0    0  0.67024188833E+01  0.18834485618E+03 -0.58196857247E+03  0.61172389737E+03  0.00000000000E+00 0.  1.
         11    1    4    4    0    0  0.22600246533E+02  0.37207392464E+00 -0.66636890217E+02  0.70366076487E+02  0.00000000000E+00 0. -1.
         21    1    1    2  502  501  0.15276834239E+02  0.10002990295E+03 -0.31721541029E+03  0.33296393149E+03  0.00000000000E+00 0.  1.
<scales pt_clust_5="13000.00000" pt_clust_6="13000.00000" pt_clust_7="13000.00000" pt_clust_8="13000.00000" pt_clust_9="101.18974"></scales>
<clustering>
<clus scale="   89.681">  5  6 -1 -1</clus>
<clus scale="   89.916">  7  8 -1 -1</clus>
<clus scale="  101.190">  2  9  1 -1</clus>
<clus scale="  256.160">  2  5  1 -1</clus>
<clus scale="  256.242">  1  5  2 -1</clus>
</clustering>
</event>
<event>
 9    1  0.2075077E-005  0.2444470E+03  0.7546771E-02  0.1143175E+00
          1   -1    0    0  502    0  0.00000000000E+00  0.00000000000E+00  0.63495268235E+03  0.63495268235E+03  0.00000000000E+00 0. -1.
         -1   -1    0    0    0  501 -0.00000000000E+00 -0.00000000000E+00 -0.34549238896E+03  0.34549238896E+03  0.00000000000E+00 0.  1.
         23    2    1    2    0    0  0.10110235840E+03 -0.10791389460E+03  0.47064533103E+03  0.50172403261E+03  0.91394101319E+02 0.  0.
         23    2    1    2    0    0  0.38073592479E+02 -0.80839629512E+02  0.60755552390E+02  0.14177432589E+03  0.91782777208E+02 0.  0.
        -11    1    4    4    0    0  0.39953731534E+02  0.67145368353E+01  0.19962680777E+02  0.45165188943E+02  0.00000000000E+00 0. -1.
         11    1    4    4    0    0 -0.18801390555E+01 -0.87554166348E+02  0.40792871613E+02  0.96609136950E+02  0.00000000000E+00 0.  1.
        -13    1    3    3    0    0  0.45233723601E+02 -0.10470121511E+03  0.36154958164E+03  0.37911282514E+03  0.00000000000E+00 0. -1.
         13    1    3    3    0    0  0.55868634798E+02 -0.32126794890E+01  0.10909574939E+03  0.12261120747E+03  0.00000000000E+00 0.  1.
         21    1    1    2  502  501 -0.13917595088E+03  0.18875352411E+03 -0.24194059003E+03  0.33694671281E+03  0.00000000000E+00 0.  1.
<scales pt_clust_5="13000.00000" pt_clust_6="13000.00000" pt_clust_7="13000.00000" pt_clust_8="13000.00000" pt_clust_9="226.71889"></scales>
<clustering>
<clus scale="   91.394">  7  8 -1 -1</clus>
<clus scale="   91.783">  5  6 -1 -1</clus>
<clus scale="  128.097">  1  5  2 -1</clus>
<clus scale="  226.719">  2  9  1 -1</clus>
<clus scale="  128.097">  1  5  2 -1</clus>
</clustering>
</event>
<event>
 9    1  0.2075077E-005  0.1348545E+03  0.7546771E-02  0.1220884E+00
          1   -1    0    0  502    0  0.00000000000E+00  0.00000000000E+00  0.10062559731E+03  0.10062559731E+03  0.00000000000E+00 0. -1.
         -1   -1    0    0    0  501 -0.00000000000E+00 -0.00000000000E+00 -0.25773414756E+03  0.25773414756E+03  0.00000000000E+00 0.  1.
         23    2    1    2    0    0 -0.18818037484E+02 -0.84060518753E+02 -0.10221284175E+03  0.16273443750E+03  0.92815638672E+02 0.  0.
         23    2    1    2    0    0  0.31904957463E+02  0.11173670956E+03 -0.67825545772E+02  0.16239249673E+03  0.90928542064E+02 0.  0.
        -11    1    3    3    0    0  0.35544857301E+02 -0.47090727601E+02 -0.34450465706E+02  0.68321358988E+02  0.00000000000E+00 0. -1.
         11    1    3    3    0    0 -0.54362894785E+02 -0.36969791152E+02 -0.67762376039E+02  0.94413078509E+02  0.00000000000E+00 0.  1.
        -13    1    4    4    0    0 -0.23110394238E+02  0.83789511304E+00 -0.53967650852E+01  0.23746946402E+02  0.00000000000E+00 0.  1.
         13    1    4    4    0    0  0.55015351701E+02  0.11089881444E+03 -0.62428780686E+02  0.13864555033E+03  0.00000000000E+00 0. -1.
         21    1    1    2  502  501 -0.13086919979E+02 -0.27676190804E+02  0.12929837267E+02  0.33232810651E+02  0.00000000000E+00 0. -1.
<scales pt_clust_5="13000.00000" pt_clust_6="13000.00000" pt_clust_7="13000.00000" pt_clust_8="13000.00000" pt_clust_9="30.61436"></scales>
<clustering>
<clus scale="   30.614">  1  9  2 -1</clus>
<clus scale="   90.929">  7  8 -1 -1</clus>
<clus scale="   92.816">  5  6 -1 -1</clus>
<clus scale="  133.563">  1  7  2 -1</clus>
<clus scale="   30.614">  1  5  2 -1</clus>
</clustering>
</event>
<event>
 9    1  0.2075077E-005  0.1012481E+03  0.7546771E-02  0.1280053E+00
          2   -1    0    0  502    0  0.00000000000E+00  0.00000000000E+00  0.27736907089E+03  0.27736907089E+03  0.00000000000E+00 0. -1.
         -2   -1    0    0    0  501 -0.00000000000E+00 -0.00000000000E+00 -0.53240278344E+02  0.53240278344E+02  0.00000000000E+00 0.  1.
         23    2    1    2    0    0  0.11935147459E+02 -0.32013416496E+02  0.42702682577E+02  0.10737024327E+03  0.92398828245E+02 0.  0.
         23    2    1    2    0    0 -0.29869034128E+02  0.49594104075E+02  0.14876294505E+03  0.18203731947E+03  0.87495357042E+02 0.  0.
        -11    1    4    4    0    0  0.12231968623E+01  0.50489014992E+02  0.14129300479E+03  0.15004782587E+03  0.00000000000E+00 0. -1.
         11    1    4    4    0    0 -0.31092230990E+02 -0.89491091756E+00  0.74699402519E+01  0.31989493601E+02  0.00000000000E+00 0.  1.
        -13    1    3    3    0    0  0.35670596469E+02 -0.51893409361E+02  0.12663135622E+02  0.64231397240E+02  0.00000000000E+00 0.  1.
         13    1    3    3    0    0 -0.23735449010E+02  0.19879992865E+02  0.30039546955E+02  0.43138846035E+02  0.00000000000E+00 0. -1.
         21    1    1    2  502  501  0.17933886669E+02 -0.17580687578E+02  0.32663164924E+02  0.41201786486E+02  0.00000000000E+00 0.  1.
<scales pt_clust_5="13000.00000" pt_clust_6="13000.00000" pt_clust_7="13000.00000" pt_clust_8="13000.00000" pt_clust_9="25.11384"></scales>
<clustering>
<clus scale="   25.114">  1  9  2 -1</clus>
<clus scale="   87.495">  5  6 -1 -1</clus>
<clus scale="   92.399">  7  8 -1 -1</clus>
<clus scale="   96.794">  1  5  2 -1</clus>
<clus scale="   25.114">  1  5  2 -1</clus>
</clustering>
</event>
<event>
 9    1  0.2075077E-005  0.1246276E+03  0.7546771E-02  0.1235791E+00
         -2   -1    0    0    0  501 -0.00000000000E+00  0.00000000000E+00  0.31798999830E+02  0.31798999830E+02  0.00000000000E+00 0.  1.
          2   -1    0    0  502    0  0.00000000000E+00 -0.00000000000E+00 -0.76558658744E+03  0.76558658744E+03  0.00000000000E+00 0. -1.
         23    2    1    2    0    0 -0.45186050631E+02  0.51794530887E+02 -0.20331330824E+03  0.23315200245E+03  0.91099409110E+02 0.  0.
         23    2    1    2    0    0  0.80165186667E+02 -0.81276751484E+02 -0.39474111350E+03  0.42099869519E+03  0.91580495616E+02 0.  0.
        -11    1    3    3    0    0 -0.20615853792E+02  0.49779829098E+02 -0.20133529381E+03  0.20842011743E+03  0.00000000000E+00 0.  1.
         11    1    3    3    0    0 -0.24570196839E+02  0.20147017896E+01 -0.19780144245E+01  0.24731885029E+02  0.00000000000E+00 0. -1.
        -13    1    4    4    0    0  0.73916043947E+02 -0.24453251203E+02 -0.14271315631E+03  0.16256871787E+03  0.00000000000E+00 0.  1.
         13    1    4    4    0    0  0.62491427196E+01 -0.56823500281E+02 -0.25202795719E+03  0.25842997732E+03  0.00000000000E+00 0. -1.
         21    1    1    2  502  501 -0.34979136035E+02  0.29482220597E+02 -0.13573316587E+03  0.14323488962E+03  0.00000000000E+00 0.  1.
<scales pt_clust_5="13000.00000" pt_clust_6="13000.00000" pt_clust_7="13000.00000" pt_clust_8="13000.00000" pt_clust_9="45.74649"></scales>
<clustering>
<clus scale="   45.746">  2  9  1 -1</clus>
<clus scale="   91.099">  5  6 -1 -1</clus>
<clus scale="   91.580">  7  8 -1 -1</clus>
<clus scale="  124.274">  1  5  2 -1</clus>
<clus scale="   45.746">  2  5  1 -1</clus>
</clustering>
</event>
<event>
 9    1  0.2075077E-005  0.1081551E+03  0.7546771E-02  0.1266071E+00
          1   -1    0    0  502    0  0.00000000000E+00  0.00000000000E+00  0.23262360087E+03  0.23262360087E+03  0.00000000000E+00 0. -1.
         -1   -1    0    0    0  501 -0.00000000000E+00 -0.00000000000E+00 -0.30861085694E+03  0.30861085694E+03  0.00000000000E+00 0.  1.
         23    2    1    2    0    0  0.51513459262E+02 -0.14566555077E+02 -0.22268241604E+03  0.24770773712E+03  0.94370777276E+02 0.  0.
         23    2    1    2    0    0 -0.59624190003E+02 -0.68111774464E+02  0.27405991264E+01  0.12732080708E+03  0.89492006218E+02 0.  0.
        -11    1    4    4    0    0 -0.29760486951E+02 -0.26559776030E+02 -0.43024628506E+02  0.58670494666E+02  0.00000000000E+00 0.  1.
         11    1    4    4    0    0 -0.29863703052E+02 -0.41551998434E+02  0.45765227632E+02  0.68650312410E+02  0.00000000000E+00 0. -1.
        -11    1    3    3    0    0  0.79301303992E+02 -0.14414440221E+02 -0.16065010146E+03  0.17973571710E+03  0.00000000000E+00 0.  1.
         11    1    3    3    0    0 -0.27787844730E+02 -0.15211485606E+00 -0.62032314581E+02  0.67972020023E+02  0.00000000000E+00 0. -1.
         21    1    1    2  502  501  0.81107307411E+01  0.82678329541E+02  0.14395456085E+03  0.16620591361E+03  0.00000000000E+00 0.  1.
<scales pt_clust_5="13000.00000" pt_clust_6="13000.00000" pt_clust_7="13000.00000" pt_clust_8="13000.00000" pt_clust_9="83.07521"></scales>
<clustering>
<clus scale="   83.075">  1  9  2 -1</clus>
<clus scale="   89.492">  5  6 -1 -1</clus>
<clus scale="   94.371">  7  8 -1 -1</clus>
<clus scale="  103.925">  1  5  2 -1</clus>
<clus scale="   83.075">  1  5  2 -1</clus>
</clustering>
</event>
<event>
 9    1  0.2075077E-005  0.9768343E+02  0.7546771E-02  0.1285893E+00
          1   -1    0    0  502    0  0.00000000000E+00  0.00000000000E+00  0.61308016810E+03  0.61308016810E+03  0.00000000000E+00 0. -1.
         -1   -1    0    0    0  501 -0.00000000000E+00 -0.00000000000E+00 -0.75370876446E+02  0.75370876446E+02  0.00000000000E+00 0.  1.
         23    2    1    2    0    0  0.13300096101E+01  0.25175072054E+02 -0.15841769617E+02  0.95624040452E+02  0.90870469732E+02 0.  0.
         23    2    1    2    0    0  0.32941759574E+02 -0.66973803435E+02  0.18102500415E+03  0.21639991773E+03  0.92131549420E+02 0.  0.
        -11    1    4    4    0    0  0.60186433508E+02 -0.67447391396E+02  0.12692692873E+03  0.15582683537E+03  0.00000000000E+00 0.  1.
         11    1    4    4    0    0 -0.27244673934E+02  0.47358796102E+00  0.54098075414E+02  0.60573082362E+02  0.00000000000E+00 0. -1.
        -13    1    3    3    0    0  0.11168321553E+02  0.52531743581E+02 -0.31846136668E+02  0.62437904438E+02  0.00000000000E+00 0.  1.
         13    1    3    3    0    0 -0.98383119428E+01 -0.27356671526E+02  0.16004367050E+02  0.33186136014E+02  0.00000000000E+00 0. -1.
         21    1    1    2  502  501 -0.34271769184E+02  0.41798731381E+02  0.37252605713E+03  0.37642708636E+03  0.00000000000E+00 0. -1.
<scales pt_clust_5="13000.00000" pt_clust_6="13000.00000" pt_clust_7="13000.00000" pt_clust_8="13000.00000" pt_clust_9="54.05264"></scales>
<clustering>
<clus scale="   54.053">  1  9  2 -1</clus>
<clus scale="   90.870">  7  8 -1 -1</clus>
<clus scale="   92.132">  5  6 -1 -1</clus>
<clus scale="   96.495">  2  7  1 -1</clus>
<clus scale="   54.053">  1  5  2 -1</clus>
</clustering>
</event>
<event>
 9    1  0.2075077E-005  0.3412297E+03  0.7546771E-02  0.1066416E+00
          1   -1    0    0  502    0  0.00000000000E+00  0.00000000000E+00  0.58606919137E+03  0.58606919137E+03  0.00000000000E+00 0. -1.
         -1   -1    0    0    0  501 -0.00000000000E+00 -0.00000000000E+00 -0.23598400305E+03  0.23598400305E+03  0.00000000000E+00 0.  1.
         23    2    1    2    0    0  0.22847195810E+03 -0.25821620181E+03  0.69577660589E+02  0.36478796930E+03  0.96716953921E+02 0.  0.
         23    2    1    2    0    0 -0.20836439425E+03  0.21866875673E+03  0.23386867838E+03  0.39289522586E+03  0.91871398227E+02 0.  0.
        -11    1    4    4    0    0 -0.76476152661E+02  0.37343925721E+02  0.10173975048E+03  0.13264293250E+03  0.00000000000E+00 0.  1.
         11    1    4    4    0    0 -0.13188824158E+03  0.18132483101E+03  0.13212892790E+03  0.26025229336E+03  0.00000000000E+00 0. -1.
        -11    1    3    3    0    0  0.87601057024E+02 -0.13579660988E+03  0.74825949062E+02  0.17808309044E+03  0.00000000000E+00 0. -1.
         11    1    3    3    0    0  0.14087090108E+03 -0.12241959193E+03 -0.52482884729E+01  0.18670487886E+03  0.00000000000E+00 0.  1.
         21    1    1    2  502  501 -0.20107563856E+02  0.39547445077E+02  0.46638849356E+02  0.64369999266E+02  0.00000000000E+00 0. -1.
<scales pt_clust_5="13000.00000" pt_clust_6="13000.00000" pt_clust_7="13000.00000" pt_clust_8="13000.00000" pt_clust_9="44.36569"></scales>
<clustering>
<clus scale="   44.366">  1  9  2 -1</clus>
<clus scale="   91.871">  5  6 -1 -1</clus>
<clus scale="   96.717">  7  8 -1 -1</clus>
<clus scale="  339.888">  1  5  2 -1</clus>
<clus scale="   44.366">  1  5  2 -1</clus>
</clustering>
</event>
<event>
 9    1  0.2075077E-005  0.1013341E+03  0.7546771E-02  0.1279956E+00
          2   -1    0    0  502    0  0.00000000000E+00  0.00000000000E+00  0.17048743564E+03  0.17048743564E+03  0.00000000000E+00 0. -1.
         -2   -1    0    0    0  501 -0.00000000000E+00 -0.00000000000E+00 -0.14030003851E+03  0.14030003851E+03  0.00000000000E+00 0.  1.
         23    2    1    2    0    0 -0.12238795077E+02  0.23323104748E+02 -0.76985413231E+02  0.12302339992E+03  0.92272681534E+02 0.  0.
         23    2    1    2    0    0 -0.54855593143E+01 -0.42538351576E+02  0.36228417197E+02  0.11215663167E+03  0.97092786029E+02 0.  0.
        -11    1    3    3    0    0 -0.28649919848E+02  0.54349290948E+01 -0.90609185344E+02  0.95186032748E+02  0.00000000000E+00 0. -1.
         11    1    3    3    0    0  0.16411124771E+02  0.17888175653E+02  0.13623772113E+02  0.27837367171E+02  0.00000000000E+00 0.  1.
        -11    1    4    4    0    0  0.20787134998E+02 -0.18197130878E+02 -0.27546212859E+02  0.39013259239E+02  0.00000000000E+00 0.  1.
         11    1    4    4    0    0 -0.26272694312E+02 -0.24341220698E+02  0.63774630056E+02  0.73143372429E+02  0.00000000000E+00 0. -1.
         21    1    1    2  502  501  0.17724354392E+02  0.19215246828E+02  0.70944393168E+02  0.75607442565E+02  0.00000000000E+00 0. -1.
<scales pt_clust_5="13000.00000" pt_clust_6="13000.00000" pt_clust_7="13000.00000" pt_clust_8="13000.00000" pt_clust_9="26.14151"></scales>
<clustering>
<clus scale="   26.142">  1  9  2 -1</clus>
<clus scale="   92.273">  5  6 -1 -1</clus>
<clus scale="   96.726">  2  5  1 -1</clus>
<clus scale="   97.093">  7  8 -1 -1</clus>
<clus scale="   26.142">  1  5  2 -1</clus>
</clustering>
</event>
<event>
 9    1  0.2075077E-005  0.1780661E+03  0.7546771E-02  0.1170186E+00
         -2   -1    0    0    0  501 -0.00000000000E+00  0.00000000000E+00  0.18627438029E+03  0.18627438029E+03  0.00000000000E+00 0.  1.
          2   -1    0    0  502    0  0.00000000000E+00 -0.00000000000E+00 -0.33802719235E+03  0.33802719235E+03  0.00000000000E+00 0. -1.
         23    2    1    2    0    0  0.48273438927E+02  0.15627473133E+03  0.92845843083E+02  0.21010579495E+03  0.93658838002E+02 0.  0.
         23    2    1    2    0    0 -0.28147657164E+02 -0.10914097603E+03 -0.16031186966E+03  0.21555045248E+03  0.89766690670E+02 0.  0.
        -11    1    3    3    0    0  0.51155349671E+02  0.41834324349E+02  0.58838953797E+01  0.66344560580E+02  0.00000000000E+00 0. -1.
         11    1    3    3    0    0 -0.28819107434E+01  0.11444040698E+03  0.86961947703E+02  0.14376123437E+03  0.00000000000E+00 0.  1.
        -13    1    4    4    0    0  0.25716030685E+02 -0.17910445403E+02 -0.68619432018E+02  0.75436892428E+02  0.00000000000E+00 0.  1.
         13    1    4    4    0    0 -0.53863687848E+02 -0.91230530630E+02 -0.91692437647E+02  0.14011356005E+03  0.00000000000E+00 0. -1.
         21    1    1    2  502  501 -0.20125781764E+02 -0.47133755294E+02 -0.84286785483E+02  0.98645325215E+02  0.00000000000E+00 0. -1.
<scales pt_clust_5="13000.00000" pt_clust_6="13000.00000" pt_clust_7="13000.00000" pt_clust_8="13000.00000" pt_clust_9="51.25074"></scales>
<clustering>
<clus scale="   51.251">  2  9  1 -1</clus>
<clus scale="   89.767">  7  8 -1 -1</clus>
<clus scale="   93.659">  5  6 -1 -1</clus>
<clus scale="  176.050">  2  7  1 -1</clus>
<clus scale="   51.251">  2  5  1 -1</clus>
</clustering>
</event>
<event>
 9    1  0.2075077E-005  0.1194484E+03  0.7546771E-02  0.1254852E+00
         -1   -1    0    0    0  501 -0.00000000000E+00  0.00000000000E+00  0.26184302970E+03  0.26184302970E+03  0.00000000000E+00 0.  1.
          1   -1    0    0  502    0  0.00000000000E+00 -0.00000000000E+00 -0.77260209635E+02  0.77260209635E+02  0.00000000000E+00 0. -1.
         23    2    1    2    0    0 -0.41023519969E+02 -0.10971446057E+02  0.13119541481E+03  0.18028416031E+03  0.11613285397E+03 0.  0.
         23    2    1    2    0    0  0.86731641604E+01 -0.29940599717E+02  0.39238712139E+02  0.10477718299E+03  0.92015858723E+02 0.  0.
        -13    1    3    3    0    0 -0.77879861559E+02 -0.22139801331E+02  0.65541651777E+02  0.10416886174E+03  0.00000000000E+00 0.  1.
         13    1    3    3    0    0  0.36856341590E+02  0.11168355274E+02  0.65653763037E+02  0.76115298566E+02  0.00000000000E+00 0. -1.
        -13    1    4    4    0    0  0.40361064635E+02 -0.43588448614E+02  0.37459201350E+02  0.70229339716E+02  0.00000000000E+00 0.  1.
         13    1    4    4    0    0 -0.31687900475E+02  0.13647848898E+02  0.17795107886E+01  0.34547843271E+02  0.00000000000E+00 0. -1.
         21    1    1    2  502  501  0.32350355809E+02  0.40912045774E+02  0.14148693109E+02  0.54041896035E+02  0.00000000000E+00 0. -1.
<scales pt_clust_5="13000.00000" pt_clust_6="13000.00000" pt_clust_7="13000.00000" pt_clust_8="13000.00000" pt_clust_9="52.15689"></scales>
<clustering>
<clus scale="   52.157">  2  9  1 -1</clus>
<clus scale="   92.016">  7  8 -1 -1</clus>
<clus scale="   96.166">  2  7  1 -1</clus>
<clus scale="  116.133">  5  6 -1 -1</clus>
<clus scale="   52.157">  2  5  1 -1</clus>
</clustering>
</event>
<event>
 9    1  0.2075077E-005  0.1668919E+03  0.7546771E-02  0.1181602E+00
         -1   -1    0    0    0  501 -0.00000000000E+00  0.00000000000E+00  0.13166099787E+03  0.13166099787E+03  0.00000000000E+00 0.  1.
          1   -1    0    0  502    0  0.00000000000E+00 -0.00000000000E+00 -0.54117793138E+03  0.54117793138E+03  0.00000000000E+00 0. -1.
         23    2    1    2    0    0 -0.62425406242E+02 -0.13226730688E+03  0.46480538297E+02  0.17739220793E+03  0.88971811154E+02 0.  0.
         23    2    1    2    0    0  0.57648192558E+02  0.91577088925E+02 -0.27165292646E+03  0.30660438760E+03  0.92202281530E+02 0.  0.
        -11    1    3    3    0    0 -0.68816353041E+02 -0.10109265369E+03  0.67082143112E+02  0.13948271936E+03  0.00000000000E+00 0.  1.
         11    1    3    3    0    0  0.63909467990E+01 -0.31174653199E+02 -0.20601604815E+02  0.37909488575E+02  0.00000000000E+00 0. -1.
        -13    1    4    4    0    0  0.27069131126E+02  0.10402181916E+03 -0.22606948497E+03  0.25032117121E+03  0.00000000000E+00 0. -1.
         13    1    4    4    0    0  0.30579061432E+02 -0.12444730239E+02 -0.45583441484E+02  0.56283216382E+02  0.00000000000E+00 0.  1.
         21    1    1    2  502  501  0.47772136837E+01  0.40690217960E+02 -0.18434454535E+03  0.18884233373E+03  0.00000000000E+00 0. -1.
<scales pt_clust_5="13000.00000" pt_clust_6="13000.00000" pt_clust_7="13000.00000" pt_clust_8="13000.00000" pt_clust_9="40.96969"></scales>
<clustering>
<clus scale="   40.970">  2  9  1 -1</clus>
<clus scale="   88.972">  5  6 -1 -1</clus>
<clus scale="   92.202">  7  8 -1 -1</clus>
<clus scale="  165.129">  1  5  2 -1</clus>
<clus scale="   40.970">  2  5  1 -1</clus>
</clustering>
</event>
<event>
 9    1  0.2075077E-005  0.9732387E+02  0.7546771E-02  0.1286656E+00
         -4   -1    0    0    0  501 -0.00000000000E+00  0.00000000000E+00  0.95985873397E+02  0.95985873397E+02  0.00000000000E+00 0.  1.
          4   -1    0    0  502    0  0.00000000000E+00 -0.00000000000E+00 -0.27872343076E+03  0.27872343076E+03  0.00000000000E+00 0. -1.
         23    2    1    2    0    0  0.27081366517E+02 -0.10067737488E+02  0.28830110129E+02  0.10026685917E+03  0.91583339358E+02 0.  0.
         23    2    1    2    0    0 -0.46373712237E+02 -0.11364886224E+02 -0.56626683576E+02  0.11684085724E+03  0.90363282379E+02 0.  0.
        -13    1    3    3    0    0  0.11047788612E+02 -0.38460968103E+02 -0.17448163110E+02  0.43654760297E+02  0.00000000000E+00 0. -1.
         13    1    3    3    0    0  0.16033577906E+02  0.28393230615E+02  0.46278273240E+02  0.56612098877E+02  0.00000000000E+00 0.  1.
        -13    1    4    4    0    0  0.90141197139E+01 -0.36752315795E+02 -0.36754795387E+02  0.52753218427E+02  0.00000000000E+00 0. -1.
         13    1    4    4    0    0 -0.55387831951E+02  0.25387429570E+02 -0.19871888189E+02  0.64087638813E+02  0.00000000000E+00 0.  1.
         21    1    1    2  502  501  0.19292345720E+02  0.21432623712E+02 -0.15494098392E+03  0.15760158775E+03  0.00000000000E+00 0. -1.
<scales pt_clust_5="13000.00000" pt_clust_6="13000.00000" pt_clust_7="13000.00000" pt_clust_8="13000.00000" pt_clust_9="28.83664"></scales>
<clustering>
<clus scale="   28.837">  2  9  1 -1</clus>
<clus scale="   90.363">  7  8 -1 -1</clus>
<clus scale="   91.583">  5  6 -1 -1</clus>
<clus scale="   96.177">  2  7  1 -1</clus>
<clus scale="   28.837">  2  5  1 -1</clus>
</clustering>
</event>
<event>
 9    1  0.2075077E-005  0.1385117E+03  0.7546771E-02  0.1215763E+00
         -2   -1    0    0    0  501 -0.00000000000E+00  0.00000000000E+00  0.50958942195E+02  0.50958942195E+02  0.00000000000E+00 0.  1.
          2   -1    0    0  502    0  0.00000000000E+00 -0.00000000000E+00 -0.63975833400E+03  0.63975833400E+03  0.00000000000E+00 0. -1.
         23    2    1    2    0    0  0.90128465684E+02  0.47535975303E+02 -0.94337851483E+02  0.16507404514E+03  0.89258057801E+02 0.  0.
         23    2    1    2    0    0 -0.11235004183E+03 -0.25841832657E+02 -0.42002991956E+03  0.44499274785E+03  0.91121238459E+02 0.  0.
        -11    1    4    4    0    0 -0.31931527655E+02 -0.21661049587E+02 -0.36546831706E+02  0.53145972898E+02  0.00000000000E+00 0.  1.
         11    1    4    4    0    0 -0.80418514176E+02 -0.41807830703E+01 -0.38348308785E+03  0.39184677495E+03  0.00000000000E+00 0. -1.
        -13    1    3    3    0    0  0.44887066608E+02  0.66184896145E+02 -0.82145547618E+02  0.11464370990E+03  0.00000000000E+00 0.  1.
         13    1    3    3    0    0  0.45241399076E+02 -0.18648920842E+02 -0.12192303865E+02  0.50430335240E+02  0.00000000000E+00 0. -1.
         21    1    1    2  502  501  0.22221576146E+02 -0.21694142646E+02 -0.74431620758E+02  0.80650483199E+02  0.00000000000E+00 0.  1.
<scales pt_clust_5="13000.00000" pt_clust_6="13000.00000" pt_clust_7="13000.00000" pt_clust_8="13000.00000" pt_clust_9="31.05534"></scales>
<clustering>
<clus scale="   31.055">  2  9  1 -1</clus>
<clus scale="   89.258">  7  8 -1 -1</clus>
<clus scale="   91.121">  5  6 -1 -1</clus>
<clus scale="  137.293">  1  7  2 -1</clus>
<clus scale="   31.055">  2  5  1 -1</clus>
</clustering>
</event>
<event>
 9    1  0.2075077E-005  0.9692178E+02  0.7546771E-02  0.1287545E+00
         -1   -1    0    0    0  501 -0.00000000000E+00  0.00000000000E+00  0.22171383393E+02  0.22171383393E+02  0.00000000000E+00 0.  1.
          1   -1    0    0  502    0  0.00000000000E+00 -0.00000000000E+00 -0.86452571803E+03  0.86452571803E+03  0.00000000000E+00 0. -1.
         23    2    1    2    0    0 -0.61875607745E+00 -0.17665612093E+02 -0.15257802515E+03  0.17855209585E+03  0.91040323293E+02 0.  0.
         23    2    1    2    0    0 -0.12711987179E+02  0.63026823810E+02 -0.45888120751E+03  0.47245899334E+03  0.92258130499E+02 0.  0.
        -11    1    3    3    0    0  0.42687384792E+02 -0.23276221788E+02 -0.89129245784E+02  0.10152840871E+03  0.00000000000E+00 0.  1.
         11    1    3    3    0    0 -0.43306140870E+02  0.56106096949E+01 -0.63448779363E+02  0.77023687141E+02  0.00000000000E+00 0. -1.
        -13    1    4    4    0    0  0.30436928367E+02 -0.59660212494E+01 -0.11976068030E+03  0.12371184488E+03  0.00000000000E+00 0.  1.
         13    1    4    4    0    0 -0.43148915546E+02  0.68992845060E+02 -0.33912052721E+03  0.34874714846E+03  0.00000000000E+00 0. -1.
         21    1    1    2  502  501  0.13330743256E+02 -0.45361211717E+02 -0.23089510198E+03  0.23568601223E+03  0.00000000000E+00 0.  1.
<scales pt_clust_5="13000.00000" pt_clust_6="13000.00000" pt_clust_7="13000.00000" pt_clust_8="13000.00000" pt_clust_9="47.27947"></scales>
<clustering>
<clus scale="   47.279">  2  9  1 -1</clus>
<clus scale="   91.040">  5  6 -1 -1</clus>
<clus scale="   92.258">  7  8 -1 -1</clus>
<clus scale="   95.763">  1  5  2 -1</clus>
<clus scale="   47.279">  2  5  1 -1</clus>
</clustering>
</event>
<event>
 9    1  0.2075077E-005  0.1558650E+03  0.7546771E-02  0.1195938E+00
          2   -1    0    0  502    0  0.00000000000E+00  0.00000000000E+00  0.16486933557E+03  0.16486933557E+03  0.00000000000E+00 0. -1.
         -2   -1    0    0    0  501 -0.00000000000E+00 -0.00000000000E+00 -0.20350933596E+03  0.20350933596E+03  0.00000000000E+00 0.  1.
         23    2    1    2    0    0 -0.35422098269E+02 -0.99451797730E+02 -0.69770462778E+02  0.16507419791E+03  0.10600088784E+03 0.  0.
         23    2    1    2    0    0  0.18572028163E+02  0.13262610976E+03  0.30490118651E+02  0.16609063369E+03  0.93390824193E+02 0.  0.
        -13    1    4    4    0    0 -0.28453661001E+02  0.32008322354E+02  0.34438356952E+02  0.54955836394E+02  0.00000000000E+00 0.  1.
         13    1    4    4    0    0  0.47025689164E+02  0.10061778741E+03 -0.39482383006E+01  0.11113479730E+03  0.00000000000E+00 0. -1.
        -13    1    3    3    0    0 -0.55875377512E+02 -0.10624359259E+03 -0.36561523945E+02  0.12548507406E+03  0.00000000000E+00 0.  1.
         13    1    3    3    0    0  0.20453279243E+02  0.67917948579E+01 -0.33208938832E+02  0.39589123855E+02  0.00000000000E+00 0. -1.
         21    1    1    2  502  501  0.16850070106E+02 -0.33174312033E+02  0.64034373621E+00  0.37213839919E+02  0.00000000000E+00 0. -1.
<scales pt_clust_5="13000.00000" pt_clust_6="13000.00000" pt_clust_7="13000.00000" pt_clust_8="13000.00000" pt_clust_9="37.20833"></scales>
<clustering>
<clus scale="   37.208">  1  9  2 -1</clus>
<clus scale="   93.391">  5  6 -1 -1</clus>
<clus scale="  106.001">  7  8 -1 -1</clus>
<clus scale="  147.579">  1  5  2 -1</clus>
<clus scale="   37.208">  1  5  2 -1</clus>
</clustering>
</event>
<event>
 9    1  0.2075077E-005  0.1411603E+03  0.7546771E-02  0.1230935E+00
          1   -1    0    0  502    0  0.00000000000E+00  0.00000000000E+00  0.31009932627E+03  0.31009932627E+03  0.00000000000E+00 0. -1.
         -1   -1    0    0    0  501 -0.00000000000E+00 -0.00000000000E+00 -0.13793222829E+03  0.13793222829E+03  0.00000000000E+00 0.  1.
         23    2    1    2    0    0  0.56671081949E+02  0.93188533711E+02 -0.44677927978E+02  0.14935858479E+03  0.91739605718E+02 0.  0.
         23    2    1    2    0    0 -0.23432326053E+02  0.69233720944E+01  0.13677408391E+03  0.16623972494E+03  0.91276991254E+02 0.  0.
        -11    1    3    3    0    0  0.16045210490E+02  0.94461054325E+02 -0.10753376496E+02  0.96415634987E+02  0.00000000000E+00 0.  1.
         11    1    3    3    0    0  0.40625871459E+02 -0.12725206141E+01 -0.33924551482E+02  0.52942949802E+02  0.00000000000E+00 0. -1.
        -13    1    4    4    0    0  0.32958690881E+02  0.26801715736E+00  0.77189894082E+02  0.83932275593E+02  0.00000000000E+00 0. -1.
         13    1    4    4    0    0 -0.56391016934E+02  0.66553549371E+01  0.59584189832E+02  0.82307449348E+02  0.00000000000E+00 0.  1.
         21    1    1    2  502  501 -0.33238755896E+02 -0.10011190581E+03  0.80070942037E+02  0.13243324483E+03  0.00000000000E+00 0. -1.
<scales pt_clust_5="13000.00000" pt_clust_6="13000.00000" pt_clust_7="13000.00000" pt_clust_8="13000.00000" pt_clust_9="107.28504"></scales>
<clustering>
<clus scale="   91.277">  7  8 -1 -1</clus>
<clus scale="   91.740">  5  6 -1 -1</clus>
<clus scale="   94.491">  1  7  2 -1</clus>
<clus scale="  107.285">  1  9  2 -1</clus>
<clus scale="   94.491">  1  5  2 -1</clus>
</clustering>
</event>
<event>
 9    1  0.2075077E-005  0.1186885E+03  0.7546771E-02  0.1245482E+00
         -2   -1    0    0    0  501 -0.00000000000E+00  0.00000000000E+00  0.20382282434E+03  0.20382282434E+03  0.00000000000E+00 0.  1.
          2   -1    0    0  502    0  0.00000000000E+00 -0.00000000000E+00 -0.18853869043E+03  0.18853869043E+03  0.00000000000E+00 0. -1.
         23    2    1    2    0    0 -0.10486649621E+01 -0.71506523620E+02  0.13929312361E+03  0.18126948185E+03  0.91333280604E+02 0.  0.
         23    2    1    2    0    0 -0.11624394765E+02  0.99805504976E+02 -0.11638031269E+03  0.17916030103E+03  0.91966139988E+02 0.  0.
        -11    1    4    4    0    0 -0.26352617858E+02  0.63305607519E+02 -0.12145473037E+03  0.13947513019E+03  0.00000000000E+00 0. -1.
         11    1    4    4    0    0  0.14728223093E+02  0.36499897457E+02  0.50744176771E+01  0.39685170840E+02  0.00000000000E+00 0.  1.
        -13    1    3    3    0    0 -0.22148206357E+02 -0.86299641589E+02  0.11789355438E+03  0.14777368287E+03  0.00000000000E+00 0.  1.
         13    1    3    3    0    0  0.21099541395E+02  0.14793117968E+02  0.21399569231E+02  0.33495798984E+02  0.00000000000E+00 0. -1.
         21    1    1    2  502  501  0.12673059727E+02 -0.28298981355E+02 -0.76286770102E+01  0.31931731890E+02  0.00000000000E+00 0.  1.
<scales pt_clust_5="13000.00000" pt_clust_6="13000.00000" pt_clust_7="13000.00000" pt_clust_8="13000.00000" pt_clust_9="31.00708"></scales>
<clustering>
<clus scale="   31.007">  2  9  1 -1</clus>
<clus scale="   91.333">  7  8 -1 -1</clus>
<clus scale="   91.966">  5  6 -1 -1</clus>
<clus scale="  118.199">  1  7  2 -1</clus>
<clus scale="   31.007">  2  5  1 -1</clus>
</clustering>
</event>
<event>
 9    1  0.2075077E-005  0.2202841E+03  0.7546771E-02  0.1133717E+00
         -1   -1    0    0    0  501 -0.00000000000E+00  0.00000000000E+00  0.14983192753E+03  0.14983192753E+03  0.00000000000E+00 0.  1.
          1   -1    0    0  502    0  0.00000000000E+00 -0.00000000000E+00 -0.75382432895E+03  0.75382432895E+03  0.00000000000E+00 0. -1.
         23    2    1    2    0    0 -0.16968686874E+03  0.10618911585E+03  0.27128797902E+02  0.22093323619E+03  0.89474920680E+02 0.  0.
         23    2    1    2    0    0  0.15695803978E+03 -0.13697790279E+03 -0.55639563993E+03  0.60090687449E+03  0.90078807553E+02 0.  0.
        -11    1    4    4    0    0  0.30267294808E+02 -0.79184955748E+01 -0.18719412167E+03  0.18979054480E+03  0.00000000000E+00 0.  1.
         11    1    4    4    0    0  0.12669074497E+03 -0.12905940721E+03 -0.36920151826E+03  0.41111632968E+03  0.00000000000E+00 0. -1.
        -13    1    3    3    0    0 -0.14919281179E+03  0.10181249568E+03  0.52432621968E+02  0.18807833265E+03  0.00000000000E+00 0.  1.
         13    1    3    3    0    0 -0.20494056948E+02  0.43766201749E+01 -0.25303824066E+02  0.32854903541E+02  0.00000000000E+00 0. -1.
         21    1    1    2  502  501  0.12728828962E+02  0.30788786932E+02 -0.74725559396E+02  0.81816145806E+02  0.00000000000E+00 0.  1.
<scales pt_clust_5="13000.00000" pt_clust_6="13000.00000" pt_clust_7="13000.00000" pt_clust_8="13000.00000" pt_clust_9="33.31625"></scales>
<clustering>
<clus scale="   33.316">  2  9  1 -1</clus>
<clus scale="   89.475">  7  8 -1 -1</clus>
<clus scale="   90.079">  5  6 -1 -1</clus>
<clus scale="  220.038">  1  7  2 -1</clus>
<clus scale="   33.316">  2  5  1 -1</clus>
</clustering>
</event>
<event>
 9    1  0.2075077E-005  0.1662938E+03  0.7546771E-02  0.1181999E+00
         -1   -1    0    0    0  501 -0.00000000000E+00  0.00000000000E+00  0.39019681076E+03  0.39019681076E+03  0.00000000000E+00 0.  1.
          1   -1    0    0  502    0  0.00000000000E+00 -0.00000000000E+00 -0.23950053833E+03  0.23950053833E+03  0.00000000000E+00 0. -1.
         23    2    1    2    0    0  0.10222259652E+03 -0.81180938342E+02  0.27603657704E+03  0.31899866978E+03  0.92326353084E+02 0.  0.
         23    2    1    2    0    0 -0.14079264764E+03  0.13612279796E+03 -0.82597743485E+02  0.23111737928E+03  0.90779237836E+02 0.  0.
        -13    1    4    4    0    0 -0.43136800163E+02  0.38501542008E+02  0.17682760717E+02  0.60463478993E+02  0.00000000000E+00 0.  1.
         13    1    4    4    0    0 -0.97655847479E+02  0.97621255952E+02 -0.10028050420E+03  0.17065390029E+03  0.00000000000E+00 0. -1.
        -13    1    3    3    0    0  0.24068662437E+02  0.17673856753E+02  0.28736652827E+02  0.41442260312E+02  0.00000000000E+00 0. -1.
         13    1    3    3    0    0  0.78153934078E+02 -0.98854795096E+02  0.24729992421E+03  0.27755640947E+03  0.00000000000E+00 0.  1.
         21    1    1    2  502  501  0.38570051127E+02 -0.54941859618E+02 -0.42742561126E+02  0.79581300026E+02  0.00000000000E+00 0. -1.
<scales pt_clust_5="13000.00000" pt_clust_6="13000.00000" pt_clust_7="13000.00000" pt_clust_8="13000.00000" pt_clust_9="67.12866"></scales>
<clustering>
<clus scale="   67.129">  2  9  1 -1</clus>
<clus scale="   90.779">  5  6 -1 -1</clus>
<clus scale="   92.326">  7  8 -1 -1</clus>
<clus scale="  165.440">  2  5  1 -1</clus>
<clus scale="   67.129">  2  5  1 -1</clus>
</clustering>
</event>
<event>
 9    1  0.2075077E-005  0.9300440E+02  0.7546771E-02  0.1296217E+00
          1   -1    0    0  502    0  0.00000000000E+00  0.00000000000E+00  0.36742182261E+03  0.36742182261E+03  0.00000000000E+00 0. -1.
         -1   -1    0    0    0  501 -0.00000000000E+00 -0.00000000000E+00 -0.53542055350E+02  0.53542055350E+02  0.00000000000E+00 0.  1.
         23    2    1    2    0    0  0.37754114375E+02  0.95347510424E+01  0.15864765602E+02  0.96666516698E+02  0.87042748310E+02 0.  0.
         23    2    1    2    0    0 -0.21058169751E+01  0.18212344475E+01  0.17736732849E+03  0.19798180183E+03  0.87919697905E+02 0.  0.
        -11    1    3    3    0    0  0.27188776967E+02 -0.35350243006E+02  0.22715638468E+02  0.50048671357E+02  0.00000000000E+00 0. -1.
         11    1    3    3    0    0  0.10565337408E+02  0.44884994048E+02 -0.68508728657E+01  0.46617845342E+02  0.00000000000E+00 0.  1.
        -11    1    4    4    0    0  0.23307310558E+02  0.37367765852E+02  0.96130720712E+02  0.10573881083E+03  0.00000000000E+00 0.  1.
         11    1    4    4    0    0 -0.25413127533E+02 -0.35546531405E+02  0.81236607780E+02  0.92242991005E+02  0.00000000000E+00 0. -1.
         21    1    1    2  502  501 -0.35648297400E+02 -0.11355985490E+02  0.12064767317E+03  0.12631555943E+03  0.00000000000E+00 0.  1.
<scales pt_clust_5="13000.00000" pt_clust_6="13000.00000" pt_clust_7="13000.00000" pt_clust_8="13000.00000" pt_clust_9="37.41336"></scales>
<clustering>
<clus scale="   37.413">  1  9  2 -1</clus>
<clus scale="   87.043">  5  6 -1 -1</clus>
<clus scale="   87.920">  7  8 -1 -1</clus>
<clus scale="   92.176">  2  5  1 -1</clus>
<clus scale="   37.413">  1  5  2 -1</clus>
</clustering>
</event>
<event>
 9    1  0.2075077E-005  0.9540905E+02  0.7546771E-02  0.1293450E+00
         -1   -1    0    0    0  501 -0.00000000000E+00  0.00000000000E+00  0.62626491206E+02  0.62626491206E+02  0.00000000000E+00 0.  1.
          1   -1    0    0  502    0  0.00000000000E+00 -0.00000000000E+00 -0.20963583769E+03  0.20963583769E+03  0.00000000000E+00 0. -1.
         23    2    1    2    0    0 -0.95293988241E+01 -0.10326172937E+02 -0.45817675749E+02  0.10644909774E+03  0.95051100516E+02 0.  0.
         23    2    1    2    0    0 -0.17754754073E+02 -0.14615615651E+01 -0.10095447978E+03  0.13609064810E+03  0.89506927422E+02 0.  0.
        -11    1    4    4    0    0 -0.42571718008E+02 -0.29940853543E+02 -0.70143484759E+02  0.87343656549E+02  0.00000000000E+00 0. -1.
         11    1    4    4    0    0  0.24816963936E+02  0.28479291978E+02 -0.30810995024E+02  0.48746991548E+02  0.00000000000E+00 0.  1.
        -13    1    3    3    0    0 -0.25793401844E+02 -0.30677581935E+02  0.12987297476E+02  0.42131739909E+02  0.00000000000E+00 0. -1.
         13    1    3    3    0    0  0.16264003020E+02  0.20351408998E+02 -0.58804973225E+02  0.64317357831E+02  0.00000000000E+00 0.  1.
         21    1    1    2  502  501  0.27284152897E+02  0.11787734502E+02 -0.23719094760E+00  0.29722583056E+02  0.00000000000E+00 0.  1.
<scales pt_clust_5="13000.00000" pt_clust_6="13000.00000" pt_clust_7="13000.00000" pt_clust_8="13000.00000" pt_clust_9="29.72164"></scales>
<clustering>
<clus scale="   29.722">  1  9  2 -1</clus>
<clus scale="   89.507">  5  6 -1 -1</clus>
<clus scale="   89.887">  2  5  1 -1</clus>
<clus scale="   95.051">  7  8 -1 -1</clus>
<clus scale="   89.887">  2  5  1 -1</clus>
</clustering>
</event>
<event>
 9    1  0.2075077E-005  0.9852321E+02  0.7546771E-02  0.1286474E+00
         -1   -1    0    0    0  501 -0.00000000000E+00  0.00000000000E+00  0.54404776998E+02  0.54404776998E+02  0.00000000000E+00 0.  1.
          1   -1    0    0  502    0  0.00000000000E+00 -0.00000000000E+00 -0.37180368255E+03  0.37180368255E+03  0.00000000000E+00 0. -1.
         23    2    1    2    0    0 -0.19538745784E+02  0.32835653392E+02 -0.23896406076E+02  0.98928428434E+02  0.88067320889E+02 0.  0.
         23    2    1    2    0    0 -0.13119119979E+02 -0.32145474677E+01 -0.23934754475E+03  0.25744662053E+03  0.93856649312E+02 0.  0.
        -11    1    4    4    0    0  0.22284287667E+02 -0.38614885121E+02 -0.12055299749E+03  0.12853296866E+03  0.00000000000E+00 0.  1.
         11    1    4    4    0    0 -0.35403407645E+02  0.35400337653E+02 -0.11879454726E+03  0.12891365187E+03  0.00000000000E+00 0. -1.
        -13    1    3    3    0    0  0.20673898851E+02 -0.13260068522E+02 -0.28453850357E+02  0.37588044789E+02  0.00000000000E+00 0. -1.
         13    1    3    3    0    0 -0.40212644635E+02  0.46095721914E+02  0.45574442812E+01  0.61340383645E+02  0.00000000000E+00 0.  1.
         21    1    1    2  502  501  0.32657865762E+02 -0.29621105924E+02 -0.54154954727E+02  0.69833410584E+02  0.00000000000E+00 0. -1.
<scales pt_clust_5="13000.00000" pt_clust_6="13000.00000" pt_clust_7="13000.00000" pt_clust_8="13000.00000" pt_clust_9="44.09020"></scales>
<clustering>
<clus scale="   44.090">  2  9  1 -1</clus>
<clus scale="   88.067">  7  8 -1 -1</clus>
<clus scale="   93.025">  1  7  2 -1</clus>
<clus scale="   93.857">  5  6 -1 -1</clus>
<clus scale="   44.090">  2  5  1 -1</clus>
</clustering>
</event>
<event>
 9    1  0.2075077E-005  0.1036707E+03  0.7546771E-02  0.1274906E+00
          1   -1    0    0  502    0  0.00000000000E+00  0.00000000000E+00  0.17831086916E+03  0.17831086916E+03  0.00000000000E+00 0. -1.
         -1   -1    0    0    0  501 -0.00000000000E+00 -0.00000000000E+00 -0.81832164091E+02  0.81832164091E+02  0.00000000000E+00 0.  1.
         23    2    1    2    0    0 -0.19479955948E+02  0.22641207316E+02  0.77572242320E+01  0.10123817910E+03  0.96420440919E+02 0.  0.
         23    2    1    2    0    0  0.38725762458E+02 -0.37755536204E+02  0.78355522871E+02  0.13232860365E+03  0.91902699567E+02 0.  0.
        -11    1    3    3    0    0 -0.37333210721E+02 -0.95257751962E+00 -0.33702062300E+02  0.50304125377E+02  0.00000000000E+00 0.  1.
         11    1    3    3    0    0  0.17853254774E+02  0.23593784835E+02  0.41459286532E+02  0.50934053722E+02  0.00000000000E+00 0. -1.
        -13    1    4    4    0    0  0.14569505295E+02 -0.55218690270E+02  0.10297602245E+02  0.58029430910E+02  0.00000000000E+00 0.  1.
         13    1    4    4    0    0  0.24156257163E+02  0.17463154066E+02  0.68057920625E+02  0.74299172740E+02  0.00000000000E+00 0. -1.
         21    1    1    2  502  501 -0.19245806511E+02  0.15114328889E+02  0.10365957962E+02  0.26576250497E+02  0.00000000000E+00 0. -1.
<scales pt_clust_5="13000.00000" pt_clust_6="13000.00000" pt_clust_7="13000.00000" pt_clust_8="13000.00000" pt_clust_9="24.47129"></scales>
<clustering>
<clus scale="   24.471">  1  9  2 -1</clus>
<clus scale="   91.903">  7  8 -1 -1</clus>
<clus scale="   96.420">  5  6 -1 -1</clus>
<clus scale="   99.483">  1  7  2 -1</clus>
<clus scale="   24.471">  1  5  2 -1</clus>
</clustering>
</event>
<event>
 9    1  0.2075077E-005  0.3256600E+03  0.7546771E-02  0.1112605E+00
          2   -1    0    0  502    0  0.00000000000E+00  0.00000000000E+00  0.15687899369E+04  0.15687899369E+04  0.00000000000E+00 0. -1.
         -2   -1    0    0    0  501 -0.00000000000E+00 -0.00000000000E+00 -0.13814982749E+03  0.13814982749E+03  0.00000000000E+00 0.  1.
         23    2    1    2    0    0 -0.27987942866E+02  0.61604322424E+02  0.41895232703E+02  0.12251024474E+03  0.93140388961E+02 0.  0.
         23    2    1    2    0    0  0.22086675775E+03 -0.28105691878E+03  0.37726596382E+03  0.53159939542E+03  0.11177295504E+03 0.  0.
        -13    1    4    4    0    0  0.13807032905E+03 -0.24593905538E+03  0.25819047790E+03  0.38237646058E+03  0.00000000000E+00 0.  1.
         13    1    4    4    0    0  0.82796428697E+02 -0.35117863402E+02  0.11907548592E+03  0.14922293484E+03  0.00000000000E+00 0. -1.
        -13    1    3    3    0    0 -0.55970170340E+02  0.65318380098E+02  0.24851919614E+02  0.89536409661E+02  0.00000000000E+00 0. -1.
         13    1    3    3    0    0  0.27982227473E+02 -0.37140576734E+01  0.17043313089E+02  0.32973835079E+02  0.00000000000E+00 0.  1.
         21    1    1    2  502  501 -0.19287881488E+03  0.21945259636E+03  0.10114789129E+04  0.10528301242E+04  0.00000000000E+00 0. -1.
<scales pt_clust_5="13000.00000" pt_clust_6="13000.00000" pt_clust_7="13000.00000" pt_clust_8="13000.00000" pt_clust_9="305.87784"></scales>
<clustering>
<clus scale="   93.140">  7  8 -1 -1</clus>
<clus scale="  111.773">  5  6 -1 -1</clus>
<clus scale="  115.124">  2  7  1 -1</clus>
<clus scale="  305.878">  1  9  2 -1</clus>
<clus scale="  305.878">  1  5  2 -1</clus>
</clustering>
</event>
<event>
 9    1  0.2075077E-005  0.1156344E+03  0.7546771E-02  0.1251757E+00
         -3   -1    0    0    0  501 -0.00000000000E+00  0.00000000000E+00  0.38930479002E+02  0.38930479002E+02  0.00000000000E+00 0.  1.
          3   -1    0    0  502    0  0.00000000000E+00 -0.00000000000E+00 -0.51078193497E+03  0.51078193497E+03  0.00000000000E+00 0. -1.
         23    2    1    2    0    0 -0.57279596621E+02  0.14282483327E+02 -0.15914889823E+03  0.19471206204E+03  0.95391161942E+02 0.  0.
         23    2    1    2    0    0  0.74512358908E+02  0.23693520229E+02 -0.18666079347E+03  0.22223864329E+03  0.91838380983E+02 0.  0.
        -11    1    3    3    0    0 -0.84927436711E+01  0.50247440948E+02 -0.82864726059E+02  0.97280495690E+02  0.00000000000E+00 0.  1.
         11    1    3    3    0    0 -0.48786852950E+02 -0.35964957621E+02 -0.76284172169E+02  0.97431566347E+02  0.00000000000E+00 0. -1.
        -13    1    4    4    0    0  0.24402562701E+02  0.64732507907E+01  0.28992560882E+01  0.25412471900E+02  0.00000000000E+00 0.  1.
         13    1    4    4    0    0  0.50109796207E+02  0.17220269439E+02 -0.18956004956E+03  0.19682617139E+03  0.00000000000E+00 0. -1.
         21    1    1    2  502  501 -0.17232762287E+02 -0.37976003556E+02 -0.12604176427E+03  0.13276170865E+03  0.00000000000E+00 0.  1.
<scales pt_clust_5="13000.00000" pt_clust_6="13000.00000" pt_clust_7="13000.00000" pt_clust_8="13000.00000" pt_clust_9="41.70306"></scales>
<clustering>
<clus scale="   41.703">  2  9  1 -1</clus>
<clus scale="   91.838">  7  8 -1 -1</clus>
<clus scale="   95.391">  5  6 -1 -1</clus>
<clus scale="  112.722">  2  7  1 -1</clus>
<clus scale="   41.703">  2  5  1 -1</clus>
</clustering>
</event>
<event>
 9    1  0.2075077E-005  0.1485018E+03  0.7546771E-02  0.1202885E+00
          2   -1    0    0  502    0  0.00000000000E+00  0.00000000000E+00  0.45435195354E+03  0.45435195354E+03  0.00000000000E+00 0. -1.
         -2   -1    0    0    0  501 -0.00000000000E+00 -0.00000000000E+00 -0.13936616057E+03  0.13936616057E+03  0.00000000000E+00 0.  1.
         23    2    1    2    0    0  0.82659193117E+02  0.89617160083E+02 -0.16245551613E+02  0.15510275272E+03  0.94494276888E+02 0.  0.
         23    2    1    2    0    0 -0.11043171914E+03 -0.29664667048E+02  0.58172980381E+02  0.15767678290E+03  0.91666325093E+02 0.  0.
        -11    1    3    3    0    0  0.67067720599E+02  0.27201429314E+02  0.27371726500E+02  0.77377052894E+02  0.00000000000E+00 0. -1.
         11    1    3    3    0    0  0.15591472518E+02  0.62415730769E+02 -0.43617278112E+02  0.77725699821E+02  0.00000000000E+00 0.  1.
        -11    1    4    4    0    0 -0.95163636925E+02 -0.55818215710E+02  0.25711437289E+02  0.11328225371E+03  0.00000000000E+00 0.  1.
         11    1    4    4    0    0 -0.15268082212E+02  0.26153548662E+02  0.32461543092E+02  0.44394529190E+02  0.00000000000E+00 0. -1.
         21    1    1    2  502  501  0.27772526020E+02 -0.59952493035E+02  0.27305836420E+03  0.28093857849E+03  0.00000000000E+00 0. -1.
<scales pt_clust_5="13000.00000" pt_clust_6="13000.00000" pt_clust_7="13000.00000" pt_clust_8="13000.00000" pt_clust_9="66.07280"></scales>
<clustering>
<clus scale="   66.073">  1  9  2 -1</clus>
<clus scale="   91.666">  7  8 -1 -1</clus>
<clus scale="   94.494">  5  6 -1 -1</clus>
<clus scale="  146.719">  1  7  2 -1</clus>
<clus scale="   66.073">  1  5  2 -1</clus>
</clustering>
</event>
<event>
 9    1  0.2075077E-005  0.1323424E+03  0.7546771E-02  0.1239910E+00
         -1   -1    0    0    0  501 -0.00000000000E+00  0.00000000000E+00  0.88343157450E+02  0.88343157450E+02  0.00000000000E+00 0.  1.
          1   -1    0    0  502    0  0.00000000000E+00 -0.00000000000E+00 -0.33590265406E+03  0.33590265406E+03  0.00000000000E+00 0. -1.
         23    2    1    2    0    0 -0.43075448159E+01  0.72643205285E+02 -0.16237676318E+03  0.20023797601E+03  0.91833782465E+02 0.  0.
         23    2    1    2    0    0 -0.23780130319E+01  0.29482495253E+02 -0.74586146794E+02  0.12111642165E+03  0.90726081303E+02 0.  0.
        -11    1    3    3    0    0 -0.23112051373E+02  0.81729609401E+02 -0.15726784383E+03  0.17873743501E+03  0.00000000000E+00 0.  1.
         11    1    3    3    0    0  0.18804506557E+02 -0.90864041153E+01 -0.51089193499E+01  0.21500541005E+02  0.00000000000E+00 0. -1.
        -13    1    4    4    0    0 -0.59408674811E+01  0.61510823918E+02 -0.38843146047E+02  0.72990858060E+02  0.00000000000E+00 0. -1.
         13    1    4    4    0    0  0.35628544492E+01 -0.32028328665E+02 -0.35743000747E+02  0.48125563595E+02  0.00000000000E+00 0.  1.
         21    1    1    2  502  501  0.66855578478E+01 -0.10212570054E+03 -0.10596586641E+02  0.10289141384E+03  0.00000000000E+00 0.  1.
<scales pt_clust_5="13000.00000" pt_clust_6="13000.00000" pt_clust_7="13000.00000" pt_clust_8="13000.00000" pt_clust_9="95.29464"></scales>
<clustering>
<clus scale="   90.726">  7  8 -1 -1</clus>
<clus scale="   91.834">  5  6 -1 -1</clus>
<clus scale="   95.426">  2  7  1 -1</clus>
<clus scale="   95.295">  1  9  2 -1</clus>
<clus scale="   95.426">  2  5  1 -1</clus>
</clustering>
</event>
<event>
 9    1  0.2075077E-005  0.1049047E+03  0.7546771E-02  0.1270549E+00
          1   -1    0    0  502    0  0.00000000000E+00  0.00000000000E+00  0.89598187211E+02  0.89598187211E+02  0.00000000000E+00 0. -1.
         -1   -1    0    0    0  501 -0.00000000000E+00 -0.00000000000E+00 -0.27260469854E+03  0.27260469854E+03  0.00000000000E+00 0.  1.
         23    2    1    2    0    0 -0.42142390354E+02 -0.29272448887E+02 -0.18159555301E+03  0.20934589488E+03  0.90641610218E+02 0.  0.
         23    2    1    2    0    0  0.56381013238E+02  0.97316150173E+01 -0.33428728298E+02  0.11273567279E+03  0.91204874104E+02 0.  0.
        -11    1    3    3    0    0 -0.53134060463E+01 -0.33843088340E+02 -0.16530303917E+03  0.16881552556E+03  0.00000000000E+00 0.  1.
         11    1    3    3    0    0 -0.36828984308E+02  0.45706394527E+01 -0.16292513843E+02  0.40530369323E+02  0.00000000000E+00 0. -1.
        -13    1    4    4    0    0 -0.21788699345E+02 -0.12899350349E+02 -0.14518196135E+02  0.29187645975E+02  0.00000000000E+00 0.  1.
         13    1    4    4    0    0  0.78169712583E+02  0.22630965367E+02 -0.18910532163E+02  0.83548026820E+02  0.00000000000E+00 0. -1.
         21    1    1    2  502  501 -0.14238622884E+02  0.19540833870E+02  0.32017769976E+02  0.40121318076E+02  0.00000000000E+00 0. -1.
<scales pt_clust_5="13000.00000" pt_clust_6="13000.00000" pt_clust_7="13000.00000" pt_clust_8="13000.00000" pt_clust_9="24.17814"></scales>
<clustering>
<clus scale="   24.178">  1  9  2 -1</clus>
<clus scale="   90.642">  5  6 -1 -1</clus>
<clus scale="   91.205">  7  8 -1 -1</clus>
<clus scale="  104.415">  2  5  1 -1</clus>
<clus scale="   24.178">  1  5  2 -1</clus>
</clustering>
</event>
<event>
 9    1  0.2075077E-005  0.1240263E+03  0.7546771E-02  0.1237673E+00
          3   -1    0    0  502    0  0.00000000000E+00  0.00000000000E+00  0.63126679319E+03  0.63126679319E+03  0.00000000000E+00 0. -1.
         -3   -1    0    0    0  501 -0.00000000000E+00 -0.00000000000E+00 -0.11561723703E+03  0.11561723703E+03  0.00000000000E+00 0.  1.
         23    2    1    2    0    0  0.39408848359E+02  0.51538984405E+01  0.15801002356E+03  0.18767096887E+03  0.93132191069E+02 0.  0.
         23    2    1    2    0    0 -0.11671609454E+03 -0.60691742601E+01  0.42927313664E+03  0.45381561702E+03  0.89519309733E+02 0.  0.
        -11    1    4    4    0    0 -0.97656082789E+01 -0.25009942799E+02  0.31061673540E+02  0.41057178507E+02  0.00000000000E+00 0.  1.
         11    1    4    4    0    0 -0.10695048626E+03  0.18940768539E+02  0.39821146310E+03  0.41275843852E+03  0.00000000000E+00 0. -1.
        -11    1    3    3    0    0  0.47380982260E+02  0.30523273782E+02  0.46600244613E+02  0.73131460537E+02  0.00000000000E+00 0. -1.
         11    1    3    3    0    0 -0.79721339011E+01 -0.25369375342E+02  0.11140977895E+03  0.11453950833E+03  0.00000000000E+00 0.  1.
         21    1    1    2  502  501  0.77307246183E+02  0.91527581967E+00 -0.71633604038E+02  0.10539744432E+03  0.00000000000E+00 0.  1.
<scales pt_clust_5="13000.00000" pt_clust_6="13000.00000" pt_clust_7="13000.00000" pt_clust_8="13000.00000" pt_clust_9="77.31266"></scales>
<clustering>
<clus scale="   77.313">  2  9  1 -1</clus>
<clus scale="   89.519">  5  6 -1 -1</clus>
<clus scale="   93.132">  7  8 -1 -1</clus>
<clus scale="  121.337">  1  5  2 -1</clus>
<clus scale="  121.337">  1  5  2 -1</clus>
</clustering>
</event>
<event>
 9    1  0.2075077E-005  0.1020151E+03  0.7546771E-02  0.1276684E+00
         -2   -1    0    0    0  501 -0.00000000000E+00  0.00000000000E+00  0.14936311955E+03  0.14936311955E+03  0.00000000000E+00 0.  1.
          2   -1    0    0  502    0  0.00000000000E+00 -0.00000000000E+00 -0.61777832327E+03  0.61777832327E+03  0.00000000000E+00 0. -1.
         23    2    1    2    0    0 -0.41478184959E+02 -0.14752692608E+02  0.12429670789E+03  0.16079863957E+03  0.92024176871E+02 0.  0.
         23    2    1    2    0    0  0.49179898421E+02 -0.71218494101E+01 -0.44932600642E+03  0.46109360434E+03  0.90796854390E+02 0.  0.
        -13    1    3    3    0    0  0.10131399622E+02  0.26964829738E+02  0.13882059912E+02  0.31975911066E+02  0.00000000000E+00 0. -1.
         13    1    3    3    0    0 -0.51609584581E+02 -0.41717522346E+02  0.11041464797E+03  0.12882272850E+03  0.00000000000E+00 0.  1.
        -13    1    4    4    0    0 -0.20532303858E+02 -0.22006555936E+02 -0.17973757296E+03  0.18224011397E+03  0.00000000000E+00 0.  1.
         13    1    4    4    0    0  0.69712202278E+02  0.14884706526E+02 -0.26958843346E+03  0.27885349037E+03  0.00000000000E+00 0. -1.
         21    1    1    2  502  501 -0.77017134623E+01  0.21874542018E+02 -0.14338590518E+03  0.14524919891E+03  0.00000000000E+00 0. -1.
<scales pt_clust_5="13000.00000" pt_clust_6="13000.00000" pt_clust_7="13000.00000" pt_clust_8="13000.00000" pt_clust_9="23.19077"></scales>
<clustering>
<clus scale="   23.191">  2  9  1 -1</clus>
<clus scale="   90.797">  7  8 -1 -1</clus>
<clus scale="   92.024">  5  6 -1 -1</clus>
<clus scale="  100.909">  2  7  1 -1</clus>
<clus scale="   23.191">  2  5  1 -1</clus>
</clustering>
</event>
<event>
 9    1  0.2075077E-005  0.9917547E+02  0.7546771E-02  0.1282107E+00
          1   -1    0    0  502    0  0.00000000000E+00  0.00000000000E+00  0.29508501817E+03  0.29508501817E+03  0.00000000000E+00 0. -1.
         -1   -1    0    0    0  501 -0.00000000000E+00 -0.00000000000E+00 -0.93453668425E+02  0.93453668425E+02  0.00000000000E+00 0.  1.
         23    2    1    2    0    0 -0.37088475704E+02 -0.22306501701E+02 -0.41490315889E+02  0.10900693102E+03  0.91038067032E+02 0.  0.
         23    2    1    2    0    0 -0.20347579963E+01  0.31423873038E+02  0.18962756248E+03  0.21263352730E+03  0.90899969426E+02 0.  0.
        -13    1    3    3    0    0  0.29210866509E+02  0.34657645174E+01 -0.15701567290E+02  0.33344046865E+02  0.00000000000E+00 0. -1.
         13    1    3    3    0    0 -0.66299342213E+02 -0.25772266219E+02 -0.25788748598E+02  0.75662884152E+02  0.00000000000E+00 0.  1.
        -13    1    4    4    0    0 -0.14224269423E+02  0.56258298850E+02  0.75628532553E+02  0.95325762343E+02  0.00000000000E+00 0.  1.
         13    1    4    4    0    0  0.12189511427E+02 -0.24834425811E+02  0.11399902993E+03  0.11730776495E+03  0.00000000000E+00 0. -1.
         21    1    1    2  502  501  0.39123233700E+02 -0.91173713371E+01  0.53494103158E+02  0.66898228287E+02  0.00000000000E+00 0. -1.
<scales pt_clust_5="13000.00000" pt_clust_6="13000.00000" pt_clust_7="13000.00000" pt_clust_8="13000.00000" pt_clust_9="40.17156"></scales>
<clustering>
<clus scale="   40.172">  1  9  2 -1</clus>
<clus scale="   90.900">  7  8 -1 -1</clus>
<clus scale="   91.038">  5  6 -1 -1</clus>
<clus scale="   99.049">  1  7  2 -1</clus>
<clus scale="   40.172">  1  5  2 -1</clus>
</clustering>
</event>
<event>
 9    1  0.2075077E-005  0.9797697E+02  0.7546771E-02  0.1284741E+00
         -2   -1    0    0    0  501 -0.00000000000E+00  0.00000000000E+00  0.64268767046E+02  0.64268767046E+02  0.00000000000E+00 0.  1.
          2   -1    0    0  502    0  0.00000000000E+00 -0.00000000000E+00 -0.26516037338E+03  0.26516037338E+03  0.00000000000E+00 0. -1.
         23    2    1    2    0    0 -0.28563949025E+02 -0.15907902233E+02 -0.45081565710E+02  0.10652955364E+03  0.90814303362E+02 0.  0.
         23    2    1    2    0    0  0.42121530060E+02 -0.56306798416E+00 -0.44862469605E+02  0.10991965769E+03  0.91077712020E+02 0.  0.
        -13    1    3    3    0    0 -0.32246884824E+01 -0.25998178378E+02 -0.66742703224E+02  0.71700016237E+02  0.00000000000E+00 0. -1.
         13    1    3    3    0    0 -0.25339260543E+02  0.10090276144E+02  0.21661137514E+02  0.34829537406E+02  0.00000000000E+00 0.  1.
        -13    1    4    4    0    0 -0.28770650348E+02 -0.36347892993E+01 -0.17484474551E+02  0.33862499391E+02  0.00000000000E+00 0.  1.
         13    1    4    4    0    0  0.70892180408E+02  0.30717213152E+01 -0.27377995054E+02  0.76057158296E+02  0.00000000000E+00 0. -1.
         21    1    1    2  502  501 -0.13557581035E+02  0.16470970217E+02 -0.11094757102E+03  0.11297992909E+03  0.00000000000E+00 0.  1.
<scales pt_clust_5="13000.00000" pt_clust_6="13000.00000" pt_clust_7="13000.00000" pt_clust_8="13000.00000" pt_clust_9="21.33309"></scales>
<clustering>
<clus scale="   21.333">  2  9  1 -1</clus>
<clus scale="   90.814">  5  6 -1 -1</clus>
<clus scale="   91.078">  7  8 -1 -1</clus>
<clus scale="   97.732">  1  5  2 -1</clus>
<clus scale="   21.333">  2  5  1 -1</clus>
</clustering>
</event>
<event>
 9    1  0.2075077E-005  0.1062673E+03  0.7546771E-02  0.1268530E+00
         -1   -1    0    0    0  501 -0.00000000000E+00  0.00000000000E+00  0.92724153830E+02  0.92724153830E+02  0.00000000000E+00 0.  1.
          1   -1    0    0  502    0  0.00000000000E+00 -0.00000000000E+00 -0.10331061762E+04  0.10331061762E+04  0.00000000000E+00 0. -1.
         23    2    1    2    0    0 -0.54591975449E+02  0.34956821143E+01  0.46726586940E+02  0.11549278800E+03  0.90347698227E+02 0.  0.
         23    2    1    2    0    0  0.19311785207E+02  0.79670027657E+02 -0.51008631604E+03  0.52483625946E+03  0.92438039124E+02 0.  0.
        -11    1    3    3    0    0  0.16297096925E+02  0.26285319699E+02  0.17212340909E+02  0.35394605231E+02  0.00000000000E+00 0.  1.
         11    1    3    3    0    0 -0.70889072374E+02 -0.22789637585E+02  0.29514246031E+02  0.80098182764E+02  0.00000000000E+00 0. -1.
        -11    1    4    4    0    0 -0.35397017911E+02  0.46002168027E+02 -0.20492117611E+03  0.21298318422E+03  0.00000000000E+00 0.  1.
         11    1    4    4    0    0  0.54708803118E+02  0.33667859630E+02 -0.30516513993E+03  0.31185307524E+03  0.00000000000E+00 0. -1.
         21    1    1    2  502  501  0.35280190242E+02 -0.83165709771E+02 -0.47702229322E+03  0.48550128253E+03  0.00000000000E+00 0. -1.
<scales pt_clust_5="13000.00000" pt_clust_6="13000.00000" pt_clust_7="13000.00000" pt_clust_8="13000.00000" pt_clust_9="90.33951"></scales>
<clustering>
<clus scale="   90.340">  2  9  1 -1</clus>
<clus scale="   90.348">  5  6 -1 -1</clus>
<clus scale="   92.438">  7  8 -1 -1</clus>
<clus scale="  104.454">  1  5  2 -1</clus>
<clus scale="   90.340">  2  5  1 -1</clus>
</clustering>
</event>
<event>
 9    1  0.2075077E-005  0.1494772E+03  0.7546771E-02  0.1223816E+00
          2   -1    0    0  502    0  0.00000000000E+00  0.00000000000E+00  0.91416664532E+03  0.91416664532E+03  0.00000000000E+00 0. -1.
         -2   -1    0    0    0  501 -0.00000000000E+00 -0.00000000000E+00 -0.42285452916E+02  0.42285452916E+02  0.00000000000E+00 0.  1.
         23    2    1    2    0    0  0.14587624946E+02 -0.38734991903E+01  0.96389357275E+02  0.13341412600E+03  0.90997901201E+02 0.  0.
         23    2    1    2    0    0  0.87050080843E+02 -0.71152895349E+02  0.48837913729E+03  0.50936157150E+03  0.91074572157E+02 0.  0.
        -11    1    3    3    0    0  0.53117902446E+01  0.42240528168E+02  0.61726194951E+02  0.74984001484E+02  0.00000000000E+00 0.  1.
         11    1    3    3    0    0  0.92758347019E+01 -0.46114027358E+02  0.34663162324E+02  0.58430124516E+02  0.00000000000E+00 0. -1.
        -11    1    4    4    0    0  0.10645244471E+03 -0.61055023699E+02  0.40754558161E+03  0.42562100512E+03  0.00000000000E+00 0.  1.
         11    1    4    4    0    0 -0.19402363869E+02 -0.10097871650E+02  0.80833555678E+02  0.83740566388E+02  0.00000000000E+00 0. -1.
         21    1    1    2  502  501 -0.10163770579E+03  0.75026394539E+02  0.28711269784E+03  0.31367640074E+03  0.00000000000E+00 0. -1.
<scales pt_clust_5="13000.00000" pt_clust_6="13000.00000" pt_clust_7="13000.00000" pt_clust_8="13000.00000" pt_clust_9="118.52790"></scales>
<clustering>
<clus scale="   90.998">  5  6 -1 -1</clus>
<clus scale="   91.075">  7  8 -1 -1</clus>
<clus scale="   92.241">  2  5  1 -1</clus>
<clus scale="  118.528">  2  9  1 -1</clus>
<clus scale="  149.477">  1  5  2 -1</clus>
</clustering>
</event>
<event>
 9    1  0.2075077E-005  0.1035856E+03  0.7546771E-02  0.1276084E+00
         -1   -1    0    0    0  501 -0.00000000000E+00  0.00000000000E+00  0.15569744707E+03  0.15569744707E+03  0.00000000000E+00 0.  1.
          1   -1    0    0  502    0  0.00000000000E+00 -0.00000000000E+00 -0.21495022306E+03  0.21495022306E+03  0.00000000000E+00 0. -1.
         23    2    1    2    0    0  0.45883808070E+01 -0.31515591308E+02  0.42660706365E+02  0.10684162628E+03  0.92633209512E+02 0.  0.
         23    2    1    2    0    0 -0.85193277341E+02  0.33498338780E+02  0.10026751458E+02  0.12585062867E+03  0.85777688170E+02 0.  0.
        -13    1    4    4    0    0 -0.18215897916E+02  0.38706933464E+02 -0.25554075199E+02  0.49830275881E+02  0.00000000000E+00 0. -1.
         13    1    4    4    0    0 -0.66977379425E+02 -0.52085946845E+01  0.35580826657E+02  0.76020352793E+02  0.00000000000E+00 0.  1.
        -13    1    3    3    0    0 -0.48815181483E+01 -0.62375101120E+02  0.40414656350E+02  0.74483735856E+02  0.00000000000E+00 0.  1.
         13    1    3    3    0    0  0.94698989553E+01  0.30859509811E+02  0.22460500148E+01  0.32357890424E+02  0.00000000000E+00 0. -1.
         21    1    1    2  502  501  0.80604896534E+02 -0.19827474714E+01 -0.11194023381E+03  0.13795541518E+03  0.00000000000E+00 0. -1.
<scales pt_clust_5="13000.00000" pt_clust_6="13000.00000" pt_clust_7="13000.00000" pt_clust_8="13000.00000" pt_clust_9="80.62928"></scales>
<clustering>
<clus scale="   80.629">  2  9  1 -1</clus>
<clus scale="   85.778">  5  6 -1 -1</clus>
<clus scale="   92.633">  7  8 -1 -1</clus>
<clus scale="   97.503">  2  5  1 -1</clus>
<clus scale="   80.629">  2  5  1 -1</clus>
</clustering>
</event>
<event>
 9    1  0.2075077E-005  0.1168470E+03  0.7546771E-02  0.1248649E+00
          4   -1    0    0  502    0  0.00000000000E+00  0.00000000000E+00  0.73496810621E+02  0.73496810621E+02  0.00000000000E+00 0. -1.
         -4   -1    0    0    0  501 -0.00000000000E+00 -0.00000000000E+00 -0.26629454543E+03  0.26629454543E+03  0.00000000000E+00 0.  1.
         23    2    1    2    0    0 -0.50383263315E+02 -0.41856540476E+02 -0.88943173049E+02  0.14324182653E+03  0.91196982581E+02 0.  0.
         23    2    1    2    0    0  0.40916603072E+02  0.72407818823E+02 -0.10889563854E+03  0.16417035844E+03  0.90424476027E+02 0.  0.
        -11    1    3    3    0    0 -0.20876338361E+02  0.24358171933E+02 -0.52301861024E+01  0.32503798085E+02  0.00000000000E+00 0.  1.
         11    1    3    3    0    0 -0.29506924954E+02 -0.66214712409E+02 -0.83712986947E+02  0.11073802844E+03  0.00000000000E+00 0. -1.
        -13    1    4    4    0    0  0.28329879044E+02  0.39600227735E+02  0.10952727369E+01  0.48702768973E+02  0.00000000000E+00 0. -1.
         13    1    4    4    0    0  0.12586724028E+02  0.32807591088E+02 -0.10999091127E+03  0.11546758947E+03  0.00000000000E+00 0.  1.
         21    1    1    2  502  501  0.94666602424E+01 -0.30551278347E+02  0.50410767795E+01  0.32379171080E+02  0.00000000000E+00 0. -1.
<scales pt_clust_5="13000.00000" pt_clust_6="13000.00000" pt_clust_7="13000.00000" pt_clust_8="13000.00000" pt_clust_9="31.98434"></scales>
<clustering>
<clus scale="   31.984">  1  9  2 -1</clus>
<clus scale="   90.424">  7  8 -1 -1</clus>
<clus scale="   91.197">  5  6 -1 -1</clus>
<clus scale="  116.245">  1  7  2 -1</clus>
<clus scale="   31.984">  1  5  2 -1</clus>
</clustering>
</event>
<event>
 9    1  0.2075077E-005  0.9321040E+02  0.7546771E-02  0.1296407E+00
          2   -1    0    0  502    0  0.00000000000E+00  0.00000000000E+00  0.10586975952E+03  0.10586975952E+03  0.00000000000E+00 0. -1.
         -2   -1    0    0    0  501 -0.00000000000E+00 -0.00000000000E+00 -0.12165052656E+03  0.12165052656E+03  0.00000000000E+00 0.  1.
         23    2    1    2    0    0 -0.71890981045E+01 -0.96513631759E+01 -0.29439858039E+02  0.95844499010E+02  0.90413664932E+02 0.  0.
         23    2    1    2    0    0 -0.25659829498E+02  0.12256543543E+02  0.19153973550E+01  0.96693600895E+02  0.92397694763E+02 0.  0.
        -11    1    3    3    0    0 -0.27646600547E+02 -0.19605669726E+02  0.21443487959E+02  0.40106607723E+02  0.00000000000E+00 0. -1.
         11    1    3    3    0    0  0.20457502443E+02  0.99543065499E+01 -0.50883345998E+02  0.55737891286E+02  0.00000000000E+00 0.  1.
        -13    1    4    4    0    0 -0.52847023561E+02 -0.44184984200E+01  0.23683376266E+02  0.58079543205E+02  0.00000000000E+00 0. -1.
         13    1    4    4    0    0  0.27187194063E+02  0.16675041963E+02 -0.21767978911E+02  0.38614057691E+02  0.00000000000E+00 0.  1.
         21    1    1    2  502  501  0.32848927602E+02 -0.26051803667E+01  0.11743693642E+02  0.34982186177E+02  0.00000000000E+00 0.  1.
<scales pt_clust_5="13000.00000" pt_clust_6="13000.00000" pt_clust_7="13000.00000" pt_clust_8="13000.00000" pt_clust_9="32.95207"></scales>
<clustering>
<clus scale="   32.952">  1  9  2 -1</clus>
<clus scale="   90.414">  5  6 -1 -1</clus>
<clus scale="   91.244">  2  5  1 -1</clus>
<clus scale="   92.398">  7  8 -1 -1</clus>
<clus scale="   32.952">  1  5  2 -1</clus>
</clustering>
</event>
<event>
 9    1  0.2075077E-005  0.9622785E+02  0.7546771E-02  0.1288785E+00
         -1   -1    0    0    0  501 -0.00000000000E+00  0.00000000000E+00  0.11307115536E+03  0.11307115536E+03  0.00000000000E+00 0.  1.
          1   -1    0    0  502    0  0.00000000000E+00 -0.00000000000E+00 -0.11486696163E+03  0.11486696163E+03  0.00000000000E+00 0. -1.
         23    2    1    2    0    0  0.23048757377E+02 -0.27277937964E+02  0.26089733032E+02  0.10171598538E+03  0.91597687727E+02 0.  0.
         23    2    1    2    0    0 -0.52503075762E+01  0.16850152630E+02 -0.31069082982E+01  0.93980790499E+02  0.92256396690E+02 0.  0.
        -11    1    4    4    0    0  0.22427261544E+02  0.47452131964E+02  0.11688961453E+01  0.52498125743E+02  0.00000000000E+00 0.  1.
         11    1    4    4    0    0 -0.27677569121E+02 -0.30601979334E+02 -0.42758044435E+01  0.41482664756E+02  0.00000000000E+00 0. -1.
        -13    1    3    3    0    0  0.19167384027E+02 -0.52324936016E+02 -0.10992821221E+02  0.56799028670E+02  0.00000000000E+00 0. -1.
         13    1    3    3    0    0  0.38813733498E+01  0.25046998052E+02  0.37082554253E+02  0.44916956714E+02  0.00000000000E+00 0.  1.
         21    1    1    2  502  501 -0.17798449801E+02  0.10427785334E+02 -0.24778630998E+02  0.32241341108E+02  0.00000000000E+00 0. -1.
<scales pt_clust_5="13000.00000" pt_clust_6="13000.00000" pt_clust_7="13000.00000" pt_clust_8="13000.00000" pt_clust_9="20.62822"></scales>
<clustering>
<clus scale="   20.628">  2  9  1 -1</clus>
<clus scale="   91.598">  7  8 -1 -1</clus>
<clus scale="   92.256">  5  6 -1 -1</clus>
<clus scale="   95.597">  1  7  2 -1</clus>
<clus scale="   20.628">  2  5  1 -1</clus>
</clustering>
</event>
<event>
 9    1  0.2075077E-005  0.9615893E+02  0.7546771E-02  0.1293321E+00
         -3   -1    0    0    0  501 -0.00000000000E+00  0.00000000000E+00  0.12116001514E+03  0.12116001514E+03  0.00000000000E+00 0.  1.
          3   -1    0    0  502    0  0.00000000000E+00 -0.00000000000E+00 -0.11772745112E+03  0.11772745112E+03  0.00000000000E+00 0. -1.
         23    2    1    2    0    0 -0.39722030352E+02 -0.49190032803E+01  0.47288493761E+02  0.11095902207E+03  0.92052521136E+02 0.  0.
         23    2    1    2    0    0  0.80902917058E+01 -0.59218750884E+01 -0.18893800944E+02  0.86200762635E+02  0.83504936023E+02 0.  0.
        -11    1    3    3    0    0 -0.55815706803E+02 -0.34033811368E+02  0.40814178371E+02  0.77068090662E+02  0.00000000000E+00 0.  1.
         11    1    3    3    0    0  0.16093676452E+02  0.29114808088E+02  0.64743153905E+01  0.33890931405E+02  0.00000000000E+00 0. -1.
        -13    1    4    4    0    0  0.36458726492E+02 -0.28295006430E+02 -0.19414708668E+02  0.50067724524E+02  0.00000000000E+00 0. -1.
         13    1    4    4    0    0 -0.28368434787E+02  0.22373131342E+02  0.52090772451E+00  0.36133038111E+02  0.00000000000E+00 0.  1.
         21    1    1    2  502  501  0.31631738646E+02  0.10840878369E+02 -0.24962128803E+02  0.41727681555E+02  0.00000000000E+00 0. -1.
<scales pt_clust_5="13000.00000" pt_clust_6="13000.00000" pt_clust_7="13000.00000" pt_clust_8="13000.00000" pt_clust_9="33.43788"></scales>
<clustering>
<clus scale="   33.438">  2  9  1 -1</clus>
<clus scale="   83.505">  7  8 -1 -1</clus>
<clus scale="   88.011">  2  7  1 -1</clus>
<clus scale="   92.053">  5  6 -1 -1</clus>
<clus scale="   33.438">  2  5  1 -1</clus>
</clustering>
</event>
<event>
 9    1  0.2075077E-005  0.2223422E+03  0.7546771E-02  0.1132177E+00
          1   -1    0    0  502    0  0.00000000000E+00  0.00000000000E+00  0.92619405002E+03  0.92619405002E+03  0.00000000000E+00 0. -1.
         -1   -1    0    0    0  501 -0.00000000000E+00 -0.00000000000E+00 -0.87501534141E+02  0.87501534141E+02  0.00000000000E+00 0.  1.
         23    2    1    2    0    0  0.15224766167E+03  0.15510779476E+03  0.15151088896E+03  0.28011818033E+03  0.90955302194E+02 0.  0.
         23    2    1    2    0    0 -0.89046957401E+02 -0.14327091086E+03  0.54089614871E+03  0.57378415624E+03  0.90574277489E+02 0.  0.
        -13    1    3    3    0    0  0.11343265019E+03  0.60688289511E+02  0.55959643883E+02  0.14029082777E+03  0.00000000000E+00 0.  1.
         13    1    3    3    0    0  0.38815011481E+02  0.94419505251E+02  0.95551245074E+02  0.13982735256E+03  0.00000000000E+00 0. -1.
        -13    1    4    4    0    0 -0.78415929799E+02 -0.57736007822E+02  0.36699452399E+03  0.37969393633E+03  0.00000000000E+00 0. -1.
         13    1    4    4    0    0 -0.10631027602E+02 -0.85534903036E+02  0.17390162471E+03  0.19409021991E+03  0.00000000000E+00 0.  1.
         21    1    1    2  502  501 -0.63200704269E+02 -0.11836883905E+02  0.14628547821E+03  0.15979324759E+03  0.00000000000E+00 0.  1.
<scales pt_clust_5="13000.00000" pt_clust_6="13000.00000" pt_clust_7="13000.00000" pt_clust_8="13000.00000" pt_clust_9="64.29962"></scales>
<clustering>
<clus scale="   64.300">  1  9  2 -1</clus>
<clus scale="   90.574">  7  8 -1 -1</clus>
<clus scale="   90.955">  5  6 -1 -1</clus>
<clus scale="  222.187">  1  7  2 -1</clus>
<clus scale="   64.300">  1  5  2 -1</clus>
</clustering>
</event>
<event>
 9    1  0.2075077E-005  0.3138181E+03  0.7546771E-02  0.1121241E+00
          2   -1    0    0  502    0  0.00000000000E+00  0.00000000000E+00  0.24397871720E+04  0.24397871720E+04  0.00000000000E+00 0. -1.
         -2   -1    0    0    0  501 -0.00000000000E+00 -0.00000000000E+00 -0.15422115804E+03  0.15422115804E+03  0.00000000000E+00 0.  1.
         23    2    1    2    0    0  0.30322946988E+02 -0.37404289606E+02 -0.43530616526E+02  0.11231659079E+03  0.91659914887E+02 0.  0.
         23    2    1    2    0    0  0.26718293416E+03 -0.26829636880E+02  0.24598522777E+03  0.37646280566E+03  0.95440882470E+02 0.  0.
        -11    1    4    4    0    0  0.18102631142E+03 -0.19640319618E+02  0.10253309044E+03  0.20897201300E+03  0.00000000000E+00 0.  1.
         11    1    4    4    0    0  0.86156622743E+02 -0.71893172620E+01  0.14345213732E+03  0.16749079267E+03  0.00000000000E+00 0. -1.
        -11    1    3    3    0    0 -0.19185031831E+02 -0.37355194513E+02 -0.46579696167E+02  0.62714783731E+02  0.00000000000E+00 0. -1.
         11    1    3    3    0    0  0.49507978819E+02 -0.49095092985E-01  0.30490796405E+01  0.49601807061E+02  0.00000000000E+00 0.  1.
         21    1    1    2  502  501 -0.29750588115E+03  0.64233926486E+02  0.20831114027E+04  0.21052289336E+04  0.00000000000E+00 0. -1.
<scales pt_clust_5="13000.00000" pt_clust_6="13000.00000" pt_clust_7="13000.00000" pt_clust_8="13000.00000" pt_clust_9="298.95291"></scales>
<clustering>
<clus scale="   91.660">  7  8 -1 -1</clus>
<clus scale="   95.441">  5  6 -1 -1</clus>
<clus scale="  103.538">  2  7  1 -1</clus>
<clus scale="  298.953">  1  9  2 -1</clus>
<clus scale="  298.953">  1  5  2 -1</clus>
</clustering>
</event>
<event>
 9    1  0.2075077E-005  0.9839717E+02  0.7546771E-02  0.1285970E+00
          1   -1    0    0  502    0  0.00000000000E+00  0.00000000000E+00  0.57726846813E+03  0.57726846813E+03  0.00000000000E+00 0. -1.
         -1   -1    0    0    0  501 -0.00000000000E+00 -0.00000000000E+00 -0.47058632633E+02  0.47058632633E+02  0.00000000000E+00 0.  1.
         23    2    1    2    0    0  0.10338417850E+02 -0.15782829500E+02  0.24455503968E+02  0.10054417844E+03  0.95682179911E+02 0.  0.
         23    2    1    2    0    0 -0.38694785196E+02  0.30304153005E+02  0.36551740441E+03  0.37997281096E+03  0.91437060574E+02 0.  0.
        -11    1    3    3    0    0  0.43059101910E+02  0.56724018838E+01 -0.14050330783E+02  0.45647280264E+02  0.00000000000E+00 0.  1.
         11    1    3    3    0    0 -0.32720684060E+02 -0.21455231384E+02  0.38505834751E+02  0.54896898172E+02  0.00000000000E+00 0. -1.
        -13    1    4    4    0    0  0.27408011542E+02  0.22456577740E+02  0.95211550254E+02  0.10159102461E+03  0.00000000000E+00 0.  1.
         13    1    4    4    0    0 -0.66102796737E+02  0.78475752646E+01  0.27030585416E+03  0.27838178634E+03  0.00000000000E+00 0. -1.
         21    1    1    2  502  501  0.28356367345E+02 -0.14521323505E+02  0.14023692711E+03  0.14381011137E+03  0.00000000000E+00 0.  1.
<scales pt_clust_5="13000.00000" pt_clust_6="13000.00000" pt_clust_7="13000.00000" pt_clust_8="13000.00000" pt_clust_9="31.85832"></scales>
<clustering>
<clus scale="   31.858">  1  9  2 -1</clus>
<clus scale="   91.437">  7  8 -1 -1</clus>
<clus scale="   94.274">  1  7  2 -1</clus>
<clus scale="   95.682">  5  6 -1 -1</clus>
<clus scale="   31.858">  1  5  2 -1</clus>
</clustering>
</event>
<event>
 9    1  0.2075077E-005  0.2109398E+03  0.7546771E-02  0.1166993E+00
         -3   -1    0    0    0  501 -0.00000000000E+00  0.00000000000E+00  0.55151305667E+03  0.55151305667E+03  0.00000000000E+00 0.  1.
          3   -1    0    0  502    0  0.00000000000E+00 -0.00000000000E+00 -0.12419950509E+03  0.12419950509E+03  0.00000000000E+00 0. -1.
         23    2    1    2    0    0  0.48583049576E+02  0.40572124681E+02  0.17085196628E+03  0.20536369611E+03  0.94749370925E+02 0.  0.
         23    2    1    2    0    0 -0.28544796624E+02 -0.19991365435E+03  0.12598130655E+03  0.26342772656E+03  0.11288313831E+03 0.  0.
        -13    1    4    4    0    0  0.27672424518E+02 -0.22693209304E+02  0.52441068056E+02  0.63488663918E+02  0.00000000000E+00 0. -1.
         13    1    4    4    0    0 -0.56217221142E+02 -0.17722044504E+03  0.73540238492E+02  0.19993906264E+03  0.00000000000E+00 0.  1.
        -13    1    3    3    0    0 -0.13019830391E+01  0.49763061210E+02  0.13318217900E+03  0.14218139901E+03  0.00000000000E+00 0.  1.
         13    1    3    3    0    0  0.49885032615E+02 -0.91909365290E+01  0.37669787282E+02  0.63182297103E+02  0.00000000000E+00 0. -1.
         21    1    1    2  502  501 -0.20038252952E+02  0.15934152966E+03  0.13048027875E+03  0.20692113908E+03  0.00000000000E+00 0. -1.
<scales pt_clust_5="13000.00000" pt_clust_6="13000.00000" pt_clust_7="13000.00000" pt_clust_8="13000.00000" pt_clust_9="178.19375"></scales>
<clustering>
<clus scale="   94.749">  7  8 -1 -1</clus>
<clus scale="  112.883">  5  6 -1 -1</clus>
<clus scale="  113.947">  1  7  2 -1</clus>
<clus scale="  178.194">  1  9  2 -1</clus>
<clus scale="  210.940">  2  5  1 -1</clus>
</clustering>
</event>
<event>
 9    1  0.2075077E-005  0.1082966E+03  0.7546771E-02  0.1264128E+00
          1   -1    0    0  502    0  0.00000000000E+00  0.00000000000E+00  0.40387071753E+03  0.40387071753E+03  0.00000000000E+00 0. -1.
         -1   -1    0    0    0  501 -0.00000000000E+00 -0.00000000000E+00 -0.17680655472E+03  0.17680655472E+03  0.00000000000E+00 0.  1.
         23    2    1    2    0    0 -0.39279476033E+02  0.11777079052E+02 -0.60512811294E+02  0.11778258286E+03  0.92354532463E+02 0.  0.
         23    2    1    2    0    0  0.89460529548E+02  0.55394187828E+02 -0.22923937806E+02  0.14127234327E+03  0.91436675660E+02 0.  0.
        -11    1    3    3    0    0  0.22194477287E+01  0.42195772027E+02 -0.49647940927E+02  0.65194533233E+02  0.00000000000E+00 0.  1.
         11    1    3    3    0    0 -0.41498923762E+02 -0.30418692975E+02 -0.10864870368E+02  0.52588049629E+02  0.00000000000E+00 0. -1.
        -11    1    4    4    0    0  0.16968764233E+02  0.57850692871E+02 -0.31863164149E+02  0.68190196179E+02  0.00000000000E+00 0.  1.
         11    1    4    4    0    0  0.72491765316E+02 -0.24565050437E+01  0.89392263432E+01  0.73082147090E+02  0.00000000000E+00 0. -1.
         21    1    1    2  502  501 -0.50181053515E+02 -0.67171266880E+02  0.31050091191E+03  0.32162234612E+03  0.00000000000E+00 0. -1.
<scales pt_clust_5="13000.00000" pt_clust_6="13000.00000" pt_clust_7="13000.00000" pt_clust_8="13000.00000" pt_clust_9="83.84579"></scales>
<clustering>
<clus scale="   83.846">  1  9  2 -1</clus>
<clus scale="   91.437">  7  8 -1 -1</clus>
<clus scale="   92.355">  5  6 -1 -1</clus>
<clus scale="  107.515">  1  7  2 -1</clus>
<clus scale="   83.846">  1  5  2 -1</clus>
</clustering>
</event>
<event>
 9    1  0.2075077E-005  0.1612233E+03  0.7546771E-02  0.1188309E+00
          2   -1    0    0  502    0  0.00000000000E+00  0.00000000000E+00  0.23078021258E+03  0.23078021258E+03  0.00000000000E+00 0. -1.
         -2   -1    0    0    0  501 -0.00000000000E+00 -0.00000000000E+00 -0.20488399445E+03  0.20488399445E+03  0.00000000000E+00 0.  1.
         23    2    1    2    0    0 -0.11569913153E+03  0.78309018566E+02 -0.74880523960E+02  0.18261584144E+03  0.90679993659E+02 0.  0.
         23    2    1    2    0    0  0.13026777909E+03 -0.16567807690E+02  0.31670284485E+02  0.15924044964E+03  0.84322757080E+02 0.  0.
        -11    1    3    3    0    0 -0.44228235956E+02  0.82346423290E+02 -0.30193306851E+02  0.98227827335E+02  0.00000000000E+00 0.  1.
         11    1    3    3    0    0 -0.71470895578E+02 -0.40374047240E+01 -0.44687217110E+02  0.84388014105E+02  0.00000000000E+00 0. -1.
        -13    1    4    4    0    0  0.11451434976E+03 -0.21809564461E+01  0.55485153550E+02  0.12726702297E+03  0.00000000000E+00 0. -1.
         13    1    4    4    0    0  0.15753429335E+02 -0.14386851244E+02 -0.23814869065E+02  0.31973426671E+02  0.00000000000E+00 0.  1.
         21    1    1    2  502  501 -0.14568647561E+02 -0.61741210876E+02  0.69106457604E+02  0.93807915949E+02  0.00000000000E+00 0. -1.
<scales pt_clust_5="13000.00000" pt_clust_6="13000.00000" pt_clust_7="13000.00000" pt_clust_8="13000.00000" pt_clust_9="63.43676"></scales>
<clustering>
<clus scale="   63.437">  1  9  2 -1</clus>
<clus scale="   84.323">  7  8 -1 -1</clus>
<clus scale="   90.680">  5  6 -1 -1</clus>
<clus scale="  157.735">  1  7  2 -1</clus>
<clus scale="   63.437">  1  5  2 -1</clus>
</clustering>
</event>
<event>
 9    1  0.2075077E-005  0.1599305E+03  0.7546771E-02  0.1189109E+00
         -1   -1    0    0    0  501 -0.00000000000E+00  0.00000000000E+00  0.74282689794E+03  0.74282689794E+03  0.00000000000E+00 0.  1.
          1   -1    0    0  502    0  0.00000000000E+00 -0.00000000000E+00 -0.11431491409E+03  0.11431491409E+03  0.00000000000E+00 0. -1.
         23    2    1    2    0    0  0.12818480386E+03 -0.17583137339E+02  0.56912751646E+03  0.59107380388E+03  0.93389512215E+02 0.  0.
         23    2    1    2    0    0 -0.13438406816E+03 -0.19899304085E+02  0.11403222759E+03  0.19951170125E+03  0.91359235604E+02 0.  0.
        -11    1    3    3    0    0  0.41002306404E+01  0.27291345721E+02  0.94843923328E+02  0.98777523936E+02  0.00000000000E+00 0.  1.
         11    1    3    3    0    0  0.12408457322E+03 -0.44874483061E+02  0.47428359313E+03  0.49229627995E+03  0.00000000000E+00 0. -1.
        -11    1    4    4    0    0 -0.91173672212E+02 -0.41288066378E+02  0.11345715898E+03  0.15129398486E+03  0.00000000000E+00 0.  1.
         11    1    4    4    0    0 -0.43210395946E+02  0.21388762292E+02  0.57506860296E+00  0.48217716393E+02  0.00000000000E+00 0. -1.
         21    1    1    2  502  501  0.61992642964E+01  0.37482441425E+02 -0.54647760192E+02  0.66556306891E+02  0.00000000000E+00 0. -1.
<scales pt_clust_5="13000.00000" pt_clust_6="13000.00000" pt_clust_7="13000.00000" pt_clust_8="13000.00000" pt_clust_9="37.99163"></scales>
<clustering>
<clus scale="   37.992">  2  9  1 -1</clus>
<clus scale="   91.359">  7  8 -1 -1</clus>
<clus scale="   93.390">  5  6 -1 -1</clus>
<clus scale="  158.753">  2  7  1 -1</clus>
<clus scale="   37.992">  2  5  1 -1</clus>
</clustering>
</event>
<event>
 9    1  0.2075077E-005  0.9511116E+02  0.7546771E-02  0.1291283E+00
          1   -1    0    0  502    0  0.00000000000E+00  0.00000000000E+00  0.33010817518E+03  0.33010817518E+03  0.00000000000E+00 0. -1.
         -1   -1    0    0    0  501 -0.00000000000E+00 -0.00000000000E+00 -0.16973338553E+03  0.16973338553E+03  0.00000000000E+00 0.  1.
         23    2    1    2    0    0  0.61423360207E+01 -0.24600042865E+02 -0.13420512589E+03  0.16502919771E+03  0.92632229177E+02 0.  0.
         23    2    1    2    0    0 -0.36690906473E+01 -0.73887798532E+01  0.94337827266E+02  0.13201617063E+03  0.91981451182E+02 0.  0.
        -13    1    4    4    0    0 -0.34072161843E+02 -0.36569777562E+02  0.55771628157E+02  0.74891490511E+02  0.00000000000E+00 0.  1.
         13    1    4    4    0    0  0.30403071196E+02  0.29180997709E+02  0.38566199109E+02  0.57124680123E+02  0.00000000000E+00 0. -1.
        -13    1    3    3    0    0 -0.13967758073E+02 -0.41011890368E+02 -0.13205818111E+03  0.13898358398E+03  0.00000000000E+00 0.  1.
         13    1    3    3    0    0  0.20110094094E+02  0.16411847503E+02 -0.21469447781E+01  0.26045613735E+02  0.00000000000E+00 0. -1.
         21    1    1    2  502  501 -0.24732453734E+01  0.31988822718E+02  0.20024208827E+03  0.20279619236E+03  0.00000000000E+00 0. -1.
<scales pt_clust_5="13000.00000" pt_clust_6="13000.00000" pt_clust_7="13000.00000" pt_clust_8="13000.00000" pt_clust_9="32.08429"></scales>
<clustering>
<clus scale="   32.084">  1  9  2 -1</clus>
<clus scale="   91.981">  5  6 -1 -1</clus>
<clus scale="   92.632">  7  8 -1 -1</clus>
<clus scale="   94.477">  1  5  2 -1</clus>
<clus scale="   32.084">  1  5  2 -1</clus>
</clustering>
</event>
<event>
 9    1  0.2075077E-005  0.1210310E+03  0.7546771E-02  0.1245508E+00
         -3   -1    0    0    0  501 -0.00000000000E+00  0.00000000000E+00  0.20363500967E+03  0.20363500967E+03  0.00000000000E+00 0.  1.
          3   -1    0    0  502    0  0.00000000000E+00 -0.00000000000E+00 -0.93608607129E+02  0.93608607129E+02  0.00000000000E+00 0. -1.
         23    2    1    2    0    0 -0.67187350980E+01 -0.71544897128E+02  0.10195184172E+03  0.16100955170E+03  0.10181396762E+03 0.  0.
         23    2    1    2    0    0  0.17184354338E+02  0.54456296232E+02  0.25442681063E+02  0.10971612651E+03  0.90163785209E+02 0.  0.
        -11    1    3    3    0    0 -0.17348586935E+02  0.22759513008E+02  0.15064523905E+02  0.32340513007E+02  0.00000000000E+00 0. -1.
         11    1    3    3    0    0  0.10629851837E+02 -0.94304410136E+02  0.86887317810E+02  0.12866903869E+03  0.00000000000E+00 0.  1.
        -11    1    4    4    0    0 -0.10012640589E+02 -0.22666561573E+02  0.33369156239E+01  0.25003219613E+02  0.00000000000E+00 0.  1.
         11    1    4    4    0    0  0.27196994927E+02  0.77122857806E+02  0.22105765439E+02  0.84712906896E+02  0.00000000000E+00 0. -1.
         21    1    1    2  502  501 -0.10465619240E+02  0.17088600895E+02 -0.17368120237E+02  0.26517938593E+02  0.00000000000E+00 0. -1.
<scales pt_clust_5="13000.00000" pt_clust_6="13000.00000" pt_clust_7="13000.00000" pt_clust_8="13000.00000" pt_clust_9="20.03870"></scales>
<clustering>
<clus scale="   20.039">  2  9  1 -1</clus>
<clus scale="   90.164">  7  8 -1 -1</clus>
<clus scale="  101.814">  5  6 -1 -1</clus>
<clus scale="  111.409">  2  7  1 -1</clus>
<clus scale="   20.039">  2  5  1 -1</clus>
</clustering>
</event>
<event>
 9    1  0.2075077E-005  0.1221966E+03  0.7546771E-02  0.1239843E+00
          2   -1    0    0  502    0  0.00000000000E+00  0.00000000000E+00  0.30501979484E+03  0.30501979484E+03  0.00000000000E+00 0. -1.
         -2   -1    0    0    0  501 -0.00000000000E+00 -0.00000000000E+00 -0.61462712619E+02  0.61462712619E+02  0.00000000000E+00 0.  1.
         23    2    1    2    0    0 -0.77205730000E+02 -0.75426010536E+01  0.10772542116E+03  0.16048563793E+03  0.90184577623E+02 0.  0.
         23    2    1    2    0    0  0.82149307521E+02  0.35649508006E+02  0.10972005285E+03  0.16731543651E+03  0.89087424202E+02 0.  0.
        -13    1    3    3    0    0 -0.19138048460E+01  0.26137321633E+02  0.59315395133E+02  0.64847037950E+02  0.00000000000E+00 0. -1.
         13    1    3    3    0    0 -0.75291925154E+02 -0.33679922686E+02  0.48410026029E+02  0.95638599978E+02  0.00000000000E+00 0.  1.
        -13    1    4    4    0    0  0.66080726904E+02  0.48250557173E+02  0.11937762441E+03  0.14472662487E+03  0.00000000000E+00 0. -1.
         13    1    4    4    0    0  0.16068580617E+02 -0.12601049167E+02 -0.96575715598E+01  0.22588811646E+02  0.00000000000E+00 0.  1.
         21    1    1    2  502  501 -0.49435775203E+01 -0.28106906952E+02  0.26111608213E+02  0.38681433021E+02  0.00000000000E+00 0. -1.
<scales pt_clust_5="13000.00000" pt_clust_6="13000.00000" pt_clust_7="13000.00000" pt_clust_8="13000.00000" pt_clust_9="28.53835"></scales>
<clustering>
<clus scale="   28.538">  1  9  2 -1</clus>
<clus scale="   89.087">  7  8 -1 -1</clus>
<clus scale="   90.185">  5  6 -1 -1</clus>
<clus scale="  121.389">  1  7  2 -1</clus>
<clus scale="   28.538">  1  5  2 -1</clus>
</clustering>
</event>
<event>
 9    1  0.2075077E-005  0.1239811E+03  0.7546771E-02  0.1237638E+00
          1   -1    0    0  502    0  0.00000000000E+00  0.00000000000E+00  0.36997423450E+03  0.36997423450E+03  0.00000000000E+00 0. -1.
         -1   -1    0    0    0  501 -0.00000000000E+00 -0.00000000000E+00 -0.12568406400E+03  0.12568406400E+03  0.00000000000E+00 0.  1.
         23    2    1    2    0    0  0.64927902574E+02 -0.48476503179E+02 -0.72566840540E+02  0.14322906988E+03  0.93182703430E+02 0.  0.
         23    2    1    2    0    0 -0.59183663648E+02  0.68193962329E+02  0.29969539763E+03  0.32566553212E+03  0.89931000804E+02 0.  0.
        -11    1    3    3    0    0  0.28357551580E+02  0.48223451196E+01  0.16513581087E+02  0.33167817299E+02  0.00000000000E+00 0. -1.
         11    1    3    3    0    0  0.36570350994E+02 -0.53298848298E+02 -0.89080421626E+02  0.11006125258E+03  0.00000000000E+00 0.  1.
        -13    1    4    4    0    0 -0.50175033457E+02  0.15225818342E+02  0.58505718637E+02  0.78563850719E+02  0.00000000000E+00 0.  1.
         13    1    4    4    0    0 -0.90086301909E+01  0.52968143987E+02  0.24118967900E+03  0.24710168140E+03  0.00000000000E+00 0. -1.
         21    1    1    2  502  501 -0.57442389264E+01 -0.19717459150E+02  0.17161613409E+02  0.26763696512E+02  0.00000000000E+00 0. -1.
<scales pt_clust_5="13000.00000" pt_clust_6="13000.00000" pt_clust_7="13000.00000" pt_clust_8="13000.00000" pt_clust_9="20.53715"></scales>
<clustering>
<clus scale="   20.537">  1  9  2 -1</clus>
<clus scale="   89.931">  7  8 -1 -1</clus>
<clus scale="   93.183">  5  6 -1 -1</clus>
<clus scale="  121.556">  1  7  2 -1</clus>
<clus scale="   20.537">  1  5  2 -1</clus>
</clustering>
</event>
<event>
 9    1  0.2075077E-005  0.1578754E+03  0.7546771E-02  0.1191207E+00
          2   -1    0    0  502    0  0.00000000000E+00  0.00000000000E+00  0.25245146261E+03  0.25245146261E+03  0.00000000000E+00 0. -1.
         -2   -1    0    0    0  501 -0.00000000000E+00 -0.00000000000E+00 -0.11988380019E+03  0.11988380019E+03  0.00000000000E+00 0.  1.
         23    2    1    2    0    0 -0.55910468917E+02 -0.12657451088E+03  0.23626687118E+02  0.16797474938E+03  0.92250792668E+02 0.  0.
         23    2    1    2    0    0  0.54826067816E+02  0.10031294754E+03  0.90404612864E+02  0.17219776528E+03  0.91708730149E+02 0.  0.
        -13    1    3    3    0    0 -0.47784427803E+02 -0.62411626178E+02 -0.29823125949E+02  0.84071287988E+02  0.00000000000E+00 0.  1.
         13    1    3    3    0    0 -0.81260411143E+01 -0.64162884700E+02  0.53449813067E+02  0.83903461396E+02  0.00000000000E+00 0. -1.
        -13    1    4    4    0    0  0.78400249985E+02  0.74558154747E+02  0.51186304190E+02  0.11968941212E+03  0.00000000000E+00 0. -1.
         13    1    4    4    0    0 -0.23574182169E+02  0.25754792789E+02  0.39218308674E+02  0.52508353162E+02  0.00000000000E+00 0.  1.
         21    1    1    2  502  501  0.10844011010E+01  0.26261563343E+02  0.18536362437E+02  0.32162748131E+02  0.00000000000E+00 0.  1.
<scales pt_clust_5="13000.00000" pt_clust_6="13000.00000" pt_clust_7="13000.00000" pt_clust_8="13000.00000" pt_clust_9="26.28394"></scales>
<clustering>
<clus scale="   26.284">  1  9  2 -1</clus>
<clus scale="   91.709">  7  8 -1 -1</clus>
<clus scale="   92.251">  5  6 -1 -1</clus>
<clus scale="  157.559">  1  7  2 -1</clus>
<clus scale="   26.284">  1  5  2 -1</clus>
</clustering>
</event>
<event>
 9    1  0.2075077E-005  0.2246674E+03  0.7546771E-02  0.1130663E+00
         -1   -1    0    0    0  501 -0.00000000000E+00  0.00000000000E+00  0.25340672598E+03  0.25340672598E+03  0.00000000000E+00 0.  1.
          1   -1    0    0  502    0  0.00000000000E+00 -0.00000000000E+00 -0.28547543831E+03  0.28547543831E+03  0.00000000000E+00 0. -1.
         23    2    1    2    0    0  0.15006119326E+03 -0.12229703717E+03  0.69747403835E+02  0.22445683730E+03  0.89672986141E+02 0.  0.
         23    2    1    2    0    0 -0.19836278391E+03  0.11864961625E+03 -0.82784875132E+02  0.26238173494E+03  0.92548980544E+02 0.  0.
        -11    1    4    4    0    0 -0.12219042204E+03  0.36869253782E+02 -0.79464984656E+01  0.12787880181E+03  0.00000000000E+00 0.  1.
         11    1    4    4    0    0 -0.76172361867E+02  0.81780362472E+02 -0.74838376667E+02  0.13450293313E+03  0.00000000000E+00 0. -1.
        -13    1    3    3    0    0  0.53971285254E+02 -0.99506637116E+02  0.49973767470E+02  0.12374105179E+03  0.00000000000E+00 0.  1.
         13    1    3    3    0    0  0.96089908010E+02 -0.22790400054E+02  0.19773636365E+02  0.10071578551E+03  0.00000000000E+00 0. -1.
         21    1    1    2  502  501  0.48301590647E+02  0.36474209167E+01 -0.19031241031E+02  0.52043592051E+02  0.00000000000E+00 0.  1.
<scales pt_clust_5="13000.00000" pt_clust_6="13000.00000" pt_clust_7="13000.00000" pt_clust_8="13000.00000" pt_clust_9="48.43911"></scales>
<clustering>
<clus scale="   48.439">  2  9  1 -1</clus>
<clus scale="   89.673">  7  8 -1 -1</clus>
<clus scale="   92.549">  5  6 -1 -1</clus>
<clus scale="  223.498">  1  7  2 -1</clus>
<clus scale="   48.439">  2  5  1 -1</clus>
</clustering>
</event>
<event>
 9    1  0.2075077E-005  0.1316946E+03  0.7546771E-02  0.1238061E+00
          1   -1    0    0  502    0  0.00000000000E+00  0.00000000000E+00  0.25354078109E+03  0.25354078109E+03  0.00000000000E+00 0. -1.
         -1   -1    0    0    0  501 -0.00000000000E+00 -0.00000000000E+00 -0.14220729826E+03  0.14220729826E+03  0.00000000000E+00 0.  1.
         23    2    1    2    0    0 -0.38851916440E+02  0.37425475539E+02  0.18280115681E+02  0.10220269915E+03  0.84859244951E+02 0.  0.
         23    2    1    2    0    0 -0.33606375835E+02  0.72970713563E+02  0.10506109595E+03  0.16094934618E+03  0.91721015134E+02 0.  0.
        -11    1    4    4    0    0  0.13559034773E+02  0.42281727340E+02  0.31239596024E+01  0.44512369230E+02  0.00000000000E+00 0. -1.
         11    1    4    4    0    0 -0.47165410608E+02  0.30688986222E+02  0.10193713635E+03  0.11643697695E+03  0.00000000000E+00 0.  1.
        -13    1    3    3    0    0  0.19081594011E+02  0.16731883538E+02  0.30296794423E+02  0.39521625840E+02  0.00000000000E+00 0.  1.
         13    1    3    3    0    0 -0.57933510452E+02  0.20693592002E+02 -0.12016678742E+02  0.62681073309E+02  0.00000000000E+00 0. -1.
         21    1    1    2  502  501  0.72458292275E+02 -0.11039618910E+03 -0.12007728795E+02  0.13259603402E+03  0.00000000000E+00 0.  1.
<scales pt_clust_5="13000.00000" pt_clust_6="13000.00000" pt_clust_7="13000.00000" pt_clust_8="13000.00000" pt_clust_9="94.50245"></scales>
<clustering>
<clus scale="   84.859">  7  8 -1 -1</clus>
<clus scale="   91.721">  5  6 -1 -1</clus>
<clus scale="  100.555">  2  7  1 -1</clus>
<clus scale="   94.502">  2  9  1 -1</clus>
<clus scale="  131.695">  1  5  2 -1</clus>
</clustering>
</event>
<event>
 9    1  0.2075077E-005  0.1021659E+03  0.7546771E-02  0.1276439E+00
          1   -1    0    0  502    0  0.00000000000E+00  0.00000000000E+00  0.48033235200E+03  0.48033235200E+03  0.00000000000E+00 0. -1.
         -1   -1    0    0    0  501 -0.00000000000E+00 -0.00000000000E+00 -0.11285086717E+03  0.11285086717E+03  0.00000000000E+00 0.  1.
         23    2    1    2    0    0 -0.57120239278E+02 -0.27305266379E+02 -0.50508621410E+02  0.12194734586E+03  0.91168717322E+02 0.  0.
         23    2    1    2    0    0 -0.13785110472E+02  0.28302744592E+01  0.74426166952E+02  0.11957869048E+03  0.92529828518E+02 0.  0.
        -13    1    3    3    0    0  0.19285987265E+02 -0.28490775442E+02 -0.18884900141E+02  0.39246822081E+02  0.00000000000E+00 0. -1.
         13    1    3    3    0    0 -0.76406226543E+02  0.11855090635E+01 -0.31623721268E+02  0.82700523778E+02  0.00000000000E+00 0.  1.
        -13    1    4    4    0    0  0.97504261606E+01 -0.39532807212E+02  0.52362608247E+02  0.66330659568E+02  0.00000000000E+00 0. -1.
         13    1    4    4    0    0 -0.23535536633E+02  0.42363081671E+02  0.22063558705E+02  0.53248030912E+02  0.00000000000E+00 0.  1.
         21    1    1    2  502  501  0.70905349750E+02  0.24474991920E+02  0.34356393929E+03  0.35165718283E+03  0.00000000000E+00 0. -1.
<scales pt_clust_5="13000.00000" pt_clust_6="13000.00000" pt_clust_7="13000.00000" pt_clust_8="13000.00000" pt_clust_9="75.01062"></scales>
<clustering>
<clus scale="   75.011">  1  9  2 -1</clus>
<clus scale="   91.169">  5  6 -1 -1</clus>
<clus scale="   92.530">  7  8 -1 -1</clus>
<clus scale="  100.935">  2  5  1 -1</clus>
<clus scale="   75.011">  1  5  2 -1</clus>
</clustering>
</event>
<event>
 9    1  0.2075077E-005  0.9914923E+02  0.7546771E-02  0.1284136E+00
          2   -1    0    0  502    0  0.00000000000E+00  0.00000000000E+00  0.44126575892E+03  0.44126575892E+03  0.00000000000E+00 0. -1.
         -2   -1    0    0    0  501 -0.00000000000E+00 -0.00000000000E+00 -0.44034211559E+02  0.44034211559E+02  0.00000000000E+00 0.  1.
         23    2    1    2    0    0  0.10523497322E+02  0.88450170188E+01  0.69445073404E+02  0.11876838908E+03  0.95364216048E+02 0.  0.
         23    2    1    2    0    0 -0.28934572125E+02 -0.39877273515E+02  0.13469806354E+03  0.17010067025E+03  0.91450879114E+02 0.  0.
        -11    1    4    4    0    0  0.25739193249E+02 -0.21223409914E+02  0.93147667647E+02  0.98941534179E+02  0.00000000000E+00 0.  1.
         11    1    4    4    0    0 -0.54673765374E+02 -0.18653863600E+02  0.41550395892E+02  0.71159136070E+02  0.00000000000E+00 0. -1.
        -11    1    3    3    0    0  0.17134779795E+02 -0.24408492197E+02 -0.10750085296E+02  0.31700780808E+02  0.00000000000E+00 0.  1.
         11    1    3    3    0    0 -0.66112824736E+01  0.33253509216E+02  0.80195158700E+02  0.87067608271E+02  0.00000000000E+00 0. -1.
         21    1    1    2  502  501  0.18411074803E+02  0.31032256496E+02  0.19308841042E+03  0.19643091115E+03  0.00000000000E+00 0. -1.
<scales pt_clust_5="13000.00000" pt_clust_6="13000.00000" pt_clust_7="13000.00000" pt_clust_8="13000.00000" pt_clust_9="36.08280"></scales>
<clustering>
<clus scale="   36.083">  1  9  2 -1</clus>
<clus scale="   91.451">  5  6 -1 -1</clus>
<clus scale="   95.364">  7  8 -1 -1</clus>
<clus scale="   95.391">  1  5  2 -1</clus>
<clus scale="   36.083">  1  5  2 -1</clus>
</clustering>
</event>
<event>
 9    1  0.2075077E-005  0.1874797E+03  0.7546771E-02  0.1161963E+00
          1   -1    0    0  502    0  0.00000000000E+00  0.00000000000E+00  0.41215666212E+03  0.41215666212E+03  0.00000000000E+00 0. -1.
         -1   -1    0    0    0  501 -0.00000000000E+00 -0.00000000000E+00 -0.26050983449E+03  0.26050983449E+03  0.00000000000E+00 0.  1.
         23    2    1    2    0    0 -0.53697593116E+02  0.15117731130E+03 -0.18080798912E+03  0.25902538375E+03  0.93083884423E+02 0.  0.
         23    2    1    2    0    0  0.47539357382E+02 -0.17075928478E+03  0.19990185799E+03  0.27950810264E+03  0.82129792272E+02 0.  0.
        -13    1    3    3    0    0 -0.30481335447E+02  0.11319987285E+03 -0.62997339846E+02  0.13308639243E+03  0.00000000000E+00 0.  1.
         13    1    3    3    0    0 -0.23216257669E+02  0.37977438453E+02 -0.11781064928E+03  0.12593899132E+03  0.00000000000E+00 0. -1.
        -13    1    4    4    0    0 -0.89319211542E+01 -0.11285073335E+03  0.13205309752E+03  0.17393414788E+03  0.00000000000E+00 0. -1.
         13    1    4    4    0    0  0.56471278536E+02 -0.57908551427E+02  0.67848760464E+02  0.10557395476E+03  0.00000000000E+00 0.  1.
         21    1    1    2  502  501  0.61582357343E+01  0.19581973478E+02  0.13255295877E+03  0.13413301022E+03  0.00000000000E+00 0. -1.
<scales pt_clust_5="13000.00000" pt_clust_6="13000.00000" pt_clust_7="13000.00000" pt_clust_8="13000.00000" pt_clust_9="20.52748"></scales>
<clustering>
<clus scale="   20.527">  1  9  2 -1</clus>
<clus scale="   82.130">  7  8 -1 -1</clus>
<clus scale="   93.084">  5  6 -1 -1</clus>
<clus scale="  182.289">  1  7  2 -1</clus>
<clus scale="   20.527">  1  5  2 -1</clus>
</clustering>
</event>
<event>
 9    1  0.2075077E-005  0.9739273E+02  0.7546771E-02  0.1285951E+00
          1   -1    0    0  502    0  0.00000000000E+00  0.00000000000E+00  0.33805431078E+03  0.33805431078E+03  0.00000000000E+00 0. -1.
         -1   -1    0    0    0  501 -0.00000000000E+00 -0.00000000000E+00 -0.49834916016E+02  0.49834916016E+02  0.00000000000E+00 0.  1.
         23    2    1    2    0    0  0.19048586333E+02 -0.39764203049E+02  0.51788786024E+02  0.11378138507E+03  0.91214498551E+02 0.  0.
         23    2    1    2    0    0  0.67459583996E+01  0.20939882358E+02  0.11481051949E+03  0.14836540777E+03  0.91361108843E+02 0.  0.
        -11    1    4    4    0    0  0.26267975954E+02  0.93740563731E+01 -0.33090516220E+01  0.28086105395E+02  0.00000000000E+00 0.  1.
         11    1    4    4    0    0 -0.19522017555E+02  0.11565825985E+02  0.11811957111E+03  0.12027930237E+03  0.00000000000E+00 0. -1.
        -13    1    3    3    0    0  0.19139949572E+02  0.16343959644E+02 -0.12790679806E+02  0.28232325026E+02  0.00000000000E+00 0.  1.
         13    1    3    3    0    0 -0.91363239321E-01 -0.56108162694E+02  0.64579465830E+02  0.85549060047E+02  0.00000000000E+00 0. -1.
         21    1    1    2  502  501 -0.25794544732E+02  0.18824320692E+02  0.12162008925E+03  0.12574243396E+03  0.00000000000E+00 0. -1.
<scales pt_clust_5="13000.00000" pt_clust_6="13000.00000" pt_clust_7="13000.00000" pt_clust_8="13000.00000" pt_clust_9="31.93295"></scales>
<clustering>
<clus scale="   31.933">  1  9  2 -1</clus>
<clus scale="   91.214">  7  8 -1 -1</clus>
<clus scale="   91.361">  5  6 -1 -1</clus>
<clus scale="   97.255">  2  7  1 -1</clus>
<clus scale="   31.933">  1  5  2 -1</clus>
</clustering>
</event>
<event>
 9    1  0.2075077E-005  0.1002278E+03  0.7546771E-02  0.1280359E+00
         -1   -1    0    0    0  501 -0.00000000000E+00  0.00000000000E+00  0.49251047483E+03  0.49251047483E+03  0.00000000000E+00 0.  1.
          1   -1    0    0  502    0  0.00000000000E+00 -0.00000000000E+00 -0.13992562054E+03  0.13992562054E+03  0.00000000000E+00 0. -1.
         23    2    1    2    0    0  0.25700779218E+02 -0.35136596998E+02  0.43715963101E+03  0.44881919905E+03  0.91842364694E+02 0.  0.
         23    2    1    2    0    0 -0.31123110959E+02 -0.24994077363E+02 -0.33767822021E+02  0.10470906194E+03  0.90721386180E+02 0.  0.
        -11    1    4    4    0    0  0.53601350367E+01  0.22878034446E+02  0.14452144389E+02  0.27586228179E+02  0.00000000000E+00 0. -1.
         11    1    4    4    0    0 -0.36483245995E+02 -0.47872111809E+02 -0.48219966410E+02  0.77122833766E+02  0.00000000000E+00 0.  1.
        -13    1    3    3    0    0  0.13603596554E+02  0.25988576931E+02  0.62847112531E+02  0.69355774984E+02  0.00000000000E+00 0. -1.
         13    1    3    3    0    0  0.12097182664E+02 -0.61125173929E+02  0.37431251848E+03  0.37946342407E+03  0.00000000000E+00 0.  1.
         21    1    1    2  502  501  0.54223317406E+01  0.60130674361E+02 -0.50806954695E+02  0.78907834377E+02  0.00000000000E+00 0. -1.
<scales pt_clust_5="13000.00000" pt_clust_6="13000.00000" pt_clust_7="13000.00000" pt_clust_8="13000.00000" pt_clust_9="60.37466"></scales>
<clustering>
<clus scale="   60.375">  2  9  1 -1</clus>
<clus scale="   90.721">  5  6 -1 -1</clus>
<clus scale="   91.842">  7  8 -1 -1</clus>
<clus scale="   99.202">  2  5  1 -1</clus>
<clus scale="   60.375">  2  5  1 -1</clus>
</clustering>
</event>
<event>
 9    1  0.2075077E-005  0.1125578E+03  0.7546771E-02  0.1256444E+00
         -2   -1    0    0    0  501 -0.00000000000E+00  0.00000000000E+00  0.75008468957E+03  0.75008468957E+03  0.00000000000E+00 0.  1.
          2   -1    0    0  502    0  0.00000000000E+00 -0.00000000000E+00 -0.24360396308E+02  0.24360396308E+02  0.00000000000E+00 0. -1.
         23    2    1    2    0    0  0.54590305589E+02 -0.18160446885E+02  0.38145454637E+03  0.39614261419E+03  0.90063847008E+02 0.  0.
         23    2    1    2    0    0 -0.82632103233E+02 -0.59128709790E-01  0.26653268521E+03  0.29367773470E+03  0.91536176427E+02 0.  0.
        -11    1    4    4    0    0 -0.62212319970E+02 -0.18692835164E+02  0.25597076308E+03  0.26408488482E+03  0.00000000000E+00 0.  1.
         11    1    4    4    0    0 -0.20419783263E+02  0.18633706454E+02  0.10561922129E+02  0.29592849876E+02  0.00000000000E+00 0. -1.
        -11    1    3    3    0    0  0.53419757889E+02 -0.50637235750E+02  0.28543407240E+03  0.29477179286E+03  0.00000000000E+00 0.  1.
         11    1    3    3    0    0  0.11705477001E+01  0.32476788865E+02  0.96020473969E+02  0.10137082134E+03  0.00000000000E+00 0. -1.
         21    1    1    2  502  501  0.28041797644E+02  0.18219575595E+02  0.77737061686E+02  0.84624736984E+02  0.00000000000E+00 0. -1.
<scales pt_clust_5="13000.00000" pt_clust_6="13000.00000" pt_clust_7="13000.00000" pt_clust_8="13000.00000" pt_clust_9="33.44092"></scales>
<clustering>
<clus scale="   33.441">  2  9  1 -1</clus>
<clus scale="   90.064">  7  8 -1 -1</clus>
<clus scale="   91.536">  5  6 -1 -1</clus>
<clus scale="  111.364">  1  7  2 -1</clus>
<clus scale="   33.441">  2  5  1 -1</clus>
</clustering>
</event>
<event>
 9    1  0.2075077E-005  0.1043281E+03  0.7546771E-02  0.1272397E+00
          2   -1    0    0  502    0  0.00000000000E+00  0.00000000000E+00  0.40200401643E+03  0.40200401643E+03  0.00000000000E+00 0. -1.
         -2   -1    0    0    0  501 -0.00000000000E+00 -0.00000000000E+00 -0.53053086150E+02  0.53053086150E+02  0.00000000000E+00 0.  1.
         23    2    1    2    0    0  0.50895647237E+02  0.31050127835E+01  0.47669280952E+02  0.11589757104E+03  0.92519612059E+02 0.  0.
         23    2    1    2    0    0 -0.23338643209E+02 -0.34896289722E+02  0.15077367077E+03  0.18288181281E+03  0.94607686557E+02 0.  0.
        -11    1    4    4    0    0 -0.51348706696E+02 -0.49053305986E+02  0.91626480373E+02  0.11592380434E+03  0.00000000000E+00 0. -1.
         11    1    4    4    0    0  0.28010063487E+02  0.14157016265E+02  0.59147190392E+02  0.66958008463E+02  0.00000000000E+00 0.  1.
        -13    1    3    3    0    0  0.56722436979E+02  0.36798704057E+02  0.45775128193E+02  0.81651343150E+02  0.00000000000E+00 0.  1.
         13    1    3    3    0    0 -0.58267897424E+01 -0.33693691273E+02  0.18941527583E+01  0.34246227894E+02  0.00000000000E+00 0. -1.
         21    1    1    2  502  501 -0.27557004028E+02  0.31791276938E+02  0.15050797857E+03  0.15627771873E+03  0.00000000000E+00 0. -1.
<scales pt_clust_5="13000.00000" pt_clust_6="13000.00000" pt_clust_7="13000.00000" pt_clust_8="13000.00000" pt_clust_9="42.07224"></scales>
<clustering>
<clus scale="   42.072">  1  9  2 -1</clus>
<clus scale="   92.520">  7  8 -1 -1</clus>
<clus scale="   94.608">  5  6 -1 -1</clus>
<clus scale="  102.438">  2  7  1 -1</clus>
<clus scale="   42.072">  1  5  2 -1</clus>
</clustering>
</event>
<event>
 9    1  0.2075077E-005  0.1128385E+03  0.7546771E-02  0.1257016E+00
         -1   -1    0    0    0  501 -0.00000000000E+00  0.00000000000E+00  0.25545476246E+03  0.25545476246E+03  0.00000000000E+00 0.  1.
          1   -1    0    0  502    0  0.00000000000E+00 -0.00000000000E+00 -0.23856423085E+03  0.23856423085E+03  0.00000000000E+00 0. -1.
         23    2    1    2    0    0 -0.17048012806E+01  0.64131037316E+02  0.21706275480E+03  0.24406454876E+03  0.91299332660E+02 0.  0.
         23    2    1    2    0    0 -0.16780149203E+02 -0.22082267833E+02 -0.10706666476E+03  0.14613519094E+03  0.95514519152E+02 0.  0.
        -11    1    3    3    0    0  0.66494814452E+01 -0.19681243417E+02  0.16486484559E+02  0.26521144754E+02  0.00000000000E+00 0. -1.
         11    1    3    3    0    0 -0.83542827258E+01  0.83812280734E+02  0.20057627024E+03  0.21754340401E+03  0.00000000000E+00 0.  1.
        -11    1    4    4    0    0 -0.26884782054E+02  0.31744971048E+02 -0.28746647644E+02  0.50565842657E+02  0.00000000000E+00 0.  1.
         11    1    4    4    0    0  0.10104632850E+02 -0.53827238880E+02 -0.78320017113E+02  0.95569348282E+02  0.00000000000E+00 0. -1.
         21    1    1    2  502  501  0.18484950484E+02 -0.42048769484E+02 -0.93105558429E+02  0.10381925361E+03  0.00000000000E+00 0. -1.
<scales pt_clust_5="13000.00000" pt_clust_6="13000.00000" pt_clust_7="13000.00000" pt_clust_8="13000.00000" pt_clust_9="45.93248"></scales>
<clustering>
<clus scale="   45.932">  2  9  1 -1</clus>
<clus scale="   91.299">  5  6 -1 -1</clus>
<clus scale="   95.515">  7  8 -1 -1</clus>
<clus scale="  109.293">  1  5  2 -1</clus>
<clus scale="   45.932">  2  5  1 -1</clus>
</clustering>
</event>
<event>
 9    1  0.2075077E-005  0.1066311E+03  0.7546771E-02  0.1267441E+00
         -1   -1    0    0    0  501 -0.00000000000E+00  0.00000000000E+00  0.45749263073E+02  0.45749263073E+02  0.00000000000E+00 0.  1.
          1   -1    0    0  502    0  0.00000000000E+00 -0.00000000000E+00 -0.46570974631E+03  0.46570974631E+03  0.00000000000E+00 0. -1.
         23    2    1    2    0    0  0.65333247259E+02  0.33313416625E+01 -0.95944973349E+02  0.14820055930E+03  0.92078427615E+02 0.  0.
         23    2    1    2    0    0 -0.35384680769E+02  0.32836830863E+02 -0.14252083648E+03  0.17578746615E+03  0.90877452274E+02 0.  0.
        -11    1    4    4    0    0 -0.11834587508E+02  0.62361148434E+02 -0.10401253751E+03  0.12185063912E+03  0.00000000000E+00 0.  1.
         11    1    4    4    0    0 -0.23550093261E+02 -0.29524317570E+02 -0.38508298967E+02  0.53936827029E+02  0.00000000000E+00 0. -1.
        -13    1    3    3    0    0  0.19455290109E+02  0.45613912337E+02 -0.32950675420E+02  0.59538931151E+02  0.00000000000E+00 0.  1.
         13    1    3    3    0    0  0.45877957150E+02 -0.42282570674E+02 -0.62994297929E+02  0.88661628152E+02  0.00000000000E+00 0. -1.
         21    1    1    2  502  501 -0.29948566491E+02 -0.36168172526E+02 -0.18149467341E+03  0.18747098393E+03  0.00000000000E+00 0.  1.
<scales pt_clust_5="13000.00000" pt_clust_6="13000.00000" pt_clust_7="13000.00000" pt_clust_8="13000.00000" pt_clust_9="46.95800"></scales>
<clustering>
<clus scale="   46.958">  2  9  1 -1</clus>
<clus scale="   90.877">  5  6 -1 -1</clus>
<clus scale="   92.078">  7  8 -1 -1</clus>
<clus scale="  105.596">  2  5  1 -1</clus>
<clus scale="   46.958">  2  5  1 -1</clus>
</clustering>
</event>
<event>
 9    1  0.2075077E-005  0.9621275E+02  0.7546771E-02  0.1289009E+00
          1   -1    0    0  502    0  0.00000000000E+00  0.00000000000E+00  0.25448094474E+02  0.25448094474E+02  0.00000000000E+00 0. -1.
         -1   -1    0    0    0  501 -0.00000000000E+00 -0.00000000000E+00 -0.54210867560E+03  0.54210867560E+03  0.00000000000E+00 0.  1.
         23    2    1    2    0    0  0.26162888709E+02  0.20509364504E+02 -0.31412924690E+03  0.32872613339E+03  0.90986571757E+02 0.  0.
         23    2    1    2    0    0  0.26692474353E+01 -0.28176206323E+02 -0.16307005120E+03  0.18936079338E+03  0.92003505294E+02 0.  0.
        -11    1    4    4    0    0 -0.40402721748E+02 -0.33795756101E+02 -0.84131844426E+02  0.99260769197E+02  0.00000000000E+00 0.  1.
         11    1    4    4    0    0  0.43071969183E+02  0.56195497783E+01 -0.78938206770E+02  0.90100024179E+02  0.00000000000E+00 0. -1.
        -13    1    3    3    0    0 -0.69087571862E+01 -0.32920708087E+02 -0.95784935720E+02  0.10151974122E+03  0.00000000000E+00 0.  1.
         13    1    3    3    0    0  0.33071645895E+02  0.53430072591E+02 -0.21834431118E+03  0.22720639217E+03  0.00000000000E+00 0. -1.
         21    1    1    2  502  501 -0.28832136144E+02  0.76668418187E+01 -0.39461283034E+02  0.49469843307E+02  0.00000000000E+00 0.  1.
<scales pt_clust_5="13000.00000" pt_clust_6="13000.00000" pt_clust_7="13000.00000" pt_clust_8="13000.00000" pt_clust_9="29.83408"></scales>
<clustering>
<clus scale="   29.834">  1  9  2 -1</clus>
<clus scale="   90.987">  7  8 -1 -1</clus>
<clus scale="   92.004">  5  6 -1 -1</clus>
<clus scale="   95.241">  2  7  1 -1</clus>
<clus scale="   29.834">  1  5  2 -1</clus>
</clustering>
</event>
<event>
 9    1  0.2075077E-005  0.9594467E+02  0.7546771E-02  0.1291089E+00
          3   -1    0    0  502    0  0.00000000000E+00  0.00000000000E+00  0.21230219071E+03  0.21230219071E+03  0.00000000000E+00 0. -1.
         -3   -1    0    0    0  501 -0.00000000000E+00 -0.00000000000E+00 -0.83555193068E+02  0.83555193068E+02  0.00000000000E+00 0.  1.
         23    2    1    2    0    0  0.15731919875E+02  0.27541639839E+02 -0.21382815267E+02  0.98466477019E+02  0.90732502885E+02 0.  0.
         23    2    1    2    0    0  0.12737662930E+02 -0.37290549140E+02  0.95538511358E+02  0.13505497344E+03  0.86944842206E+02 0.  0.
        -11    1    4    4    0    0  0.59187295843E+01 -0.64732020809E+02  0.78972625508E+02  0.10228363240E+03  0.00000000000E+00 0. -1.
         11    1    4    4    0    0  0.68189333455E+01  0.27441471669E+02  0.16565885850E+02  0.32771341037E+02  0.00000000000E+00 0.  1.
        -13    1    3    3    0    0  0.53021709628E+02  0.25214478543E+02 -0.14494323146E+02  0.60474432809E+02  0.00000000000E+00 0.  1.
         13    1    3    3    0    0 -0.37289789754E+02  0.23271612960E+01 -0.68884921213E+01  0.37992044210E+02  0.00000000000E+00 0. -1.
         21    1    1    2  502  501 -0.28469582805E+02  0.97489093008E+01  0.54591301549E+02  0.62335933317E+02  0.00000000000E+00 0. -1.
<scales pt_clust_5="13000.00000" pt_clust_6="13000.00000" pt_clust_7="13000.00000" pt_clust_8="13000.00000" pt_clust_9="30.09250"></scales>
<clustering>
<clus scale="   30.092">  1  9  2 -1</clus>
<clus scale="   86.945">  5  6 -1 -1</clus>
<clus scale="   90.733">  7  8 -1 -1</clus>
<clus scale="   92.371">  1  5  2 -1</clus>
<clus scale="   30.092">  1  5  2 -1</clus>
</clustering>
</event>
<event>
 9    1  0.2075077E-005  0.1082453E+03  0.7546771E-02  0.1264360E+00
         -1   -1    0    0    0  501 -0.00000000000E+00  0.00000000000E+00  0.51127171001E+03  0.51127171001E+03  0.00000000000E+00 0.  1.
          1   -1    0    0  502    0  0.00000000000E+00 -0.00000000000E+00 -0.59390765496E+02  0.59390765496E+02  0.00000000000E+00 0. -1.
         23    2    1    2    0    0 -0.52032569307E+02  0.11627743858E+02  0.36931120662E+03  0.38421785674E+03  0.91596950876E+02 0.  0.
         23    2    1    2    0    0  0.68720836224E+02 -0.26169676876E+02  0.10361752282E+03  0.15589997409E+03  0.90337177100E+02 0.  0.
        -13    1    3    3    0    0 -0.46291861990E+02 -0.24293240612E+02  0.31190890400E+03  0.31625980209E+03  0.00000000000E+00 0. -1.
         13    1    3    3    0    0 -0.57407073166E+01  0.35920984470E+02  0.57402302622E+02  0.67958054652E+02  0.00000000000E+00 0.  1.
        -13    1    4    4    0    0  0.90121046137E+02 -0.17752407382E+02  0.92498225496E+02  0.13035671308E+03  0.00000000000E+00 0.  1.
         13    1    4    4    0    0 -0.21400209913E+02 -0.84172694937E+01  0.11119297322E+02  0.25543261009E+02  0.00000000000E+00 0. -1.
         21    1    1    2  502  501 -0.16688266918E+02  0.14541933018E+02 -0.21047784919E+02  0.30544644679E+02  0.00000000000E+00 0. -1.
<scales pt_clust_5="13000.00000" pt_clust_6="13000.00000" pt_clust_7="13000.00000" pt_clust_8="13000.00000" pt_clust_9="22.13518"></scales>
<clustering>
<clus scale="   22.135">  2  9  1 -1</clus>
<clus scale="   90.337">  7  8 -1 -1</clus>
<clus scale="   91.597">  5  6 -1 -1</clus>
<clus scale="  107.181">  2  7  1 -1</clus>
<clus scale="   22.135">  2  5  1 -1</clus>
</clustering>
</event>
<event>
 9    1  0.2075077E-005  0.1105756E+03  0.7546771E-02  0.1261203E+00
         -1   -1    0    0    0  501 -0.00000000000E+00  0.00000000000E+00  0.19571459101E+02  0.19571459101E+02  0.00000000000E+00 0.  1.
          1   -1    0    0  502    0  0.00000000000E+00 -0.00000000000E+00 -0.10899351597E+04  0.10899351597E+04  0.00000000000E+00 0. -1.
         23    2    1    2    0    0  0.89603591587E+02 -0.17552274319E+02 -0.31444736783E+03  0.33908123357E+03  0.88102496361E+02 0.  0.
         23    2    1    2    0    0 -0.33202088361E+02  0.51894831969E+00 -0.44966590169E+03  0.45855908327E+03  0.83512644141E+02 0.  0.
        -13    1    3    3    0    0  0.99025158482E+02  0.68794409001E+01 -0.22598915576E+03  0.24682870020E+03  0.00000000000E+00 0.  1.
         13    1    3    3    0    0 -0.94215668944E+01 -0.24431715219E+02 -0.88458212064E+02  0.92252533368E+02  0.00000000000E+00 0. -1.
        -13    1    4    4    0    0 -0.39996614809E+02  0.35819019139E+02 -0.28528303744E+03  0.29029147900E+03  0.00000000000E+00 0. -1.
         13    1    4    4    0    0  0.67945264472E+01 -0.35300070820E+02 -0.16438286425E+03  0.16826760428E+03  0.00000000000E+00 0.  1.
         21    1    1    2  502  501 -0.56401503226E+02  0.17033325999E+02 -0.30625043110E+03  0.31186630198E+03  0.00000000000E+00 0. -1.
<scales pt_clust_5="13000.00000" pt_clust_6="13000.00000" pt_clust_7="13000.00000" pt_clust_8="13000.00000" pt_clust_9="58.91743"></scales>
<clustering>
<clus scale="   58.917">  2  9  1 -1</clus>
<clus scale="   83.513">  7  8 -1 -1</clus>
<clus scale="   88.102">  5  6 -1 -1</clus>
<clus scale="  106.955">  2  7  1 -1</clus>
<clus scale="   58.917">  2  5  1 -1</clus>
</clustering>
</event>
<event>
 9    1  0.2075077E-005  0.9217471E+02  0.7546771E-02  0.1298135E+00
          1   -1    0    0  502    0  0.00000000000E+00  0.00000000000E+00  0.42563578168E+02  0.42563578168E+02  0.00000000000E+00 0. -1.
         -1   -1    0    0    0  501 -0.00000000000E+00 -0.00000000000E+00 -0.31951132348E+03  0.31951132348E+03  0.00000000000E+00 0.  1.
         23    2    1    2    0    0  0.66206866467E+01  0.28485600265E+02 -0.19327200366E+03  0.21489981446E+03  0.89289416748E+02 0.  0.
         23    2    1    2    0    0  0.32197550362E+01 -0.26289867131E+00 -0.70789310466E+02  0.11462642690E+03  0.90098031774E+02 0.  0.
        -13    1    3    3    0    0  0.21414760462E+02 -0.26617031378E+02 -0.98763569628E+02  0.10450502864E+03  0.00000000000E+00 0.  1.
         13    1    3    3    0    0 -0.14794073815E+02  0.55102631643E+02 -0.94508434028E+02  0.11039478582E+03  0.00000000000E+00 0. -1.
        -13    1    4    4    0    0  0.24963661010E+02  0.19316960352E+02  0.62854458063E+01  0.32184408605E+02  0.00000000000E+00 0. -1.
         13    1    4    4    0    0 -0.21743905974E+02 -0.19579859023E+02 -0.77074756272E+02  0.82442018296E+02  0.00000000000E+00 0.  1.
         21    1    1    2  502  501 -0.98404416830E+01 -0.28222701594E+02 -0.12886431190E+02  0.32548660289E+02  0.00000000000E+00 0.  1.
<scales pt_clust_5="13000.00000" pt_clust_6="13000.00000" pt_clust_7="13000.00000" pt_clust_8="13000.00000" pt_clust_9="29.88905"></scales>
<clustering>
<clus scale="   29.889">  1  9  2 -1</clus>
<clus scale="   89.289">  5  6 -1 -1</clus>
<clus scale="   90.098">  7  8 -1 -1</clus>
<clus scale="   91.384">  2  5  1 -1</clus>
<clus scale="   29.889">  1  5  2 -1</clus>
</clustering>
</event>
<event>
 9    1  0.2075077E-005  0.1029827E+03  0.7546771E-02  0.1277126E+00
         -1   -1    0    0    0  501 -0.00000000000E+00  0.00000000000E+00  0.23651024876E+03  0.23651024876E+03  0.00000000000E+00 0.  1.
          1   -1    0    0  502    0  0.00000000000E+00 -0.00000000000E+00 -0.34824281127E+03  0.34824281127E+03  0.00000000000E+00 0. -1.
         23    2    1    2    0    0 -0.41458693371E+02 -0.50989634022E+00  0.20925399237E+03  0.23116539624E+03  0.89056857391E+02 0.  0.
         23    2    1    2    0    0  0.53648647423E+01 -0.13304966095E+01 -0.14265195232E+03  0.17162782763E+03  0.95267936473E+02 0.  0.
        -13    1    4    4    0    0 -0.18494827681E+02 -0.95279165952E+01  0.53575684517E+01  0.21483560815E+02  0.00000000000E+00 0.  1.
         13    1    4    4    0    0  0.23859692423E+02  0.81974199858E+01 -0.14800952077E+03  0.15014426681E+03  0.00000000000E+00 0. -1.
        -13    1    3    3    0    0 -0.68377474040E+02  0.10445614528E+02  0.14667394947E+03  0.16216607929E+03  0.00000000000E+00 0.  1.
         13    1    3    3    0    0  0.26918780669E+02 -0.10955510868E+02  0.62580042897E+02  0.68999316953E+02  0.00000000000E+00 0. -1.
         21    1    1    2  502  501  0.36093828628E+02  0.18403929497E+01 -0.17833460255E+03  0.18195983617E+03  0.00000000000E+00 0. -1.
<scales pt_clust_5="13000.00000" pt_clust_6="13000.00000" pt_clust_7="13000.00000" pt_clust_8="13000.00000" pt_clust_9="36.14072"></scales>
<clustering>
<clus scale="   36.141">  2  9  1 -1</clus>
<clus scale="   89.057">  7  8 -1 -1</clus>
<clus scale="   95.268">  5  6 -1 -1</clus>
<clus scale="   97.265">  1  7  2 -1</clus>
<clus scale="   36.141">  2  5  1 -1</clus>
</clustering>
</event>
<event>
 9    1  0.2075077E-005  0.2850919E+03  0.7546771E-02  0.1094104E+00
          1   -1    0    0  502    0  0.00000000000E+00  0.00000000000E+00  0.81351182838E+03  0.81351182838E+03  0.00000000000E+00 0. -1.
         -1   -1    0    0    0  501 -0.00000000000E+00 -0.00000000000E+00 -0.22710955281E+03  0.22710955281E+03  0.00000000000E+00 0.  1.
         23    2    1    2    0    0 -0.62805647747E+02  0.26583562981E+03 -0.77513015752E+02  0.29831119944E+03  0.91477716607E+02 0.  0.
         23    2    1    2    0    0 -0.10355607485E+02 -0.20982206538E+03  0.49656555376E+03  0.55127085772E+03  0.11484629582E+03 0.  0.
        -11    1    3    3    0    0  0.15148160257E+02  0.48234369914E+02  0.92957730717E+01  0.51404597043E+02  0.00000000000E+00 0. -1.
         11    1    3    3    0    0 -0.77953808004E+02  0.21760125989E+03 -0.86808788824E+02  0.24690660240E+03  0.00000000000E+00 0.  1.
        -13    1    4    4    0    0 -0.22213409555E+02 -0.17259191293E+03  0.47663686265E+03  0.50740920647E+03  0.00000000000E+00 0. -1.
         13    1    4    4    0    0  0.11857802070E+02 -0.37230152449E+02  0.19928691116E+02  0.43861651256E+02  0.00000000000E+00 0.  1.
         21    1    1    2  502  501  0.73161255232E+02 -0.56013564428E+02  0.16734973756E+03  0.19103932404E+03  0.00000000000E+00 0. -1.
<scales pt_clust_5="13000.00000" pt_clust_6="13000.00000" pt_clust_7="13000.00000" pt_clust_8="13000.00000" pt_clust_9="92.14168"></scales>
<clustering>
<clus scale="   91.478">  5  6 -1 -1</clus>
<clus scale="   92.142">  1  9  2 -1</clus>
<clus scale="  114.846">  7  8 -1 -1</clus>
<clus scale="  276.507">  2  5  1 -1</clus>
<clus scale="   92.142">  1  5  2 -1</clus>
</clustering>
</event>
<event>
 9    1  0.2075077E-005  0.1849345E+03  0.7546771E-02  0.1190214E+00
          2   -1    0    0  502    0  0.00000000000E+00  0.00000000000E+00  0.13267407754E+04  0.13267407754E+04  0.00000000000E+00 0. -1.
         -2   -1    0    0    0  501 -0.00000000000E+00 -0.00000000000E+00 -0.75941101811E+02  0.75941101811E+02  0.00000000000E+00 0.  1.
         23    2    1    2    0    0 -0.24530961911E+02 -0.25544115419E+02  0.11226939539E+00  0.10019634713E+03  0.93728466587E+02 0.  0.
         23    2    1    2    0    0  0.14367438898E+03  0.96991819330E+02  0.96513781501E+03  0.98493474912E+03  0.92497107984E+02 0.  0.
        -11    1    3    3    0    0 -0.55063940031E+02 -0.97833487776E+01 -0.21146750863E+02  0.59790772509E+02  0.00000000000E+00 0.  1.
         11    1    3    3    0    0  0.30532978121E+02 -0.15760766641E+02  0.21259020259E+02  0.40405574620E+02  0.00000000000E+00 0. -1.
        -13    1    4    4    0    0  0.10141688428E+03  0.12741330054E+02  0.50808831913E+03  0.51826775507E+03  0.00000000000E+00 0. -1.
         13    1    4    4    0    0  0.42257504699E+02  0.84250489276E+02  0.45704949589E+03  0.46666699405E+03  0.00000000000E+00 0.  1.
         21    1    1    2  502  501 -0.11914342707E+03 -0.71447703911E+02  0.28554958915E+03  0.31755078093E+03  0.00000000000E+00 0.  1.
<scales pt_clust_5="13000.00000" pt_clust_6="13000.00000" pt_clust_7="13000.00000" pt_clust_8="13000.00000" pt_clust_9="160.14078"></scales>
<clustering>
<clus scale="   92.497">  7  8 -1 -1</clus>
<clus scale="   93.728">  5  6 -1 -1</clus>
<clus scale="  100.196">  2  5  1 -1</clus>
<clus scale="  160.141">  2  9  1 -1</clus>
<clus scale="  184.935">  1  5  2 -1</clus>
</clustering>
</event>
<event>
 9    1  0.2075077E-005  0.1059584E+03  0.7546771E-02  0.1277446E+00
          1   -1    0    0  502    0  0.00000000000E+00  0.00000000000E+00  0.38034253030E+03  0.38034253030E+03  0.00000000000E+00 0. -1.
         -1   -1    0    0    0  501 -0.00000000000E+00 -0.00000000000E+00 -0.18928977518E+03  0.18928977518E+03  0.00000000000E+00 0.  1.
         23    2    1    2    0    0  0.23728751957E+02 -0.51540685102E+02 -0.16340909423E+03  0.19521250883E+03  0.90475939541E+02 0.  0.
         23    2    1    2    0    0 -0.91616742929E+01  0.21643185189E+02  0.31181168322E+03  0.32033563147E+03  0.69541550577E+02 0.  0.
        -11    1    4    4    0    0 -0.18530241755E+02 -0.21784263811E+02  0.10657547166E+03  0.11034607002E+03  0.00000000000E+00 0.  1.
         11    1    4    4    0    0  0.93685674625E+01  0.43427449000E+02  0.20523621156E+03  0.20998956145E+03  0.00000000000E+00 0. -1.
        -13    1    3    3    0    0 -0.31211717622E+02 -0.84915401117E-02 -0.54213765246E+02  0.62556404398E+02  0.00000000000E+00 0.  1.
         13    1    3    3    0    0  0.54940469579E+02 -0.51532193562E+02 -0.10919532898E+03  0.13265610443E+03  0.00000000000E+00 0. -1.
         21    1    1    2  502  501 -0.14567077664E+02  0.29897499913E+02  0.42650166136E+02  0.54084165188E+02  0.00000000000E+00 0. -1.
<scales pt_clust_5="13000.00000" pt_clust_6="13000.00000" pt_clust_7="13000.00000" pt_clust_8="13000.00000" pt_clust_9="33.25748"></scales>
<clustering>
<clus scale="   33.257">  1  9  2 -1</clus>
<clus scale="   69.542">  5  6 -1 -1</clus>
<clus scale="   88.754">  1  5  2 -1</clus>
<clus scale="   90.476">  7  8 -1 -1</clus>
<clus scale="   33.257">  1  5  2 -1</clus>
</clustering>
</event>
<event>
 9    1  0.2075077E-005  0.1835009E+03  0.7546771E-02  0.1164730E+00
         -1   -1    0    0    0  501 -0.00000000000E+00  0.00000000000E+00  0.21616048250E+03  0.21616048250E+03  0.00000000000E+00 0.  1.
          1   -1    0    0  502    0  0.00000000000E+00 -0.00000000000E+00 -0.30664095369E+03  0.30664095369E+03  0.00000000000E+00 0. -1.
         23    2    1    2    0    0  0.13299663994E+03 -0.63901539938E+02  0.85339072617E+02  0.19383488490E+03  0.92291344376E+02 0.  0.
         23    2    1    2    0    0 -0.16618444985E+03  0.11190747340E+03 -0.13635592016E+03  0.25851530598E+03  0.89981511919E+02 0.  0.
        -11    1    4    4    0    0 -0.11001465147E+03  0.11872411371E+03 -0.11246435528E+03  0.19709609312E+03  0.00000000000E+00 0.  1.
         11    1    4    4    0    0 -0.56169798381E+02 -0.68166403168E+01 -0.23891564881E+02  0.61419212856E+02  0.00000000000E+00 0. -1.
        -11    1    3    3    0    0  0.57377381831E+02 -0.50040387098E+02 -0.36697742009E+01  0.76221201312E+02  0.00000000000E+00 0. -1.
         11    1    3    3    0    0  0.75619258110E+02 -0.13861152840E+02  0.89008846818E+02  0.11761368359E+03  0.00000000000E+00 0.  1.
         21    1    1    2  502  501  0.33187809911E+02 -0.48005933459E+02 -0.39463623648E+02  0.70451245308E+02  0.00000000000E+00 0. -1.
<scales pt_clust_5="13000.00000" pt_clust_6="13000.00000" pt_clust_7="13000.00000" pt_clust_8="13000.00000" pt_clust_9="58.36095"></scales>
<clustering>
<clus scale="   58.361">  2  9  1 -1</clus>
<clus scale="   89.982">  5  6 -1 -1</clus>
<clus scale="   92.291">  7  8 -1 -1</clus>
<clus scale="  182.350">  2  5  1 -1</clus>
<clus scale="   58.361">  2  5  1 -1</clus>
</clustering>
</event>
<event>
 9    1  0.2075077E-005  0.1095743E+03  0.7546771E-02  0.1266586E+00
         -2   -1    0    0    0  501 -0.00000000000E+00  0.00000000000E+00  0.64979101327E+02  0.64979101327E+02  0.00000000000E+00 0.  1.
          2   -1    0    0  502    0  0.00000000000E+00 -0.00000000000E+00 -0.31287943560E+03  0.31287943560E+03  0.00000000000E+00 0. -1.
         23    2    1    2    0    0 -0.11678554029E+01  0.34151877321E+02 -0.22351372746E+02  0.10998633511E+03  0.10212588034E+03 0.  0.
         23    2    1    2    0    0  0.32616329897E+02 -0.49719479692E+02 -0.15582735589E+03  0.18981799575E+03  0.90624803630E+02 0.  0.
        -13    1    4    4    0    0  0.41624846535E+01 -0.34137777324E+02 -0.40684292749E+01  0.34630423559E+02  0.00000000000E+00 0.  1.
         13    1    4    4    0    0  0.28453845243E+02 -0.15581702369E+02 -0.15175892661E+03  0.15518757220E+03  0.00000000000E+00 0. -1.
        -13    1    3    3    0    0 -0.29910410902E+02 -0.14957097138E+02 -0.38345322330E+02  0.50879378727E+02  0.00000000000E+00 0. -1.
         13    1    3    3    0    0  0.28742555499E+02  0.49108974459E+02  0.15993949584E+02  0.59106956379E+02  0.00000000000E+00 0.  1.
         21    1    1    2  502  501 -0.31448474494E+02  0.15567602371E+02 -0.69721605637E+02  0.78054206064E+02  0.00000000000E+00 0.  1.
<scales pt_clust_5="13000.00000" pt_clust_6="13000.00000" pt_clust_7="13000.00000" pt_clust_8="13000.00000" pt_clust_9="35.09069"></scales>
<clustering>
<clus scale="   35.091">  2  9  1 -1</clus>
<clus scale="   90.625">  5  6 -1 -1</clus>
<clus scale="   98.943">  2  5  1 -1</clus>
<clus scale="  102.126">  7  8 -1 -1</clus>
<clus scale="   35.091">  2  5  1 -1</clus>
</clustering>
</event>
<event>
 9    1  0.2075077E-005  0.9931684E+02  0.7546771E-02  0.1284510E+00
         -3   -1    0    0    0  501 -0.00000000000E+00  0.00000000000E+00  0.27037372097E+03  0.27037372097E+03  0.00000000000E+00 0.  1.
          3   -1    0    0  502    0  0.00000000000E+00 -0.00000000000E+00 -0.88535235811E+02  0.88535235811E+02  0.00000000000E+00 0. -1.
         23    2    1    2    0    0  0.12707290869E+02  0.30037921437E+02  0.17107893356E+03  0.19920243931E+03  0.96694665583E+02 0.  0.
         23    2    1    2    0    0 -0.28260027731E+01 -0.35603325494E+01  0.55278120146E+02  0.10697507037E+03  0.91473126404E+02 0.  0.
        -13    1    3    3    0    0 -0.30323822575E+02 -0.18323786446E+02  0.43187290519E+02  0.55860875643E+02  0.00000000000E+00 0. -1.
         13    1    3    3    0    0  0.43031113445E+02  0.48361707882E+02  0.12789164304E+03  0.14334156366E+03  0.00000000000E+00 0.  1.
        -13    1    4    4    0    0 -0.29319484881E+02  0.21542803700E+02 -0.47810313445E+01  0.36695815098E+02  0.00000000000E+00 0.  1.
         13    1    4    4    0    0  0.26493482108E+02 -0.25103136250E+02  0.60059151490E+02  0.70279255271E+02  0.00000000000E+00 0. -1.
         21    1    1    2  502  501 -0.98812880962E+01 -0.26477588887E+02 -0.44518568550E+02  0.52731447102E+02  0.00000000000E+00 0. -1.
<scales pt_clust_5="13000.00000" pt_clust_6="13000.00000" pt_clust_7="13000.00000" pt_clust_8="13000.00000" pt_clust_9="28.26133"></scales>
<clustering>
<clus scale="   28.261">  2  9  1 -1</clus>
<clus scale="   91.473">  7  8 -1 -1</clus>
<clus scale="   94.241">  2  7  1 -1</clus>
<clus scale="   96.695">  5  6 -1 -1</clus>
<clus scale="   28.261">  2  5  1 -1</clus>
</clustering>
</event>
<event>
 9    1  0.2075077E-005  0.9259992E+02  0.7546771E-02  0.1296717E+00
         -1   -1    0    0    0  501 -0.00000000000E+00  0.00000000000E+00  0.19801423202E+03  0.19801423202E+03  0.00000000000E+00 0.  1.
          1   -1    0    0  502    0  0.00000000000E+00 -0.00000000000E+00 -0.89012235142E+02  0.89012235142E+02  0.00000000000E+00 0. -1.
         23    2    1    2    0    0  0.18065289226E+02 -0.55940172618E+00  0.13965854492E+03  0.16780604155E+03  0.91256182300E+02 0.  0.
         23    2    1    2    0    0 -0.33251441048E+01  0.17328024391E+02 -0.24087122239E+02  0.95947782025E+02  0.91183717873E+02 0.  0.
        -11    1    4    4    0    0  0.22509363989E+02  0.22248826052E+02 -0.49904528139E+02  0.59094362309E+02  0.00000000000E+00 0.  1.
         11    1    4    4    0    0 -0.25834508093E+02 -0.49208016604E+01  0.25817405900E+02  0.36853419717E+02  0.00000000000E+00 0. -1.
        -13    1    3    3    0    0  0.52707073230E+02 -0.95445466568E+01  0.10556895006E+03  0.11838047625E+03  0.00000000000E+00 0.  1.
         13    1    3    3    0    0 -0.34641784004E+02  0.89851449306E+01  0.34089594856E+02  0.49425565306E+02  0.00000000000E+00 0. -1.
         21    1    1    2  502  501 -0.14740145122E+02 -0.16768622665E+02 -0.65694257964E+01  0.23272643588E+02  0.00000000000E+00 0.  1.
<scales pt_clust_5="13000.00000" pt_clust_6="13000.00000" pt_clust_7="13000.00000" pt_clust_8="13000.00000" pt_clust_9="22.32619"></scales>
<clustering>
<clus scale="   22.326">  2  9  1 -1</clus>
<clus scale="   91.184">  5  6 -1 -1</clus>
<clus scale="   91.256">  7  8 -1 -1</clus>
<clus scale="   92.529">  2  5  1 -1</clus>
<clus scale="   22.326">  2  5  1 -1</clus>
</clustering>
</event>
<event>
 9    1  0.2075077E-005  0.9849772E+02  0.7546771E-02  0.1284996E+00
          1   -1    0    0  502    0  0.00000000000E+00  0.00000000000E+00  0.33272689331E+03  0.33272689331E+03  0.00000000000E+00 0. -1.
         -1   -1    0    0    0  501 -0.00000000000E+00 -0.00000000000E+00 -0.66176405148E+02  0.66176405148E+02  0.00000000000E+00 0.  1.
         23    2    1    2    0    0  0.82271497747E+00  0.33496904154E+02  0.78005023995E+01  0.98098244620E+02  0.91867830670E+02 0.  0.
         23    2    1    2    0    0  0.58483585593E+01 -0.12760189185E+02  0.92580497654E+02  0.13321384480E+03  0.94751011466E+02 0.  0.
        -11    1    3    3    0    0 -0.42882997688E+02  0.32826810843E+02  0.24434793996E+01  0.54060351390E+02  0.00000000000E+00 0. -1.
         11    1    3    3    0    0  0.43705712666E+02  0.67009331119E+00  0.53570229999E+01  0.44037893229E+02  0.00000000000E+00 0.  1.
        -13    1    4    4    0    0  0.94182148045E+01  0.40912634261E+02  0.39583777204E+02  0.57701142364E+02  0.00000000000E+00 0.  1.
         13    1    4    4    0    0 -0.35698562452E+01 -0.53672823446E+02  0.52996720450E+02  0.75512702433E+02  0.00000000000E+00 0. -1.
         21    1    1    2  502  501 -0.66710735368E+01 -0.20736714969E+02  0.16616948811E+03  0.16759120905E+03  0.00000000000E+00 0. -1.
<scales pt_clust_5="13000.00000" pt_clust_6="13000.00000" pt_clust_7="13000.00000" pt_clust_8="13000.00000" pt_clust_9="21.78336"></scales>
<clustering>
<clus scale="   21.783">  1  9  2 -1</clus>
<clus scale="   91.868">  5  6 -1 -1</clus>
<clus scale="   94.751">  7  8 -1 -1</clus>
<clus scale="   95.727">  2  5  1 -1</clus>
<clus scale="   21.783">  1  5  2 -1</clus>
</clustering>
</event>
<event>
 9    1  0.2075077E-005  0.1066215E+03  0.7546771E-02  0.1267496E+00
          1   -1    0    0  502    0  0.00000000000E+00  0.00000000000E+00  0.21078920106E+03  0.21078920106E+03  0.00000000000E+00 0. -1.
         -1   -1    0    0    0  501 -0.00000000000E+00 -0.00000000000E+00 -0.96373965085E+02  0.96373965085E+02  0.00000000000E+00 0.  1.
         23    2    1    2    0    0 -0.34661805253E+02 -0.38046775360E+02 -0.86966780910E+01  0.10464737019E+03  0.90699735492E+02 0.  0.
         23    2    1    2    0    0  0.69204249963E+02  0.12528055605E+02  0.10348696588E+03  0.15529795891E+03  0.91987627123E+02 0.  0.
        -11    1    3    3    0    0 -0.82753739024E+01 -0.40662065594E+02 -0.44009700538E+02  0.60487512207E+02  0.00000000000E+00 0.  1.
         11    1    3    3    0    0 -0.26386431351E+02  0.26152902338E+01  0.35313022447E+02  0.44159857979E+02  0.00000000000E+00 0. -1.
        -13    1    4    4    0    0  0.30482178475E+02  0.39507980536E+02  0.95054046553E+02  0.10735602217E+03  0.00000000000E+00 0. -1.
         13    1    4    4    0    0  0.38722071489E+02 -0.26979924932E+02  0.84329193297E+01  0.47941936737E+02  0.00000000000E+00 0.  1.
         21    1    1    2  502  501 -0.34542444710E+02  0.25518719756E+02  0.19624948185E+02  0.47217837051E+02  0.00000000000E+00 0.  1.
<scales pt_clust_5="13000.00000" pt_clust_6="13000.00000" pt_clust_7="13000.00000" pt_clust_8="13000.00000" pt_clust_9="42.94631"></scales>
<clustering>
<clus scale="   42.946">  1  9  2 -1</clus>
<clus scale="   90.700">  5  6 -1 -1</clus>
<clus scale="   91.988">  7  8 -1 -1</clus>
<clus scale="  105.512">  2  5  1 -1</clus>
<clus scale="   42.946">  1  5  2 -1</clus>
</clustering>
</event>
<event>
 9    1  0.2075077E-005  0.1116900E+03  0.7546771E-02  0.1260023E+00
          1   -1    0    0  502    0  0.00000000000E+00  0.00000000000E+00  0.60290749469E+03  0.60290749469E+03  0.00000000000E+00 0. -1.
         -1   -1    0    0    0  501 -0.00000000000E+00 -0.00000000000E+00 -0.32363946530E+02  0.32363946530E+02  0.00000000000E+00 0.  1.
         23    2    1    2    0    0 -0.17523221046E+02 -0.49361414780E+02  0.11805368224E+03  0.15559339448E+03  0.86769925485E+02 0.  0.
         23    2    1    2    0    0  0.22048022643E+02  0.81904294592E+02  0.34937626462E+03  0.37145638704E+03  0.93389744720E+02 0.  0.
        -11    1    3    3    0    0  0.11193952059E+02  0.21840995209E+02  0.26838176648E+02  0.36367861639E+02  0.00000000000E+00 0.  1.
         11    1    3    3    0    0 -0.28717173105E+02 -0.71202409989E+02  0.91215505594E+02  0.11922553284E+03  0.00000000000E+00 0. -1.
        -13    1    4    4    0    0  0.40169047395E+02  0.22040056523E+02  0.60529816062E+02  0.75915578722E+02  0.00000000000E+00 0.  1.
         13    1    4    4    0    0 -0.18121024752E+02  0.59864238069E+02  0.28884644856E+03  0.29554080832E+03  0.00000000000E+00 0. -1.
         21    1    1    2  502  501 -0.45248015976E+01 -0.32542879812E+02  0.10311360129E+03  0.10822165970E+03  0.00000000000E+00 0. -1.
<scales pt_clust_5="13000.00000" pt_clust_6="13000.00000" pt_clust_7="13000.00000" pt_clust_8="13000.00000" pt_clust_9="32.85594"></scales>
<clustering>
<clus scale="   32.856">  1  9  2 -1</clus>
<clus scale="   86.770">  5  6 -1 -1</clus>
<clus scale="   93.390">  7  8 -1 -1</clus>
<clus scale="  106.217">  2  5  1 -1</clus>
<clus scale="   32.856">  1  5  2 -1</clus>
</clustering>
</event>
<event>
 9    1  0.2075077E-005  0.9954254E+02  0.7546771E-02  0.1283860E+00
         -1   -1    0    0    0  501 -0.00000000000E+00  0.00000000000E+00  0.29320543230E+03  0.29320543230E+03  0.00000000000E+00 0.  1.
          1   -1    0    0  502    0  0.00000000000E+00 -0.00000000000E+00 -0.25699433897E+03  0.25699433897E+03  0.00000000000E+00 0. -1.
         23    2    1    2    0    0  0.39761102763E+02 -0.64787515639E+01  0.24740009186E+03  0.26685091258E+03  0.91540617107E+02 0.  0.
         23    2    1    2    0    0 -0.24524289570E+02 -0.63090507343E+02 -0.16612287823E+03  0.19906957618E+03  0.86313571321E+02 0.  0.
        -13    1    3    3    0    0  0.78051032333E+00  0.20155184230E+02  0.62404392682E+01  0.21113591120E+02  0.00000000000E+00 0. -1.
         13    1    3    3    0    0  0.38980592440E+02 -0.26633935794E+02  0.24115965259E+03  0.24573732146E+03  0.00000000000E+00 0.  1.
        -13    1    4    4    0    0 -0.56545505644E+02 -0.32764287784E+02 -0.10551046274E+03  0.12411023532E+03  0.00000000000E+00 0. -1.
         13    1    4    4    0    0  0.32021216074E+02 -0.30326219559E+02 -0.60612415492E+02  0.74959340868E+02  0.00000000000E+00 0.  1.
         21    1    1    2  502  501 -0.15236813193E+02  0.69569258907E+02 -0.45066120291E+02  0.84279282503E+02  0.00000000000E+00 0. -1.
<scales pt_clust_5="13000.00000" pt_clust_6="13000.00000" pt_clust_7="13000.00000" pt_clust_8="13000.00000" pt_clust_9="71.21827"></scales>
<clustering>
<clus scale="   71.218">  2  9  1 -1</clus>
<clus scale="   86.314">  7  8 -1 -1</clus>
<clus scale="   91.541">  5  6 -1 -1</clus>
<clus scale="   94.758">  2  7  1 -1</clus>
<clus scale="   71.218">  2  5  1 -1</clus>
</clustering>
</event>
<event>
 9    1  0.2075077E-005  0.2242595E+03  0.7546771E-02  0.1149295E+00
          1   -1    0    0  502    0  0.00000000000E+00  0.00000000000E+00  0.14717829066E+04  0.14717829066E+04  0.00000000000E+00 0. -1.
         -1   -1    0    0    0  501 -0.00000000000E+00 -0.00000000000E+00 -0.15543551470E+03  0.15543551470E+03  0.00000000000E+00 0.  1.
         23    2    1    2    0    0  0.10953338621E+03 -0.26479357828E+01 -0.70643011465E+02  0.15982380451E+03  0.92458851180E+02 0.  0.
         23    2    1    2    0    0 -0.26492619001E+03  0.81130871329E+02  0.71127846072E+03  0.76961734281E+03  0.98110658034E+02 0.  0.
        -11    1    3    3    0    0  0.39768499382E+02 -0.27585728985E+02 -0.70767949760E+02  0.85735690934E+02  0.00000000000E+00 0.  1.
         11    1    3    3    0    0  0.69764886830E+02  0.24937793203E+02  0.12493829492E+00  0.74088113580E+02  0.00000000000E+00 0. -1.
        -11    1    4    4    0    0 -0.24628203183E+03  0.60991978695E+02  0.68912117471E+03  0.73434518729E+03  0.00000000000E+00 0. -1.
         11    1    4    4    0    0 -0.18644158186E+02  0.20138892634E+02  0.22157286012E+02  0.35272155511E+02  0.00000000000E+00 0.  1.
         21    1    1    2  502  501  0.15539280380E+03 -0.78482935546E+02  0.67571194261E+03  0.69777727394E+03  0.00000000000E+00 0. -1.
<scales pt_clust_5="13000.00000" pt_clust_6="13000.00000" pt_clust_7="13000.00000" pt_clust_8="13000.00000" pt_clust_9="201.65968"></scales>
<clustering>
<clus scale="   92.459">  5  6 -1 -1</clus>
<clus scale="   98.111">  7  8 -1 -1</clus>
<clus scale="  143.364">  2  5  1 -1</clus>
<clus scale="  201.660">  1  9  2 -1</clus>
<clus scale="  201.660">  1  5  2 -1</clus>
</clustering>
</event>
<event>
 9    1  0.2075077E-005  0.9262147E+02  0.7546771E-02  0.1301236E+00
         -3   -1    0    0    0  501 -0.00000000000E+00  0.00000000000E+00  0.14892008503E+03  0.14892008503E+03  0.00000000000E+00 0.  1.
          3   -1    0    0  502    0  0.00000000000E+00 -0.00000000000E+00 -0.15305042695E+03  0.15305042695E+03  0.00000000000E+00 0. -1.
         23    2    1    2    0    0  0.14077406772E+01  0.22584773604E+02  0.10021044367E+03  0.13189039866E+03  0.82709676010E+02 0.  0.
         23    2    1    2    0    0  0.30748951621E+02 -0.10737617324E+01 -0.76738457676E+02  0.12255469910E+03  0.90466636913E+02 0.  0.
        -11    1    3    3    0    0  0.22836988206E+02  0.22923247382E+02  0.10504864588E+03  0.10991915803E+03  0.00000000000E+00 0.  1.
         11    1    3    3    0    0 -0.21429247529E+02 -0.33847377804E+00 -0.48382022109E+01  0.21971240629E+02  0.00000000000E+00 0. -1.
        -13    1    4    4    0    0 -0.37636503312E+01 -0.38431500783E+02 -0.12433216797E+02  0.40567600326E+02  0.00000000000E+00 0. -1.
         13    1    4    4    0    0  0.34512601952E+02  0.37357739051E+02 -0.64305240879E+02  0.81987098772E+02  0.00000000000E+00 0.  1.
         21    1    1    2  502  501 -0.32156692298E+02 -0.21511011871E+02 -0.27602327910E+02  0.47525414226E+02  0.00000000000E+00 0.  1.
<scales pt_clust_5="13000.00000" pt_clust_6="13000.00000" pt_clust_7="13000.00000" pt_clust_8="13000.00000" pt_clust_9="38.68820"></scales>
<clustering>
<clus scale="   38.688">  2  9  1 -1</clus>
<clus scale="   82.710">  5  6 -1 -1</clus>
<clus scale="   85.061">  1  5  2 -1</clus>
<clus scale="   90.467">  7  8 -1 -1</clus>
<clus scale="   38.688">  2  5  1 -1</clus>
</clustering>
</event>
<event>
 9    1  0.2075077E-005  0.1632029E+03  0.7546771E-02  0.1185747E+00
          1   -1    0    0  502    0  0.00000000000E+00  0.00000000000E+00  0.89482193579E+03  0.89482193579E+03  0.00000000000E+00 0. -1.
         -1   -1    0    0    0  501 -0.00000000000E+00 -0.00000000000E+00 -0.62369496519E+02  0.62369496519E+02  0.00000000000E+00 0.  1.
         23    2    1    2    0    0  0.38101522030E+02  0.11908509214E+03  0.10456177732E+03  0.18879581191E+03  0.95277007547E+02 0.  0.
         23    2    1    2    0    0 -0.67667746362E+01 -0.16164596028E+03  0.47523562234E+03  0.51027188470E+03  0.91396355831E+02 0.  0.
        -11    1    3    3    0    0  0.62506342350E+02  0.61579755287E+02  0.87772580513E+02  0.12410936703E+03  0.00000000000E+00 0. -1.
         11    1    3    3    0    0 -0.24404820320E+02  0.57505336853E+02  0.16789196807E+02  0.64686444877E+02  0.00000000000E+00 0.  1.
        -13    1    4    4    0    0  0.38999190462E+02 -0.90036647988E+02  0.29750444373E+03  0.31326734409E+03  0.00000000000E+00 0. -1.
         13    1    4    4    0    0 -0.45765965098E+02 -0.71609312293E+02  0.17773117862E+03  0.19700454061E+03  0.00000000000E+00 0.  1.
         21    1    1    2  502  501 -0.31334747394E+02  0.42560868142E+02  0.25265503961E+03  0.25812373570E+03  0.00000000000E+00 0. -1.
<scales pt_clust_5="13000.00000" pt_clust_6="13000.00000" pt_clust_7="13000.00000" pt_clust_8="13000.00000" pt_clust_9="52.85162"></scales>
<clustering>
<clus scale="   52.852">  1  9  2 -1</clus>
<clus scale="   91.396">  7  8 -1 -1</clus>
<clus scale="   95.277">  5  6 -1 -1</clus>
<clus scale="  160.968">  1  7  2 -1</clus>
<clus scale="   52.852">  1  5  2 -1</clus>
</clustering>
</event>
<event>
 9    1  0.2075077E-005  0.1524458E+03  0.7546771E-02  0.1198918E+00
          1   -1    0    0  502    0  0.00000000000E+00  0.00000000000E+00  0.76652605359E+02  0.76652605359E+02  0.00000000000E+00 0. -1.
         -1   -1    0    0    0  501 -0.00000000000E+00 -0.00000000000E+00 -0.35580118022E+03  0.35580118022E+03  0.00000000000E+00 0.  1.
         23    2    1    2    0    0 -0.42836681768E+02  0.11926203540E+03 -0.17869006557E+03  0.23714776271E+03  0.90832303907E+02 0.  0.
         23    2    1    2    0    0  0.41674008207E+02 -0.94188436207E+02 -0.87508239232E+02  0.16706161314E+03  0.98202373577E+02 0.  0.
        -11    1    4    4    0    0 -0.17429382459E+02 -0.69201370368E+02 -0.20420698400E+02  0.74226800799E+02  0.00000000000E+00 0. -1.
         11    1    4    4    0    0  0.59103390666E+02 -0.24987065839E+02 -0.67087540833E+02  0.92834812341E+02  0.00000000000E+00 0.  1.
        -13    1    3    3    0    0 -0.42577634526E+02  0.77676537938E+02 -0.49593969009E+02  0.10151877299E+03  0.00000000000E+00 0. -1.
         13    1    3    3    0    0 -0.25904724141E+00  0.41585497459E+02 -0.12909609656E+03  0.13562898972E+03  0.00000000000E+00 0.  1.
         21    1    1    2  502  501  0.11626735607E+01 -0.25073599191E+02 -0.12950270052E+02  0.28244409723E+02  0.00000000000E+00 0. -1.
<scales pt_clust_5="13000.00000" pt_clust_6="13000.00000" pt_clust_7="13000.00000" pt_clust_8="13000.00000" pt_clust_9="25.10054"></scales>
<clustering>
<clus scale="   25.101">  1  9  2 -1</clus>
<clus scale="   90.832">  7  8 -1 -1</clus>
<clus scale="   98.202">  5  6 -1 -1</clus>
<clus scale="  147.806">  2  7  1 -1</clus>
<clus scale="   25.101">  1  5  2 -1</clus>
</clustering>
</event>
<event>
 9    1  0.2075077E-005  0.9171828E+02  0.7546771E-02  0.1302370E+00
         -3   -1    0    0    0  501 -0.00000000000E+00  0.00000000000E+00  0.36764696829E+03  0.36764696829E+03  0.00000000000E+00 0.  1.
          3   -1    0    0  502    0  0.00000000000E+00 -0.00000000000E+00 -0.40546419957E+02  0.40546419957E+02  0.00000000000E+00 0. -1.
         23    2    1    2    0    0 -0.15852930501E+01  0.18583119999E+02  0.23083738769E+03  0.24897663658E+03  0.91409083282E+02 0.  0.
         23    2    1    2    0    0  0.63414502696E+01  0.19394860599E+02  0.74442017089E+02  0.11515871780E+03  0.85460761565E+02 0.  0.
        -11    1    3    3    0    0 -0.37088085324E+02 -0.47260599583E+01  0.17429668378E+03  0.17826159343E+03  0.00000000000E+00 0. -1.
         11    1    3    3    0    0  0.35502792274E+02  0.23309179958E+02  0.56540703909E+02  0.70715043153E+02  0.00000000000E+00 0.  1.
        -13    1    4    4    0    0  0.17496781802E+02  0.46079425188E+02  0.70422938858E+02  0.85958368507E+02  0.00000000000E+00 0.  1.
         13    1    4    4    0    0 -0.11155331532E+02 -0.26684564588E+02  0.40190782313E+01  0.29200349290E+02  0.00000000000E+00 0. -1.
         21    1    1    2  502  501 -0.47561572195E+01 -0.37977980599E+02  0.21821143550E+02  0.44058033861E+02  0.00000000000E+00 0. -1.
<scales pt_clust_5="13000.00000" pt_clust_6="13000.00000" pt_clust_7="13000.00000" pt_clust_8="13000.00000" pt_clust_9="38.27464"></scales>
<clustering>
<clus scale="   38.275">  2  9  1 -1</clus>
<clus scale="   85.461">  7  8 -1 -1</clus>
<clus scale="   85.791">  2  7  1 -1</clus>
<clus scale="   91.409">  5  6 -1 -1</clus>
<clus scale="   38.275">  2  5  1 -1</clus>
</clustering>
</event>
<event>
 9    1  0.2075077E-005  0.1109131E+03  0.7546771E-02  0.1259078E+00
          1   -1    0    0  502    0  0.00000000000E+00  0.00000000000E+00  0.28266241549E+03  0.28266241549E+03  0.00000000000E+00 0. -1.
         -1   -1    0    0    0  501 -0.00000000000E+00 -0.00000000000E+00 -0.86308999358E+02  0.86308999358E+02  0.00000000000E+00 0.  1.
         23    2    1    2    0    0 -0.61508046766E+02 -0.38248067765E+02  0.22276677338E+02  0.11878787187E+03  0.91477612813E+02 0.  0.
         23    2    1    2    0    0  0.34748238576E+02  0.41067346050E+02  0.39323387957E+02  0.11276992929E+03  0.90976706446E+02 0.  0.
        -13    1    3    3    0    0 -0.63346723634E+02 -0.62953839993E+02  0.27545150552E+02  0.93459770404E+02  0.00000000000E+00 0. -1.
         13    1    3    3    0    0  0.18386768683E+01  0.24705772227E+02 -0.52684732143E+01  0.25328101468E+02  0.00000000000E+00 0.  1.
        -13    1    4    4    0    0  0.55320630892E+02 -0.45096815948E+01  0.17374086432E+02  0.58159851356E+02  0.00000000000E+00 0. -1.
         13    1    4    4    0    0 -0.20572392316E+02  0.45577027644E+02  0.21949301525E+02  0.54610077934E+02  0.00000000000E+00 0.  1.
         21    1    1    2  502  501  0.26759808190E+02 -0.28192782842E+01  0.13475335084E+03  0.13741361369E+03  0.00000000000E+00 0. -1.
<scales pt_clust_5="13000.00000" pt_clust_6="13000.00000" pt_clust_7="13000.00000" pt_clust_8="13000.00000" pt_clust_9="26.90791"></scales>
<clustering>
<clus scale="   26.908">  1  9  2 -1</clus>
<clus scale="   90.977">  7  8 -1 -1</clus>
<clus scale="   91.478">  5  6 -1 -1</clus>
<clus scale="  110.500">  1  7  2 -1</clus>
<clus scale="   26.908">  1  5  2 -1</clus>
</clustering>
</event>
<event>
 9    1  0.2075077E-005  0.1536809E+03  0.7546771E-02  0.1196184E+00
         -1   -1    0    0    0  501 -0.00000000000E+00  0.00000000000E+00  0.19066617097E+03  0.19066617097E+03  0.00000000000E+00 0.  1.
          1   -1    0    0  502    0  0.00000000000E+00 -0.00000000000E+00 -0.22453659481E+03  0.22453659481E+03  0.00000000000E+00 0. -1.
         23    2    1    2    0    0  0.36844268753E+02  0.11126421245E+03  0.60834391373E+02  0.16094582410E+03  0.92008206215E+02 0.  0.
         23    2    1    2    0    0 -0.99575127336E+02 -0.10840418660E+03 -0.72045919198E+02  0.18749792780E+03  0.91094373042E+02 0.  0.
        -11    1    4    4    0    0 -0.87453133967E+02 -0.31174694398E+02 -0.53493544432E+02  0.10715162858E+03  0.00000000000E+00 0. -1.
         11    1    4    4    0    0 -0.12121993369E+02 -0.77229492200E+02 -0.18552374766E+02  0.80346299219E+02  0.00000000000E+00 0.  1.
        -11    1    3    3    0    0  0.17869972959E+02  0.12071211022E+03  0.66546215318E+02  0.13899333891E+03  0.00000000000E+00 0.  1.
         11    1    3    3    0    0  0.18974295795E+02 -0.94478977780E+01 -0.57118239447E+01  0.21952485192E+02  0.00000000000E+00 0. -1.
         21    1    1    2  502  501  0.62730858582E+02 -0.28600258470E+01 -0.22658896015E+02  0.66759013885E+02  0.00000000000E+00 0.  1.
<scales pt_clust_5="13000.00000" pt_clust_6="13000.00000" pt_clust_7="13000.00000" pt_clust_8="13000.00000" pt_clust_9="62.79602"></scales>
<clustering>
<clus scale="   62.796">  2  9  1 -1</clus>
<clus scale="   91.094">  5  6 -1 -1</clus>
<clus scale="   92.008">  7  8 -1 -1</clus>
<clus scale="  153.136">  2  5  1 -1</clus>
<clus scale="   62.796">  2  5  1 -1</clus>
</clustering>
</event>
<event>
 9    1  0.2075077E-005  0.1136584E+03  0.7546771E-02  0.1254345E+00
          3   -1    0    0  502    0  0.00000000000E+00  0.00000000000E+00  0.70675116400E+02  0.70675116400E+02  0.00000000000E+00 0. -1.
         -3   -1    0    0    0  501 -0.00000000000E+00 -0.00000000000E+00 -0.26124230910E+03  0.26124230910E+03  0.00000000000E+00 0.  1.
         23    2    1    2    0    0 -0.64945185399E+02 -0.20445010181E+02 -0.13285752706E+03  0.17537671508E+03  0.92032571122E+02 0.  0.
         23    2    1    2    0    0  0.50220254772E+02  0.46663589002E+02 -0.54703813194E+02  0.12632030993E+03  0.90910664908E+02 0.  0.
        -11    1    4    4    0    0  0.44974621825E+02  0.71728302889E+02 -0.54545915157E+02  0.10071207924E+03  0.00000000000E+00 0. -1.
         11    1    4    4    0    0  0.52456329465E+01 -0.25064713888E+02 -0.15789803724E+00  0.25608230690E+02  0.00000000000E+00 0.  1.
        -13    1    3    3    0    0 -0.87963825167E+02 -0.16319922523E+02 -0.11626857514E+03  0.14670499642E+03  0.00000000000E+00 0.  1.
         13    1    3    3    0    0  0.23018639768E+02 -0.41250876582E+01 -0.16588951912E+02  0.28671718653E+02  0.00000000000E+00 0. -1.
         21    1    1    2  502  501  0.14724930627E+02 -0.26218578821E+02 -0.30058524491E+01  0.30220400499E+02  0.00000000000E+00 0.  1.
<scales pt_clust_5="13000.00000" pt_clust_6="13000.00000" pt_clust_7="13000.00000" pt_clust_8="13000.00000" pt_clust_9="30.07054"></scales>
<clustering>
<clus scale="   30.071">  1  9  2 -1</clus>
<clus scale="   90.911">  5  6 -1 -1</clus>
<clus scale="   92.033">  7  8 -1 -1</clus>
<clus scale="  112.752">  1  5  2 -1</clus>
<clus scale="   30.071">  1  5  2 -1</clus>
</clustering>
</event>
<event>
 9    1  0.2075077E-005  0.9575240E+02  0.7546771E-02  0.1289533E+00
         -2   -1    0    0    0  501 -0.00000000000E+00  0.00000000000E+00  0.53426932937E+03  0.53426932937E+03  0.00000000000E+00 0.  1.
          2   -1    0    0  502    0  0.00000000000E+00 -0.00000000000E+00 -0.32023211650E+02  0.32023211650E+02  0.00000000000E+00 0. -1.
         23    2    1    2    0    0 -0.18526452707E+01 -0.30763220416E+02  0.34099579782E+03  0.35415210391E+03  0.90530495136E+02 0.  0.
         23    2    1    2    0    0 -0.26364115618E+02  0.28835088170E+02  0.15407124864E+03  0.18296095196E+03  0.90610327131E+02 0.  0.
        -11    1    3    3    0    0  0.36608486332E+02 -0.41767738527E+02  0.19068766557E+03  0.19861145751E+03  0.00000000000E+00 0. -1.
         11    1    3    3    0    0 -0.38461131603E+02  0.11004518112E+02  0.15030813225E+03  0.15554064640E+03  0.00000000000E+00 0.  1.
        -11    1    4    4    0    0  0.16522697764E+02  0.40283770699E+02  0.34932513341E+02  0.55821700184E+02  0.00000000000E+00 0. -1.
         11    1    4    4    0    0 -0.42886813382E+02 -0.11448682529E+02  0.11913873530E+03  0.12713925178E+03  0.00000000000E+00 0.  1.
         21    1    1    2  502  501  0.28216760889E+02  0.19281322458E+01  0.71790712540E+01  0.29179485141E+02  0.00000000000E+00 0. -1.
<scales pt_clust_5="13000.00000" pt_clust_6="13000.00000" pt_clust_7="13000.00000" pt_clust_8="13000.00000" pt_clust_9="28.28256"></scales>
<clustering>
<clus scale="   28.283">  2  9  1 -1</clus>
<clus scale="   90.530">  5  6 -1 -1</clus>
<clus scale="   90.610">  7  8 -1 -1</clus>
<clus scale="   95.677">  1  5  2 -1</clus>
<clus scale="   28.283">  2  5  1 -1</clus>
</clustering>
</event>
<event>
 9    1  0.2075077E-005  0.1502104E+03  0.7546771E-02  0.1209324E+00
          2   -1    0    0  502    0  0.00000000000E+00  0.00000000000E+00  0.67754882154E+03  0.67754882154E+03  0.00000000000E+00 0. -1.
         -2   -1    0    0    0  501 -0.00000000000E+00 -0.00000000000E+00 -0.35231593316E+02  0.35231593316E+02  0.00000000000E+00 0.  1.
         23    2    1    2    0    0  0.39391246212E+02 -0.69326792614E+02  0.27878034814E+03  0.31608034721E+03  0.12581903247E+03 0.  0.
         23    2    1    2    0    0 -0.21881293105E+02  0.82405488849E+02  0.23636044061E+03  0.26765938604E+03  0.92227075561E+02 0.  0.
        -11    1    3    3    0    0 -0.17015930901E+02 -0.43258926422E+02  0.21165208071E+02  0.51076830875E+02  0.00000000000E+00 0.  1.
         11    1    3    3    0    0  0.56407177113E+02 -0.26067866192E+02  0.25761514007E+03  0.26500351634E+03  0.00000000000E+00 0. -1.
        -13    1    4    4    0    0  0.27320070470E+02  0.47520998441E+02  0.16688436626E+03  0.17565597982E+03  0.00000000000E+00 0. -1.
         13    1    4    4    0    0 -0.49201363575E+02  0.34884490408E+02  0.69476074354E+02  0.92003406222E+02  0.00000000000E+00 0.  1.
         21    1    1    2  502  501 -0.17509953107E+02 -0.13078696235E+02  0.12717643947E+03  0.12904068160E+03  0.00000000000E+00 0.  1.
<scales pt_clust_5="13000.00000" pt_clust_6="13000.00000" pt_clust_7="13000.00000" pt_clust_8="13000.00000" pt_clust_9="21.85522"></scales>
<clustering>
<clus scale="   21.855">  1  9  2 -1</clus>
<clus scale="   92.227">  7  8 -1 -1</clus>
<clus scale="  123.445">  1  7  2 -1</clus>
<clus scale="  125.819">  5  6 -1 -1</clus>
<clus scale="   21.855">  1  5  2 -1</clus>
</clustering>
</event>
<event>
 9    1  0.2075077E-005  0.9619775E+02  0.7546771E-02  0.1289733E+00
          1   -1    0    0  502    0  0.00000000000E+00  0.00000000000E+00  0.48045649363E+03  0.48045649363E+03  0.00000000000E+00 0. -1.
         -1   -1    0    0    0  501 -0.00000000000E+00 -0.00000000000E+00 -0.29593086911E+02  0.29593086911E+02  0.00000000000E+00 0.  1.
         23    2    1    2    0    0 -0.15465518051E+02 -0.12142224828E+02  0.93365960491E+02  0.13402232681E+03  0.94117828460E+02 0.  0.
         23    2    1    2    0    0  0.26555064625E+02 -0.54391249637E+01  0.29582701033E+03  0.31094788243E+03  0.91870615610E+02 0.  0.
        -11    1    4    4    0    0  0.15237037943E+02  0.42982808097E+02  0.12644831546E+03  0.13442048059E+03  0.00000000000E+00 0.  1.
         11    1    4    4    0    0  0.11318026681E+02 -0.48421933060E+02  0.16937869486E+03  0.17652740185E+03  0.00000000000E+00 0. -1.
        -11    1    3    3    0    0 -0.54274614091E+02 -0.16038130212E+01  0.41224600079E+02  0.68174581793E+02  0.00000000000E+00 0.  1.
         11    1    3    3    0    0  0.38809096040E+02 -0.10538411807E+02  0.52141360412E+02  0.65847745022E+02  0.00000000000E+00 0. -1.
         21    1    1    2  502  501 -0.11089546574E+02  0.17581349792E+02  0.61670435903E+02  0.65079371296E+02  0.00000000000E+00 0.  1.
<scales pt_clust_5="13000.00000" pt_clust_6="13000.00000" pt_clust_7="13000.00000" pt_clust_8="13000.00000" pt_clust_9="20.78658"></scales>
<clustering>
<clus scale="   20.787">  1  9  2 -1</clus>
<clus scale="   91.871">  5  6 -1 -1</clus>
<clus scale="   94.000">  1  5  2 -1</clus>
<clus scale="   94.118">  7  8 -1 -1</clus>
<clus scale="   20.787">  1  5  2 -1</clus>
</clustering>
</event>
<event>
 9    1  0.2075077E-005  0.1344971E+03  0.7546771E-02  0.1222734E+00
          2   -1    0    0  502    0  0.00000000000E+00  0.00000000000E+00  0.41607905495E+03  0.41607905495E+03  0.00000000000E+00 0. -1.
         -2   -1    0    0    0  501 -0.00000000000E+00 -0.00000000000E+00 -0.52891249725E+02  0.52891249725E+02  0.00000000000E+00 0.  1.
         23    2    1    2    0    0  0.93908500656E+02  0.14596601623E+02  0.13263643213E+03  0.18744549931E+03  0.92257925458E+02 0.  0.
         23    2    1    2    0    0 -0.10296783929E+03  0.11526824879E+02  0.19041580761E+03  0.23278705156E+03  0.84831526959E+02 0.  0.
        -11    1    3    3    0    0  0.69607088871E+01 -0.31753320095E+02  0.21773880800E+02  0.39125780380E+02  0.00000000000E+00 0.  1.
         11    1    3    3    0    0  0.86947791769E+02  0.46349921718E+02  0.11086255133E+03  0.14831971893E+03  0.00000000000E+00 0. -1.
        -13    1    4    4    0    0 -0.49180779269E+02 -0.31255082135E+02  0.12495337820E+03  0.13787304281E+03  0.00000000000E+00 0. -1.
         13    1    4    4    0    0 -0.53787060025E+02  0.42781907013E+02  0.65462429408E+02  0.94914008754E+02  0.00000000000E+00 0.  1.
         21    1    1    2  502  501  0.90593386385E+01 -0.26123426502E+02  0.40135565482E+02  0.48737753798E+02  0.00000000000E+00 0.  1.
<scales pt_clust_5="13000.00000" pt_clust_6="13000.00000" pt_clust_7="13000.00000" pt_clust_8="13000.00000" pt_clust_9="27.64968"></scales>
<clustering>
<clus scale="   27.650">  1  9  2 -1</clus>
<clus scale="   84.832">  7  8 -1 -1</clus>
<clus scale="   92.258">  5  6 -1 -1</clus>
<clus scale="  129.516">  1  7  2 -1</clus>
<clus scale="   27.650">  1  5  2 -1</clus>
</clustering>
</event>
<event>
 9    1  0.2075077E-005  0.9529858E+02  0.7546771E-02  0.1291218E+00
          1   -1    0    0  502    0  0.00000000000E+00  0.00000000000E+00  0.29458007692E+03  0.29458007692E+03  0.00000000000E+00 0. -1.
         -1   -1    0    0    0  501 -0.00000000000E+00 -0.00000000000E+00 -0.10840759256E+03  0.10840759256E+03  0.00000000000E+00 0.  1.
         23    2    1    2    0    0 -0.17961762144E+02  0.23542143052E+02 -0.50572393545E+02  0.11017799101E+03  0.93299331802E+02 0.  0.
         23    2    1    2    0    0  0.23907979367E+01  0.44064373304E+02  0.12615610516E+03  0.16226094184E+03  0.92010137855E+02 0.  0.
        -11    1    3    3    0    0  0.12102357726E+02  0.52825758188E+02 -0.38597659662E+02  0.66534255253E+02  0.00000000000E+00 0.  1.
         11    1    3    3    0    0 -0.30064119870E+02 -0.29283615137E+02 -0.11974733884E+02  0.43643735755E+02  0.00000000000E+00 0. -1.
        -13    1    4    4    0    0  0.28198362611E+02 -0.18819075978E+02  0.37630577110E+02  0.50649438380E+02  0.00000000000E+00 0. -1.
         13    1    4    4    0    0 -0.25807564674E+02  0.62883449282E+02  0.88525528052E+02  0.11161150346E+03  0.00000000000E+00 0.  1.
         21    1    1    2  502  501  0.15570964207E+02 -0.67606516356E+02  0.11058877275E+03  0.13054873664E+03  0.00000000000E+00 0. -1.
<scales pt_clust_5="13000.00000" pt_clust_6="13000.00000" pt_clust_7="13000.00000" pt_clust_8="13000.00000" pt_clust_9="69.37648"></scales>
<clustering>
<clus scale="   69.376">  1  9  2 -1</clus>
<clus scale="   92.010">  7  8 -1 -1</clus>
<clus scale="   93.299">  5  6 -1 -1</clus>
<clus scale="   94.037">  1  7  2 -1</clus>
<clus scale="   69.376">  1  5  2 -1</clus>
</clustering>
</event>
<event>
 9    1  0.2075077E-005  0.8429392E+02  0.7546771E-02  0.1325043E+00
         -1   -1    0    0    0  501 -0.00000000000E+00  0.00000000000E+00  0.63769705637E+02  0.63769705637E+02  0.00000000000E+00 0.  1.
          1   -1    0    0  502    0  0.00000000000E+00 -0.00000000000E+00 -0.31377804278E+03  0.31377804278E+03  0.00000000000E+00 0. -1.
         23    2    1    2    0    0  0.22688996538E+00  0.15911851390E+02  0.15556830061E+02  0.76052497281E+02  0.72723647374E+02 0.  0.
         23    2    1    2    0    0 -0.10176283139E+02  0.12680755341E+02 -0.92499580638E+02  0.12580169736E+03  0.83699082114E+02 0.  0.
        -11    1    4    4    0    0  0.21536978519E+02  0.38666943135E+02 -0.47471698268E+02  0.64904052813E+02  0.00000000000E+00 0. -1.
         11    1    4    4    0    0 -0.31713261658E+02 -0.25986187794E+02 -0.45027882369E+02  0.60897644550E+02  0.00000000000E+00 0.  1.
        -13    1    3    3    0    0 -0.32800717038E+02 -0.11835610225E+01  0.20252503848E+02  0.38567496250E+02  0.00000000000E+00 0.  1.
         13    1    3    3    0    0  0.33027607004E+02  0.17095412412E+02 -0.46956737871E+01  0.37485001030E+02  0.00000000000E+00 0. -1.
         21    1    1    2  502  501  0.99493931736E+01 -0.28592606731E+02 -0.17306558657E+03  0.17569355377E+03  0.00000000000E+00 0.  1.
<scales pt_clust_5="13000.00000" pt_clust_6="13000.00000" pt_clust_7="13000.00000" pt_clust_8="13000.00000" pt_clust_9="30.27421"></scales>
<clustering>
<clus scale="   30.274">  2  9  1 -1</clus>
<clus scale="   72.724">  7  8 -1 -1</clus>
<clus scale="   73.407">  1  7  2 -1</clus>
<clus scale="   83.699">  5  6 -1 -1</clus>
<clus scale="   30.274">  2  5  1 -1</clus>
</clustering>
</event>
<event>
 9    1  0.2075077E-005  0.9301233E+02  0.7546771E-02  0.1296798E+00
          1   -1    0    0  502    0  0.00000000000E+00  0.00000000000E+00  0.64507132396E+03  0.64507132396E+03  0.00000000000E+00 0. -1.
         -1   -1    0    0    0  501 -0.00000000000E+00 -0.00000000000E+00 -0.30124829209E+02  0.30124829209E+02  0.00000000000E+00 0.  1.
         23    2    1    2    0    0  0.13352264235E+02 -0.51161780684E+01  0.71251966110E+02  0.11760353197E+03  0.92462369741E+02 0.  0.
         23    2    1    2    0    0  0.19404742105E+01 -0.16268178255E+02  0.34143277270E+03  0.35362944692E+03  0.90603688643E+02 0.  0.
        -11    1    3    3    0    0  0.36706651157E+02 -0.36579121741E+02  0.53834738310E+02  0.74723419591E+02  0.00000000000E+00 0.  1.
         11    1    3    3    0    0 -0.23354386923E+02  0.31462943672E+02  0.17417227800E+02  0.42880112375E+02  0.00000000000E+00 0. -1.
        -11    1    4    4    0    0  0.41424970297E+02  0.98954466631E+00  0.23798808084E+03  0.24156848715E+03  0.00000000000E+00 0. -1.
         11    1    4    4    0    0 -0.39484496086E+02 -0.17257722922E+02  0.10344469186E+03  0.11206095978E+03  0.00000000000E+00 0.  1.
         21    1    1    2  502  501 -0.15292738445E+02  0.21384356324E+02  0.20226175595E+03  0.20396317428E+03  0.00000000000E+00 0. -1.
<scales pt_clust_5="13000.00000" pt_clust_6="13000.00000" pt_clust_7="13000.00000" pt_clust_8="13000.00000" pt_clust_9="26.28989"></scales>
<clustering>
<clus scale="   26.290">  1  9  2 -1</clus>
<clus scale="   90.604">  7  8 -1 -1</clus>
<clus scale="   91.165">  1  7  2 -1</clus>
<clus scale="   92.462">  5  6 -1 -1</clus>
<clus scale="   26.290">  1  5  2 -1</clus>
</clustering>
</event>
<event>
 9    1  0.2075077E-005  0.9326032E+02  0.7546771E-02  0.1296139E+00
         -1   -1    0    0    0  501 -0.00000000000E+00  0.00000000000E+00  0.60227138932E+03  0.60227138932E+03  0.00000000000E+00 0.  1.
          1   -1    0    0  502    0  0.00000000000E+00 -0.00000000000E+00 -0.65544509115E+02  0.65544509115E+02  0.00000000000E+00 0. -1.
         23    2    1    2    0    0  0.19732896889E+01 -0.53218175613E+02  0.79135808043E+02  0.13292485288E+03  0.92576845438E+02 0.  0.
         23    2    1    2    0    0  0.19794282582E+02 -0.32064912177E+02  0.36840783114E+02  0.10503311786E+03  0.90855601540E+02 0.  0.
        -11    1    3    3    0    0 -0.31668415751E+02 -0.55860974769E+02  0.75300693241E+02  0.98962272917E+02  0.00000000000E+00 0. -1.
         11    1    3    3    0    0  0.33641705440E+02  0.26427991561E+01  0.38351148019E+01  0.33962579965E+02  0.00000000000E+00 0.  1.
        -11    1    4    4    0    0 -0.50947590976E+01 -0.60365914692E+02  0.24903023269E+02  0.65499319041E+02  0.00000000000E+00 0. -1.
         11    1    4    4    0    0  0.24889041679E+02  0.28301002515E+02  0.11937759845E+02  0.39533798820E+02  0.00000000000E+00 0.  1.
         21    1    1    2  502  501 -0.21767572270E+02  0.85283087790E+02  0.42075028904E+03  0.42985792769E+03  0.00000000000E+00 0.  1.
<scales pt_clust_5="13000.00000" pt_clust_6="13000.00000" pt_clust_7="13000.00000" pt_clust_8="13000.00000" pt_clust_9="88.01723"></scales>
<clustering>
<clus scale="   88.017">  1  9  2 -1</clus>
<clus scale="   90.856">  7  8 -1 -1</clus>
<clus scale="   91.552">  2  7  1 -1</clus>
<clus scale="   92.577">  5  6 -1 -1</clus>
<clus scale="   91.552">  2  5  1 -1</clus>
</clustering>
</event>
<event>
 9    1  0.2075077E-005  0.9576748E+02  0.7546771E-02  0.1289631E+00
         -1   -1    0    0    0  501 -0.00000000000E+00  0.00000000000E+00  0.80119385642E+02  0.80119385642E+02  0.00000000000E+00 0.  1.
          1   -1    0    0  502    0  0.00000000000E+00 -0.00000000000E+00 -0.28595017148E+03  0.28595017148E+03  0.00000000000E+00 0. -1.
         23    2    1    2    0    0  0.33208375255E+02  0.52608347253E+01  0.29233907016E+02  0.10107323841E+03  0.90723236461E+02 0.  0.
         23    2    1    2    0    0 -0.51538205316E+01 -0.14052020002E+02 -0.18947398822E+03  0.21074822816E+03  0.91051646495E+02 0.  0.
        -11    1    3    3    0    0 -0.17595134673E+02  0.31865012713E+02  0.23751734147E+02  0.43463923826E+02  0.00000000000E+00 0. -1.
         11    1    3    3    0    0  0.50803509928E+02 -0.26604177988E+02  0.54821728696E+01  0.57609314583E+02  0.00000000000E+00 0.  1.
        -11    1    4    4    0    0 -0.42658236022E+02 -0.28286394546E+02 -0.90819293342E+02  0.10424964873E+03  0.00000000000E+00 0. -1.
         11    1    4    4    0    0  0.37504415491E+02  0.14234374544E+02 -0.98654694879E+02  0.10649857943E+03  0.00000000000E+00 0.  1.
         21    1    1    2  502  501 -0.28054554723E+02  0.87911852765E+01 -0.45590704629E+02  0.54248090545E+02  0.00000000000E+00 0. -1.
<scales pt_clust_5="13000.00000" pt_clust_6="13000.00000" pt_clust_7="13000.00000" pt_clust_8="13000.00000" pt_clust_9="29.39971"></scales>
<clustering>
<clus scale="   29.400">  2  9  1 -1</clus>
<clus scale="   90.723">  5  6 -1 -1</clus>
<clus scale="   91.052">  7  8 -1 -1</clus>
<clus scale="   95.455">  1  5  2 -1</clus>
<clus scale="   29.400">  2  5  1 -1</clus>
</clustering>
</event>
<event>
 9    1  0.2075077E-005  0.1027476E+03  0.7546771E-02  0.1278485E+00
         -1   -1    0    0    0  501 -0.00000000000E+00  0.00000000000E+00  0.24601642752E+03  0.24601642752E+03  0.00000000000E+00 0.  1.
          1   -1    0    0  502    0  0.00000000000E+00 -0.00000000000E+00 -0.14278761181E+03  0.14278761181E+03  0.00000000000E+00 0. -1.
         23    2    1    2    0    0 -0.39181748602E+02 -0.13561046719E+02  0.11519410663E+03  0.15654372853E+03  0.97555857468E+02 0.  0.
         23    2    1    2    0    0  0.17535633502E+02  0.17781639055E+02  0.89018606910E+02  0.12889631649E+03  0.89812376090E+02 0.  0.
        -11    1    3    3    0    0  0.25852728144E+02  0.82323234184E+01  0.68203457891E+02  0.73401950721E+02  0.00000000000E+00 0.  1.
         11    1    3    3    0    0 -0.65034476745E+02 -0.21793370137E+02  0.46990648743E+02  0.83141777806E+02  0.00000000000E+00 0. -1.
        -13    1    4    4    0    0 -0.15751030475E+02 -0.18342794529E+02 -0.32219866857E+01  0.24391274472E+02  0.00000000000E+00 0. -1.
         13    1    4    4    0    0  0.33286663977E+02  0.36124433583E+02  0.92240593596E+02  0.10450504202E+03  0.00000000000E+00 0.  1.
         21    1    1    2  502  501  0.21646115100E+02 -0.42205923359E+01 -0.10098389783E+03  0.10336399431E+03  0.00000000000E+00 0. -1.
<scales pt_clust_5="13000.00000" pt_clust_6="13000.00000" pt_clust_7="13000.00000" pt_clust_8="13000.00000" pt_clust_9="22.05375"></scales>
<clustering>
<clus scale="   22.054">  2  9  1 -1</clus>
<clus scale="   89.812">  7  8 -1 -1</clus>
<clus scale="   95.426">  2  7  1 -1</clus>
<clus scale="   97.556">  5  6 -1 -1</clus>
<clus scale="   22.054">  2  5  1 -1</clus>
</clustering>
</event>
<event>
 9    1  0.2075077E-005  0.1732841E+03  0.7546771E-02  0.1174901E+00
         -1   -1    0    0    0  501 -0.00000000000E+00  0.00000000000E+00  0.10909914536E+03  0.10909914536E+03  0.00000000000E+00 0.  1.
          1   -1    0    0  502    0  0.00000000000E+00 -0.00000000000E+00 -0.38244737575E+03  0.38244737575E+03  0.00000000000E+00 0. -1.
         23    2    1    2    0    0  0.85577127197E+02  0.11814515621E+03 -0.33424204140E+02  0.17556545818E+03  0.91784149228E+02 0.  0.
         23    2    1    2    0    0 -0.10618364861E+03 -0.99291148844E+02 -0.22534359149E+03  0.28447405742E+03  0.94931847383E+02 0.  0.
        -11    1    4    4    0    0 -0.80082791335E+02 -0.57661765995E+02 -0.21155834102E+03  0.23344177942E+03  0.00000000000E+00 0. -1.
         11    1    4    4    0    0 -0.26100857274E+02 -0.41629382848E+02 -0.13785250471E+02  0.51032277995E+02  0.00000000000E+00 0.  1.
        -11    1    3    3    0    0  0.75227123968E+02  0.26684005590E+02 -0.22128037773E+02  0.82829984852E+02  0.00000000000E+00 0.  1.
         11    1    3    3    0    0  0.10350003229E+02  0.91461150617E+02 -0.11296166367E+02  0.92735473330E+02  0.00000000000E+00 0. -1.
         21    1    1    2  502  501  0.20606521412E+02 -0.18854007364E+02 -0.14580434759E+02  0.31507005509E+02  0.00000000000E+00 0.  1.
<scales pt_clust_5="13000.00000" pt_clust_6="13000.00000" pt_clust_7="13000.00000" pt_clust_8="13000.00000" pt_clust_9="27.93031"></scales>
<clustering>
<clus scale="   27.930">  1  9  2 -1</clus>
<clus scale="   91.784">  7  8 -1 -1</clus>
<clus scale="   94.932">  5  6 -1 -1</clus>
<clus scale="  171.580">  1  7  2 -1</clus>
<clus scale="  173.284">  2  5  1 -1</clus>
</clustering>
</event>
<event>
 9    1  0.2075077E-005  0.9261620E+02  0.7546771E-02  0.1296999E+00
         -2   -1    0    0    0  501 -0.00000000000E+00  0.00000000000E+00  0.28999243246E+02  0.28999243246E+02  0.00000000000E+00 0. -1.
          2   -1    0    0  502    0  0.00000000000E+00 -0.00000000000E+00 -0.37453863304E+03  0.37453863304E+03  0.00000000000E+00 0.  1.
         23    2    1    2    0    0  0.18527605825E+01  0.14252305139E+01 -0.14064740757E+03  0.16820679116E+03  0.92229969831E+02 0.  0.
         23    2    1    2    0    0  0.20107279563E+02 -0.11572184799E+01 -0.16564288178E+03  0.19035545750E+03  0.91607827565E+02 0.  0.
        -13    1    4    4    0    0  0.27828154045E+02 -0.33976956480E+02 -0.14337298150E+03  0.14994882978E+03  0.00000000000E+00 0.  1.
         13    1    4    4    0    0 -0.77208744823E+01  0.32819738000E+02 -0.22269900277E+02  0.40406627718E+02  0.00000000000E+00 0. -1.
        -13    1    3    3    0    0  0.25175706097E+01 -0.31594980124E+02 -0.96816214803E+01  0.33140831693E+02  0.00000000000E+00 0. -1.
         13    1    3    3    0    0 -0.66481002718E+00  0.33020210638E+02 -0.13096578609E+03  0.13506595947E+03  0.00000000000E+00 0.  1.
         21    1    1    2  502  501 -0.21960040146E+02 -0.26801203405E+00 -0.39249100451E+02  0.44975627620E+02  0.00000000000E+00 0.  1.
<scales pt_clust_5="13000.00000" pt_clust_6="13000.00000" pt_clust_7="13000.00000" pt_clust_8="13000.00000" pt_clust_9="21.96168"></scales>
<clustering>
<clus scale="   21.962">  2  9  1 -1</clus>
<clus scale="   91.608">  5  6 -1 -1</clus>
<clus scale="   91.997">  2  5  1 -1</clus>
<clus scale="   92.230">  7  8 -1 -1</clus>
<clus scale="   21.962">  2  5  1 -1</clus>
</clustering>
</event>
<event>
 9    1  0.2075077E-005  0.9207786E+02  0.7546771E-02  0.1297997E+00
          2   -1    0    0  502    0  0.00000000000E+00  0.00000000000E+00  0.28915231611E+03  0.28915231611E+03  0.00000000000E+00 0. -1.
         -2   -1    0    0    0  501 -0.00000000000E+00 -0.00000000000E+00 -0.61801173111E+02  0.61801173111E+02  0.00000000000E+00 0.  1.
         23    2    1    2    0    0 -0.36351493111E+02  0.53497435238E+01  0.39707455382E+02  0.10546715922E+03  0.90535014516E+02 0.  0.
         23    2    1    2    0    0 -0.80209039492E+01  0.15879195603E+02  0.63260229728E+02  0.11172975232E+03  0.90361480370E+02 0.  0.
        -11    1    3    3    0    0 -0.13903493346E+02  0.38852819358E+02 -0.89955039617E+01  0.42234675219E+02  0.00000000000E+00 0. -1.
         11    1    3    3    0    0 -0.22447999765E+02 -0.33503075835E+02  0.48702959344E+02  0.63232483999E+02  0.00000000000E+00 0.  1.
        -13    1    4    4    0    0  0.23409023993E+02  0.14023827094E+02  0.73675814601E+02  0.78567014630E+02  0.00000000000E+00 0. -1.
         13    1    4    4    0    0 -0.31429927942E+02  0.18553685093E+01 -0.10415584873E+02  0.33162737688E+02  0.00000000000E+00 0.  1.
         21    1    1    2  502  501  0.44372397061E+02 -0.21228939127E+02  0.12438345789E+03  0.13375657768E+03  0.00000000000E+00 0. -1.
<scales pt_clust_5="13000.00000" pt_clust_6="13000.00000" pt_clust_7="13000.00000" pt_clust_8="13000.00000" pt_clust_9="49.18920"></scales>
<clustering>
<clus scale="   49.189">  1  9  2 -1</clus>
<clus scale="   90.361">  7  8 -1 -1</clus>
<clus scale="   90.535">  5  6 -1 -1</clus>
<clus scale="   91.907">  1  7  2 -1</clus>
<clus scale="   49.189">  1  5  2 -1</clus>
</clustering>
</event>
<event>
 9    1  0.2075077E-005  0.3271343E+03  0.7546771E-02  0.1072415E+00
         -2   -1    0    0    0  501 -0.00000000000E+00  0.00000000000E+00  0.71897100476E+03  0.71897100476E+03  0.00000000000E+00 0.  1.
          2   -1    0    0  502    0  0.00000000000E+00 -0.00000000000E+00 -0.34602481426E+03  0.34602481426E+03  0.00000000000E+00 0. -1.
         23    2    1    2    0    0 -0.38816468485E+03  0.79877847974E+02  0.23287440106E+03  0.46836318809E+03  0.89896029531E+02 0.  0.
         23    2    1    2    0    0  0.23375450077E+03  0.15766808821E+03  0.57247816399E+02  0.30145406250E+03  0.89982479676E+02 0.  0.
        -11    1    4    4    0    0  0.20434100052E+03  0.14530884133E+03  0.18727856115E+02  0.25143714216E+03  0.00000000000E+00 0.  1.
         11    1    4    4    0    0  0.29413500244E+02  0.12359246875E+02  0.38519960285E+02  0.50016920340E+02  0.00000000000E+00 0. -1.
        -11    1    3    3    0    0 -0.30468842688E+03  0.37236095794E+02  0.14347997512E+03  0.33883339204E+03  0.00000000000E+00 0.  1.
         11    1    3    3    0    0 -0.83476257971E+02  0.42641752179E+02  0.89394425944E+02  0.12952979605E+03  0.00000000000E+00 0. -1.
         21    1    1    2  502  501  0.15441018408E+03 -0.23754593618E+03  0.82823973035E+02  0.29517856842E+03  0.00000000000E+00 0.  1.
<scales pt_clust_5="13000.00000" pt_clust_6="13000.00000" pt_clust_7="13000.00000" pt_clust_8="13000.00000" pt_clust_9="283.32063"></scales>
<clustering>
<clus scale="   89.896">  7  8 -1 -1</clus>
<clus scale="   89.982">  5  6 -1 -1</clus>
<clus scale="  283.321">  2  9  1 -1</clus>
<clus scale="  327.111">  1  7  2 -1</clus>
<clus scale="  283.321">  2  5  1 -1</clus>
</clustering>
</event>
<event>
 9    1  0.2075077E-005  0.1029007E+03  0.7546771E-02  0.1277980E+00
         -1   -1    0    0    0  501 -0.00000000000E+00  0.00000000000E+00  0.13303568153E+03  0.13303568153E+03  0.00000000000E+00 0.  1.
          1   -1    0    0  502    0  0.00000000000E+00 -0.00000000000E+00 -0.10237831160E+03  0.10237831160E+03  0.00000000000E+00 0. -1.
         23    2    1    2    0    0 -0.35072299846E+02 -0.71507271563E+01  0.33867598216E+02  0.10862035939E+03  0.96799634042E+02 0.  0.
         23    2    1    2    0    0  0.23696425323E+02  0.29005546722E+02 -0.17300787963E+02  0.98410759822E+02  0.89344938698E+02 0.  0.
        -13    1    4    4    0    0  0.38418488704E+02  0.50700515342E+02  0.52496006203E+01  0.63828526828E+02  0.00000000000E+00 0.  1.
         13    1    4    4    0    0 -0.14722063382E+02 -0.21694968620E+02 -0.22550388584E+02  0.34582232995E+02  0.00000000000E+00 0. -1.
        -13    1    3    3    0    0 -0.66057588964E+02 -0.15244715258E+02  0.35553495637E+02  0.76551012110E+02  0.00000000000E+00 0. -1.
         13    1    3    3    0    0  0.30985289118E+02  0.80939881015E+01 -0.16858974214E+01  0.32069347284E+02  0.00000000000E+00 0.  1.
         21    1    1    2  502  501  0.11375874524E+02 -0.21854819566E+02  0.14090559678E+02  0.28382873912E+02  0.00000000000E+00 0.  1.
<scales pt_clust_5="13000.00000" pt_clust_6="13000.00000" pt_clust_7="13000.00000" pt_clust_8="13000.00000" pt_clust_9="24.63826"></scales>
<clustering>
<clus scale="   24.638">  1  9  2 -1</clus>
<clus scale="   89.345">  5  6 -1 -1</clus>
<clus scale="   95.921">  2  5  1 -1</clus>
<clus scale="   96.800">  7  8 -1 -1</clus>
<clus scale="   95.921">  2  5  1 -1</clus>
</clustering>
</event>
<event>
 9    1  0.2075077E-005  0.9835894E+02  0.7546771E-02  0.1284481E+00
          3   -1    0    0  502    0  0.00000000000E+00  0.00000000000E+00  0.14906044268E+03  0.14906044268E+03  0.00000000000E+00 0. -1.
         -3   -1    0    0    0  501 -0.00000000000E+00 -0.00000000000E+00 -0.34646217364E+03  0.34646217364E+03  0.00000000000E+00 0.  1.
         23    2    1    2    0    0 -0.31502949492E+02  0.38804508813E+02 -0.26012841471E+03  0.27987314320E+03  0.90354625861E+02 0.  0.
         23    2    1    2    0    0 -0.17778192878E+02  0.44465598052E+02  0.63769316036E+01  0.10367699321E+03  0.91733309722E+02 0.  0.
        -11    1    4    4    0    0  0.22802798688E+02  0.44670461698E+02 -0.21369592060E+02  0.54516761103E+02  0.00000000000E+00 0.  1.
         11    1    4    4    0    0 -0.40580991566E+02 -0.20486364556E+00  0.27746523663E+02  0.49160232109E+02  0.00000000000E+00 0. -1.
        -13    1    3    3    0    0  0.20372008160E+02  0.41914869331E+02 -0.16523619070E+03  0.17168247931E+03  0.00000000000E+00 0. -1.
         13    1    3    3    0    0 -0.51874957652E+02 -0.31103605183E+01 -0.94892224010E+02  0.10819066388E+03  0.00000000000E+00 0.  1.
         21    1    1    2  502  501  0.49281142370E+02 -0.83270106865E+02  0.56349752141E+02  0.11197247991E+03  0.00000000000E+00 0. -1.
<scales pt_clust_5="13000.00000" pt_clust_6="13000.00000" pt_clust_7="13000.00000" pt_clust_8="13000.00000" pt_clust_9="96.76023"></scales>
<clustering>
<clus scale="   90.355">  7  8 -1 -1</clus>
<clus scale="   91.733">  5  6 -1 -1</clus>
<clus scale="   96.760">  1  9  2 -1</clus>
<clus scale="   97.074">  2  7  1 -1</clus>
<clus scale="   96.760">  1  5  2 -1</clus>
</clustering>
</event>
<event>
 9    1  0.2075077E-005  0.1224014E+03  0.7546771E-02  0.1239275E+00
          1   -1    0    0  502    0  0.00000000000E+00  0.00000000000E+00  0.12876275212E+03  0.12876275212E+03  0.00000000000E+00 0. -1.
         -1   -1    0    0    0  501 -0.00000000000E+00 -0.00000000000E+00 -0.19607950270E+03  0.19607950270E+03  0.00000000000E+00 0.  1.
         23    2    1    2    0    0  0.67096611736E+02 -0.61372285407E+02 -0.97980031931E+02  0.16217240754E+03  0.91822058283E+02 0.  0.
         23    2    1    2    0    0 -0.41437436850E+02  0.50654820939E+02 -0.10483900650E+02  0.11300750857E+03  0.91530392564E+02 0.  0.
        -11    1    4    4    0    0  0.21013338265E+02  0.40112738450E+02  0.10130497181E+02  0.46402792417E+02  0.00000000000E+00 0.  1.
         11    1    4    4    0    0 -0.62450775115E+02  0.10542082489E+02 -0.20614397831E+02  0.66604716151E+02  0.00000000000E+00 0. -1.
        -11    1    3    3    0    0  0.77088746057E+02 -0.43659315258E+02 -0.10784552794E+03  0.13956886642E+03  0.00000000000E+00 0.  1.
         11    1    3    3    0    0 -0.99921343205E+01 -0.17712970149E+02  0.98654960052E+01  0.22603541121E+02  0.00000000000E+00 0. -1.
         21    1    1    2  502  501 -0.25659174886E+02  0.10717464468E+02  0.41147181995E+02  0.49662338715E+02  0.00000000000E+00 0. -1.
<scales pt_clust_5="13000.00000" pt_clust_6="13000.00000" pt_clust_7="13000.00000" pt_clust_8="13000.00000" pt_clust_9="27.80750"></scales>
<clustering>
<clus scale="   27.808">  1  9  2 -1</clus>
<clus scale="   91.530">  5  6 -1 -1</clus>
<clus scale="   91.822">  7  8 -1 -1</clus>
<clus scale="  122.183">  1  5  2 -1</clus>
<clus scale="   27.808">  1  5  2 -1</clus>
</clustering>
</event>
<event>
 9    1  0.5726106E-005  0.1783745E+03  0.7546771E-02  0.1169399E+00
         -1   -1    0    0    0  501 -0.00000000000E+00  0.00000000000E+00  0.41915849313E+03  0.41915849313E+03  0.00000000000E+00 0.  1.
          1   -1    0    0  502    0  0.00000000000E+00 -0.00000000000E+00 -0.64854343675E+03  0.64854343675E+03  0.00000000000E+00 0. -1.
         23    2    1    2    0    0  0.11757574994E+03 -0.17499491983E+02  0.33855490318E+03  0.37011237334E+03  0.90738400023E+02 0.  0.
         23    2    1    2    0    0 -0.84259350296E+02  0.13196140894E+03 -0.54748676747E+03  0.57663567535E+03  0.90848720268E+02 0.  0.
        -11    1    3    3    0    0  0.31813392905E+02  0.29664643836E+02  0.54883682840E+02  0.70030719717E+02  0.00000000000E+00 0.  1.
         11    1    3    3    0    0  0.85762357035E+02 -0.47164135819E+02  0.28367122034E+03  0.30008165362E+03  0.00000000000E+00 0. -1.
        -11    1    4    4    0    0 -0.24861496196E+02  0.11627023900E+03 -0.33659710825E+03  0.35697965734E+03  0.00000000000E+00 0.  1.
         11    1    4    4    0    0 -0.59397854100E+02  0.15691169947E+02 -0.21088965922E+03  0.21965601801E+03  0.00000000000E+00 0. -1.
         21    1    1    2  502  501 -0.33316399644E+02 -0.11446191696E+03 -0.20453079339E+02  0.12095388119E+03  0.00000000000E+00 0.  1.
<scales pt_clust_5="13000.00000" pt_clust_6="13000.00000" pt_clust_7="13000.00000" pt_clust_8="13000.00000" pt_clust_9="119.21205"></scales>
<clustering>
<clus scale="   90.738">  5  6 -1 -1</clus>
<clus scale="   90.849">  7  8 -1 -1</clus>
<clus scale="  119.212">  1  9  2 -1</clus>
<clus scale="  178.318">  1  5  2 -1</clus>
<clus scale="  178.374">  2  5  1 -1</clus>
</clustering>
</event>
<event>
 9    1  0.2075077E-005  0.2418833E+03  0.7546771E-02  0.1119374E+00
         -2   -1    0    0    0  501 -0.00000000000E+00  0.00000000000E+00  0.22741588972E+03  0.22741588972E+03  0.00000000000E+00 0. -1.
          2   -1    0    0  502    0  0.00000000000E+00 -0.00000000000E+00 -0.66512859591E+03  0.66512859591E+03  0.00000000000E+00 0.  1.
         23    2    1    2    0    0 -0.15944157577E+03  0.10902910688E+03  0.16464940085E+02  0.21412564512E+03  0.90938085614E+02 0.  0.
         23    2    1    2    0    0  0.31430756953E+03 -0.10866524346E+03 -0.33261093715E+03  0.48153798012E+03  0.10320565579E+03 0.  0.
        -11    1    3    3    0    0 -0.13502653207E+03  0.54460133298E+02  0.38186248324E+02  0.15051996559E+03  0.00000000000E+00 0. -1.
         11    1    3    3    0    0 -0.24415043704E+02  0.54568973578E+02 -0.21721308239E+02  0.63605679526E+02  0.00000000000E+00 0.  1.
        -11    1    4    4    0    0  0.48923751167E+02 -0.10910809677E+02 -0.75884117597E+01  0.50696776910E+02  0.00000000000E+00 0. -1.
         11    1    4    4    0    0  0.26538381836E+03 -0.97754433780E+02 -0.32502252539E+03  0.43084120321E+03  0.00000000000E+00 0.  1.
         21    1    1    2  502  501 -0.15486599375E+03 -0.36386341881E+00 -0.12156670913E+03  0.19688086039E+03  0.00000000000E+00 0.  1.
<scales pt_clust_5="13000.00000" pt_clust_6="13000.00000" pt_clust_7="13000.00000" pt_clust_8="13000.00000" pt_clust_9="154.86642"></scales>
<clustering>
<clus scale="   90.938">  5  6 -1 -1</clus>
<clus scale="  103.206">  7  8 -1 -1</clus>
<clus scale="  154.866">  2  9  1 -1</clus>
<clus scale="  236.909">  1  5  2 -1</clus>
<clus scale="  154.866">  2  5  1 -1</clus>
</clustering>
</event>
<event>
 9    1  0.2075077E-005  0.2449547E+03  0.7546771E-02  0.1116858E+00
         -1   -1    0    0    0  501 -0.00000000000E+00  0.00000000000E+00  0.56907120855E+03  0.56907120855E+03  0.00000000000E+00 0.  1.
          1   -1    0    0  502    0  0.00000000000E+00 -0.00000000000E+00 -0.23039117218E+03  0.23039117218E+03  0.00000000000E+00 0. -1.
         23    2    1    2    0    0 -0.14220136890E+03 -0.17958986609E+03  0.45577571981E+03  0.51829234300E+03  0.91769802912E+02 0.  0.
         23    2    1    2    0    0  0.14787835205E+03  0.15778406692E+03 -0.11017552044E+03  0.25759866374E+03  0.86340068788E+02 0.  0.
        -13    1    3    3    0    0 -0.92107829100E+00 -0.41044804550E+02  0.37635408387E+02  0.55695137402E+02  0.00000000000E+00 0. -1.
         13    1    3    3    0    0 -0.14128029061E+03 -0.13854506154E+03  0.41814031143E+03  0.46259720560E+03  0.00000000000E+00 0.  1.
        -13    1    4    4    0    0  0.63119683336E+02  0.11658869949E+03 -0.92649060288E+02  0.16174321515E+03  0.00000000000E+00 0.  1.
         13    1    4    4    0    0  0.84758668719E+02  0.41195367426E+02 -0.17526460154E+02  0.95855448598E+02  0.00000000000E+00 0. -1.
         21    1    1    2  502  501 -0.56769831567E+01  0.21805799176E+02 -0.69201630059E+01  0.23571373984E+02  0.00000000000E+00 0.  1.
<scales pt_clust_5="13000.00000" pt_clust_6="13000.00000" pt_clust_7="13000.00000" pt_clust_8="13000.00000" pt_clust_9="22.53267"></scales>
<clustering>
<clus scale="   22.533">  2  9  1 -1</clus>
<clus scale="   86.340">  7  8 -1 -1</clus>
<clus scale="   91.770">  5  6 -1 -1</clus>
<clus scale="  242.973">  2  7  1 -1</clus>
<clus scale="   22.533">  2  5  1 -1</clus>
</clustering>
</event>
<event>
 9    1  0.2075077E-005  0.9757073E+02  0.7546771E-02  0.1286919E+00
          2   -1    0    0  502    0  0.00000000000E+00  0.00000000000E+00  0.11533323417E+03  0.11533323417E+03  0.00000000000E+00 0. -1.
         -2   -1    0    0    0  501 -0.00000000000E+00 -0.00000000000E+00 -0.16813222743E+03  0.16813222743E+03  0.00000000000E+00 0.  1.
         23    2    1    2    0    0 -0.93465431545E+01  0.20516990994E+02 -0.85489795785E+02  0.12745877728E+03  0.91809203971E+02 0.  0.
         23    2    1    2    0    0  0.30209869853E+02 -0.55452687229E+02  0.10531192246E+02  0.10967279176E+03  0.89048180688E+02 0.  0.
        -11    1    3    3    0    0 -0.57500673749E+01  0.45749807997E+02 -0.90420266709E+02  0.10149843761E+03  0.00000000000E+00 0.  1.
         11    1    3    3    0    0 -0.35964757796E+01 -0.25232817003E+02  0.49304709240E+01  0.25960339664E+02  0.00000000000E+00 0. -1.
        -13    1    4    4    0    0  0.49991696532E+02 -0.34123149583E+02 -0.23476015333E+02  0.64920584991E+02  0.00000000000E+00 0.  1.
         13    1    4    4    0    0 -0.19781826680E+02 -0.21329537646E+02  0.34007207579E+02  0.44752206764E+02  0.00000000000E+00 0. -1.
         21    1    1    2  502  501 -0.20863326698E+02  0.34935696236E+02  0.22159610281E+02  0.46333892565E+02  0.00000000000E+00 0. -1.
<scales pt_clust_5="13000.00000" pt_clust_6="13000.00000" pt_clust_7="13000.00000" pt_clust_8="13000.00000" pt_clust_9="40.69129"></scales>
<clustering>
<clus scale="   40.691">  1  9  2 -1</clus>
<clus scale="   89.048">  7  8 -1 -1</clus>
<clus scale="   91.809">  5  6 -1 -1</clus>
<clus scale="   94.977">  1  7  2 -1</clus>
<clus scale="   40.691">  1  5  2 -1</clus>
</clustering>
</event>
<event>
 9    1  0.2075077E-005  0.1042339E+03  0.7546771E-02  0.1272480E+00
          1   -1    0    0  502    0  0.00000000000E+00  0.00000000000E+00  0.73560500361E+02  0.73560500361E+02  0.00000000000E+00 0. -1.
         -1   -1    0    0    0  501 -0.00000000000E+00 -0.00000000000E+00 -0.27591761025E+03  0.27591761025E+03  0.00000000000E+00 0.  1.
         23    2    1    2    0    0 -0.46221528659E+02 -0.65504172609E+01 -0.18429898945E+03  0.21130634700E+03  0.92222107391E+02 0.  0.
         23    2    1    2    0    0  0.50333839228E+02  0.32847883813E+02 -0.52034960546E+01  0.10861319103E+03  0.90317606541E+02 0.  0.
        -11    1    3    3    0    0 -0.45029907613E+02  0.37659158208E+02 -0.95388857387E+02  0.11200419140E+03  0.00000000000E+00 0. -1.
         11    1    3    3    0    0 -0.11916210460E+01 -0.44209575469E+02 -0.88910132067E+02  0.99302155606E+02  0.00000000000E+00 0.  1.
        -13    1    4    4    0    0  0.21243655881E+02  0.58206730072E+02  0.16786995999E+02  0.64195946722E+02  0.00000000000E+00 0. -1.
         13    1    4    4    0    0  0.29090183348E+02 -0.25358846259E+02 -0.21990492054E+02  0.44417244304E+02  0.00000000000E+00 0.  1.
         21    1    1    2  502  501 -0.41123105690E+01 -0.26297466552E+02 -0.12854624383E+02  0.29558572585E+02  0.00000000000E+00 0. -1.
<scales pt_clust_5="13000.00000" pt_clust_6="13000.00000" pt_clust_7="13000.00000" pt_clust_8="13000.00000" pt_clust_9="26.61706"></scales>
<clustering>
<clus scale="   26.617">  1  9  2 -1</clus>
<clus scale="   90.318">  7  8 -1 -1</clus>
<clus scale="   92.222">  5  6 -1 -1</clus>
<clus scale="  102.553">  1  7  2 -1</clus>
<clus scale="   26.617">  1  5  2 -1</clus>
</clustering>
</event>
<event>
 9    1  0.2075077E-005  0.1198356E+03  0.7546771E-02  0.1254016E+00
          1   -1    0    0  502    0  0.00000000000E+00  0.00000000000E+00  0.50740495067E+03  0.50740495067E+03  0.00000000000E+00 0. -1.
         -1   -1    0    0    0  501 -0.00000000000E+00 -0.00000000000E+00 -0.59401778426E+02  0.59401778426E+02  0.00000000000E+00 0.  1.
         23    2    1    2    0    0  0.47982349654E+02  0.14517674464E+02  0.73888245736E+02  0.14571340029E+03  0.11515143688E+03 0.  0.
         23    2    1    2    0    0  0.26538122084E+02 -0.34737791596E+02  0.28927742111E+03  0.30637822009E+03  0.90968133399E+02 0.  0.
        -11    1    4    4    0    0 -0.28597331935E+02  0.92685266973E+01  0.75629910843E+02  0.81385480248E+02  0.00000000000E+00 0.  1.
         11    1    4    4    0    0  0.55135454020E+02 -0.44006318293E+02  0.21364751027E+03  0.22499273984E+03  0.00000000000E+00 0. -1.
        -13    1    3    3    0    0 -0.36943032099E+02 -0.14395833726E+01  0.10153777911E+02  0.38340047298E+02  0.00000000000E+00 0.  1.
         13    1    3    3    0    0  0.84925381754E+02  0.15957257837E+02  0.63734467825E+02  0.10737335299E+03  0.00000000000E+00 0. -1.
         21    1    1    2  502  501 -0.74520471738E+02  0.20220117131E+02  0.84837505398E+02  0.11471510871E+03  0.00000000000E+00 0.  1.
<scales pt_clust_5="13000.00000" pt_clust_6="13000.00000" pt_clust_7="13000.00000" pt_clust_8="13000.00000" pt_clust_9="77.21498"></scales>
<clustering>
<clus scale="   77.215">  2  9  1 -1</clus>
<clus scale="   90.968">  5  6 -1 -1</clus>
<clus scale="   96.829">  1  5  2 -1</clus>
<clus scale="  115.151">  7  8 -1 -1</clus>
<clus scale="   96.829">  1  5  2 -1</clus>
</clustering>
</event>
<event>
 9    1  0.2075077E-005  0.2631021E+03  0.7546771E-02  0.1105533E+00
         -1   -1    0    0    0  501 -0.00000000000E+00  0.00000000000E+00  0.30660982760E+03  0.30660982760E+03  0.00000000000E+00 0.  1.
          1   -1    0    0  502    0  0.00000000000E+00 -0.00000000000E+00 -0.48721890545E+03  0.48721890545E+03  0.00000000000E+00 0. -1.
         23    2    1    2    0    0  0.67390348578E+02  0.19491167159E+03 -0.53996667638E+01  0.22557193105E+03  0.91222370471E+02 0.  0.
         23    2    1    2    0    0 -0.35723225183E+02 -0.29175236424E+03  0.59750991800E+02  0.31215659234E+03  0.86463670175E+02 0.  0.
        -13    1    3    3    0    0  0.56869941424E+02  0.38387069483E+02 -0.28963963031E+01  0.68674205147E+02  0.00000000000E+00 0.  1.
         13    1    3    3    0    0  0.10520407154E+02  0.15652460211E+03 -0.25032704607E+01  0.15689772591E+03  0.00000000000E+00 0. -1.
        -13    1    4    4    0    0 -0.20991258263E+02 -0.20741465294E+03  0.12757054597E+01  0.20847805304E+03  0.00000000000E+00 0. -1.
         13    1    4    4    0    0 -0.14731966919E+02 -0.84337711308E+02  0.58475286341E+02  0.10367853930E+03  0.00000000000E+00 0.  1.
         21    1    1    2  502  501 -0.31667123395E+02  0.96840692653E+02 -0.23496040290E+03  0.25610020966E+03  0.00000000000E+00 0. -1.
<scales pt_clust_5="13000.00000" pt_clust_6="13000.00000" pt_clust_7="13000.00000" pt_clust_8="13000.00000" pt_clust_9="101.88683"></scales>
<clustering>
<clus scale="   86.464">  7  8 -1 -1</clus>
<clus scale="   91.222">  5  6 -1 -1</clus>
<clus scale="  101.887">  2  9  1 -1</clus>
<clus scale="  261.490">  2  7  1 -1</clus>
<clus scale="  101.887">  2  5  1 -1</clus>
</clustering>
</event>
<event>
 9    1  0.2075077E-005  0.1097058E+03  0.7546771E-02  0.1261224E+00
         -1   -1    0    0    0  501 -0.00000000000E+00  0.00000000000E+00  0.72069588443E+02  0.72069588443E+02  0.00000000000E+00 0.  1.
          1   -1    0    0  502    0  0.00000000000E+00 -0.00000000000E+00 -0.34856713852E+03  0.34856713852E+03  0.00000000000E+00 0. -1.
         23    2    1    2    0    0 -0.48840019844E+02  0.21824452436E+02 -0.16960558085E+02  0.10730991253E+03  0.91466401125E+02 0.  0.
         23    2    1    2    0    0  0.86302779653E+02  0.58676786238E+01 -0.16247879806E+03  0.20566713997E+03  0.91744281659E+02 0.  0.
        -13    1    4    4    0    0  0.25793881165E+02  0.37313478766E+02 -0.24023656726E+02  0.51329875177E+02  0.00000000000E+00 0.  1.
         13    1    4    4    0    0  0.60508898488E+02 -0.31445800142E+02 -0.13845514133E+03  0.15433726479E+03  0.00000000000E+00 0. -1.
        -13    1    3    3    0    0 -0.38591751538E+02  0.54824690949E+02 -0.25474075150E+02  0.71721674055E+02  0.00000000000E+00 0. -1.
         13    1    3    3    0    0 -0.10248268305E+02 -0.33000238513E+02  0.85135170645E+01  0.35588238478E+02  0.00000000000E+00 0.  1.
         21    1    1    2  502  501 -0.37462759809E+02 -0.27692131060E+02 -0.97058193936E+02  0.10765967446E+03  0.00000000000E+00 0.  1.
<scales pt_clust_5="13000.00000" pt_clust_6="13000.00000" pt_clust_7="13000.00000" pt_clust_8="13000.00000" pt_clust_9="46.58661"></scales>
<clustering>
<clus scale="   46.587">  2  9  1 -1</clus>
<clus scale="   91.466">  7  8 -1 -1</clus>
<clus scale="   91.744">  5  6 -1 -1</clus>
<clus scale="  109.473">  1  7  2 -1</clus>
<clus scale="   46.587">  2  5  1 -1</clus>
</clustering>
</event>
<event>
 9    1  0.2075077E-005  0.9417509E+02  0.7546771E-02  0.1293426E+00
          2   -1    0    0  502    0  0.00000000000E+00  0.00000000000E+00  0.35166710040E+03  0.35166710040E+03  0.00000000000E+00 0. -1.
         -2   -1    0    0    0  501 -0.00000000000E+00 -0.00000000000E+00 -0.48064361432E+02  0.48064361432E+02  0.00000000000E+00 0.  1.
         23    2    1    2    0    0 -0.13985862645E+02  0.12439801057E+01  0.68873409982E+02  0.11566094273E+03  0.91851811254E+02 0.  0.
         23    2    1    2    0    0 -0.44285511781E+01 -0.34990740751E+02  0.88289046975E+02  0.13266810602E+03  0.92530570817E+02 0.  0.
        -11    1    3    3    0    0  0.29680551318E+01 -0.28636678663E+02  0.75383607416E+02  0.80694219020E+02  0.00000000000E+00 0.  1.
         11    1    3    3    0    0 -0.16953917777E+02  0.29880658769E+02 -0.65101974348E+01  0.34966723711E+02  0.00000000000E+00 0. -1.
        -13    1    4    4    0    0  0.37240580179E+02  0.46086997995E+01  0.53922576253E+02  0.65694331230E+02  0.00000000000E+00 0. -1.
         13    1    4    4    0    0 -0.41669131357E+02 -0.39599440551E+02  0.34366470722E+02  0.66973774792E+02  0.00000000000E+00 0.  1.
         21    1    1    2  502  501  0.18414413823E+02  0.33746760646E+02  0.14644028201E+03  0.15140241308E+03  0.00000000000E+00 0. -1.
<scales pt_clust_5="13000.00000" pt_clust_6="13000.00000" pt_clust_7="13000.00000" pt_clust_8="13000.00000" pt_clust_9="38.44391"></scales>
<clustering>
<clus scale="   38.444">  1  9  2 -1</clus>
<clus scale="   91.852">  5  6 -1 -1</clus>
<clus scale="   92.531">  7  8 -1 -1</clus>
<clus scale="   93.508">  2  5  1 -1</clus>
<clus scale="   38.444">  1  5  2 -1</clus>
</clustering>
</event>
<event>
 9    1  0.2075077E-005  0.1225010E+03  0.7546771E-02  0.1241666E+00
          2   -1    0    0  502    0  0.00000000000E+00  0.00000000000E+00  0.26040600606E+03  0.26040600606E+03  0.00000000000E+00 0. -1.
         -2   -1    0    0    0  501 -0.00000000000E+00 -0.00000000000E+00 -0.15952389374E+03  0.15952389374E+03  0.00000000000E+00 0.  1.
         23    2    1    2    0    0 -0.89184026333E+02  0.21650326814E+02 -0.98617846727E+02  0.15788767931E+03  0.82343866679E+02 0.  0.
         23    2    1    2    0    0  0.48104996804E+02 -0.12345296040E+02  0.68292645255E+02  0.12424008169E+03  0.91132954805E+02 0.  0.
        -11    1    4    4    0    0  0.60250939795E+02  0.87483557960E+01  0.77201974289E+02  0.98320162273E+02  0.00000000000E+00 0. -1.
         11    1    4    4    0    0 -0.12145942991E+02 -0.21093651836E+02 -0.89093290341E+01  0.25919919421E+02  0.00000000000E+00 0.  1.
        -11    1    3    3    0    0 -0.31398156682E+02  0.49298862012E+02 -0.38152857139E+02  0.69798728832E+02  0.00000000000E+00 0. -1.
         11    1    3    3    0    0 -0.57785869650E+02 -0.27648535197E+02 -0.60464989589E+02  0.88088950475E+02  0.00000000000E+00 0.  1.
         21    1    1    2  502  501  0.41079029529E+02 -0.93050307745E+01  0.13120731379E+03  0.13780213880E+03  0.00000000000E+00 0. -1.
<scales pt_clust_5="13000.00000" pt_clust_6="13000.00000" pt_clust_7="13000.00000" pt_clust_8="13000.00000" pt_clust_9="42.11971"></scales>
<clustering>
<clus scale="   42.120">  1  9  2 -1</clus>
<clus scale="   82.344">  7  8 -1 -1</clus>
<clus scale="   91.133">  5  6 -1 -1</clus>
<clus scale="  116.111">  2  7  1 -1</clus>
<clus scale="   42.120">  1  5  2 -1</clus>
</clustering>
</event>
<event>
 9    1  0.2075077E-005  0.9821160E+02  0.7546771E-02  0.1284777E+00
          2   -1    0    0  502    0  0.00000000000E+00  0.00000000000E+00  0.56760171885E+03  0.56760171885E+03  0.00000000000E+00 0. -1.
         -2   -1    0    0    0  501 -0.00000000000E+00 -0.00000000000E+00 -0.61865253501E+02  0.61865253501E+02  0.00000000000E+00 0.  1.
         23    2    1    2    0    0 -0.26172415602E+02 -0.22400300690E+01  0.10210243814E+02  0.95501310448E+02  0.91248222697E+02 0.  0.
         23    2    1    2    0    0  0.74154860442E+02 -0.48991164910E+02  0.33638510619E+03  0.36003221214E+03  0.92569846867E+02 0.  0.
        -11    1    4    4    0    0 -0.20108519906E+02 -0.13619198398E+02  0.37803191384E+02  0.44932353785E+02  0.00000000000E+00 0.  1.
         11    1    4    4    0    0  0.94263380347E+02 -0.35371966511E+02  0.29858191481E+03  0.31509985836E+03  0.00000000000E+00 0. -1.
        -13    1    3    3    0    0  0.24446926506E+02  0.30715580413E+01 -0.23823933868E+02  0.34273408196E+02  0.00000000000E+00 0.  1.
         13    1    3    3    0    0 -0.50619342108E+02 -0.53115881103E+01  0.34034177682E+02  0.61227902252E+02  0.00000000000E+00 0. -1.
         21    1    1    2  502  501 -0.47982444840E+02  0.51231194979E+02  0.15914111534E+03  0.17393344976E+03  0.00000000000E+00 0. -1.
<scales pt_clust_5="13000.00000" pt_clust_6="13000.00000" pt_clust_7="13000.00000" pt_clust_8="13000.00000" pt_clust_9="70.19224"></scales>
<clustering>
<clus scale="   70.192">  1  9  2 -1</clus>
<clus scale="   91.248">  7  8 -1 -1</clus>
<clus scale="   92.570">  5  6 -1 -1</clus>
<clus scale="   96.967">  2  7  1 -1</clus>
<clus scale="   70.192">  1  5  2 -1</clus>
</clustering>
</event>
<event>
 9    1  0.2075077E-005  0.4970717E+03  0.7546771E-02  0.1014618E+00
         -1   -1    0    0    0  501 -0.00000000000E+00  0.00000000000E+00  0.26506334122E+03  0.26506334122E+03  0.00000000000E+00 0.  1.
          1   -1    0    0  502    0  0.00000000000E+00 -0.00000000000E+00 -0.12608927347E+04  0.12608927347E+04  0.00000000000E+00 0. -1.
         23    2    1    2    0    0 -0.48400706317E+03 -0.10055482177E+03 -0.16164071247E+03  0.52916340252E+03  0.97529878819E+02 0.  0.
         23    2    1    2    0    0  0.47125727027E+03  0.49641242286E+02 -0.67982071078E+03  0.83374599287E+03  0.91806939329E+02 0.  0.
        -11    1    4    4    0    0  0.29961946702E+02  0.26577033677E+02 -0.44671659202E+02  0.59996784123E+02  0.00000000000E+00 0.  1.
         11    1    4    4    0    0  0.44129532357E+03  0.23064208609E+02 -0.63514905158E+03  0.77374920875E+03  0.00000000000E+00 0. -1.
        -11    1    3    3    0    0 -0.93910207871E+02 -0.20810951659E+02  0.76754826504E+01  0.96494227212E+02  0.00000000000E+00 0.  1.
         11    1    3    3    0    0 -0.39009685530E+03 -0.79743870109E+02 -0.16931619512E+03  0.43266917531E+03  0.00000000000E+00 0. -1.
         21    1    1    2  502  501  0.12749792899E+02  0.50913579482E+02 -0.15436797019E+03  0.16304668048E+03  0.00000000000E+00 0. -1.
<scales pt_clust_5="13000.00000" pt_clust_6="13000.00000" pt_clust_7="13000.00000" pt_clust_8="13000.00000" pt_clust_9="52.48571"></scales>
<clustering>
<clus scale="   52.486">  2  9  1 -1</clus>
<clus scale="   91.807">  5  6 -1 -1</clus>
<clus scale="   97.530">  7  8 -1 -1</clus>
<clus scale="  495.981">  2  5  1 -1</clus>
<clus scale="   52.486">  2  5  1 -1</clus>
</clustering>
</event>
<event>
 9    1  0.2075077E-005  0.1213244E+03  0.7546771E-02  0.1241358E+00
          1   -1    0    0  502    0  0.00000000000E+00  0.00000000000E+00  0.19855719083E+03  0.19855719083E+03  0.00000000000E+00 0. -1.
         -1   -1    0    0    0  501 -0.00000000000E+00 -0.00000000000E+00 -0.10900770966E+03  0.10900770966E+03  0.00000000000E+00 0.  1.
         23    2    1    2    0    0  0.62398883038E+02 -0.17017308892E+01  0.23196324172E+02  0.11392020093E+03  0.92429574451E+02 0.  0.
         23    2    1    2    0    0 -0.96348348218E+02  0.31753051470E+00  0.16881918655E+02  0.13362898812E+03  0.91041761066E+02 0.  0.
        -11    1    4    4    0    0 -0.33214164928E+02 -0.33234147521E+02 -0.22400236259E+02  0.52052472543E+02  0.00000000000E+00 0.  1.
         11    1    4    4    0    0 -0.63134183290E+02  0.33551678036E+02  0.39282154915E+02  0.81576515575E+02  0.00000000000E+00 0. -1.
        -11    1    3    3    0    0  0.71518112510E+02 -0.31776045217E+02  0.25757891371E+02  0.82389480120E+02  0.00000000000E+00 0. -1.
         11    1    3    3    0    0 -0.91192294719E+01  0.30074314328E+02 -0.25615671994E+01  0.31530720813E+02  0.00000000000E+00 0.  1.
         21    1    1    2  502  501  0.33949465180E+02  0.13842003745E+01  0.49471238345E+02  0.60015711444E+02  0.00000000000E+00 0. -1.
<scales pt_clust_5="13000.00000" pt_clust_6="13000.00000" pt_clust_7="13000.00000" pt_clust_8="13000.00000" pt_clust_9="33.97767"></scales>
<clustering>
<clus scale="   33.978">  1  9  2 -1</clus>
<clus scale="   91.042">  5  6 -1 -1</clus>
<clus scale="   92.430">  7  8 -1 -1</clus>
<clus scale="  120.271">  1  5  2 -1</clus>
<clus scale="   33.978">  1  5  2 -1</clus>
</clustering>
</event>
<event>
 9    1  0.2075077E-005  0.1240226E+03  0.7546771E-02  0.1245941E+00
          1   -1    0    0  502    0  0.00000000000E+00  0.00000000000E+00  0.39684504629E+03  0.39684504629E+03  0.00000000000E+00 0. -1.
         -1   -1    0    0    0  501 -0.00000000000E+00 -0.00000000000E+00 -0.10062032214E+03  0.10062032214E+03  0.00000000000E+00 0.  1.
         23    2    1    2    0    0  0.53211384917E+02  0.20015167998E+02 -0.31064593321E+02  0.13140697561E+03  0.11432727517E+03 0.  0.
         23    2    1    2    0    0 -0.29703511392E+02  0.11022021337E+02  0.11324237861E+03  0.14849916118E+03  0.90688373093E+02 0.  0.
        -13    1    3    3    0    0  0.77574006883E+02  0.44547004387E+02 -0.36107808845E+02  0.96467279444E+02  0.00000000000E+00 0.  1.
         13    1    3    3    0    0 -0.24362621966E+02 -0.24531836388E+02  0.50432155241E+01  0.34939696170E+02  0.00000000000E+00 0. -1.
        -13    1    4    4    0    0  0.48326072343E+01  0.46134704610E+02  0.47964087488E+02  0.66725697828E+02  0.00000000000E+00 0.  1.
         13    1    4    4    0    0 -0.34536118626E+02 -0.35112683274E+02  0.65278291125E+02  0.81773463352E+02  0.00000000000E+00 0. -1.
         21    1    1    2  502  501 -0.23507873525E+02 -0.31037189335E+02  0.21404693885E+03  0.21755923164E+03  0.00000000000E+00 0. -1.
<scales pt_clust_5="13000.00000" pt_clust_6="13000.00000" pt_clust_7="13000.00000" pt_clust_8="13000.00000" pt_clust_9="38.93491"></scales>
<clustering>
<clus scale="   38.935">  1  9  2 -1</clus>
<clus scale="   90.688">  7  8 -1 -1</clus>
<clus scale="  102.641">  1  7  2 -1</clus>
<clus scale="  114.327">  5  6 -1 -1</clus>
<clus scale="   38.935">  1  5  2 -1</clus>
</clustering>
</event>
<event>
 9    1  0.2075077E-005  0.1440205E+03  0.7546771E-02  0.1209962E+00
         -1   -1    0    0    0  501 -0.00000000000E+00  0.00000000000E+00  0.36870073714E+03  0.36870073714E+03  0.00000000000E+00 0.  1.
          1   -1    0    0  502    0  0.00000000000E+00 -0.00000000000E+00 -0.17436774064E+03  0.17436774064E+03  0.00000000000E+00 0. -1.
         23    2    1    2    0    0  0.45838476016E+02  0.10578906173E+03  0.23376446412E+03  0.27680907571E+03  0.93193069711E+02 0.  0.
         23    2    1    2    0    0 -0.12438832638E+03 -0.32794197350E+02 -0.49931553390E+01  0.15363468644E+03  0.83849687879E+02 0.  0.
        -13    1    4    4    0    0 -0.10199405627E+03 -0.77395740642E+01 -0.35475984902E+02  0.10826464809E+03  0.00000000000E+00 0. -1.
         13    1    4    4    0    0 -0.22394270112E+02 -0.25054623285E+02  0.30482829563E+02  0.45370038351E+02  0.00000000000E+00 0.  1.
        -13    1    3    3    0    0  0.46722418958E+02  0.84238649777E+02  0.23621548450E+03  0.25510172415E+03  0.00000000000E+00 0.  1.
         13    1    3    3    0    0 -0.88394294269E+00  0.21550411956E+02 -0.24510203761E+01  0.21707351554E+02  0.00000000000E+00 0. -1.
         21    1    1    2  502  501  0.78549850366E+02 -0.72994864383E+02 -0.34438312279E+02  0.11262471563E+03  0.00000000000E+00 0. -1.
<scales pt_clust_5="13000.00000" pt_clust_6="13000.00000" pt_clust_7="13000.00000" pt_clust_8="13000.00000" pt_clust_9="107.23026"></scales>
<clustering>
<clus scale="   83.850">  5  6 -1 -1</clus>
<clus scale="   93.193">  7  8 -1 -1</clus>
<clus scale="  107.230">  2  9  1 -1</clus>
<clus scale="  138.158">  2  5  1 -1</clus>
<clus scale="  107.230">  2  5  1 -1</clus>
</clustering>
</event>
<event>
 9    1  0.2075077E-005  0.1039647E+03  0.7546771E-02  0.1272228E+00
         -3   -1    0    0    0  501 -0.00000000000E+00  0.00000000000E+00  0.19279767225E+02  0.19279767225E+02  0.00000000000E+00 0.  1.
          3   -1    0    0  502    0  0.00000000000E+00 -0.00000000000E+00 -0.72163722299E+03  0.72163722299E+03  0.00000000000E+00 0. -1.
         23    2    1    2    0    0  0.28355228287E+02  0.40583139883E+02 -0.27694915938E+03  0.29576269908E+03  0.91234462063E+02 0.  0.
         23    2    1    2    0    0 -0.46973759625E+02 -0.24389406627E+02 -0.32318963979E+03  0.33999945073E+03  0.91360308559E+02 0.  0.
        -11    1    3    3    0    0 -0.13170373016E+02  0.39498458059E+02 -0.50106060106E+02  0.65147556929E+02  0.00000000000E+00 0.  1.
         11    1    3    3    0    0  0.41525601302E+02  0.10846818239E+01 -0.22684309928E+03  0.23061514215E+03  0.00000000000E+00 0. -1.
        -13    1    4    4    0    0 -0.56570764540E+02 -0.47998798371E+02 -0.18221197106E+03  0.19673672368E+03  0.00000000000E+00 0.  1.
         13    1    4    4    0    0  0.95970049147E+01  0.23609391744E+02 -0.14097766874E+03  0.14326272706E+03  0.00000000000E+00 0. -1.
         21    1    1    2  502  501  0.18618531339E+02 -0.16193733256E+02 -0.10221865659E+03  0.10515484040E+03  0.00000000000E+00 0. -1.
<scales pt_clust_5="13000.00000" pt_clust_6="13000.00000" pt_clust_7="13000.00000" pt_clust_8="13000.00000" pt_clust_9="24.67563"></scales>
<clustering>
<clus scale="   24.676">  2  9  1 -1</clus>
<clus scale="   91.234">  5  6 -1 -1</clus>
<clus scale="   91.360">  7  8 -1 -1</clus>
<clus scale="  103.854">  1  5  2 -1</clus>
<clus scale="   24.676">  2  5  1 -1</clus>
</clustering>
</event>
<event>
 9    1  0.2075077E-005  0.1035045E+03  0.7546771E-02  0.1274105E+00
          2   -1    0    0  502    0  0.00000000000E+00  0.00000000000E+00  0.65142041190E+03  0.65142041190E+03  0.00000000000E+00 0. -1.
         -2   -1    0    0    0  501 -0.00000000000E+00 -0.00000000000E+00 -0.24145723059E+02  0.24145723059E+02  0.00000000000E+00 0.  1.
         23    2    1    2    0    0 -0.43989711363E+02  0.37360689479E+01  0.20963934028E+03  0.23322900111E+03  0.92184928539E+02 0.  0.
         23    2    1    2    0    0  0.48255653232E+02  0.25172489922E+02  0.23586289852E+03  0.25823084219E+03  0.89942196099E+02 0.  0.
        -11    1    3    3    0    0 -0.32215448932E+02 -0.25424552219E+02  0.19364754726E+03  0.19794851746E+03  0.00000000000E+00 0. -1.
         11    1    3    3    0    0 -0.11774262431E+02  0.29160621167E+02  0.15991793021E+02  0.35280483651E+02  0.00000000000E+00 0.  1.
        -13    1    4    4    0    0  0.20862003487E+02  0.44939069824E+02  0.20978292240E+03  0.21555421062E+03  0.00000000000E+00 0.  1.
         13    1    4    4    0    0  0.27393649744E+02 -0.19766579902E+02  0.26079976129E+02  0.42676631570E+02  0.00000000000E+00 0. -1.
         21    1    1    2  502  501 -0.42659418686E+01 -0.28908558870E+02  0.18177245004E+03  0.18410629166E+03  0.00000000000E+00 0. -1.
<scales pt_clust_5="13000.00000" pt_clust_6="13000.00000" pt_clust_7="13000.00000" pt_clust_8="13000.00000" pt_clust_9="29.22162"></scales>
<clustering>
<clus scale="   29.222">  1  9  2 -1</clus>
<clus scale="   89.942">  7  8 -1 -1</clus>
<clus scale="   92.185">  5  6 -1 -1</clus>
<clus scale="  101.512">  1  7  2 -1</clus>
<clus scale="   29.222">  1  5  2 -1</clus>
</clustering>
</event>
<event>
 9    1  0.2075077E-005  0.1038245E+03  0.7546771E-02  0.1273543E+00
         -1   -1    0    0    0  501 -0.00000000000E+00  0.00000000000E+00  0.25573981296E+02  0.25573981296E+02  0.00000000000E+00 0.  1.
          1   -1    0    0  502    0  0.00000000000E+00 -0.00000000000E+00 -0.61792642938E+03  0.61792642938E+03  0.00000000000E+00 0. -1.
         23    2    1    2    0    0 -0.19877083639E+02  0.28531305426E+02 -0.20302244311E+03  0.22590298215E+03  0.92762660014E+02 0.  0.
         23    2    1    2    0    0  0.31873764356E+02 -0.49227033870E+02 -0.20361885751E+03  0.23035196445E+03  0.90344621738E+02 0.  0.
        -11    1    4    4    0    0  0.57119260253E+02 -0.55307279640E+02 -0.17161805327E+03  0.18914085037E+03  0.00000000000E+00 0.  1.
         11    1    4    4    0    0 -0.25245495896E+02  0.60802457695E+01 -0.32000804243E+02  0.41211114082E+02  0.00000000000E+00 0. -1.
        -13    1    3    3    0    0 -0.12515541795E+02 -0.17293532559E+02 -0.42272593647E+01  0.21761773286E+02  0.00000000000E+00 0.  1.
         13    1    3    3    0    0 -0.73615418443E+01  0.45824837986E+02 -0.19879518375E+03  0.20414120886E+03  0.00000000000E+00 0. -1.
         21    1    1    2  502  501 -0.11996680717E+02  0.20695728444E+02 -0.18571114747E+03  0.18724546408E+03  0.00000000000E+00 0. -1.
<scales pt_clust_5="13000.00000" pt_clust_6="13000.00000" pt_clust_7="13000.00000" pt_clust_8="13000.00000" pt_clust_9="23.92140"></scales>
<clustering>
<clus scale="   23.921">  2  9  1 -1</clus>
<clus scale="   90.345">  5  6 -1 -1</clus>
<clus scale="   92.763">  7  8 -1 -1</clus>
<clus scale="  101.670">  2  5  1 -1</clus>
<clus scale="   23.921">  2  5  1 -1</clus>
</clustering>
</event>
<event>
 9    1  0.2075077E-005  0.1004306E+03  0.7546771E-02  0.1280562E+00
         -2   -1    0    0    0  501 -0.00000000000E+00  0.00000000000E+00  0.28241408398E+02  0.28241408398E+02  0.00000000000E+00 0.  1.
          2   -1    0    0  502    0  0.00000000000E+00 -0.00000000000E+00 -0.65202918229E+03  0.65202918229E+03  0.00000000000E+00 0. -1.
         23    2    1    2    0    0  0.30486769761E+02 -0.28090008279E+02 -0.12150905555E+03  0.16019857118E+03  0.95815655987E+02 0.  0.
         23    2    1    2    0    0  0.48450318807E+01  0.94059033125E+01 -0.32520948597E+03  0.33854806781E+03  0.93496733123E+02 0.  0.
        -11    1    4    4    0    0  0.40941757977E+02 -0.20814147498E+02 -0.18630774057E+03  0.19188546188E+03  0.00000000000E+00 0.  1.
         11    1    4    4    0    0 -0.36096726096E+02  0.30220050811E+02 -0.13890174540E+03  0.14666260594E+03  0.00000000000E+00 0. -1.
        -13    1    3    3    0    0 -0.28030379556E+02 -0.27404759386E+02 -0.22532090169E+02  0.45215241926E+02  0.00000000000E+00 0.  1.
         13    1    3    3    0    0  0.58517149317E+02 -0.68524889248E+00 -0.98976965383E+02  0.11498332926E+03  0.00000000000E+00 0. -1.
         21    1    1    2  502  501 -0.35331801641E+02  0.18684104966E+02 -0.17706923237E+03  0.18152395170E+03  0.00000000000E+00 0.  1.
<scales pt_clust_5="13000.00000" pt_clust_6="13000.00000" pt_clust_7="13000.00000" pt_clust_8="13000.00000" pt_clust_9="39.96789"></scales>
<clustering>
<clus scale="   39.968">  2  9  1 -1</clus>
<clus scale="   93.497">  5  6 -1 -1</clus>
<clus scale="   95.816">  7  8 -1 -1</clus>
<clus scale="   98.221">  2  5  1 -1</clus>
<clus scale="   39.968">  2  5  1 -1</clus>
</clustering>
</event>
<event>
 9    1  0.2075077E-005  0.1322801E+03  0.7546771E-02  0.1224895E+00
          2   -1    0    0  502    0  0.00000000000E+00  0.00000000000E+00  0.51490571025E+03  0.51490571025E+03  0.00000000000E+00 0. -1.
         -2   -1    0    0    0  501 -0.00000000000E+00 -0.00000000000E+00 -0.11585807485E+03  0.11585807485E+03  0.00000000000E+00 0.  1.
         23    2    1    2    0    0  0.62201763303E+02  0.79425427222E+02 -0.61924859078E+02  0.14713663438E+03  0.87390177697E+02 0.  0.
         23    2    1    2    0    0 -0.64321796638E+02 -0.55682253007E+02  0.41418879622E+03  0.43112051033E+03  0.84111406411E+02 0.  0.
        -11    1    4    4    0    0 -0.27852298729E+02 -0.73215619675E+02  0.24806958114E+03  0.26014379599E+03  0.00000000000E+00 0. -1.
         11    1    4    4    0    0 -0.36469497909E+02  0.17533366668E+02  0.16611921509E+03  0.17097671434E+03  0.00000000000E+00 0.  1.
        -11    1    3    3    0    0  0.50778014218E+02 -0.24094779249E+01 -0.22834163493E+02  0.55728012114E+02  0.00000000000E+00 0. -1.
         11    1    3    3    0    0  0.11423749085E+02  0.81834905147E+02 -0.39090695585E+02  0.91408622268E+02  0.00000000000E+00 0.  1.
         21    1    1    2  502  501  0.21200333355E+01 -0.23743174215E+02  0.46783698252E+02  0.52506640392E+02  0.00000000000E+00 0.  1.
<scales pt_clust_5="13000.00000" pt_clust_6="13000.00000" pt_clust_7="13000.00000" pt_clust_8="13000.00000" pt_clust_9="23.83764"></scales>
<clustering>
<clus scale="   23.838">  1  9  2 -1</clus>
<clus scale="   84.111">  5  6 -1 -1</clus>
<clus scale="   87.390">  7  8 -1 -1</clus>
<clus scale="  130.137">  1  5  2 -1</clus>
<clus scale="   23.838">  1  5  2 -1</clus>
</clustering>
</event>
<event>
 9    1  0.2075077E-005  0.1194453E+03  0.7546771E-02  0.1245335E+00
          1   -1    0    0  502    0  0.00000000000E+00  0.00000000000E+00  0.72132672630E+02  0.72132672630E+02  0.00000000000E+00 0. -1.
         -1   -1    0    0    0  501 -0.00000000000E+00 -0.00000000000E+00 -0.28791333202E+03  0.28791333202E+03  0.00000000000E+00 0.  1.
         23    2    1    2    0    0 -0.60948814326E+02 -0.57312522801E+02 -0.12537730035E+03  0.17581575675E+03  0.90510936574E+02 0.  0.
         23    2    1    2    0    0  0.22930301744E+02  0.61112073201E+02 -0.90168696632E+02  0.14602162390E+03  0.94506277908E+02 0.  0.
        -11    1    4    4    0    0  0.44536189191E+02  0.65648054115E+02 -0.35205495454E+02  0.86790356993E+02  0.00000000000E+00 0. -1.
         11    1    4    4    0    0 -0.21605887447E+02 -0.45359809141E+01 -0.54963201178E+02  0.59231266903E+02  0.00000000000E+00 0.  1.
        -13    1    3    3    0    0 -0.82353562938E+02 -0.45724099913E+02 -0.11670584155E+03  0.14997685186E+03  0.00000000000E+00 0.  1.
         13    1    3    3    0    0  0.21404748612E+02 -0.11588422888E+02 -0.86714588041E+01  0.25838904891E+02  0.00000000000E+00 0. -1.
         21    1    1    2  502  501  0.38018512582E+02 -0.37995504005E+01 -0.23466240817E+00  0.38208624009E+02  0.00000000000E+00 0. -1.
<scales pt_clust_5="13000.00000" pt_clust_6="13000.00000" pt_clust_7="13000.00000" pt_clust_8="13000.00000" pt_clust_9="38.20790"></scales>
<clustering>
<clus scale="   38.208">  1  9  2 -1</clus>
<clus scale="   90.511">  7  8 -1 -1</clus>
<clus scale="   94.506">  5  6 -1 -1</clus>
<clus scale="  116.310">  2  7  1 -1</clus>
<clus scale="   38.208">  1  5  2 -1</clus>
</clustering>
</event>
<event>
 9    1  0.2075077E-005  0.2065626E+03  0.7546771E-02  0.1144455E+00
         -1   -1    0    0    0  501 -0.00000000000E+00  0.00000000000E+00  0.14313571876E+04  0.14313571876E+04  0.00000000000E+00 0.  1.
          1   -1    0    0  502    0  0.00000000000E+00 -0.00000000000E+00 -0.43175525420E+02  0.43175525420E+02  0.00000000000E+00 0. -1.
         23    2    1    2    0    0 -0.76028945351E+02  0.15292446525E+03  0.65710636326E+03  0.68507623423E+03  0.91511646615E+02 0.  0.
         23    2    1    2    0    0  0.10951204555E+03 -0.17114116427E+03  0.71383629914E+03  0.74762169377E+03  0.89965264339E+02 0.  0.
        -11    1    4    4    0    0  0.84431934623E+02 -0.17335188184E+03  0.66862305897E+03  0.69587098051E+03  0.00000000000E+00 0.  1.
         11    1    4    4    0    0  0.25080110923E+02  0.22107175700E+01  0.45213240172E+02  0.51750713260E+02  0.00000000000E+00 0. -1.
        -13    1    3    3    0    0 -0.87512907877E+02  0.95053663073E+02  0.52006227931E+03  0.53587170318E+03  0.00000000000E+00 0. -1.
         13    1    3    3    0    0  0.11483962526E+02  0.57870802175E+02  0.13704408395E+03  0.14920453105E+03  0.00000000000E+00 0.  1.
         21    1    1    2  502  501 -0.33483100195E+02  0.18216699027E+02  0.17238999726E+02  0.41834784973E+02  0.00000000000E+00 0. -1.
<scales pt_clust_5="13000.00000" pt_clust_6="13000.00000" pt_clust_7="13000.00000" pt_clust_8="13000.00000" pt_clust_9="38.11779"></scales>
<clustering>
<clus scale="   38.118">  2  9  1 -1</clus>
<clus scale="   89.965">  5  6 -1 -1</clus>
<clus scale="   91.512">  7  8 -1 -1</clus>
<clus scale="  205.882">  2  5  1 -1</clus>
<clus scale="   38.118">  2  5  1 -1</clus>
</clustering>
</event>
<event>
 9    1  0.2075077E-005  0.1014030E+03  0.7546771E-02  0.1278017E+00
         -2   -1    0    0    0  501 -0.00000000000E+00  0.00000000000E+00  0.72861824514E+02  0.72861824514E+02  0.00000000000E+00 0.  1.
          2   -1    0    0  502    0  0.00000000000E+00 -0.00000000000E+00 -0.75696922756E+03  0.75696922756E+03  0.00000000000E+00 0. -1.
         23    2    1    2    0    0 -0.35061925874E+02  0.42665188321E+02  0.43861590907E+00  0.10687979484E+03  0.91506509172E+02 0.  0.
         23    2    1    2    0    0  0.27774185505E+02  0.34011457006E+02 -0.14364617690E+03  0.17659509297E+03  0.92862361231E+02 0.  0.
        -13    1    4    4    0    0  0.31402035007E+02  0.64125782416E+02 -0.11145693652E+03  0.13236635703E+03  0.00000000000E+00 0.  1.
         13    1    4    4    0    0 -0.36278495015E+01 -0.30114325410E+02 -0.32189240377E+02  0.44228735941E+02  0.00000000000E+00 0. -1.
        -13    1    3    3    0    0  0.28105369757E+02  0.40600990504E+01  0.13930981927E+02  0.31630182910E+02  0.00000000000E+00 0.  1.
         13    1    3    3    0    0 -0.63167295631E+02  0.38605089270E+02 -0.13492366018E+02  0.75249611930E+02  0.00000000000E+00 0. -1.
         21    1    1    2  502  501  0.72877403685E+01 -0.76676645327E+02 -0.54089984205E+03  0.54635616427E+03  0.00000000000E+00 0. -1.
<scales pt_clust_5="13000.00000" pt_clust_6="13000.00000" pt_clust_7="13000.00000" pt_clust_8="13000.00000" pt_clust_9="77.02220"></scales>
<clustering>
<clus scale="   77.022">  2  9  1 -1</clus>
<clus scale="   91.507">  7  8 -1 -1</clus>
<clus scale="   92.862">  5  6 -1 -1</clus>
<clus scale="  100.163">  1  7  2 -1</clus>
<clus scale="   77.022">  2  5  1 -1</clus>
</clustering>
</event>
<event>
 9    1  0.2075077E-005  0.1436339E+03  0.7546771E-02  0.1229697E+00
          2   -1    0    0  502    0  0.00000000000E+00  0.00000000000E+00  0.76558696283E+02  0.76558696283E+02  0.00000000000E+00 0. -1.
         -2   -1    0    0    0  501 -0.00000000000E+00 -0.00000000000E+00 -0.61754391563E+03  0.61754391563E+03  0.00000000000E+00 0.  1.
         23    2    1    2    0    0  0.44420606532E+02  0.56983161003E+02 -0.47727672153E+03  0.49775291380E+03  0.12142744070E+03 0.  0.
         23    2    1    2    0    0  0.31403153604E+02 -0.19684168054E+01 -0.29717646557E+02  0.96694077853E+02  0.86467181370E+02 0.  0.
        -11    1    4    4    0    0  0.24329646654E+02  0.33227679575E+02 -0.41931921374E+02  0.58773262853E+02  0.00000000000E+00 0.  1.
         11    1    4    4    0    0  0.70735069506E+01 -0.35196096381E+02  0.12214274817E+02  0.37920815001E+02  0.00000000000E+00 0. -1.
        -13    1    3    3    0    0 -0.14983179484E+02  0.61271449603E+02 -0.36737381066E+03  0.37274951772E+03  0.00000000000E+00 0.  1.
         13    1    3    3    0    0  0.59403786016E+02 -0.42882886004E+01 -0.10990291087E+03  0.12500339608E+03  0.00000000000E+00 0. -1.
         21    1    1    2  502  501 -0.75823760136E+02 -0.55014744198E+02 -0.33990851256E+02  0.99655620260E+02  0.00000000000E+00 0. -1.
<scales pt_clust_5="13000.00000" pt_clust_6="13000.00000" pt_clust_7="13000.00000" pt_clust_8="13000.00000" pt_clust_9="76.72066"></scales>
<clustering>
<clus scale="   86.467">  5  6 -1 -1</clus>
<clus scale="   92.014">  1  5  2 -1</clus>
<clus scale="   76.721">  1  9  2 -1</clus>
<clus scale="  121.427">  7  8 -1 -1</clus>
<clus scale="   92.014">  1  5  2 -1</clus>
</clustering>
</event>
<event>
 9    1  0.2673317E-005  0.2302234E+03  0.7546771E-02  0.1160690E+00
          1   -1    0    0  502    0  0.00000000000E+00  0.00000000000E+00  0.68396140737E+03  0.68396140737E+03  0.00000000000E+00 0. -1.
         -1   -1    0    0    0  501 -0.00000000000E+00 -0.00000000000E+00 -0.18017427534E+03  0.18017427534E+03  0.00000000000E+00 0.  1.
         23    2    1    2    0    0 -0.21409832114E+03 -0.19266694657E+02 -0.52102624990E+02  0.24666260536E+03  0.10917170291E+03 0.  0.
         23    2    1    2    0    0  0.51470923317E+02  0.29183444910E+01  0.26616170333E+03  0.28482118097E+03  0.87311397456E+02 0.  0.
        -11    1    4    4    0    0 -0.17761985695E+02  0.18547116784E+02  0.11491214309E+03  0.11774669552E+03  0.00000000000E+00 0.  1.
         11    1    4    4    0    0  0.69232909011E+02 -0.15628772293E+02  0.15124956024E+03  0.16707448545E+03  0.00000000000E+00 0. -1.
        -13    1    3    3    0    0 -0.18446618678E+02  0.11918613787E+02  0.25705692856E+02  0.33809965106E+02  0.00000000000E+00 0. -1.
         13    1    3    3    0    0 -0.19565170246E+03 -0.31185308444E+02 -0.77808317846E+02  0.21285264026E+03  0.00000000000E+00 0.  1.
         21    1    1    2  502  501  0.16262739782E+03  0.16348350166E+02  0.28972805368E+03  0.33265189638E+03  0.00000000000E+00 0. -1.
<scales pt_clust_5="13000.00000" pt_clust_6="13000.00000" pt_clust_7="13000.00000" pt_clust_8="13000.00000" pt_clust_9="202.69276"></scales>
<clustering>
<clus scale="   87.311">  5  6 -1 -1</clus>
<clus scale="  101.396">  1  5  2 -1</clus>
<clus scale="  109.172">  7  8 -1 -1</clus>
<clus scale="  202.693">  1  9  2 -1</clus>
<clus scale="  101.396">  1  5  2 -1</clus>
</clustering>
</event>
<event>
 9    1  0.2075077E-005  0.1764439E+03  0.7546771E-02  0.1171615E+00
         -2   -1    0    0    0  501 -0.00000000000E+00  0.00000000000E+00  0.45414135819E+03  0.45414135819E+03  0.00000000000E+00 0.  1.
          2   -1    0    0  502    0  0.00000000000E+00 -0.00000000000E+00 -0.11948353977E+03  0.11948353977E+03  0.00000000000E+00 0. -1.
         23    2    1    2    0    0 -0.14458563843E+03  0.16043100037E+01  0.20648623278E+03  0.26809020799E+03  0.91259052391E+02 0.  0.
         23    2    1    2    0    0  0.13799520330E+03 -0.83276306739E+02  0.46321161358E+02  0.18971914333E+03  0.88713493661E+02 0.  0.
        -11    1    3    3    0    0 -0.34379890908E+02  0.26220004644E+02  0.14957321770E+02  0.45751360820E+02  0.00000000000E+00 0. -1.
         11    1    3    3    0    0 -0.11020574752E+03 -0.24615694640E+02  0.19152891101E+03  0.22233884717E+03  0.00000000000E+00 0.  1.
        -13    1    4    4    0    0  0.86746814037E+02 -0.92547306952E+02  0.52483966195E+02  0.13727556402E+03  0.00000000000E+00 0.  1.
         13    1    4    4    0    0  0.51248389267E+02  0.92710002126E+01 -0.61628048375E+01  0.52443579310E+02  0.00000000000E+00 0. -1.
         21    1    1    2  502  501  0.65904351238E+01  0.81671996735E+02  0.81850424283E+02  0.11581554663E+03  0.00000000000E+00 0. -1.
<scales pt_clust_5="13000.00000" pt_clust_6="13000.00000" pt_clust_7="13000.00000" pt_clust_8="13000.00000" pt_clust_9="81.93747"></scales>
<clustering>
<clus scale="   81.937">  1  9  2 -1</clus>
<clus scale="   88.713">  7  8 -1 -1</clus>
<clus scale="   91.259">  5  6 -1 -1</clus>
<clus scale="  175.141">  2  7  1 -1</clus>
<clus scale="  175.141">  2  5  1 -1</clus>
</clustering>
</event>
<event>
 9    1  0.2075077E-005  0.1439192E+03  0.7546771E-02  0.1211161E+00
          2   -1    0    0  502    0  0.00000000000E+00  0.00000000000E+00  0.40122612499E+03  0.40122612499E+03  0.00000000000E+00 0. -1.
         -2   -1    0    0    0  501 -0.00000000000E+00 -0.00000000000E+00 -0.11374417656E+03  0.11374417656E+03  0.00000000000E+00 0.  1.
         23    2    1    2    0    0 -0.73810466952E+02  0.73548280046E+02 -0.31260067534E+02  0.14355940262E+03  0.93673772900E+02 0.  0.
         23    2    1    2    0    0  0.95964920317E+02 -0.96686990844E+02  0.27831030362E+03  0.31982656890E+03  0.79213439176E+02 0.  0.
        -13    1    4    4    0    0  0.33586889504E+02  0.90701283269E+01  0.59940155823E+02  0.69304896324E+02  0.00000000000E+00 0.  1.
         13    1    4    4    0    0  0.62378030813E+02 -0.10575711917E+03  0.21837014780E+03  0.25052167258E+03  0.00000000000E+00 0. -1.
        -13    1    3    3    0    0 -0.90237464408E+02  0.60036390379E+02 -0.45936627871E+02  0.11771721171E+03  0.00000000000E+00 0.  1.
         13    1    3    3    0    0  0.16426997456E+02  0.13511889667E+02  0.14676560338E+02  0.25842190912E+02  0.00000000000E+00 0. -1.
         21    1    1    2  502  501 -0.22154453365E+02  0.23138710798E+02  0.40431712341E+02  0.51584330025E+02  0.00000000000E+00 0.  1.
<scales pt_clust_5="13000.00000" pt_clust_6="13000.00000" pt_clust_7="13000.00000" pt_clust_8="13000.00000" pt_clust_9="32.03466"></scales>
<clustering>
<clus scale="   32.035">  1  9  2 -1</clus>
<clus scale="   79.213">  5  6 -1 -1</clus>
<clus scale="   93.674">  7  8 -1 -1</clus>
<clus scale="  134.955">  1  5  2 -1</clus>
<clus scale="   32.035">  1  5  2 -1</clus>
</clustering>
</event>
<event>
 9    1  0.2075077E-005  0.1054581E+03  0.7546771E-02  0.1270644E+00
          2   -1    0    0  502    0  0.00000000000E+00  0.00000000000E+00  0.21030138760E+03  0.21030138760E+03  0.00000000000E+00 0. -1.
         -2   -1    0    0    0  501 -0.00000000000E+00 -0.00000000000E+00 -0.12005296755E+03  0.12005296755E+03  0.00000000000E+00 0.  1.
         23    2    1    2    0    0 -0.45284470455E+00 -0.57599030844E+02 -0.30270367922E+02  0.11170633674E+03  0.90797340661E+02 0.  0.
         23    2    1    2    0    0  0.49794123718E+02  0.19787064097E+02  0.11227634738E+03  0.15594040746E+03  0.94023666358E+02 0.  0.
        -11    1    3    3    0    0 -0.11605054618E+02 -0.78810499164E+02 -0.35443977199E+02  0.87189721819E+02  0.00000000000E+00 0.  1.
         11    1    3    3    0    0  0.11152209913E+02  0.21211468319E+02  0.51736092779E+01  0.24516614921E+02  0.00000000000E+00 0. -1.
        -13    1    4    4    0    0  0.31199386522E+02 -0.53407175519E+01 -0.71836966789E+01  0.32458134285E+02  0.00000000000E+00 0.  1.
         13    1    4    4    0    0  0.18594737196E+02  0.25127781649E+02  0.11946004406E+03  0.12348227317E+03  0.00000000000E+00 0. -1.
         21    1    1    2  502  501 -0.49341279013E+02  0.37811966748E+02  0.82424405881E+01  0.62707610948E+02  0.00000000000E+00 0. -1.
<scales pt_clust_5="13000.00000" pt_clust_6="13000.00000" pt_clust_7="13000.00000" pt_clust_8="13000.00000" pt_clust_9="62.16355"></scales>
<clustering>
<clus scale="   62.164">  2  9  1 -1</clus>
<clus scale="   90.797">  5  6 -1 -1</clus>
<clus scale="   94.024">  7  8 -1 -1</clus>
<clus scale="  102.592">  2  5  1 -1</clus>
<clus scale="  105.458">  1  5  2 -1</clus>
</clustering>
</event>
<event>
 9    1  0.2075077E-005  0.9768518E+02  0.7546771E-02  0.1292235E+00
          1   -1    0    0  502    0  0.00000000000E+00  0.00000000000E+00  0.13249316082E+03  0.13249316082E+03  0.00000000000E+00 0. -1.
         -1   -1    0    0    0  501 -0.00000000000E+00 -0.00000000000E+00 -0.15077688335E+03  0.15077688335E+03  0.00000000000E+00 0.  1.
         23    2    1    2    0    0 -0.48466150054E+02  0.10990729361E+02 -0.85852886740E+02  0.13494427935E+03  0.91484843202E+02 0.  0.
         23    2    1    2    0    0 -0.21885989558E+01  0.34772805647E+01  0.32757366881E+02  0.85182371316E+02  0.78524581199E+02 0.  0.
        -11    1    4    4    0    0  0.12268676658E+02 -0.33603123253E+02  0.38218401809E+01  0.35976336412E+02  0.00000000000E+00 0.  1.
         11    1    4    4    0    0 -0.14457275613E+02  0.37080403818E+02  0.28935526700E+02  0.49206034903E+02  0.00000000000E+00 0. -1.
        -13    1    3    3    0    0 -0.44541902786E+01 -0.33513136040E+02 -0.56430372402E+02  0.65782649898E+02  0.00000000000E+00 0.  1.
         13    1    3    3    0    0 -0.44011959776E+02  0.44503865401E+02 -0.29422514338E+02  0.69161629455E+02  0.00000000000E+00 0. -1.
         21    1    1    2  502  501  0.50654749010E+02 -0.14468009925E+02  0.34811797330E+02  0.63143393493E+02  0.00000000000E+00 0.  1.
<scales pt_clust_5="13000.00000" pt_clust_6="13000.00000" pt_clust_7="13000.00000" pt_clust_8="13000.00000" pt_clust_9="52.68042"></scales>
<clustering>
<clus scale="   52.680">  1  9  2 -1</clus>
<clus scale="   78.525">  5  6 -1 -1</clus>
<clus scale="   85.668">  1  5  2 -1</clus>
<clus scale="   91.485">  7  8 -1 -1</clus>
<clus scale="   52.680">  1  5  2 -1</clus>
</clustering>
</event>
<event>
 9    1  0.2075077E-005  0.1165122E+03  0.7546771E-02  0.1255426E+00
         -1   -1    0    0    0  501 -0.00000000000E+00  0.00000000000E+00  0.13395567299E+03  0.13395567299E+03  0.00000000000E+00 0.  1.
          1   -1    0    0  502    0  0.00000000000E+00 -0.00000000000E+00 -0.12557679578E+03  0.12557679578E+03  0.00000000000E+00 0. -1.
         23    2    1    2    0    0 -0.26289091609E+01 -0.62105551042E+02  0.33667801827E+02  0.11417125127E+03  0.89652345777E+02 0.  0.
         23    2    1    2    0    0 -0.46184987345E+01  0.30301182182E+02 -0.13284131717E+02  0.11060265234E+03  0.10543712049E+03 0.  0.
        -11    1    4    4    0    0  0.30336694484E+02  0.56647284922E+02 -0.17579864160E+02  0.66620428887E+02  0.00000000000E+00 0.  1.
         11    1    4    4    0    0 -0.34955193218E+02 -0.26346102740E+02  0.42957324429E+01  0.43982223452E+02  0.00000000000E+00 0. -1.
        -13    1    3    3    0    0 -0.28533273231E+02 -0.29633501351E+02  0.54031524685E+02  0.67909481984E+02  0.00000000000E+00 0.  1.
         13    1    3    3    0    0  0.25904364070E+02 -0.32472049691E+02 -0.20363722857E+02  0.46261769287E+02  0.00000000000E+00 0. -1.
         21    1    1    2  502  501  0.72474078954E+01  0.31804368860E+02 -0.12004792901E+02  0.34758565166E+02  0.00000000000E+00 0.  1.
<scales pt_clust_5="13000.00000" pt_clust_6="13000.00000" pt_clust_7="13000.00000" pt_clust_8="13000.00000" pt_clust_9="32.61967"></scales>
<clustering>
<clus scale="   32.620">  2  9  1 -1</clus>
<clus scale="   89.652">  7  8 -1 -1</clus>
<clus scale="  102.448">  1  7  2 -1</clus>
<clus scale="  105.437">  5  6 -1 -1</clus>
<clus scale="   32.620">  2  5  1 -1</clus>
</clustering>
</event>
<event>
 9    1  0.2075077E-005  0.2111517E+03  0.7546771E-02  0.1140758E+00
          2   -1    0    0  502    0  0.00000000000E+00  0.00000000000E+00  0.40687453393E+03  0.40687453393E+03  0.00000000000E+00 0. -1.
         -2   -1    0    0    0  501 -0.00000000000E+00 -0.00000000000E+00 -0.22333080000E+03  0.22333080000E+03  0.00000000000E+00 0.  1.
         23    2    1    2    0    0 -0.14417688638E+03 -0.11509153566E+03 -0.11089431868E+03  0.23439755633E+03  0.92798859651E+02 0.  0.
         23    2    1    2    0    0  0.16888347825E+03  0.13324011008E+03  0.25787526490E+03  0.34809379766E+03  0.91624688645E+02 0.  0.
        -11    1    3    3    0    0 -0.97377406361E+02 -0.84141659606E+02 -0.12185296190E+03  0.17722957562E+03  0.00000000000E+00 0.  1.
         11    1    3    3    0    0 -0.46799480019E+02 -0.30949876058E+02  0.10958643217E+02  0.57167980716E+02  0.00000000000E+00 0. -1.
        -13    1    4    4    0    0  0.13375207792E+03  0.64016699278E+02  0.20935843357E+03  0.25655157345E+03  0.00000000000E+00 0. -1.
         13    1    4    4    0    0  0.35131400330E+02  0.69223410799E+02  0.48516831323E+02  0.91542224211E+02  0.00000000000E+00 0.  1.
         21    1    1    2  502  501 -0.24706591867E+02 -0.18148574413E+02  0.36562787715E+02  0.47713979926E+02  0.00000000000E+00 0. -1.
<scales pt_clust_5="13000.00000" pt_clust_6="13000.00000" pt_clust_7="13000.00000" pt_clust_8="13000.00000" pt_clust_9="30.65594"></scales>
<clustering>
<clus scale="   30.656">  1  9  2 -1</clus>
<clus scale="   91.625">  7  8 -1 -1</clus>
<clus scale="   92.799">  5  6 -1 -1</clus>
<clus scale="  210.638">  1  7  2 -1</clus>
<clus scale="   30.656">  1  5  2 -1</clus>
</clustering>
</event>
<event>
 9    1  0.2075077E-005  0.1141962E+03  0.7546771E-02  0.1254215E+00
          3   -1    0    0  502    0  0.00000000000E+00  0.00000000000E+00  0.39478932807E+02  0.39478932807E+02  0.00000000000E+00 0. -1.
         -3   -1    0    0    0  501 -0.00000000000E+00 -0.00000000000E+00 -0.47124790188E+03  0.47124790188E+03  0.00000000000E+00 0.  1.
         23    2    1    2    0    0 -0.41842364370E+02  0.26224930207E+02 -0.19994843123E+03  0.22681058421E+03  0.95000713342E+02 0.  0.
         23    2    1    2    0    0  0.59919096418E+02 -0.54336286597E+02 -0.21289984212E+03  0.24551040032E+03  0.91685788073E+02 0.  0.
        -11    1    4    4    0    0  0.64712657691E+02 -0.61965166799E+01 -0.74377652716E+02  0.98783399962E+02  0.00000000000E+00 0.  1.
         11    1    4    4    0    0 -0.47935612727E+01 -0.48139769917E+02 -0.13852218941E+03  0.14672700036E+03  0.00000000000E+00 0. -1.
        -11    1    3    3    0    0 -0.46150721219E+02 -0.11023636860E+02 -0.38612760173E+02  0.61174789635E+02  0.00000000000E+00 0. -1.
         11    1    3    3    0    0  0.43083568490E+01  0.37248567067E+02 -0.16133567106E+03  0.16563579457E+03  0.00000000000E+00 0.  1.
         21    1    1    2  502  501 -0.18076732048E+02  0.28111356391E+02 -0.18920695713E+02  0.38405850152E+02  0.00000000000E+00 0. -1.
<scales pt_clust_5="13000.00000" pt_clust_6="13000.00000" pt_clust_7="13000.00000" pt_clust_8="13000.00000" pt_clust_9="33.42180"></scales>
<clustering>
<clus scale="   33.422">  1  9  2 -1</clus>
<clus scale="   91.686">  5  6 -1 -1</clus>
<clus scale="   95.001">  7  8 -1 -1</clus>
<clus scale="  111.454">  1  5  2 -1</clus>
<clus scale="   33.422">  1  5  2 -1</clus>
</clustering>
</event>
<event>
 9    1  0.2075077E-005  0.1094130E+03  0.7546771E-02  0.1263484E+00
         -1   -1    0    0    0  501 -0.00000000000E+00  0.00000000000E+00  0.12480465823E+03  0.12480465823E+03  0.00000000000E+00 0.  1.
          1   -1    0    0  502    0  0.00000000000E+00 -0.00000000000E+00 -0.18518023391E+03  0.18518023391E+03  0.00000000000E+00 0. -1.
         23    2    1    2    0    0  0.19331330511E+02 -0.31587862019E+02  0.24770844882E+01  0.97584471747E+02  0.90250206716E+02 0.  0.
         23    2    1    2    0    0  0.30802546222E+01  0.82793053123E+02  0.31987365789E+01  0.12587274993E+03  0.94707653568E+02 0.  0.
        -13    1    4    4    0    0  0.15145721393E+02  0.10198245041E+03  0.10804779216E+01  0.10310664625E+03  0.00000000000E+00 0.  1.
         13    1    4    4    0    0 -0.12065466771E+02 -0.19189397290E+02  0.21182586573E+01  0.22766103674E+02  0.00000000000E+00 0. -1.
        -13    1    3    3    0    0  0.47788219287E+01 -0.61061570891E+02  0.13863370715E+02  0.62797656217E+02  0.00000000000E+00 0. -1.
         13    1    3    3    0    0  0.14552508582E+02  0.29473708872E+02 -0.11386286227E+02  0.34786815530E+02  0.00000000000E+00 0.  1.
         21    1    1    2  502  501 -0.22411585133E+02 -0.51205191104E+02 -0.66051396747E+02  0.86527670467E+02  0.00000000000E+00 0. -1.
<scales pt_clust_5="13000.00000" pt_clust_6="13000.00000" pt_clust_7="13000.00000" pt_clust_8="13000.00000" pt_clust_9="55.89500"></scales>
<clustering>
<clus scale="   55.895">  2  9  1 -1</clus>
<clus scale="   90.250">  7  8 -1 -1</clus>
<clus scale="   94.708">  5  6 -1 -1</clus>
<clus scale="  105.578">  1  7  2 -1</clus>
<clus scale="   55.895">  2  5  1 -1</clus>
</clustering>
</event>
<event>
 9    1  0.2075077E-005  0.9421242E+02  0.7546771E-02  0.1293125E+00
         -1   -1    0    0    0  501 -0.00000000000E+00  0.00000000000E+00  0.10703064515E+03  0.10703064515E+03  0.00000000000E+00 0.  1.
          1   -1    0    0  502    0  0.00000000000E+00 -0.00000000000E+00 -0.24650113509E+03  0.24650113509E+03  0.00000000000E+00 0. -1.
         23    2    1    2    0    0  0.96958504399E+01 -0.75555990253E+02  0.19894584687E+02  0.11919650286E+03  0.89494662503E+02 0.  0.
         23    2    1    2    0    0  0.10683235644E+02  0.19565172633E+02 -0.14715677573E+03  0.17351323064E+03  0.89189669031E+02 0.  0.
        -11    1    3    3    0    0 -0.89043691984E+01 -0.55102421857E+02 -0.29094506515E+02  0.62944856777E+02  0.00000000000E+00 0. -1.
         11    1    3    3    0    0  0.18600219638E+02 -0.20453568396E+02  0.48989091203E+02  0.56251646088E+02  0.00000000000E+00 0.  1.
        -13    1    4    4    0    0  0.46115933102E+02  0.26235528514E+01 -0.46848146423E+02  0.65789901495E+02  0.00000000000E+00 0.  1.
         13    1    4    4    0    0 -0.35432697458E+02  0.16941619782E+02 -0.10030862930E+03  0.10772332915E+03  0.00000000000E+00 0. -1.
         21    1    1    2  502  501 -0.20379086083E+02  0.55990817620E+02 -0.12208298897E+02  0.60822046737E+02  0.00000000000E+00 0.  1.
<scales pt_clust_5="13000.00000" pt_clust_6="13000.00000" pt_clust_7="13000.00000" pt_clust_8="13000.00000" pt_clust_9="59.58422"></scales>
<clustering>
<clus scale="   59.584">  1  9  2 -1</clus>
<clus scale="   89.190">  7  8 -1 -1</clus>
<clus scale="   89.495">  5  6 -1 -1</clus>
<clus scale="   93.923">  2  7  1 -1</clus>
<clus scale="   93.923">  2  5  1 -1</clus>
</clustering>
</event>
<event>
 9    1  0.2075077E-005  0.1222031E+03  0.7546771E-02  0.1239837E+00
          1   -1    0    0  502    0  0.00000000000E+00  0.00000000000E+00  0.23187994296E+03  0.23187994296E+03  0.00000000000E+00 0. -1.
         -1   -1    0    0    0  501 -0.00000000000E+00 -0.00000000000E+00 -0.13162287159E+03  0.13162287159E+03  0.00000000000E+00 0.  1.
         23    2    1    2    0    0 -0.48206792475E+02  0.48431413297E+02 -0.73628969977E+00  0.11220225082E+03  0.88990484505E+02 0.  0.
         23    2    1    2    0    0  0.69214167688E+02 -0.69347734081E+02 -0.12785239856E+02  0.13372347278E+03  0.90104359402E+02 0.  0.
        -13    1    3    3    0    0 -0.42805652385E+02  0.23392632042E+02 -0.41509083132E+02  0.64051097511E+02  0.00000000000E+00 0.  1.
         13    1    3    3    0    0 -0.54011400908E+01  0.25038781256E+02  0.40772793432E+02  0.48151153312E+02  0.00000000000E+00 0. -1.
        -13    1    4    4    0    0  0.19253539981E+02 -0.79525322886E+02 -0.34963139459E+01  0.81897496867E+02  0.00000000000E+00 0.  1.
         13    1    4    4    0    0  0.49960627707E+02  0.10177588805E+02 -0.92889259099E+01  0.51825975913E+02  0.00000000000E+00 0. -1.
         21    1    1    2  502  501 -0.21007375213E+02  0.20916320784E+02  0.11377860092E+03  0.11757709095E+03  0.00000000000E+00 0. -1.
<scales pt_clust_5="13000.00000" pt_clust_6="13000.00000" pt_clust_7="13000.00000" pt_clust_8="13000.00000" pt_clust_9="29.64460"></scales>
<clustering>
<clus scale="   29.645">  1  9  2 -1</clus>
<clus scale="   88.990">  5  6 -1 -1</clus>
<clus scale="   90.104">  7  8 -1 -1</clus>
<clus scale="  121.384">  2  5  1 -1</clus>
<clus scale="   29.645">  1  5  2 -1</clus>
</clustering>
</event>
<event>
 9    1  0.2075077E-005  0.1011144E+03  0.7546771E-02  0.1278468E+00
          1   -1    0    0  502    0  0.00000000000E+00  0.00000000000E+00  0.73175910609E+03  0.73175910609E+03  0.00000000000E+00 0. -1.
         -1   -1    0    0    0  501 -0.00000000000E+00 -0.00000000000E+00 -0.18342945950E+02  0.18342945950E+02  0.00000000000E+00 0.  1.
         23    2    1    2    0    0 -0.12228318146E+02  0.29944191746E+02  0.26547932830E+03  0.28248722007E+03  0.90959163179E+02 0.  0.
         23    2    1    2    0    0  0.18007083734E+02 -0.49516703015E+02  0.29811515635E+03  0.31640963439E+03  0.92012234753E+02 0.  0.
        -11    1    4    4    0    0 -0.11819604621E+02  0.23055869139E+02  0.10054021311E+03  0.10382490360E+03  0.00000000000E+00 0. -1.
         11    1    4    4    0    0  0.29826688354E+02 -0.72572572154E+02  0.19757494324E+03  0.21258473079E+03  0.00000000000E+00 0.  1.
        -13    1    3    3    0    0 -0.48967042126E+02  0.27421656140E+00  0.14710562667E+03  0.15504164540E+03  0.00000000000E+00 0.  1.
         13    1    3    3    0    0  0.36738723980E+02  0.29669975185E+02  0.11837370163E+03  0.12744557468E+03  0.00000000000E+00 0. -1.
         21    1    1    2  502  501 -0.57787655873E+01  0.19572511269E+02  0.14982167549E+03  0.15120519758E+03  0.00000000000E+00 0. -1.
<scales pt_clust_5="13000.00000" pt_clust_6="13000.00000" pt_clust_7="13000.00000" pt_clust_8="13000.00000" pt_clust_9="20.40778"></scales>
<clustering>
<clus scale="   20.408">  1  9  2 -1</clus>
<clus scale="   90.959">  7  8 -1 -1</clus>
<clus scale="   92.012">  5  6 -1 -1</clus>
<clus scale="  100.157">  2  7  1 -1</clus>
<clus scale="   20.408">  1  5  2 -1</clus>
</clustering>
</event>
<event>
 9    1  0.2075077E-005  0.9605128E+02  0.7546771E-02  0.1290189E+00
         -1   -1    0    0    0  501 -0.00000000000E+00  0.00000000000E+00  0.33862786711E+02  0.33862786711E+02  0.00000000000E+00 0.  1.
          1   -1    0    0  502    0  0.00000000000E+00 -0.00000000000E+00 -0.54714240835E+03  0.54714240835E+03  0.00000000000E+00 0. -1.
         23    2    1    2    0    0 -0.19095812975E+02  0.11806617612E+02 -0.76878617867E+02  0.12356313082E+03  0.94092928112E+02 0.  0.
         23    2    1    2    0    0 -0.92851043228E+01 -0.26055134188E+02 -0.23808772466E+03  0.25660219429E+03  0.91617892896E+02 0.  0.
        -11    1    4    4    0    0 -0.33710551902E+02  0.21021872444E+02 -0.13423743676E+03  0.13999289217E+03  0.00000000000E+00 0.  1.
         11    1    4    4    0    0  0.24425447579E+02 -0.47077006631E+02 -0.10385028791E+03  0.11660930212E+03  0.00000000000E+00 0. -1.
        -13    1    3    3    0    0 -0.30045763758E+02 -0.23517371074E+02  0.10718397372E+00  0.38155289941E+02  0.00000000000E+00 0.  1.
         13    1    3    3    0    0  0.10949950784E+02  0.35323988686E+02 -0.76985801841E+02  0.85407840881E+02  0.00000000000E+00 0. -1.
         21    1    1    2  502  501  0.28380917297E+02  0.14248516576E+02 -0.19831327911E+03  0.20083986995E+03  0.00000000000E+00 0.  1.
<scales pt_clust_5="13000.00000" pt_clust_6="13000.00000" pt_clust_7="13000.00000" pt_clust_8="13000.00000" pt_clust_9="31.75684"></scales>
<clustering>
<clus scale="   31.757">  2  9  1 -1</clus>
<clus scale="   91.618">  5  6 -1 -1</clus>
<clus scale="   93.628">  2  5  1 -1</clus>
<clus scale="   94.093">  7  8 -1 -1</clus>
<clus scale="   31.757">  2  5  1 -1</clus>
</clustering>
</event>
<event>
 9    1  0.2075077E-005  0.1002056E+03  0.7546771E-02  0.1280641E+00
          3   -1    0    0  502    0  0.00000000000E+00  0.00000000000E+00  0.34389852674E+02  0.34389852674E+02  0.00000000000E+00 0. -1.
         -3   -1    0    0    0  501 -0.00000000000E+00 -0.00000000000E+00 -0.40805177643E+03  0.40805177643E+03  0.00000000000E+00 0.  1.
         23    2    1    2    0    0 -0.40745674561E+02  0.28511823698E+00 -0.24914039642E+03  0.26898633891E+03  0.92856998147E+02 0.  0.
         23    2    1    2    0    0  0.19187567530E+02  0.98360577316E+01 -0.10252849893E+03  0.14103795717E+03  0.94417696913E+02 0.  0.
        -11    1    4    4    0    0  0.11906934498E+02 -0.23924717584E+02 -0.10308898587E+03  0.10649650797E+03  0.00000000000E+00 0.  1.
         11    1    4    4    0    0  0.72806330320E+01  0.33760775316E+02  0.56048694700E+00  0.34541449201E+02  0.00000000000E+00 0. -1.
        -13    1    3    3    0    0  0.26015549153E+02  0.85881790381E+01 -0.12313584667E+03  0.12614674927E+03  0.00000000000E+00 0. -1.
         13    1    3    3    0    0 -0.66761223714E+02 -0.83030608011E+01 -0.12600454975E+03  0.14283958964E+03  0.00000000000E+00 0.  1.
         21    1    1    2  502  501  0.21558107031E+02 -0.10121175969E+02 -0.21993028404E+02  0.32417333021E+02  0.00000000000E+00 0. -1.
<scales pt_clust_5="13000.00000" pt_clust_6="13000.00000" pt_clust_7="13000.00000" pt_clust_8="13000.00000" pt_clust_9="23.81575"></scales>
<clustering>
<clus scale="   23.816">  1  9  2 -1</clus>
<clus scale="   92.857">  7  8 -1 -1</clus>
<clus scale="   94.418">  5  6 -1 -1</clus>
<clus scale="   98.736">  2  7  1 -1</clus>
<clus scale="   23.816">  1  5  2 -1</clus>
</clustering>
</event>
<event>
 9    1  0.2075077E-005  0.1366101E+03  0.7546771E-02  0.1218934E+00
          1   -1    0    0  502    0  0.00000000000E+00  0.00000000000E+00  0.60009211492E+03  0.60009211492E+03  0.00000000000E+00 0. -1.
         -1   -1    0    0    0  501 -0.00000000000E+00 -0.00000000000E+00 -0.73358441432E+02  0.73358441432E+02  0.00000000000E+00 0.  1.
         23    2    1    2    0    0 -0.10138829705E+03  0.29350865982E+02  0.36604980341E+02  0.14693598964E+03  0.95442130919E+02 0.  0.
         23    2    1    2    0    0  0.61581658620E+02 -0.57396972966E+02  0.22591510651E+03  0.25785126080E+03  0.91449024931E+02 0.  0.
        -11    1    3    3    0    0  0.71130535717E+00  0.36921171954E+02  0.23376218669E+02  0.43704993914E+02  0.00000000000E+00 0. -1.
         11    1    3    3    0    0 -0.10209960241E+03 -0.75703059720E+01  0.13228761673E+02  0.10323099573E+03  0.00000000000E+00 0.  1.
        -13    1    4    4    0    0 -0.21344160676E+01 -0.51867026309E+02  0.56302551884E+02  0.76581469682E+02  0.00000000000E+00 0.  1.
         13    1    4    4    0    0  0.63716074688E+02 -0.55299466571E+01  0.16961255463E+03  0.18126979112E+03  0.00000000000E+00 0. -1.
         21    1    1    2  502  501  0.39806638429E+02  0.28046106984E+02  0.26421358663E+03  0.26866330590E+03  0.00000000000E+00 0. -1.
<scales pt_clust_5="13000.00000" pt_clust_6="13000.00000" pt_clust_7="13000.00000" pt_clust_8="13000.00000" pt_clust_9="48.69448"></scales>
<clustering>
<clus scale="   48.694">  1  9  2 -1</clus>
<clus scale="   91.449">  7  8 -1 -1</clus>
<clus scale="   95.442">  5  6 -1 -1</clus>
<clus scale="  133.851">  1  7  2 -1</clus>
<clus scale="   48.694">  1  5  2 -1</clus>
</clustering>
</event>
<event>
 9    1  0.2075077E-005  0.1133274E+03  0.7546771E-02  0.1255585E+00
          1   -1    0    0  502    0  0.00000000000E+00  0.00000000000E+00  0.93184581862E+02  0.93184581862E+02  0.00000000000E+00 0. -1.
         -1   -1    0    0    0  501 -0.00000000000E+00 -0.00000000000E+00 -0.21081359358E+03  0.21081359358E+03  0.00000000000E+00 0.  1.
         23    2    1    2    0    0 -0.49920991045E+02  0.35046734499E+02 -0.11275633541E+03  0.15662199455E+03  0.89978214348E+02 0.  0.
         23    2    1    2    0    0  0.69921366432E+02 -0.28236657348E+02 -0.20149681098E+02  0.12130360828E+03  0.92856068366E+02 0.  0.
        -11    1    4    4    0    0  0.92256089485E+02 -0.21880388810E+02 -0.81501416502E+01  0.95164921428E+02  0.00000000000E+00 0.  1.
         11    1    4    4    0    0 -0.22334723053E+02 -0.63562685379E+01 -0.11999539448E+02  0.26138686856E+02  0.00000000000E+00 0. -1.
        -13    1    3    3    0    0 -0.11699637013E+02 -0.29434355913E+02 -0.20400758000E+02  0.37675638564E+02  0.00000000000E+00 0.  1.
         13    1    3    3    0    0 -0.38221354032E+02  0.64481090412E+02 -0.92355577410E+02  0.11894635599E+03  0.00000000000E+00 0. -1.
         21    1    1    2  502  501 -0.20000375387E+02 -0.68100771515E+01  0.15277004795E+02  0.26072572599E+02  0.00000000000E+00 0.  1.
<scales pt_clust_5="13000.00000" pt_clust_6="13000.00000" pt_clust_7="13000.00000" pt_clust_8="13000.00000" pt_clust_9="21.12799"></scales>
<clustering>
<clus scale="   21.128">  1  9  2 -1</clus>
<clus scale="   89.978">  7  8 -1 -1</clus>
<clus scale="   92.856">  5  6 -1 -1</clus>
<clus scale="  110.982">  2  7  1 -1</clus>
<clus scale="   21.128">  1  5  2 -1</clus>
</clustering>
</event>
<event>
 9    1  0.2689635E-005  0.1425679E+03  0.7546771E-02  0.1218665E+00
         -2   -1    0    0    0  501 -0.00000000000E+00  0.00000000000E+00  0.16785355314E+03  0.16785355314E+03  0.00000000000E+00 0.  1.
          2   -1    0    0  502    0  0.00000000000E+00 -0.00000000000E+00 -0.37249652855E+03  0.37249652855E+03  0.00000000000E+00 0. -1.
         23    2    1    2    0    0 -0.72130410819E+01  0.84926114658E+02  0.11849864793E+03  0.18640280729E+03  0.11592930645E+03 0.  0.
         23    2    1    2    0    0  0.31450602660E+02 -0.61650781559E+02 -0.26759496553E+03  0.28902707941E+03  0.84496318163E+02 0.  0.
        -11    1    3    3    0    0  0.17055704664E+02  0.91578444929E+02  0.35524920041E+02  0.99697184420E+02  0.00000000000E+00 0.  1.
         11    1    3    3    0    0 -0.24268745746E+02 -0.66523302713E+01  0.82973727889E+02  0.86705622874E+02  0.00000000000E+00 0. -1.
        -11    1    4    4    0    0 -0.26255101056E+02 -0.36314581986E+02 -0.89126075664E+02  0.99757388496E+02  0.00000000000E+00 0. -1.
         11    1    4    4    0    0  0.57705703717E+02 -0.25336199573E+02 -0.17846888986E+03  0.18926969092E+03  0.00000000000E+00 0.  1.
         21    1    1    2  502  501 -0.24237561578E+02 -0.23275333099E+02 -0.55546657821E+02  0.64920194987E+02  0.00000000000E+00 0.  1.
<scales pt_clust_5="13000.00000" pt_clust_6="13000.00000" pt_clust_7="13000.00000" pt_clust_8="13000.00000" pt_clust_9="33.60358"></scales>
<clustering>
<clus scale="   33.604">  2  9  1 -1</clus>
<clus scale="   84.496">  7  8 -1 -1</clus>
<clus scale="  115.929">  5  6 -1 -1</clus>
<clus scale="  118.430">  2  7  1 -1</clus>
<clus scale="   33.604">  2  5  1 -1</clus>
</clustering>
</event>
<event>
 9    1  0.2075077E-005  0.1142554E+03  0.7546771E-02  0.1253220E+00
         -1   -1    0    0    0  501 -0.00000000000E+00  0.00000000000E+00  0.29984104021E+02  0.29984104021E+02  0.00000000000E+00 0.  1.
          1   -1    0    0  502    0  0.00000000000E+00 -0.00000000000E+00 -0.67737905042E+03  0.67737905042E+03  0.00000000000E+00 0. -1.
         23    2    1    2    0    0 -0.49068823371E+02  0.65174400285E+02 -0.19671566141E+03  0.23189478479E+03  0.91775203030E+02 0.  0.
         23    2    1    2    0    0  0.50093748370E+02 -0.21533688562E+02 -0.28237985788E+03  0.30159985796E+03  0.90835052797E+02 0.  0.
        -11    1    4    4    0    0  0.15054687244E+02 -0.46222305184E+02 -0.71844412063E+02  0.86745401315E+02  0.00000000000E+00 0.  1.
         11    1    4    4    0    0  0.35039061126E+02  0.24688616622E+02 -0.21053544581E+03  0.21485445664E+03  0.00000000000E+00 0. -1.
        -13    1    3    3    0    0 -0.50336887974E+02  0.12347346959E+01 -0.46115987324E+02  0.68278921693E+02  0.00000000000E+00 0.  1.
         13    1    3    3    0    0  0.12680646030E+01  0.63939665589E+02 -0.15059967408E+03  0.16361586310E+03  0.00000000000E+00 0. -1.
         21    1    1    2  502  501 -0.10249249984E+01 -0.43640711723E+02 -0.16829942711E+03  0.17386851169E+03  0.00000000000E+00 0.  1.
<scales pt_clust_5="13000.00000" pt_clust_6="13000.00000" pt_clust_7="13000.00000" pt_clust_8="13000.00000" pt_clust_9="43.65275"></scales>
<clustering>
<clus scale="   43.653">  2  9  1 -1</clus>
<clus scale="   90.835">  5  6 -1 -1</clus>
<clus scale="   91.775">  7  8 -1 -1</clus>
<clus scale="  113.502">  2  5  1 -1</clus>
<clus scale="   43.653">  2  5  1 -1</clus>
</clustering>
</event>
<event>
 9    1  0.2075077E-005  0.1297516E+03  0.7546771E-02  0.1243692E+00
          2   -1    0    0  502    0  0.00000000000E+00  0.00000000000E+00  0.80253877634E+03  0.80253877634E+03  0.00000000000E+00 0. -1.
         -2   -1    0    0    0  501 -0.00000000000E+00 -0.00000000000E+00 -0.50454201766E+02  0.50454201766E+02  0.00000000000E+00 0.  1.
         23    2    1    2    0    0 -0.90082167747E+02  0.18019180900E+02  0.75973193280E+02  0.14940562987E+03  0.90059026821E+02 0.  0.
         23    2    1    2    0    0 -0.99944715355E+01 -0.17289510720E+02  0.29476754513E+03  0.30932983401E+03  0.91641823983E+02 0.  0.
        -11    1    3    3    0    0  0.96633195583E+01  0.25710285589E+02  0.24937468910E+02  0.37098192484E+02  0.00000000000E+00 0. -1.
         11    1    3    3    0    0 -0.99745487306E+02 -0.76911046890E+01  0.51035724371E+02  0.11230743738E+03  0.00000000000E+00 0.  1.
        -13    1    4    4    0    0 -0.13736433916E+02  0.29373985804E+02  0.46517517673E+02  0.56704498139E+02  0.00000000000E+00 0.  1.
         13    1    4    4    0    0  0.37419623801E+01 -0.46663496524E+02  0.24825002746E+03  0.25262533587E+03  0.00000000000E+00 0. -1.
         21    1    1    2  502  501  0.10007663928E+03 -0.72967017939E+00  0.38134383616E+03  0.39425751423E+03  0.00000000000E+00 0. -1.
<scales pt_clust_5="13000.00000" pt_clust_6="13000.00000" pt_clust_7="13000.00000" pt_clust_8="13000.00000" pt_clust_9="93.40687"></scales>
<clustering>
<clus scale="   90.059">  5  6 -1 -1</clus>
<clus scale="   91.642">  7  8 -1 -1</clus>
<clus scale="   93.793">  1  7  2 -1</clus>
<clus scale="   93.407">  1  9  2 -1</clus>
<clus scale="   93.793">  1  5  2 -1</clus>
</clustering>
</event>
<event>
 9    1  0.2075077E-005  0.1332139E+03  0.7546771E-02  0.1231928E+00
          2   -1    0    0  502    0  0.00000000000E+00  0.00000000000E+00  0.67828619047E+03  0.67828619047E+03  0.00000000000E+00 0. -1.
         -2   -1    0    0    0  501 -0.00000000000E+00 -0.00000000000E+00 -0.46632020561E+02  0.46632020561E+02  0.00000000000E+00 0.  1.
         23    2    1    2    0    0  0.29265027700E+02  0.13481456456E+01  0.17497406461E+03  0.21210331795E+03  0.11624816065E+03 0.  0.
         23    2    1    2    0    0 -0.97705104303E+02 -0.34581913823E+02  0.18038285965E+03  0.22623384802E+03  0.88890841860E+02 0.  0.
        -11    1    4    4    0    0 -0.38105961388E+02 -0.56401166539E+02  0.12345345869E+03  0.14097486423E+03  0.00000000000E+00 0.  1.
         11    1    4    4    0    0 -0.59599142915E+02  0.21819252716E+02  0.56929400953E+02  0.85258983797E+02  0.00000000000E+00 0. -1.
        -13    1    3    3    0    0  0.15639658485E+02 -0.45565503819E+02  0.24800827556E+02  0.54183900776E+02  0.00000000000E+00 0.  1.
         13    1    3    3    0    0  0.13625369215E+02  0.46913649465E+02  0.15017323706E+03  0.15791941717E+03  0.00000000000E+00 0. -1.
         21    1    1    2  502  501  0.68440076603E+02  0.33233768177E+02  0.27629724565E+03  0.28658104506E+03  0.00000000000E+00 0. -1.
<scales pt_clust_5="13000.00000" pt_clust_6="13000.00000" pt_clust_7="13000.00000" pt_clust_8="13000.00000" pt_clust_9="76.08237"></scales>
<clustering>
<clus scale="   76.082">  1  9  2 -1</clus>
<clus scale="   88.891">  5  6 -1 -1</clus>
<clus scale="  110.154">  1  5  2 -1</clus>
<clus scale="  116.248">  7  8 -1 -1</clus>
<clus scale="   76.082">  1  5  2 -1</clus>
</clustering>
</event>
<event>
 9    1  0.2075077E-005  0.1517342E+03  0.7546771E-02  0.1199079E+00
         -1   -1    0    0    0  501 -0.00000000000E+00  0.00000000000E+00  0.50732688427E+02  0.50732688427E+02  0.00000000000E+00 0.  1.
          1   -1    0    0  502    0  0.00000000000E+00 -0.00000000000E+00 -0.73189291709E+03  0.73189291709E+03  0.00000000000E+00 0. -1.
         23    2    1    2    0    0  0.30988956058E+02 -0.12606966208E+03 -0.22536969144E+03  0.27478254332E+03  0.88657053875E+02 0.  0.
         23    2    1    2    0    0 -0.87784525433E+02  0.80833393636E+02 -0.32028315436E+03  0.35410852641E+03  0.92581796673E+02 0.  0.
        -13    1    4    4    0    0 -0.64838472078E+02  0.21793279943E+02 -0.25135281093E+03  0.26049416514E+03  0.00000000000E+00 0. -1.
         13    1    4    4    0    0 -0.22946053356E+02  0.59040113692E+02 -0.68930343436E+02  0.93614361268E+02  0.00000000000E+00 0.  1.
        -13    1    3    3    0    0  0.30442236237E+02 -0.20178321314E+02 -0.15429100029E+02  0.39647843900E+02  0.00000000000E+00 0.  1.
         13    1    3    3    0    0  0.54671982029E+00 -0.10589134076E+03 -0.20994059141E+03  0.23513469942E+03  0.00000000000E+00 0. -1.
         21    1    1    2  502  501  0.56795569376E+02  0.45236268441E+02 -0.13550738286E+03  0.15373453579E+03  0.00000000000E+00 0.  1.
<scales pt_clust_5="13000.00000" pt_clust_6="13000.00000" pt_clust_7="13000.00000" pt_clust_8="13000.00000" pt_clust_9="72.60893"></scales>
<clustering>
<clus scale="   72.609">  2  9  1 -1</clus>
<clus scale="   88.657">  7  8 -1 -1</clus>
<clus scale="   92.582">  5  6 -1 -1</clus>
<clus scale="  149.372">  1  7  2 -1</clus>
<clus scale="   72.609">  2  5  1 -1</clus>
</clustering>
</event>
<event>
 9    1  0.2075077E-005  0.1422010E+03  0.7546771E-02  0.1211234E+00
          1   -1    0    0  502    0  0.00000000000E+00  0.00000000000E+00  0.37077772195E+03  0.37077772195E+03  0.00000000000E+00 0. -1.
         -1   -1    0    0    0  501 -0.00000000000E+00 -0.00000000000E+00 -0.10732694836E+03  0.10732694836E+03  0.00000000000E+00 0.  1.
         23    2    1    2    0    0  0.45099332375E+02 -0.10956506761E+03  0.92738752915E+00  0.14729178937E+03  0.87496041896E+02 0.  0.
         23    2    1    2    0    0 -0.21441960828E+02  0.90391607965E+02  0.96944771115E+02  0.16245739242E+03  0.91453350034E+02 0.  0.
        -13    1    4    4    0    0 -0.45976747547E+02  0.26011975705E+02  0.71750804439E+02  0.89099170213E+02  0.00000000000E+00 0. -1.
         13    1    4    4    0    0  0.24534786719E+02  0.64379632259E+02  0.25193966676E+02  0.73358222212E+02  0.00000000000E+00 0.  1.
        -13    1    3    3    0    0  0.27132837964E+02  0.26118933767E+01 -0.17224269460E+02  0.32244198570E+02  0.00000000000E+00 0.  1.
         13    1    3    3    0    0  0.17966494412E+02 -0.11217696099E+03  0.18151656989E+02  0.11504759080E+03  0.00000000000E+00 0. -1.
         21    1    1    2  502  501 -0.23657371547E+02  0.19173459648E+02  0.16557861495E+03  0.16835548851E+03  0.00000000000E+00 0. -1.
<scales pt_clust_5="13000.00000" pt_clust_6="13000.00000" pt_clust_7="13000.00000" pt_clust_8="13000.00000" pt_clust_9="30.45148"></scales>
<clustering>
<clus scale="   30.451">  1  9  2 -1</clus>
<clus scale="   87.496">  7  8 -1 -1</clus>
<clus scale="   91.453">  5  6 -1 -1</clus>
<clus scale="  139.689">  2  7  1 -1</clus>
<clus scale="   30.451">  1  5  2 -1</clus>
</clustering>
</event>
<event>
 9    1  0.2075077E-005  0.9909255E+02  0.7546771E-02  0.1293203E+00
          2   -1    0    0  502    0  0.00000000000E+00  0.00000000000E+00  0.16462384005E+03  0.16462384005E+03  0.00000000000E+00 0. -1.
         -2   -1    0    0    0  501 -0.00000000000E+00 -0.00000000000E+00 -0.18867388088E+03  0.18867388088E+03  0.00000000000E+00 0.  1.
         23    2    1    2    0    0 -0.25995506020E+02  0.28607064584E+02 -0.15184674156E+03  0.18200802197E+03  0.92603221671E+02 0.  0.
         23    2    1    2    0    0  0.85046634233E+01 -0.18790126303E+02  0.48771338664E+02  0.89758663745E+02  0.72474658301E+02 0.  0.
        -11    1    4    4    0    0 -0.17277613225E+02 -0.30861660784E+02  0.25333471532E+01  0.35459496230E+02  0.00000000000E+00 0.  1.
         11    1    4    4    0    0  0.25782276649E+02  0.12071534480E+02  0.46237991510E+02  0.54299167515E+02  0.00000000000E+00 0. -1.
        -13    1    3    3    0    0 -0.56804424436E+02  0.23783423062E+02 -0.13025304166E+03  0.14407723175E+03  0.00000000000E+00 0.  1.
         13    1    3    3    0    0  0.30808918416E+02  0.48236415218E+01 -0.21593699897E+02  0.37930790220E+02  0.00000000000E+00 0. -1.
         21    1    1    2  502  501  0.17490842597E+02 -0.98169382807E+01  0.79025362068E+02  0.81531035207E+02  0.00000000000E+00 0. -1.
<scales pt_clust_5="13000.00000" pt_clust_6="13000.00000" pt_clust_7="13000.00000" pt_clust_8="13000.00000" pt_clust_9="20.05746"></scales>
<clustering>
<clus scale="   20.057">  1  9  2 -1</clus>
<clus scale="   72.475">  5  6 -1 -1</clus>
<clus scale="   80.601">  1  5  2 -1</clus>
<clus scale="   92.603">  7  8 -1 -1</clus>
<clus scale="   20.057">  1  5  2 -1</clus>
</clustering>
</event>
<event>
 9    1  0.2075077E-005  0.1480832E+03  0.7546771E-02  0.1208188E+00
          1   -1    0    0  502    0  0.00000000000E+00  0.00000000000E+00  0.16718415673E+03  0.16718415673E+03  0.00000000000E+00 0. -1.
         -1   -1    0    0    0  501 -0.00000000000E+00 -0.00000000000E+00 -0.19637726876E+03  0.19637726876E+03  0.00000000000E+00 0.  1.
         23    2    1    2    0    0  0.41111813279E+02  0.83313938721E+02 -0.10898863106E+03  0.17018957238E+03  0.91948764376E+02 0.  0.
         23    2    1    2    0    0 -0.26871337019E+02 -0.99417840119E+02  0.62325298145E+02  0.16567103323E+03  0.11382650295E+03 0.  0.
        -11    1    3    3    0    0  0.18041661892E+02  0.10023156814E+03 -0.80498767005E+02  0.12981494639E+03  0.00000000000E+00 0.  1.
         11    1    3    3    0    0  0.23070151387E+02 -0.16917629421E+02 -0.28489864054E+02  0.40374625993E+02  0.00000000000E+00 0. -1.
        -13    1    4    4    0    0 -0.51138147561E+02 -0.82827444135E+02  0.64528811248E+00  0.97344296364E+02  0.00000000000E+00 0.  1.
         13    1    4    4    0    0  0.24266810541E+02 -0.16590395984E+02  0.61680010033E+02  0.68326736863E+02  0.00000000000E+00 0. -1.
         21    1    1    2  502  501 -0.14240476260E+02  0.16103901397E+02  0.17470220880E+02  0.27700819878E+02  0.00000000000E+00 0. -1.
<scales pt_clust_5="13000.00000" pt_clust_6="13000.00000" pt_clust_7="13000.00000" pt_clust_8="13000.00000" pt_clust_9="21.49713"></scales>
<clustering>
<clus scale="   21.497">  1  9  2 -1</clus>
<clus scale="   91.949">  5  6 -1 -1</clus>
<clus scale="  113.827">  7  8 -1 -1</clus>
<clus scale="  132.010">  2  5  1 -1</clus>
<clus scale="   21.497">  1  5  2 -1</clus>
</clustering>
</event>
<event>
 9    1  0.2075077E-005  0.1475632E+03  0.7546771E-02  0.1203740E+00
          2   -1    0    0  502    0  0.00000000000E+00  0.00000000000E+00  0.45382853377E+03  0.45382853377E+03  0.00000000000E+00 0. -1.
         -2   -1    0    0    0  501 -0.00000000000E+00 -0.00000000000E+00 -0.63795725395E+02  0.63795725395E+02  0.00000000000E+00 0.  1.
         23    2    1    2    0    0 -0.31660920858E+02  0.91046529087E+02  0.94246252169E+02  0.16334984457E+03  0.92243868652E+02 0.  0.
         23    2    1    2    0    0  0.22155793112E+02 -0.12558183398E+03  0.26055958543E+03  0.30403524455E+03  0.91018987984E+02 0.  0.
        -13    1    3    3    0    0 -0.40814874548E+02  0.20348536785E+02  0.77811596816E+02  0.90191804133E+02  0.00000000000E+00 0.  1.
         13    1    3    3    0    0  0.91539536893E+01  0.70697992302E+02  0.16434655353E+02  0.73158040435E+02  0.00000000000E+00 0. -1.
        -13    1    4    4    0    0  0.16049461375E+02 -0.67089305204E+02  0.22493832472E+03  0.23527815456E+03  0.00000000000E+00 0. -1.
         13    1    4    4    0    0  0.61063317364E+01 -0.58492528774E+02  0.35621260713E+02  0.68757089994E+02  0.00000000000E+00 0.  1.
         21    1    1    2  502  501  0.95051277463E+01  0.34535304891E+02  0.35226970776E+02  0.50239170052E+02  0.00000000000E+00 0. -1.
<scales pt_clust_5="13000.00000" pt_clust_6="13000.00000" pt_clust_7="13000.00000" pt_clust_8="13000.00000" pt_clust_9="35.81947"></scales>
<clustering>
<clus scale="   35.819">  2  9  1 -1</clus>
<clus scale="   91.019">  7  8 -1 -1</clus>
<clus scale="   92.244">  5  6 -1 -1</clus>
<clus scale="  146.801">  1  7  2 -1</clus>
<clus scale="  146.801">  1  5  2 -1</clus>
</clustering>
</event>
<event>
 9    1  0.2075077E-005  0.1006787E+03  0.7546771E-02  0.1282462E+00
         -1   -1    0    0    0  501 -0.00000000000E+00  0.00000000000E+00  0.29566041463E+03  0.29566041463E+03  0.00000000000E+00 0.  1.
          1   -1    0    0  502    0  0.00000000000E+00 -0.00000000000E+00 -0.16759779849E+03  0.16759779849E+03  0.00000000000E+00 0. -1.
         23    2    1    2    0    0 -0.17577187629E+02  0.18464411135E+02  0.26166528523E+03  0.27798244972E+03  0.90308520380E+02 0.  0.
         23    2    1    2    0    0  0.12596810001E+02 -0.39077004868E+02 -0.98971460849E+02  0.14466783601E+03  0.97199489622E+02 0.  0.
        -13    1    4    4    0    0 -0.33010118742E+02  0.19096081556E+01 -0.64760372016E+01  0.33693524608E+02  0.00000000000E+00 0. -1.
         13    1    4    4    0    0  0.45606928743E+02 -0.40986613023E+02 -0.92495423647E+02  0.11097431141E+03  0.00000000000E+00 0.  1.
        -13    1    3    3    0    0 -0.10692131817E+02  0.54699325752E+02  0.13489022247E+03  0.14595105357E+03  0.00000000000E+00 0.  1.
         13    1    3    3    0    0 -0.68850558110E+01 -0.36234914616E+02  0.12677506276E+03  0.13203139614E+03  0.00000000000E+00 0. -1.
         21    1    1    2  502  501  0.49803776275E+01  0.20612593732E+02 -0.34631208248E+02  0.40607927384E+02  0.00000000000E+00 0.  1.
<scales pt_clust_5="13000.00000" pt_clust_6="13000.00000" pt_clust_7="13000.00000" pt_clust_8="13000.00000" pt_clust_9="21.20573"></scales>
<clustering>
<clus scale="   21.206">  2  9  1 -1</clus>
<clus scale="   90.309">  7  8 -1 -1</clus>
<clus scale="   94.043">  1  7  2 -1</clus>
<clus scale="   97.199">  5  6 -1 -1</clus>
<clus scale="   21.206">  2  5  1 -1</clus>
</clustering>
</event>
<event>
 9    1  0.2075077E-005  0.1352572E+03  0.7546771E-02  0.1220176E+00
          4   -1    0    0  502    0  0.00000000000E+00  0.00000000000E+00  0.44924155605E+03  0.44924155605E+03  0.00000000000E+00 0. -1.
         -4   -1    0    0    0  501 -0.00000000000E+00 -0.00000000000E+00 -0.72328412361E+02  0.72328412361E+02  0.00000000000E+00 0.  1.
         23    2    1    2    0    0  0.94838290463E+02  0.23924040149E+02  0.30284285864E+02  0.13658449055E+03  0.90396482535E+02 0.  0.
         23    2    1    2    0    0 -0.96191913236E+02 -0.44360435654E+02  0.25369626768E+03  0.28982274951E+03  0.91731660146E+02 0.  0.
        -11    1    3    3    0    0  0.33287299571E+02  0.95938282864E+00  0.56717039529E+02  0.65770717657E+02  0.00000000000E+00 0. -1.
         11    1    3    3    0    0  0.61550990892E+02  0.22964657320E+02 -0.26432753666E+02  0.70813772897E+02  0.00000000000E+00 0.  1.
        -13    1    4    4    0    0 -0.24352474854E+02 -0.12956328980E+02  0.37137349946E+01  0.27833456842E+02  0.00000000000E+00 0.  1.
         13    1    4    4    0    0 -0.71839438382E+02 -0.31404106675E+02  0.24998253269E+03  0.26198929267E+03  0.00000000000E+00 0. -1.
         21    1    1    2  502  501  0.13536227733E+01  0.20436395506E+02  0.92932590148E+02  0.95162728353E+02  0.00000000000E+00 0.  1.
<scales pt_clust_5="13000.00000" pt_clust_6="13000.00000" pt_clust_7="13000.00000" pt_clust_8="13000.00000" pt_clust_9="20.48118"></scales>
<clustering>
<clus scale="   20.481">  1  9  2 -1</clus>
<clus scale="   90.396">  5  6 -1 -1</clus>
<clus scale="   91.732">  7  8 -1 -1</clus>
<clus scale="  134.355">  2  5  1 -1</clus>
<clus scale="   20.481">  1  5  2 -1</clus>
</clustering>
</event>
<event>
 9    1  0.2075077E-005  0.1027299E+03  0.7546771E-02  0.1275457E+00
         -2   -1    0    0    0  501 -0.00000000000E+00  0.00000000000E+00  0.58368378932E+03  0.58368378932E+03  0.00000000000E+00 0.  1.
          2   -1    0    0  502    0  0.00000000000E+00 -0.00000000000E+00 -0.44247114142E+02  0.44247114142E+02  0.00000000000E+00 0. -1.
         23    2    1    2    0    0  0.43989728560E+02  0.22508872410E+02  0.46565267870E+03  0.47729857068E+03  0.92410837260E+02 0.  0.
         23    2    1    2    0    0 -0.26816847171E+02 -0.93467940315E+01  0.83893469167E+02  0.12675033956E+03  0.90669887824E+02 0.  0.
        -13    1    4    4    0    0 -0.32490994574E+02  0.12096891990E+02 -0.50920696653E+01  0.35041813562E+02  0.00000000000E+00 0. -1.
         13    1    4    4    0    0  0.56741474028E+01 -0.21443686022E+02  0.88985538832E+02  0.91708525995E+02  0.00000000000E+00 0.  1.
        -13    1    3    3    0    0 -0.22066108036E+02 -0.99376270843E+01  0.54789326991E+02  0.59896075898E+02  0.00000000000E+00 0.  1.
         13    1    3    3    0    0  0.66055836596E+02  0.32446499494E+02  0.41086335170E+03  0.41740249478E+03  0.00000000000E+00 0. -1.
         21    1    1    2  502  501 -0.17172881389E+02 -0.13162078379E+02 -0.10109472682E+02  0.23881993224E+02  0.00000000000E+00 0. -1.
<scales pt_clust_5="13000.00000" pt_clust_6="13000.00000" pt_clust_7="13000.00000" pt_clust_8="13000.00000" pt_clust_9="21.63673"></scales>
<clustering>
<clus scale="   21.637">  2  9  1 -1</clus>
<clus scale="   90.670">  5  6 -1 -1</clus>
<clus scale="   92.411">  7  8 -1 -1</clus>
<clus scale="  101.167">  2  5  1 -1</clus>
<clus scale="   21.637">  2  5  1 -1</clus>
</clustering>
</event>
<event>
 9    1  0.2075077E-005  0.9328649E+02  0.7546771E-02  0.1295404E+00
          2   -1    0    0  502    0  0.00000000000E+00  0.00000000000E+00  0.48526828559E+03  0.48526828559E+03  0.00000000000E+00 0. -1.
         -2   -1    0    0    0  501 -0.00000000000E+00 -0.00000000000E+00 -0.28157526037E+02  0.28157526037E+02  0.00000000000E+00 0.  1.
         23    2    1    2    0    0  0.96688355972E+01  0.11133070392E+01  0.11944483780E+03  0.15150154203E+03  0.92687227418E+02 0.  0.
         23    2    1    2    0    0  0.22530945385E+02  0.82988731266E+01  0.23684202877E+03  0.25566575263E+03  0.93243314411E+02 0.  0.
        -13    1    4    4    0    0 -0.23217313260E+02  0.34200432223E+02  0.76909117115E+02  0.87313947882E+02  0.00000000000E+00 0. -1.
         13    1    4    4    0    0  0.45748258645E+02 -0.25901559096E+02  0.15993291165E+03  0.16835180475E+03  0.00000000000E+00 0.  1.
        -13    1    3    3    0    0 -0.36802680488E+02 -0.20229812494E+02  0.56622844216E+02  0.70497014772E+02  0.00000000000E+00 0. -1.
         13    1    3    3    0    0  0.46471516085E+02  0.21343119533E+02  0.62821993584E+02  0.81004527259E+02  0.00000000000E+00 0.  1.
         21    1    1    2  502  501 -0.32199780982E+02 -0.94121801658E+01  0.10082389299E+03  0.10625851697E+03  0.00000000000E+00 0. -1.
<scales pt_clust_5="13000.00000" pt_clust_6="13000.00000" pt_clust_7="13000.00000" pt_clust_8="13000.00000" pt_clust_9="33.54721"></scales>
<clustering>
<clus scale="   33.547">  1  9  2 -1</clus>
<clus scale="   92.687">  7  8 -1 -1</clus>
<clus scale="   92.731">  2  7  1 -1</clus>
<clus scale="   93.243">  5  6 -1 -1</clus>
<clus scale="   33.547">  1  5  2 -1</clus>
</clustering>
</event>
<event>
 9    1  0.2075077E-005  0.1219563E+03  0.7546771E-02  0.1243266E+00
          1   -1    0    0  502    0  0.00000000000E+00  0.00000000000E+00  0.61328569553E+03  0.61328569553E+03  0.00000000000E+00 0. -1.
         -1   -1    0    0    0  501 -0.00000000000E+00 -0.00000000000E+00 -0.38868233954E+02  0.38868233954E+02  0.00000000000E+00 0.  1.
         23    2    1    2    0    0 -0.34387947760E+02 -0.34038224876E+02  0.15875428627E+03  0.19444325248E+03  0.10131200977E+03 0.  0.
         23    2    1    2    0    0  0.67328317562E+02  0.77192445161E+02  0.29642676714E+03  0.32669664827E+03  0.91488227549E+02 0.  0.
        -13    1    3    3    0    0 -0.44268993346E+02  0.17998361013E+02  0.11894108219E+03  0.12818215868E+03  0.00000000000E+00 0. -1.
         13    1    3    3    0    0  0.98810455861E+01 -0.52036585889E+02  0.39813204074E+02  0.66261093799E+02  0.00000000000E+00 0.  1.
        -13    1    4    4    0    0  0.34608706520E+02  0.38443480437E+01  0.23033272576E+02  0.41750128436E+02  0.00000000000E+00 0. -1.
         13    1    4    4    0    0  0.32719611042E+02  0.73348097117E+02  0.27339349456E+03  0.28494651983E+03  0.00000000000E+00 0.  1.
         21    1    1    2  502  501 -0.32940369802E+02 -0.43154220284E+02  0.11923640818E+03  0.13101402874E+03  0.00000000000E+00 0. -1.
<scales pt_clust_5="13000.00000" pt_clust_6="13000.00000" pt_clust_7="13000.00000" pt_clust_8="13000.00000" pt_clust_9="54.28954"></scales>
<clustering>
<clus scale="   54.290">  1  9  2 -1</clus>
<clus scale="   91.488">  7  8 -1 -1</clus>
<clus scale="  101.312">  5  6 -1 -1</clus>
<clus scale="  113.927">  1  7  2 -1</clus>
<clus scale="   54.290">  1  5  2 -1</clus>
</clustering>
</event>
<event>
 9    1  0.2075077E-005  0.9601931E+02  0.7546771E-02  0.1290553E+00
         -1   -1    0    0    0  501 -0.00000000000E+00  0.00000000000E+00  0.32922260099E+03  0.32922260099E+03  0.00000000000E+00 0.  1.
          1   -1    0    0  502    0  0.00000000000E+00 -0.00000000000E+00 -0.21070573116E+03  0.21070573116E+03  0.00000000000E+00 0. -1.
         23    2    1    2    0    0 -0.30409350559E+02  0.18993706188E+02  0.21852191995E+03  0.23940767622E+03  0.90987452184E+02 0.  0.
         23    2    1    2    0    0  0.35597057853E+01 -0.27476245175E+02  0.77739229542E+02  0.12055986619E+03  0.87884458077E+02 0.  0.
        -13    1    4    4    0    0  0.57457665665E+01 -0.59425699559E+02  0.45000248161E+02  0.74762623925E+02  0.00000000000E+00 0.  1.
         13    1    4    4    0    0 -0.21860607812E+01  0.31949454384E+02  0.32738981381E+02  0.45797242264E+02  0.00000000000E+00 0. -1.
        -13    1    3    3    0    0  0.25622540340E+02  0.21136236199E+02  0.13342833230E+03  0.13750045423E+03  0.00000000000E+00 0.  1.
         13    1    3    3    0    0 -0.56031890899E+02 -0.21425300110E+01  0.85093587656E+02  0.10190722199E+03  0.00000000000E+00 0. -1.
         21    1    1    2  502  501  0.26849644774E+02  0.84825389873E+01 -0.17774427967E+03  0.17996078975E+03  0.00000000000E+00 0. -1.
<scales pt_clust_5="13000.00000" pt_clust_6="13000.00000" pt_clust_7="13000.00000" pt_clust_8="13000.00000" pt_clust_9="28.15771"></scales>
<clustering>
<clus scale="   28.158">  2  9  1 -1</clus>
<clus scale="   87.884">  5  6 -1 -1</clus>
<clus scale="   90.987">  7  8 -1 -1</clus>
<clus scale="   93.084">  2  5  1 -1</clus>
<clus scale="   28.158">  2  5  1 -1</clus>
</clustering>
</event>
<event>
 9    1  0.2075077E-005  0.1378658E+03  0.7546771E-02  0.1216744E+00
          2   -1    0    0  502    0  0.00000000000E+00  0.00000000000E+00  0.67313304731E+03  0.67313304731E+03  0.00000000000E+00 0. -1.
         -2   -1    0    0    0  501 -0.00000000000E+00 -0.00000000000E+00 -0.10050819451E+03  0.10050819451E+03  0.00000000000E+00 0.  1.
         23    2    1    2    0    0  0.98371678332E+02  0.19304092109E+02 -0.27832199621E+02  0.13768526303E+03  0.90182954326E+02 0.  0.
         23    2    1    2    0    0 -0.12813735384E+03 -0.46033007026E+02  0.40067084867E+03  0.43220378238E+03  0.87890621493E+02 0.  0.
        -11    1    4    4    0    0 -0.84035088943E+02 -0.60542138524E+02  0.18917550318E+03  0.21567247787E+03  0.00000000000E+00 0.  1.
         11    1    4    4    0    0 -0.44102264895E+02  0.14509131499E+02  0.21149534549E+03  0.21653130451E+03  0.00000000000E+00 0. -1.
        -13    1    3    3    0    0  0.91035346741E+02 -0.16387537946E+02 -0.37775950609E+02  0.99915004882E+02  0.00000000000E+00 0.  1.
         13    1    3    3    0    0  0.73363315917E+01  0.35691630054E+02  0.99437509883E+01  0.37770258152E+02  0.00000000000E+00 0. -1.
         21    1    1    2  502  501  0.29765675506E+02  0.26728914917E+02  0.19978620376E+03  0.20375219641E+03  0.00000000000E+00 0.  1.
<scales pt_clust_5="13000.00000" pt_clust_6="13000.00000" pt_clust_7="13000.00000" pt_clust_8="13000.00000" pt_clust_9="40.00538"></scales>
<clustering>
<clus scale="   40.005">  1  9  2 -1</clus>
<clus scale="   87.891">  5  6 -1 -1</clus>
<clus scale="   90.183">  7  8 -1 -1</clus>
<clus scale="  136.377">  1  5  2 -1</clus>
<clus scale="   40.005">  1  5  2 -1</clus>
</clustering>
</event>
<event>
 9    1  0.2075077E-005  0.1073457E+03  0.7546771E-02  0.1266316E+00
         -2   -1    0    0    0  501 -0.00000000000E+00  0.00000000000E+00  0.19797921605E+03  0.19797921605E+03  0.00000000000E+00 0.  1.
          2   -1    0    0  502    0  0.00000000000E+00 -0.00000000000E+00 -0.77228379022E+02  0.77228379022E+02  0.00000000000E+00 0. -1.
         23    2    1    2    0    0  0.16616705616E+02  0.61356430244E+02  0.80975184347E+02  0.13733869593E+03  0.90907703087E+02 0.  0.
         23    2    1    2    0    0 -0.27651987985E+02 -0.34080259022E+02  0.31473361787E+02  0.10729611701E+03  0.92713471126E+02 0.  0.
        -11    1    3    3    0    0 -0.24710009239E+02  0.58523491678E+02  0.69912059185E+02  0.94463112664E+02  0.00000000000E+00 0.  1.
         11    1    3    3    0    0  0.41326714855E+02  0.28329385659E+01  0.11063125162E+02  0.42875583261E+02  0.00000000000E+00 0. -1.
        -13    1    4    4    0    0  0.12099013411E+02  0.16919475378E+02  0.36950769755E+02  0.42402997041E+02  0.00000000000E+00 0.  1.
         13    1    4    4    0    0 -0.39751001396E+02 -0.50999734400E+02 -0.54774079683E+01  0.64893119966E+02  0.00000000000E+00 0. -1.
         21    1    1    2  502  501  0.11035282368E+02 -0.27276171221E+02  0.83022908897E+01  0.30572782135E+02  0.00000000000E+00 0.  1.
<scales pt_clust_5="13000.00000" pt_clust_6="13000.00000" pt_clust_7="13000.00000" pt_clust_8="13000.00000" pt_clust_9="29.42392"></scales>
<clustering>
<clus scale="   29.424">  2  9  1 -1</clus>
<clus scale="   90.908">  5  6 -1 -1</clus>
<clus scale="   92.713">  7  8 -1 -1</clus>
<clus scale="  105.790">  1  5  2 -1</clus>
<clus scale="   29.424">  2  5  1 -1</clus>
</clustering>
</event>
<event>
 9    1  0.2075077E-005  0.1386825E+03  0.7546771E-02  0.1216170E+00
         -1   -1    0    0    0  501 -0.00000000000E+00  0.00000000000E+00  0.36837350087E+02  0.36837350087E+02  0.00000000000E+00 0.  1.
          1   -1    0    0  502    0  0.00000000000E+00 -0.00000000000E+00 -0.93936205506E+03  0.93936205506E+03  0.00000000000E+00 0. -1.
         23    2    1    2    0    0  0.25547322624E+02  0.65311679278E+02 -0.27795632341E+03  0.30064888946E+03  0.90618739039E+02 0.  0.
         23    2    1    2    0    0 -0.18482765724E+02 -0.14623554150E+03 -0.40172846709E+03  0.43836660620E+03  0.95147642811E+02 0.  0.
        -13    1    3    3    0    0  0.36848697328E+02 -0.98309256137E+01 -0.10597166550E+03  0.11262534120E+03  0.00000000000E+00 0.  1.
         13    1    3    3    0    0 -0.11301374704E+02  0.75142604892E+02 -0.17198465792E+03  0.18802354826E+03  0.00000000000E+00 0. -1.
        -13    1    4    4    0    0  0.29658550486E+01 -0.11456859361E+03 -0.18017737500E+03  0.21353839327E+03  0.00000000000E+00 0.  1.
         13    1    4    4    0    0 -0.21448620773E+02 -0.31666947884E+02 -0.22155109210E+03  0.22482821293E+03  0.00000000000E+00 0. -1.
         21    1    1    2  502  501 -0.70645568996E+01  0.80923862218E+02 -0.22283991447E+03  0.23718390949E+03  0.00000000000E+00 0. -1.
<scales pt_clust_5="13000.00000" pt_clust_6="13000.00000" pt_clust_7="13000.00000" pt_clust_8="13000.00000" pt_clust_9="81.23164"></scales>
<clustering>
<clus scale="   81.232">  2  9  1 -1</clus>
<clus scale="   90.619">  5  6 -1 -1</clus>
<clus scale="   95.148">  7  8 -1 -1</clus>
<clus scale="  135.615">  1  5  2 -1</clus>
<clus scale="   81.232">  2  5  1 -1</clus>
</clustering>
</event>
<event>
 9    1  0.2075077E-005  0.9390753E+02  0.7546771E-02  0.1294117E+00
         -2   -1    0    0    0  501 -0.00000000000E+00  0.00000000000E+00  0.20969921647E+03  0.20969921647E+03  0.00000000000E+00 0.  1.
          2   -1    0    0  502    0  0.00000000000E+00 -0.00000000000E+00 -0.88642561214E+02  0.88642561214E+02  0.00000000000E+00 0. -1.
         23    2    1    2    0    0 -0.38392459104E+00  0.29179272831E+02  0.80197650797E+02  0.12419840782E+03  0.90233053536E+02 0.  0.
         23    2    1    2    0    0 -0.39381578190E+02  0.26668182220E+01  0.64098970899E+02  0.11814725601E+03  0.91060833581E+02 0.  0.
        -13    1    4    4    0    0  0.13214873800E+02  0.33772004176E+02  0.35248452054E+02  0.50573061286E+02  0.00000000000E+00 0.  1.
         13    1    4    4    0    0 -0.52596451990E+02 -0.31105185954E+02  0.28850518845E+02  0.67574194726E+02  0.00000000000E+00 0. -1.
        -13    1    3    3    0    0  0.79817433605E+01 -0.29835201825E+02  0.10801497252E+02  0.32718799457E+02  0.00000000000E+00 0. -1.
         13    1    3    3    0    0 -0.83656679515E+01  0.59014474656E+02  0.69396153545E+02  0.91479608362E+02  0.00000000000E+00 0.  1.
         21    1    1    2  502  501  0.39765502781E+02 -0.31846091053E+02 -0.23239966439E+02  0.55996113855E+02  0.00000000000E+00 0. -1.
<scales pt_clust_5="13000.00000" pt_clust_6="13000.00000" pt_clust_7="13000.00000" pt_clust_8="13000.00000" pt_clust_9="50.94574"></scales>
<clustering>
<clus scale="   50.946">  2  9  1 -1</clus>
<clus scale="   90.233">  7  8 -1 -1</clus>
<clus scale="   91.061">  5  6 -1 -1</clus>
<clus scale="   93.105">  1  7  2 -1</clus>
<clus scale="   50.946">  2  5  1 -1</clus>
</clustering>
</event>
<event>
 9    1  0.2075077E-005  0.1186792E+03  0.7546771E-02  0.1245494E+00
          1   -1    0    0  502    0  0.00000000000E+00  0.00000000000E+00  0.75328373244E+03  0.75328373244E+03  0.00000000000E+00 0. -1.
         -1   -1    0    0    0  501 -0.00000000000E+00 -0.00000000000E+00 -0.59886981797E+02  0.59886981797E+02  0.00000000000E+00 0.  1.
         23    2    1    2    0    0  0.47922668479E+02 -0.67193791552E+02  0.20895947907E+02  0.12478035283E+03  0.91224492523E+02 0.  0.
         23    2    1    2    0    0 -0.28966464646E+02  0.29563191139E+02  0.37851362999E+03  0.39139901896E+03  0.90595726217E+02 0.  0.
        -11    1    4    4    0    0  0.29772619636E+02  0.27891908662E+02  0.14949020393E+03  0.15495705379E+03  0.00000000000E+00 0.  1.
         11    1    4    4    0    0 -0.58739084282E+02  0.16712824770E+01  0.22902342606E+03  0.23644196516E+03  0.00000000000E+00 0. -1.
        -13    1    3    3    0    0  0.64062882018E+02 -0.24378409832E+02 -0.10422016592E+02  0.69332374460E+02  0.00000000000E+00 0.  1.
         13    1    3    3    0    0 -0.16140213539E+02 -0.42815381720E+02  0.31317964500E+02  0.55447978370E+02  0.00000000000E+00 0. -1.
         21    1    1    2  502  501 -0.18956203834E+02  0.37630600413E+02  0.29398717275E+03  0.29699134245E+03  0.00000000000E+00 0.  1.
<scales pt_clust_5="13000.00000" pt_clust_6="13000.00000" pt_clust_7="13000.00000" pt_clust_8="13000.00000" pt_clust_9="42.13549"></scales>
<clustering>
<clus scale="   42.135">  1  9  2 -1</clus>
<clus scale="   90.596">  5  6 -1 -1</clus>
<clus scale="   91.224">  7  8 -1 -1</clus>
<clus scale="  118.197">  1  5  2 -1</clus>
<clus scale="   42.135">  1  5  2 -1</clus>
</clustering>
</event>
<event>
 9    1  0.2075077E-005  0.1072025E+03  0.7546771E-02  0.1267081E+00
          1   -1    0    0  502    0  0.00000000000E+00  0.00000000000E+00  0.61977291843E+03  0.61977291843E+03  0.00000000000E+00 0. -1.
         -1   -1    0    0    0  501 -0.00000000000E+00 -0.00000000000E+00 -0.31964576466E+02  0.31964576466E+02  0.00000000000E+00 0.  1.
         23    2    1    2    0    0  0.49339542142E+02 -0.31786072058E+02  0.97200024063E+02  0.14514370758E+03  0.90410764712E+02 0.  0.
         23    2    1    2    0    0 -0.29388713528E+02  0.13976666056E+02  0.40570987537E+03  0.41758279896E+03  0.93358702526E+02 0.  0.
        -13    1    3    3    0    0 -0.55594685632E+01 -0.33142519772E+02  0.81301131133E+02  0.87972769827E+02  0.00000000000E+00 0. -1.
         13    1    3    3    0    0  0.54899010705E+02  0.13564477148E+01  0.15898892930E+02  0.57170937750E+02  0.00000000000E+00 0.  1.
        -13    1    4    4    0    0 -0.37558665734E+02 -0.32494180328E+02  0.24982108556E+03  0.25470983475E+03  0.00000000000E+00 0. -1.
         13    1    4    4    0    0  0.81699522053E+01  0.46470846384E+02  0.15588878981E+03  0.16287296421E+03  0.00000000000E+00 0.  1.
         21    1    1    2  502  501 -0.19950828614E+02  0.17809406001E+02  0.84898442526E+02  0.89010988354E+02  0.00000000000E+00 0. -1.
<scales pt_clust_5="13000.00000" pt_clust_6="13000.00000" pt_clust_7="13000.00000" pt_clust_8="13000.00000" pt_clust_9="26.74342"></scales>
<clustering>
<clus scale="   26.743">  1  9  2 -1</clus>
<clus scale="   90.411">  5  6 -1 -1</clus>
<clus scale="   93.359">  7  8 -1 -1</clus>
<clus scale="  104.645">  2  5  1 -1</clus>
<clus scale="   26.743">  1  5  2 -1</clus>
</clustering>
</event>
<event>
 9    1  0.2075077E-005  0.9976870E+02  0.7546771E-02  0.1281124E+00
          1   -1    0    0  502    0  0.00000000000E+00  0.00000000000E+00  0.16069874597E+03  0.16069874597E+03  0.00000000000E+00 0. -1.
         -1   -1    0    0    0  501 -0.00000000000E+00 -0.00000000000E+00 -0.22913015306E+03  0.22913015306E+03  0.00000000000E+00 0.  1.
         23    2    1    2    0    0  0.38198750749E+02 -0.65198700113E+01 -0.18864458806E+03  0.21336385995E+03  0.91846082463E+02 0.  0.
         23    2    1    2    0    0 -0.21291865423E+02  0.25011299828E+02  0.70790380565E+02  0.12105394861E+03  0.92541189965E+02 0.  0.
        -11    1    4    4    0    0 -0.49816009798E+02  0.39713489384E+02  0.59102061043E+02  0.86901379108E+02  0.00000000000E+00 0. -1.
         11    1    4    4    0    0  0.28524144375E+02 -0.14702189556E+02  0.11688319522E+02  0.34152569498E+02  0.00000000000E+00 0.  1.
        -13    1    3    3    0    0  0.17393146506E+01 -0.33928460095E+02 -0.21727550926E+02  0.40326816005E+02  0.00000000000E+00 0. -1.
         13    1    3    3    0    0  0.36459436098E+02  0.27408590083E+02 -0.16691703713E+03  0.17303704394E+03  0.00000000000E+00 0.  1.
         21    1    1    2  502  501 -0.16906885326E+02 -0.18491429816E+02  0.49422800402E+02  0.55411090475E+02  0.00000000000E+00 0.  1.
<scales pt_clust_5="13000.00000" pt_clust_6="13000.00000" pt_clust_7="13000.00000" pt_clust_8="13000.00000" pt_clust_9="25.05545"></scales>
<clustering>
<clus scale="   25.055">  1  9  2 -1</clus>
<clus scale="   91.846">  7  8 -1 -1</clus>
<clus scale="   92.541">  5  6 -1 -1</clus>
<clus scale="   99.124">  2  7  1 -1</clus>
<clus scale="   25.055">  1  5  2 -1</clus>
</clustering>
</event>
<event>
 9    1  0.2075077E-005  0.1133011E+03  0.7546771E-02  0.1255300E+00
          2   -1    0    0  502    0  0.00000000000E+00  0.00000000000E+00  0.99032449895E+02  0.99032449895E+02  0.00000000000E+00 0. -1.
         -2   -1    0    0    0  501 -0.00000000000E+00 -0.00000000000E+00 -0.24448460702E+03  0.24448460702E+03  0.00000000000E+00 0.  1.
         23    2    1    2    0    0  0.33181872212E+02 -0.81698736067E+02 -0.15530002332E+03  0.20053288993E+03  0.91211965131E+02 0.  0.
         23    2    1    2    0    0 -0.18730315556E+02  0.59320755018E+02  0.26022986403E+02  0.11181918600E+03  0.89199539462E+02 0.  0.
        -11    1    4    4    0    0  0.35897423793E+02  0.29350038877E+02  0.91053195950E+01  0.47254170843E+02  0.00000000000E+00 0.  1.
         11    1    4    4    0    0 -0.54627739349E+02  0.29970716141E+02  0.16917666808E+02  0.64565015160E+02  0.00000000000E+00 0. -1.
        -13    1    3    3    0    0  0.44547969624E+01 -0.94480697523E+02 -0.12602880483E+03  0.15757444929E+03  0.00000000000E+00 0. -1.
         13    1    3    3    0    0  0.28727075249E+02  0.12781961455E+02 -0.29271218485E+02  0.42958440644E+02  0.00000000000E+00 0.  1.
         21    1    1    2  502  501 -0.14451556656E+02  0.22377981049E+02 -0.16175120205E+02  0.31164980976E+02  0.00000000000E+00 0. -1.
<scales pt_clust_5="13000.00000" pt_clust_6="13000.00000" pt_clust_7="13000.00000" pt_clust_8="13000.00000" pt_clust_9="26.63872"></scales>
<clustering>
<clus scale="   26.639">  2  9  1 -1</clus>
<clus scale="   89.200">  5  6 -1 -1</clus>
<clus scale="   91.212">  7  8 -1 -1</clus>
<clus scale="  111.687">  1  5  2 -1</clus>
<clus scale="  111.687">  1  5  2 -1</clus>
</clustering>
</event>
<event>
 9    1  0.2075077E-005  0.1144797E+03  0.7546771E-02  0.1255275E+00
         -3   -1    0    0    0  501 -0.00000000000E+00  0.00000000000E+00  0.70615645092E+02  0.70615645092E+02  0.00000000000E+00 0.  1.
          3   -1    0    0  502    0  0.00000000000E+00 -0.00000000000E+00 -0.27805751076E+03  0.27805751076E+03  0.00000000000E+00 0. -1.
         23    2    1    2    0    0  0.44708047040E+02 -0.21764305031E+02 -0.34447406793E+02  0.11475827873E+03  0.97520993937E+02 0.  0.
         23    2    1    2    0    0 -0.79263596779E+02  0.24355119882E+02 -0.14022690078E+03  0.18622304131E+03  0.90219442333E+02 0.  0.
        -11    1    4    4    0    0 -0.58614944152E+02  0.27477617667E+02 -0.25445286444E+02  0.69557125823E+02  0.00000000000E+00 0.  1.
         11    1    4    4    0    0 -0.20648652627E+02 -0.31224977851E+01 -0.11478161433E+03  0.11666591549E+03  0.00000000000E+00 0. -1.
        -13    1    3    3    0    0  0.18130511791E+01  0.28923475034E+02  0.14365254113E+02  0.32345248312E+02  0.00000000000E+00 0.  1.
         13    1    3    3    0    0  0.42894995861E+02 -0.50687780065E+02 -0.48812660906E+02  0.82413030417E+02  0.00000000000E+00 0. -1.
         21    1    1    2  502  501  0.34555549739E+02 -0.25908148509E+01 -0.32767558095E+02  0.47691835809E+02  0.00000000000E+00 0.  1.
<scales pt_clust_5="13000.00000" pt_clust_6="13000.00000" pt_clust_7="13000.00000" pt_clust_8="13000.00000" pt_clust_9="34.65254"></scales>
<clustering>
<clus scale="   34.653">  2  9  1 -1</clus>
<clus scale="   90.219">  5  6 -1 -1</clus>
<clus scale="   97.521">  7  8 -1 -1</clus>
<clus scale="  108.327">  2  5  1 -1</clus>
<clus scale="   34.653">  2  5  1 -1</clus>
</clustering>
</event>
<event>
 9    1  0.2075077E-005  0.1011393E+03  0.7546771E-02  0.1278188E+00
         -2   -1    0    0    0  501 -0.00000000000E+00  0.00000000000E+00  0.43297708824E+03  0.43297708824E+03  0.00000000000E+00 0.  1.
          2   -1    0    0  502    0  0.00000000000E+00 -0.00000000000E+00 -0.63427261163E+02  0.63427261163E+02  0.00000000000E+00 0. -1.
         23    2    1    2    0    0  0.27703824811E+02 -0.22693455314E+02  0.26518366661E+03  0.28271920374E+03  0.91242952050E+02 0.  0.
         23    2    1    2    0    0 -0.31946537974E+02  0.48973591444E+02  0.13479252771E+03  0.17325730880E+03  0.91815443034E+02 0.  0.
        -11    1    4    4    0    0 -0.64455243563E+02  0.28845498390E+02  0.86888673650E+02  0.11196509639E+03  0.00000000000E+00 0.  1.
         11    1    4    4    0    0  0.32508705589E+02  0.20128093054E+02  0.47903854058E+02  0.61292212414E+02  0.00000000000E+00 0. -1.
        -11    1    3    3    0    0  0.13746415660E+02  0.34975708303E+02  0.82858630973E+02  0.90982508437E+02  0.00000000000E+00 0. -1.
         11    1    3    3    0    0  0.13957409151E+02 -0.57669163617E+02  0.18232503564E+03  0.19173669530E+03  0.00000000000E+00 0.  1.
         21    1    1    2  502  501  0.42427131625E+01 -0.26280136130E+02 -0.30426367245E+02  0.40427836867E+02  0.00000000000E+00 0. -1.
<scales pt_clust_5="13000.00000" pt_clust_6="13000.00000" pt_clust_7="13000.00000" pt_clust_8="13000.00000" pt_clust_9="26.62041"></scales>
<clustering>
<clus scale="   26.620">  2  9  1 -1</clus>
<clus scale="   91.243">  7  8 -1 -1</clus>
<clus scale="   91.815">  5  6 -1 -1</clus>
<clus scale="  100.620">  1  7  2 -1</clus>
<clus scale="   26.620">  2  5  1 -1</clus>
</clustering>
</event>
<event>
 9    1  0.2075077E-005  0.1308151E+03  0.7546771E-02  0.1228244E+00
         -2   -1    0    0    0  501 -0.00000000000E+00  0.00000000000E+00  0.17281463275E+02  0.17281463275E+02  0.00000000000E+00 0.  1.
          2   -1    0    0  502    0  0.00000000000E+00 -0.00000000000E+00 -0.12990284317E+04  0.12990284317E+04  0.00000000000E+00 0. -1.
         23    2    1    2    0    0 -0.73887262828E+02  0.46830860374E+02 -0.53868496451E+03  0.55433347301E+03  0.97219603019E+02 0.  0.
         23    2    1    2    0    0  0.49075464177E+02 -0.77803510172E+02 -0.54571900954E+03  0.56068263713E+03  0.89966631730E+02 0.  0.
        -11    1    4    4    0    0 -0.22528451786E+02 -0.38491104576E+02 -0.14423340144E+03  0.15097142233E+03  0.00000000000E+00 0.  1.
         11    1    4    4    0    0  0.71603915963E+02 -0.39312405597E+02 -0.40148560810E+03  0.40971121480E+03  0.00000000000E+00 0. -1.
        -11    1    3    3    0    0 -0.74493674988E+02 -0.40315845927E+01 -0.23933533732E+03  0.25069296955E+03  0.00000000000E+00 0.  1.
         11    1    3    3    0    0  0.60641215953E+00  0.50862444967E+02 -0.29934962719E+03  0.30364050346E+03  0.00000000000E+00 0. -1.
         21    1    1    2  502  501  0.24811798651E+02  0.30972649798E+02 -0.19734299435E+03  0.20129378482E+03  0.00000000000E+00 0.  1.
<scales pt_clust_5="13000.00000" pt_clust_6="13000.00000" pt_clust_7="13000.00000" pt_clust_8="13000.00000" pt_clust_9="39.68539"></scales>
<clustering>
<clus scale="   39.685">  2  9  1 -1</clus>
<clus scale="   89.967">  5  6 -1 -1</clus>
<clus scale="   97.220">  7  8 -1 -1</clus>
<clus scale="  125.519">  2  5  1 -1</clus>
<clus scale="   39.685">  2  5  1 -1</clus>
</clustering>
</event>
<event>
 9    1  0.2075077E-005  0.1072569E+03  0.7546771E-02  0.1266862E+00
         -2   -1    0    0    0  501 -0.00000000000E+00  0.00000000000E+00  0.75347489570E+02  0.75347489570E+02  0.00000000000E+00 0.  1.
          2   -1    0    0  502    0  0.00000000000E+00 -0.00000000000E+00 -0.33282126535E+03  0.33282126535E+03  0.00000000000E+00 0. -1.
         23    2    1    2    0    0  0.55037366980E+01  0.61544888476E+02  0.72769184700E+01  0.10862260875E+03  0.89038492655E+02 0.  0.
         23    2    1    2    0    0  0.21307507249E+02 -0.30872959848E+02 -0.19554635839E+03  0.21924141338E+03  0.91767475410E+02 0.  0.
        -11    1    3    3    0    0  0.31969428343E+02 -0.96755561376E+00 -0.17377756160E+02  0.36400095077E+02  0.00000000000E+00 0. -1.
         11    1    3    3    0    0 -0.26465691645E+02  0.62512444089E+02  0.24654674630E+02  0.72222513674E+02  0.00000000000E+00 0.  1.
        -13    1    4    4    0    0  0.43826191052E+02  0.14636784182E+02 -0.11607869983E+03  0.12493692420E+03  0.00000000000E+00 0. -1.
         13    1    4    4    0    0 -0.22518683803E+02 -0.45509744030E+02 -0.79467658560E+02  0.94304489176E+02  0.00000000000E+00 0.  1.
         21    1    1    2  502  501 -0.26811243947E+02 -0.30671928628E+02 -0.69204335859E+02  0.80304732796E+02  0.00000000000E+00 0. -1.
<scales pt_clust_5="13000.00000" pt_clust_6="13000.00000" pt_clust_7="13000.00000" pt_clust_8="13000.00000" pt_clust_9="40.73831"></scales>
<clustering>
<clus scale="   40.738">  2  9  1 -1</clus>
<clus scale="   89.038">  5  6 -1 -1</clus>
<clus scale="   91.767">  7  8 -1 -1</clus>
<clus scale="  104.932">  1  5  2 -1</clus>
<clus scale="   40.738">  2  5  1 -1</clus>
</clustering>
</event>
<event>
 9    1  0.2075077E-005  0.1229192E+03  0.7546771E-02  0.1240587E+00
          1   -1    0    0  502    0  0.00000000000E+00  0.00000000000E+00  0.68050985893E+03  0.68050985893E+03  0.00000000000E+00 0. -1.
         -1   -1    0    0    0  501 -0.00000000000E+00 -0.00000000000E+00 -0.34445067635E+02  0.34445067635E+02  0.00000000000E+00 0.  1.
         23    2    1    2    0    0  0.87637772323E+02 -0.17757454154E+02  0.18068556482E+03  0.22101777268E+03  0.90586291390E+02 0.  0.
         23    2    1    2    0    0 -0.65662177924E+02  0.43060347601E+02  0.23707096851E+03  0.26318225401E+03  0.83045406669E+02 0.  0.
        -11    1    4    4    0    0 -0.17764587812E+02 -0.25225966897E+02  0.61498577369E+02  0.68804106014E+02  0.00000000000E+00 0.  1.
         11    1    4    4    0    0 -0.47897590112E+02  0.68286314498E+02  0.17557239114E+03  0.19437814799E+03  0.00000000000E+00 0. -1.
        -13    1    3    3    0    0 -0.33443779471E+01  0.24795454472E+02  0.52594209641E+02  0.58242169552E+02  0.00000000000E+00 0. -1.
         13    1    3    3    0    0  0.90982150270E+02 -0.42552908626E+02  0.12809135518E+03  0.16277560312E+03  0.00000000000E+00 0.  1.
         21    1    1    2  502  501 -0.21975594399E+02 -0.25302893447E+02  0.22830825796E+03  0.23075489988E+03  0.00000000000E+00 0.  1.
<scales pt_clust_5="13000.00000" pt_clust_6="13000.00000" pt_clust_7="13000.00000" pt_clust_8="13000.00000" pt_clust_9="33.51363"></scales>
<clustering>
<clus scale="   33.514">  1  9  2 -1</clus>
<clus scale="   83.045">  5  6 -1 -1</clus>
<clus scale="   90.586">  7  8 -1 -1</clus>
<clus scale="  117.472">  1  5  2 -1</clus>
<clus scale="   33.514">  1  5  2 -1</clus>
</clustering>
</event>
<event>
 9    1  0.2075077E-005  0.9561688E+02  0.7546771E-02  0.1291469E+00
          2   -1    0    0  502    0  0.00000000000E+00  0.00000000000E+00  0.26160234029E+03  0.26160234029E+03  0.00000000000E+00 0. -1.
         -2   -1    0    0    0  501 -0.00000000000E+00 -0.00000000000E+00 -0.68088119727E+02  0.68088119727E+02  0.00000000000E+00 0.  1.
         23    2    1    2    0    0 -0.22436533552E+02 -0.25455377326E+02  0.32066370073E+02  0.10270639293E+03  0.91482111835E+02 0.  0.
         23    2    1    2    0    0 -0.19651782313E+02 -0.18616223894E-01  0.58387525765E+02  0.11278344883E+03  0.94471213973E+02 0.  0.
        -11    1    3    3    0    0  0.34670271245E+02 -0.19631214635E+02  0.17288881084E+02  0.43431759179E+02  0.00000000000E+00 0.  1.
         11    1    3    3    0    0 -0.57106804797E+02 -0.58241626916E+01  0.14777488989E+02  0.59274633748E+02  0.00000000000E+00 0. -1.
        -13    1    4    4    0    0 -0.37832648674E+02 -0.19011054662E+02  0.71734363063E+02  0.83297949249E+02  0.00000000000E+00 0.  1.
         13    1    4    4    0    0  0.18180866361E+02  0.18992438439E+02 -0.13346837297E+02  0.29485499577E+02  0.00000000000E+00 0. -1.
         21    1    1    2  502  501  0.42088315865E+02  0.25473993550E+02  0.10306032472E+03  0.11420061826E+03  0.00000000000E+00 0.  1.
<scales pt_clust_5="13000.00000" pt_clust_6="13000.00000" pt_clust_7="13000.00000" pt_clust_8="13000.00000" pt_clust_9="49.19706"></scales>
<clustering>
<clus scale="   49.197">  1  9  2 -1</clus>
<clus scale="   91.482">  5  6 -1 -1</clus>
<clus scale="   92.665">  2  5  1 -1</clus>
<clus scale="   94.471">  7  8 -1 -1</clus>
<clus scale="   49.197">  1  5  2 -1</clus>
</clustering>
</event>
<event>
 9    1  0.2075077E-005  0.9352701E+02  0.7546771E-02  0.1295053E+00
          1   -1    0    0  502    0  0.00000000000E+00  0.00000000000E+00  0.18782215976E+03  0.18782215976E+03  0.00000000000E+00 0. -1.
         -1   -1    0    0    0  501 -0.00000000000E+00 -0.00000000000E+00 -0.87550897201E+02  0.87550897201E+02  0.00000000000E+00 0.  1.
         23    2    1    2    0    0  0.32884040669E+02  0.19979292527E+02  0.14907659820E+02  0.10132202516E+03  0.92538544402E+02 0.  0.
         23    2    1    2    0    0  0.11127111208E+02  0.66849172622E+01  0.27328201772E+02  0.96487707104E+02  0.91621756627E+02 0.  0.
        -11    1    3    3    0    0 -0.17184482207E+02 -0.16920589973E+02  0.28828925678E+02  0.37586164336E+02  0.00000000000E+00 0. -1.
         11    1    3    3    0    0  0.50068522876E+02  0.36899882499E+02 -0.13921265858E+02  0.63735860820E+02  0.00000000000E+00 0.  1.
        -13    1    4    4    0    0  0.21241324961E+02 -0.11640652930E+02 -0.28182883317E+02  0.37161453131E+02  0.00000000000E+00 0.  1.
         13    1    4    4    0    0 -0.10114213753E+02  0.18325570192E+02  0.55511085089E+02  0.59326253973E+02  0.00000000000E+00 0. -1.
         21    1    1    2  502  501 -0.44011151877E+02 -0.26664209789E+02  0.58035400968E+02  0.77563324702E+02  0.00000000000E+00 0. -1.
<scales pt_clust_5="13000.00000" pt_clust_6="13000.00000" pt_clust_7="13000.00000" pt_clust_8="13000.00000" pt_clust_9="51.45835"></scales>
<clustering>
<clus scale="   51.458">  1  9  2 -1</clus>
<clus scale="   91.622">  7  8 -1 -1</clus>
<clus scale="   92.539">  5  6 -1 -1</clus>
<clus scale="   92.620">  1  7  2 -1</clus>
<clus scale="   51.458">  1  5  2 -1</clus>
</clustering>
</event>
<event>
 9    1  0.2075077E-005  0.1219634E+03  0.7546771E-02  0.1240759E+00
          1   -1    0    0  502    0  0.00000000000E+00  0.00000000000E+00  0.29921899911E+03  0.29921899911E+03  0.00000000000E+00 0. -1.
         -1   -1    0    0    0  501 -0.00000000000E+00 -0.00000000000E+00 -0.10871226692E+03  0.10871226692E+03  0.00000000000E+00 0.  1.
         23    2    1    2    0    0 -0.64088723753E+02 -0.12391179669E+02 -0.12311636310E+02  0.11200374888E+03  0.90179584883E+02 0.  0.
         23    2    1    2    0    0  0.11601275413E+03  0.35961309258E+02  0.11564884308E+03  0.19176330975E+03  0.92985682636E+02 0.  0.
        -11    1    4    4    0    0  0.64171077102E+02  0.43658700450E+02  0.16108526520E+02  0.79268492404E+02  0.00000000000E+00 0.  1.
         11    1    4    4    0    0  0.51841677028E+02 -0.76973911920E+01  0.99540316560E+02  0.11249481734E+03  0.00000000000E+00 0. -1.
        -11    1    3    3    0    0 -0.43439466413E+02  0.37462464738E+02 -0.66736037368E+01  0.57749116819E+02  0.00000000000E+00 0.  1.
         11    1    3    3    0    0 -0.20649257339E+02 -0.49853644406E+02 -0.56380325731E+01  0.54254632065E+02  0.00000000000E+00 0. -1.
         21    1    1    2  502  501 -0.51924030377E+02 -0.23570129589E+02  0.87169525425E+02  0.10416420740E+03  0.00000000000E+00 0.  1.
<scales pt_clust_5="13000.00000" pt_clust_6="13000.00000" pt_clust_7="13000.00000" pt_clust_8="13000.00000" pt_clust_9="57.02329"></scales>
<clustering>
<clus scale="   57.023">  1  9  2 -1</clus>
<clus scale="   90.180">  7  8 -1 -1</clus>
<clus scale="   92.986">  5  6 -1 -1</clus>
<clus scale="  119.838">  2  7  1 -1</clus>
<clus scale="   57.023">  1  5  2 -1</clus>
</clustering>
</event>
<event>
 9    1  0.2075077E-005  0.9202857E+02  0.7546771E-02  0.1299141E+00
         -2   -1    0    0    0  501 -0.00000000000E+00  0.00000000000E+00  0.15697913982E+03  0.15697913982E+03  0.00000000000E+00 0.  1.
          2   -1    0    0  502    0  0.00000000000E+00 -0.00000000000E+00 -0.93089174107E+02  0.93089174107E+02  0.00000000000E+00 0. -1.
         23    2    1    2    0    0 -0.98097159431E+01 -0.71224174827E+01  0.84282246561E+02  0.12513667679E+03  0.91699135416E+02 0.  0.
         23    2    1    2    0    0  0.21329956436E+01 -0.22550287805E+02 -0.15478892389E+02  0.93890650357E+02  0.89793056326E+02 0.  0.
        -11    1    4    4    0    0 -0.43119528810E+02 -0.17625065142E+02 -0.12716623643E+02  0.48287153602E+02  0.00000000000E+00 0. -1.
         11    1    4    4    0    0  0.45252524454E+02 -0.49252226621E+01 -0.27622687457E+01  0.45603496755E+02  0.00000000000E+00 0.  1.
        -13    1    3    3    0    0  0.16449131878E+02  0.37282310658E+02  0.40857542437E+02  0.57705141899E+02  0.00000000000E+00 0.  1.
         13    1    3    3    0    0 -0.26258847821E+02 -0.44404728141E+02  0.43424704124E+02  0.67431534896E+02  0.00000000000E+00 0. -1.
         21    1    1    2  502  501  0.76767202995E+01  0.29672705287E+02 -0.49133884624E+01  0.31040986772E+02  0.00000000000E+00 0.  1.
<scales pt_clust_5="13000.00000" pt_clust_6="13000.00000" pt_clust_7="13000.00000" pt_clust_8="13000.00000" pt_clust_9="30.64966"></scales>
<clustering>
<clus scale="   30.650">  2  9  1 -1</clus>
<clus scale="   89.793">  5  6 -1 -1</clus>
<clus scale="   90.129">  2  5  1 -1</clus>
<clus scale="   91.699">  7  8 -1 -1</clus>
<clus scale="   30.650">  2  5  1 -1</clus>
</clustering>
</event>
<event>
 9    1  0.2075077E-005  0.9121106E+02  0.7546771E-02  0.1302198E+00
          2   -1    0    0  502    0  0.00000000000E+00  0.00000000000E+00  0.30577561956E+03  0.30577561956E+03  0.00000000000E+00 0. -1.
         -2   -1    0    0    0  501 -0.00000000000E+00 -0.00000000000E+00 -0.49337114923E+02  0.49337114923E+02  0.00000000000E+00 0.  1.
         23    2    1    2    0    0 -0.13004817199E+02 -0.11020745943E+02  0.34635311681E+02  0.97983096165E+02  0.90058315593E+02 0.  0.
         23    2    1    2    0    0 -0.11281299279E+02  0.18778479440E+02  0.10544351149E+03  0.13800964272E+03  0.86304277777E+02 0.  0.
        -11    1    3    3    0    0 -0.46046345996E+02  0.57835752104E+01 -0.12010573212E+01  0.46423682108E+02  0.00000000000E+00 0.  1.
         11    1    3    3    0    0  0.33041528797E+02 -0.16804321153E+02  0.35836369002E+02  0.51559414057E+02  0.00000000000E+00 0. -1.
        -11    1    4    4    0    0  0.44989578487E+01  0.43620620322E+02  0.98427929590E+02  0.10775461226E+03  0.00000000000E+00 0.  1.
         11    1    4    4    0    0 -0.15780257128E+02 -0.24842140882E+02  0.70155819047E+01  0.30255030459E+02  0.00000000000E+00 0. -1.
         21    1    1    2  502  501  0.24286116478E+02 -0.77577334977E+01  0.11635968146E+03  0.11911999560E+03  0.00000000000E+00 0. -1.
<scales pt_clust_5="13000.00000" pt_clust_6="13000.00000" pt_clust_7="13000.00000" pt_clust_8="13000.00000" pt_clust_9="25.49506"></scales>
<clustering>
<clus scale="   25.495">  1  9  2 -1</clus>
<clus scale="   86.304">  7  8 -1 -1</clus>
<clus scale="   87.506">  1  7  2 -1</clus>
<clus scale="   90.058">  5  6 -1 -1</clus>
<clus scale="   25.495">  1  5  2 -1</clus>
</clustering>
</event>
<event>
 9    1  0.2075077E-005  0.1130069E+03  0.7546771E-02  0.1255662E+00
         -4   -1    0    0    0  501 -0.00000000000E+00  0.00000000000E+00  0.91583055652E+02  0.91583055652E+02  0.00000000000E+00 0.  1.
          4   -1    0    0  502    0  0.00000000000E+00 -0.00000000000E+00 -0.41963997790E+03  0.41963997790E+03  0.00000000000E+00 0. -1.
         23    2    1    2    0    0  0.22700364374E+02 -0.75185006300E+02  0.19139966996E+02  0.12194088277E+03  0.91297036308E+02 0.  0.
         23    2    1    2    0    0  0.27700959315E+02  0.17702375547E+02 -0.23316863741E+03  0.25199781633E+03  0.89747249096E+02 0.  0.
        -11    1    3    3    0    0  0.54597340762E+02 -0.67762316800E+02  0.19547233204E+02  0.89189099796E+02  0.00000000000E+00 0.  1.
         11    1    3    3    0    0 -0.31896976388E+02 -0.74226894997E+01 -0.40726620832E+00  0.32751782972E+02  0.00000000000E+00 0. -1.
        -11    1    4    4    0    0 -0.73563577976E+01  0.27503471967E+02 -0.17804806547E+02  0.33579280910E+02  0.00000000000E+00 0.  1.
         11    1    4    4    0    0  0.35057317113E+02 -0.98010964196E+01 -0.21536383086E+03  0.21841853542E+03  0.00000000000E+00 0. -1.
         21    1    1    2  502  501 -0.50401323689E+02  0.57482630753E+02 -0.11402825183E+03  0.13728433445E+03  0.00000000000E+00 0.  1.
<scales pt_clust_5="13000.00000" pt_clust_6="13000.00000" pt_clust_7="13000.00000" pt_clust_8="13000.00000" pt_clust_9="76.44963"></scales>
<clustering>
<clus scale="   76.450">  2  9  1 -1</clus>
<clus scale="   89.747">  7  8 -1 -1</clus>
<clus scale="   91.297">  5  6 -1 -1</clus>
<clus scale="  111.759">  2  7  1 -1</clus>
<clus scale="   76.450">  2  5  1 -1</clus>
</clustering>
</event>
<event>
 9    1  0.2075077E-005  0.9891833E+02  0.7546771E-02  0.1283972E+00
          2   -1    0    0  502    0  0.00000000000E+00  0.00000000000E+00  0.17259187480E+03  0.17259187480E+03  0.00000000000E+00 0. -1.
         -2   -1    0    0    0  501 -0.00000000000E+00 -0.00000000000E+00 -0.12506171072E+03  0.12506171072E+03  0.00000000000E+00 0.  1.
         23    2    1    2    0    0 -0.30938785475E+02  0.27985275845E+02 -0.57769622959E+02  0.11740615244E+03  0.93308580436E+02 0.  0.
         23    2    1    2    0    0 -0.18995894137E+02 -0.24936450303E+02  0.62754324281E+02  0.11457488199E+03  0.90590439998E+02 0.  0.
        -11    1    4    4    0    0 -0.50621812441E+02 -0.26153289903E+02  0.60096813915E+02  0.82814186649E+02  0.00000000000E+00 0. -1.
         11    1    4    4    0    0  0.31625918304E+02  0.12168396006E+01  0.26575103663E+01  0.31760695341E+02  0.00000000000E+00 0.  1.
        -13    1    3    3    0    0  0.27769644447E+01  0.56830647481E+02 -0.24508127019E+02  0.61952258350E+02  0.00000000000E+00 0.  1.
         13    1    3    3    0    0 -0.33715749919E+02 -0.28845371636E+02 -0.33261495940E+02  0.55453894089E+02  0.00000000000E+00 0. -1.
         21    1    1    2  502  501  0.49934679611E+02 -0.30488255424E+01  0.42545462758E+02  0.65672551088E+02  0.00000000000E+00 0.  1.
<scales pt_clust_5="13000.00000" pt_clust_6="13000.00000" pt_clust_7="13000.00000" pt_clust_8="13000.00000" pt_clust_9="50.02767"></scales>
<clustering>
<clus scale="   50.028">  1  9  2 -1</clus>
<clus scale="   90.590">  5  6 -1 -1</clus>
<clus scale="   93.309">  7  8 -1 -1</clus>
<clus scale="   96.359">  1  5  2 -1</clus>
<clus scale="   50.028">  1  5  2 -1</clus>
</clustering>
</event>
<event>
 9    1  0.2075077E-005  0.9219442E+02  0.7546771E-02  0.1298233E+00
         -1   -1    0    0    0  501 -0.00000000000E+00  0.00000000000E+00  0.14542833646E+03  0.14542833646E+03  0.00000000000E+00 0.  1.
          1   -1    0    0  502    0  0.00000000000E+00 -0.00000000000E+00 -0.14528349342E+03  0.14528349342E+03  0.00000000000E+00 0. -1.
         23    2    1    2    0    0  0.13291781776E+02  0.54871770602E+01  0.45406673993E+02  0.10250466677E+03  0.90767065012E+02 0.  0.
         23    2    1    2    0    0  0.38489685199E+00  0.16664491445E+02  0.38167139459E+02  0.10081070402E+03  0.91805305351E+02 0.  0.
        -11    1    4    4    0    0 -0.27115406060E+02  0.36614188701E+02 -0.50474726975E+01  0.45840168419E+02  0.00000000000E+00 0. -1.
         11    1    4    4    0    0  0.27500302912E+02 -0.19949697255E+02  0.43214612156E+02  0.54970535605E+02  0.00000000000E+00 0.  1.
        -11    1    3    3    0    0 -0.38970518709E+02  0.68965788459E+01  0.21095365119E+02  0.44847280383E+02  0.00000000000E+00 0. -1.
         11    1    3    3    0    0  0.52262300485E+02 -0.14094017857E+01  0.24311308874E+02  0.57657386384E+02  0.00000000000E+00 0.  1.
         21    1    1    2  502  501 -0.13676678628E+02 -0.22151668505E+02 -0.83428970418E+02  0.87396459087E+02  0.00000000000E+00 0.  1.
<scales pt_clust_5="13000.00000" pt_clust_6="13000.00000" pt_clust_7="13000.00000" pt_clust_8="13000.00000" pt_clust_9="26.03359"></scales>
<clustering>
<clus scale="   26.034">  2  9  1 -1</clus>
<clus scale="   90.767">  7  8 -1 -1</clus>
<clus scale="   91.161">  1  7  2 -1</clus>
<clus scale="   91.805">  5  6 -1 -1</clus>
<clus scale="   26.034">  2  5  1 -1</clus>
</clustering>
</event>
<event>
 9    1  0.2075077E-005  0.2043244E+03  0.7546771E-02  0.1146674E+00
         -2   -1    0    0    0  501 -0.00000000000E+00  0.00000000000E+00  0.70788099641E+02  0.70788099641E+02  0.00000000000E+00 0.  1.
          2   -1    0    0  502    0  0.00000000000E+00 -0.00000000000E+00 -0.83041459178E+03  0.83041459178E+03  0.00000000000E+00 0. -1.
         23    2    1    2    0    0  0.11578530102E+03  0.14255320408E+03 -0.15297932560E+03  0.25799253736E+03  0.97107277522E+02 0.  0.
         23    2    1    2    0    0 -0.95593045708E+02 -0.13967525073E+03 -0.56428340509E+03  0.59619209291E+03  0.91553505319E+02 0.  0.
        -13    1    4    4    0    0 -0.33240720110E+02  0.28826029535E+01 -0.14966027359E+03  0.15333444611E+03  0.00000000000E+00 0.  1.
         13    1    4    4    0    0 -0.62352325598E+02 -0.14255785369E+03 -0.41462313150E+03  0.44285764680E+03  0.00000000000E+00 0. -1.
        -13    1    3    3    0    0  0.92175098043E+02  0.14466783987E+03 -0.96679769492E+02  0.19690609543E+03  0.00000000000E+00 0.  1.
         13    1    3    3    0    0  0.23610202976E+02 -0.21146357892E+01 -0.56299556106E+02  0.61086441923E+02  0.00000000000E+00 0. -1.
         21    1    1    2  502  501 -0.20192255311E+02 -0.28779533418E+01 -0.42363761449E+02  0.47018061147E+02  0.00000000000E+00 0.  1.
<scales pt_clust_5="13000.00000" pt_clust_6="13000.00000" pt_clust_7="13000.00000" pt_clust_8="13000.00000" pt_clust_9="20.39632"></scales>
<clustering>
<clus scale="   20.396">  2  9  1 -1</clus>
<clus scale="   91.554">  5  6 -1 -1</clus>
<clus scale="   97.107">  7  8 -1 -1</clus>
<clus scale="  201.744">  2  5  1 -1</clus>
<clus scale="   20.396">  2  5  1 -1</clus>
</clustering>
</event>
<event>
 9    1  0.2075077E-005  0.1081511E+03  0.7546771E-02  0.1265133E+00
          3   -1    0    0  502    0  0.00000000000E+00  0.00000000000E+00  0.72970935491E+02  0.72970935491E+02  0.00000000000E+00 0. -1.
         -3   -1    0    0    0  501 -0.00000000000E+00 -0.00000000000E+00 -0.44496216906E+03  0.44496216906E+03  0.00000000000E+00 0.  1.
         23    2    1    2    0    0  0.11334359475E+03 -0.37611041118E+01 -0.24489770207E+03  0.28361686061E+03  0.87193593629E+02 0.  0.
         23    2    1    2    0    0 -0.47846993691E+02  0.71340349002E+01 -0.13346774097E+02  0.10301694374E+03  0.89967355524E+02 0.  0.
        -11    1    3    3    0    0  0.45576198524E+02  0.36841459391E+02 -0.14401810119E+03  0.15548535774E+03  0.00000000000E+00 0.  1.
         11    1    3    3    0    0  0.67767396226E+02 -0.40602563503E+02 -0.10087960088E+03  0.12813150287E+03  0.00000000000E+00 0. -1.
        -13    1    4    4    0    0 -0.11018216700E+02  0.43020635577E+02 -0.24034896115E+02  0.50496063370E+02  0.00000000000E+00 0.  1.
         13    1    4    4    0    0 -0.36828776991E+02 -0.35886600676E+02  0.10688122018E+02  0.52520880372E+02  0.00000000000E+00 0. -1.
         21    1    1    2  502  501 -0.65496601059E+02 -0.33729307884E+01 -0.11374675740E+03  0.13129930020E+03  0.00000000000E+00 0. -1.
<scales pt_clust_5="13000.00000" pt_clust_6="13000.00000" pt_clust_7="13000.00000" pt_clust_8="13000.00000" pt_clust_9="65.58339"></scales>
<clustering>
<clus scale="   65.583">  2  9  1 -1</clus>
<clus scale="   87.194">  5  6 -1 -1</clus>
<clus scale="   89.967">  7  8 -1 -1</clus>
<clus scale="  105.855">  2  5  1 -1</clus>
<clus scale="  108.151">  1  5  2 -1</clus>
</clustering>
</event>
<event>
 9    1  0.2075077E-005  0.1075759E+03  0.7546771E-02  0.1265332E+00
          1   -1    0    0  502    0  0.00000000000E+00  0.00000000000E+00  0.13632199224E+03  0.13632199224E+03  0.00000000000E+00 0. -1.
         -1   -1    0    0    0  501 -0.00000000000E+00 -0.00000000000E+00 -0.17877855767E+03  0.17877855767E+03  0.00000000000E+00 0.  1.
         23    2    1    2    0    0  0.50692951465E+02  0.16371545956E+02 -0.10543956272E+03  0.14809425464E+03  0.89311835862E+02 0.  0.
         23    2    1    2    0    0 -0.81963166123E+02 -0.17412967700E+02  0.44429507430E+02  0.13063126442E+03  0.89829694799E+02 0.  0.
        -11    1    3    3    0    0  0.74644686856E+02  0.23172030775E+02 -0.70967232316E+02  0.10557045206E+03  0.00000000000E+00 0.  1.
         11    1    3    3    0    0 -0.23951735391E+02 -0.68004848194E+01 -0.34472330407E+02  0.42523802578E+02  0.00000000000E+00 0. -1.
        -13    1    4    4    0    0  0.86674618105E+01 -0.23261048335E+02 -0.76044342323E+01  0.25962062396E+02  0.00000000000E+00 0.  1.
         13    1    4    4    0    0 -0.90630627933E+02  0.58480806348E+01  0.52033941662E+02  0.10466920202E+03  0.00000000000E+00 0. -1.
         21    1    1    2  502  501  0.31270214657E+02  0.10414217445E+01  0.18553489863E+02  0.36375030860E+02  0.00000000000E+00 0. -1.
<scales pt_clust_5="13000.00000" pt_clust_6="13000.00000" pt_clust_7="13000.00000" pt_clust_8="13000.00000" pt_clust_9="31.28755"></scales>
<clustering>
<clus scale="   31.288">  1  9  2 -1</clus>
<clus scale="   89.312">  5  6 -1 -1</clus>
<clus scale="   89.830">  7  8 -1 -1</clus>
<clus scale="  107.144">  2  5  1 -1</clus>
<clus scale="   31.288">  1  5  2 -1</clus>
</clustering>
</event>
<event>
 9    1  0.2075077E-005  0.1276390E+03  0.7546771E-02  0.1233980E+00
         -2   -1    0    0    0  501 -0.00000000000E+00  0.00000000000E+00  0.20981175153E+03  0.20981175153E+03  0.00000000000E+00 0.  1.
          2   -1    0    0  502    0  0.00000000000E+00 -0.00000000000E+00 -0.76353248089E+03  0.76353248089E+03  0.00000000000E+00 0. -1.
         23    2    1    2    0    0  0.56894368856E+02  0.65243710970E+02  0.17486424005E+03  0.21601250669E+03  0.92683275558E+02 0.  0.
         23    2    1    2    0    0 -0.99994938089E+02 -0.58366003507E+02 -0.37264106015E+03  0.39872187021E+03  0.81927968753E+02 0.  0.
        -11    1    4    4    0    0 -0.85844636439E+01  0.19156380907E+02 -0.74203763763E+02  0.77115877108E+02  0.00000000000E+00 0.  1.
         11    1    4    4    0    0 -0.91410474445E+02 -0.77522384414E+02 -0.29843729639E+03  0.32160599310E+03  0.00000000000E+00 0. -1.
        -11    1    3    3    0    0  0.54196250055E+02  0.56415221285E+01  0.13123954910E+03  0.14210165214E+03  0.00000000000E+00 0. -1.
         11    1    3    3    0    0  0.26981188009E+01  0.59602188842E+02  0.43624690951E+02  0.73910854550E+02  0.00000000000E+00 0.  1.
         21    1    1    2  502  501  0.43100569233E+02 -0.68777074628E+01 -0.35594390927E+03  0.35860985552E+03  0.00000000000E+00 0.  1.
<scales pt_clust_5="13000.00000" pt_clust_6="13000.00000" pt_clust_7="13000.00000" pt_clust_8="13000.00000" pt_clust_9="43.64587"></scales>
<clustering>
<clus scale="   43.646">  2  9  1 -1</clus>
<clus scale="   81.928">  5  6 -1 -1</clus>
<clus scale="   92.683">  7  8 -1 -1</clus>
<clus scale="  120.057">  2  5  1 -1</clus>
<clus scale="   43.646">  2  5  1 -1</clus>
</clustering>
</event>
<event>
 9    1  0.2075077E-005  0.9237599E+02  0.7546771E-02  0.1298629E+00
          1   -1    0    0  502    0  0.00000000000E+00  0.00000000000E+00  0.43773196686E+03  0.43773196686E+03  0.00000000000E+00 0. -1.
         -1   -1    0    0    0  501 -0.00000000000E+00 -0.00000000000E+00 -0.27748369150E+02  0.27748369150E+02  0.00000000000E+00 0.  1.
         23    2    1    2    0    0 -0.87269131971E-01 -0.25712993517E+01  0.12823389456E+03  0.15743554959E+03  0.91298419288E+02 0.  0.
         23    2    1    2    0    0  0.14411140863E+02  0.28909141633E+02  0.21248695572E+03  0.23257172223E+03  0.88856514545E+02 0.  0.
        -13    1    4    4    0    0 -0.36312184231E+02  0.11403505839E+01  0.71928705245E+02  0.80582961979E+02  0.00000000000E+00 0.  1.
         13    1    4    4    0    0  0.50723325094E+02  0.27768791049E+02  0.14055825048E+03  0.15198876025E+03  0.00000000000E+00 0. -1.
        -13    1    3    3    0    0 -0.32832474143E+02  0.20377616410E+02  0.10335218204E+03  0.11033989370E+03  0.00000000000E+00 0. -1.
         13    1    3    3    0    0  0.32745205011E+02 -0.22948915762E+02  0.24881712517E+02  0.47095655889E+02  0.00000000000E+00 0.  1.
         21    1    1    2  502  501 -0.14323871731E+02 -0.26337842281E+02  0.69262747430E+02  0.75473064194E+02  0.00000000000E+00 0. -1.
<scales pt_clust_5="13000.00000" pt_clust_6="13000.00000" pt_clust_7="13000.00000" pt_clust_8="13000.00000" pt_clust_9="29.98091"></scales>
<clustering>
<clus scale="   29.981">  1  9  2 -1</clus>
<clus scale="   88.857">  5  6 -1 -1</clus>
<clus scale="   89.963">  1  5  2 -1</clus>
<clus scale="   91.298">  7  8 -1 -1</clus>
<clus scale="   29.981">  1  5  2 -1</clus>
</clustering>
</event>
<event>
 9    1  0.2075077E-005  0.1200205E+03  0.7546771E-02  0.1244776E+00
          2   -1    0    0  502    0  0.00000000000E+00  0.00000000000E+00  0.69211772560E+03  0.69211772560E+03  0.00000000000E+00 0. -1.
         -2   -1    0    0    0  501 -0.00000000000E+00 -0.00000000000E+00 -0.26961180749E+02  0.26961180749E+02  0.00000000000E+00 0.  1.
         23    2    1    2    0    0  0.14776054567E+02  0.78579725980E+02  0.20100014282E+03  0.23353757427E+03  0.88009295287E+02 0.  0.
         23    2    1    2    0    0  0.63176493965E+01 -0.69635305598E+02  0.34415857641E+03  0.36337576756E+03  0.93315777064E+02 0.  0.
        -11    1    3    3    0    0  0.38600034814E+01  0.28494436330E+02  0.17251249384E+03  0.17489251859E+03  0.00000000000E+00 0. -1.
         11    1    3    3    0    0  0.10916051086E+02  0.50085289650E+02  0.28487648981E+02  0.58645055675E+02  0.00000000000E+00 0.  1.
        -11    1    4    4    0    0  0.37993734344E+02 -0.26692165109E+02  0.25714079177E+03  0.26129941125E+03  0.00000000000E+00 0.  1.
         11    1    4    4    0    0 -0.31676084947E+02 -0.42943140489E+02  0.87017784645E+02  0.10207635631E+03  0.00000000000E+00 0. -1.
         21    1    1    2  502  501 -0.21093703964E+02 -0.89444203817E+01  0.11999782562E+03  0.12216556453E+03  0.00000000000E+00 0.  1.
<scales pt_clust_5="13000.00000" pt_clust_6="13000.00000" pt_clust_7="13000.00000" pt_clust_8="13000.00000" pt_clust_9="22.91172"></scales>
<clustering>
<clus scale="   22.912">  1  9  2 -1</clus>
<clus scale="   88.009">  5  6 -1 -1</clus>
<clus scale="   93.316">  7  8 -1 -1</clus>
<clus scale="  115.943">  2  5  1 -1</clus>
<clus scale="   22.912">  1  5  2 -1</clus>
</clustering>
</event>
<event>
 9    1  0.2075077E-005  0.9689080E+02  0.7546771E-02  0.1287891E+00
         -1   -1    0    0    0  501 -0.00000000000E+00  0.00000000000E+00  0.50776811443E+03  0.50776811443E+03  0.00000000000E+00 0.  1.
          1   -1    0    0  502    0  0.00000000000E+00 -0.00000000000E+00 -0.34897896173E+02  0.34897896173E+02  0.00000000000E+00 0. -1.
         23    2    1    2    0    0  0.12303347689E+02 -0.35178695553E+02  0.32482355547E+03  0.33939221427E+03  0.91037464424E+02 0.  0.
         23    2    1    2    0    0  0.45224878991E+01  0.12315447280E+02  0.14766896010E+03  0.17488401782E+03  0.92769471128E+02 0.  0.
        -11    1    3    3    0    0 -0.68718288694E+01 -0.60670900002E+02  0.26092533318E+03  0.26797427047E+03  0.00000000000E+00 0. -1.
         11    1    3    3    0    0  0.19175176559E+02  0.25492204449E+02  0.63898222294E+02  0.71417943796E+02  0.00000000000E+00 0.  1.
        -13    1    4    4    0    0 -0.22090285481E+02  0.39777384786E+02  0.39847350619E+02  0.60481669987E+02  0.00000000000E+00 0.  1.
         13    1    4    4    0    0  0.26612773380E+02 -0.27461937507E+02  0.10782160948E+03  0.11440234783E+03  0.00000000000E+00 0. -1.
         21    1    1    2  502  501 -0.16825835588E+02  0.22863248273E+02  0.37770268177E+00  0.28389778516E+02  0.00000000000E+00 0.  1.
<scales pt_clust_5="13000.00000" pt_clust_6="13000.00000" pt_clust_7="13000.00000" pt_clust_8="13000.00000" pt_clust_9="28.38727"></scales>
<clustering>
<clus scale="   28.387">  2  9  1 -1</clus>
<clus scale="   91.037">  5  6 -1 -1</clus>
<clus scale="   92.769">  7  8 -1 -1</clus>
<clus scale="   95.234">  1  5  2 -1</clus>
<clus scale="   28.387">  2  5  1 -1</clus>
</clustering>
</event>
<event>
 9    1  0.2075077E-005  0.1005714E+03  0.7546771E-02  0.1279212E+00
         -1   -1    0    0    0  501 -0.00000000000E+00  0.00000000000E+00  0.56445511290E+02  0.56445511290E+02  0.00000000000E+00 0.  1.
          1   -1    0    0  502    0  0.00000000000E+00 -0.00000000000E+00 -0.34435554445E+03  0.34435554445E+03  0.00000000000E+00 0. -1.
         23    2    1    2    0    0  0.62572413643E+02 -0.14013314974E+02 -0.56433266667E+02  0.12489737150E+03  0.91120578770E+02 0.  0.
         23    2    1    2    0    0 -0.44471571203E+01  0.37877934909E+01 -0.14393690392E+03  0.17032748297E+03  0.90881761419E+02 0.  0.
        -13    1    4    4    0    0 -0.27023837460E+02  0.22518619648E+02 -0.15250755592E+02  0.38340077831E+02  0.00000000000E+00 0.  1.
         13    1    4    4    0    0  0.22576680340E+02 -0.18730826157E+02 -0.12868614833E+03  0.13198740514E+03  0.00000000000E+00 0. -1.
        -13    1    3    3    0    0  0.11326781182E+02 -0.36301280891E+02 -0.57578945264E+02  0.69002999239E+02  0.00000000000E+00 0. -1.
         13    1    3    3    0    0  0.51245632461E+02  0.22287965917E+02  0.11456785969E+01  0.55894372261E+02  0.00000000000E+00 0.  1.
         21    1    1    2  502  501 -0.58125256523E+02  0.10225521483E+02 -0.87539862575E+02  0.10557620127E+03  0.00000000000E+00 0. -1.
<scales pt_clust_5="13000.00000" pt_clust_6="13000.00000" pt_clust_7="13000.00000" pt_clust_8="13000.00000" pt_clust_9="59.01785"></scales>
<clustering>
<clus scale="   59.018">  2  9  1 -1</clus>
<clus scale="   90.882">  5  6 -1 -1</clus>
<clus scale="   91.121">  7  8 -1 -1</clus>
<clus scale="  100.355">  2  5  1 -1</clus>
<clus scale="   59.018">  2  5  1 -1</clus>
</clustering>
</event>
<event>
 9    1  0.2075077E-005  0.9729898E+02  0.7546771E-02  0.1288284E+00
          1   -1    0    0  502    0  0.00000000000E+00  0.00000000000E+00  0.44450472605E+03  0.44450472605E+03  0.00000000000E+00 0. -1.
         -1   -1    0    0    0  501 -0.00000000000E+00 -0.00000000000E+00 -0.71126721911E+02  0.71126721911E+02  0.00000000000E+00 0.  1.
         23    2    1    2    0    0  0.29865740490E+02 -0.19091555596E+01  0.88114324420E+01  0.98180179317E+02  0.93091884389E+02 0.  0.
         23    2    1    2    0    0  0.55983835644E+01  0.78498171598E+02  0.22201501040E+03  0.25178736461E+03  0.88954523718E+02 0.  0.
        -11    1    3    3    0    0  0.50386434232E+02 -0.14324056271E+02 -0.23933294589E+02  0.57591439750E+02  0.00000000000E+00 0.  1.
         11    1    3    3    0    0 -0.20520693742E+02  0.12414900711E+02  0.32744727031E+02  0.40588739567E+02  0.00000000000E+00 0. -1.
        -13    1    4    4    0    0 -0.34519316251E+02  0.64547935688E+02  0.16656534690E+03  0.18193964380E+03  0.00000000000E+00 0. -1.
         13    1    4    4    0    0  0.40117699815E+02  0.13950235910E+02  0.55449663498E+02  0.69847720810E+02  0.00000000000E+00 0.  1.
         21    1    1    2  502  501 -0.35464124055E+02 -0.76589016038E+02  0.14255156130E+03  0.16566390404E+03  0.00000000000E+00 0. -1.
<scales pt_clust_5="13000.00000" pt_clust_6="13000.00000" pt_clust_7="13000.00000" pt_clust_8="13000.00000" pt_clust_9="84.40131"></scales>
<clustering>
<clus scale="   84.401">  1  9  2 -1</clus>
<clus scale="   88.955">  7  8 -1 -1</clus>
<clus scale="   93.092">  5  6 -1 -1</clus>
<clus scale="   93.348">  1  7  2 -1</clus>
<clus scale="   84.401">  1  5  2 -1</clus>
</clustering>
</event>
<event>
 9    1  0.2075077E-005  0.1220974E+03  0.7546771E-02  0.1239845E+00
          1   -1    0    0  502    0  0.00000000000E+00  0.00000000000E+00  0.59767884705E+03  0.59767884705E+03  0.00000000000E+00 0. -1.
         -1   -1    0    0    0  501 -0.00000000000E+00 -0.00000000000E+00 -0.12884889575E+03  0.12884889575E+03  0.00000000000E+00 0.  1.
         23    2    1    2    0    0  0.19366322946E+02  0.74694623664E+02 -0.79730651766E+02  0.14438567286E+03  0.92389958482E+02 0.  0.
         23    2    1    2    0    0  0.85869084865E+01 -0.10433058910E+03  0.31017941420E+03  0.34030480069E+03  0.92938052259E+02 0.  0.
        -11    1    3    3    0    0  0.34678370959E+02  0.88641362925E+02 -0.78940949726E+02  0.12365902384E+03  0.00000000000E+00 0.  1.
         11    1    3    3    0    0 -0.15312048012E+02 -0.13946739262E+02 -0.78970203974E+00  0.20726649022E+02  0.00000000000E+00 0. -1.
        -13    1    4    4    0    0 -0.92034770306E+01 -0.65661606788E+02  0.28095573881E+03  0.28867330629E+03  0.00000000000E+00 0. -1.
         13    1    4    4    0    0  0.17790385517E+02 -0.38668982316E+02  0.29223675389E+02  0.51631494395E+02  0.00000000000E+00 0.  1.
         21    1    1    2  502  501 -0.27953231433E+02  0.29635965440E+02  0.23838118886E+03  0.24183726925E+03  0.00000000000E+00 0.  1.
<scales pt_clust_5="13000.00000" pt_clust_6="13000.00000" pt_clust_7="13000.00000" pt_clust_8="13000.00000" pt_clust_9="40.73909"></scales>
<clustering>
<clus scale="   40.739">  1  9  2 -1</clus>
<clus scale="   92.390">  5  6 -1 -1</clus>
<clus scale="   92.938">  7  8 -1 -1</clus>
<clus scale="  121.681">  2  5  1 -1</clus>
<clus scale="   40.739">  1  5  2 -1</clus>
</clustering>
</event>
<event>
 9    1  0.2075077E-005  0.1019516E+03  0.7546771E-02  0.1276469E+00
         -2   -1    0    0    0  501 -0.00000000000E+00  0.00000000000E+00  0.51563577303E+02  0.51563577303E+02  0.00000000000E+00 0.  1.
          2   -1    0    0  502    0  0.00000000000E+00 -0.00000000000E+00 -0.41985978743E+03  0.41985978743E+03  0.00000000000E+00 0. -1.
         23    2    1    2    0    0  0.19690070886E+02  0.33189526190E+02 -0.32945421132E+02  0.10457657020E+03  0.91441865256E+02 0.  0.
         23    2    1    2    0    0 -0.37670649628E+02 -0.54348170399E+02 -0.20746383605E+03  0.23598021297E+03  0.90953923357E+02 0.  0.
        -11    1    4    4    0    0 -0.36424622741E+02 -0.31508796180E+00 -0.21447452035E+02  0.42271096757E+02  0.00000000000E+00 0.  1.
         11    1    4    4    0    0 -0.12460268876E+01 -0.54033082438E+02 -0.18601638402E+03  0.19370911621E+03  0.00000000000E+00 0. -1.
        -13    1    3    3    0    0  0.55199242109E+02  0.11650980065E+02 -0.27267032046E+02  0.62659338510E+02  0.00000000000E+00 0.  1.
         13    1    3    3    0    0 -0.35509171223E+02  0.21538546125E+02 -0.56783890864E+01  0.41917231693E+02  0.00000000000E+00 0. -1.
         21    1    1    2  502  501  0.17980578743E+02  0.21158644209E+02 -0.12788695295E+03  0.13086658157E+03  0.00000000000E+00 0. -1.
<scales pt_clust_5="13000.00000" pt_clust_6="13000.00000" pt_clust_7="13000.00000" pt_clust_8="13000.00000" pt_clust_9="27.76670"></scales>
<clustering>
<clus scale="   27.767">  2  9  1 -1</clus>
<clus scale="   90.954">  5  6 -1 -1</clus>
<clus scale="   91.442">  7  8 -1 -1</clus>
<clus scale="  101.514">  2  5  1 -1</clus>
<clus scale="   27.767">  2  5  1 -1</clus>
</clustering>
</event>
<event>
 9    1  0.2075077E-005  0.1773051E+03  0.7546771E-02  0.1170937E+00
         -1   -1    0    0    0  501 -0.00000000000E+00  0.00000000000E+00  0.41688942159E+02  0.41688942159E+02  0.00000000000E+00 0.  1.
          1   -1    0    0  502    0  0.00000000000E+00 -0.00000000000E+00 -0.99971984155E+03  0.99971984155E+03  0.00000000000E+00 0. -1.
         23    2    1    2    0    0  0.36796434450E+02  0.15486705201E+03 -0.31156122372E+03  0.36264152465E+03  0.95397577986E+02 0.  0.
         23    2    1    2    0    0 -0.55190451135E+02 -0.12582917817E+03 -0.45062592404E+03  0.47992985559E+03  0.91596806117E+02 0.  0.
        -11    1    3    3    0    0  0.37433660313E+02  0.97099791245E+02 -0.27559884332E+03  0.29459187162E+03  0.00000000000E+00 0. -1.
         11    1    3    3    0    0 -0.63722586304E+00  0.57767260770E+02 -0.35962380403E+02  0.68049653033E+02  0.00000000000E+00 0.  1.
        -13    1    4    4    0    0  0.67806564782E+01 -0.80834859801E+02 -0.16007225126E+03  0.17945299520E+03  0.00000000000E+00 0. -1.
         13    1    4    4    0    0 -0.61971107613E+02 -0.44994318368E+02 -0.29055367278E+03  0.30047686039E+03  0.00000000000E+00 0.  1.
         21    1    1    2  502  501  0.18394016685E+02 -0.29037873846E+02 -0.19584375163E+03  0.19883740348E+03  0.00000000000E+00 0. -1.
<scales pt_clust_5="13000.00000" pt_clust_6="13000.00000" pt_clust_7="13000.00000" pt_clust_8="13000.00000" pt_clust_9="34.37351"></scales>
<clustering>
<clus scale="   34.374">  2  9  1 -1</clus>
<clus scale="   91.597">  7  8 -1 -1</clus>
<clus scale="   95.398">  5  6 -1 -1</clus>
<clus scale="  175.289">  2  7  1 -1</clus>
<clus scale="   34.374">  2  5  1 -1</clus>
</clustering>
</event>
<event>
 9    1  0.2075077E-005  0.1489317E+03  0.7546771E-02  0.1202438E+00
          1   -1    0    0  502    0  0.00000000000E+00  0.00000000000E+00  0.46634086597E+03  0.46634086597E+03  0.00000000000E+00 0. -1.
         -1   -1    0    0    0  501 -0.00000000000E+00 -0.00000000000E+00 -0.55883473645E+02  0.55883473645E+02  0.00000000000E+00 0.  1.
         23    2    1    2    0    0 -0.38118840711E+02 -0.11152160768E+03  0.15736115504E+03  0.21760819000E+03  0.93277415495E+02 0.  0.
         23    2    1    2    0    0  0.55539318315E+02  0.10067745507E+03  0.19933111077E+03  0.24706827811E+03  0.89940405205E+02 0.  0.
        -13    1    3    3    0    0  0.17996898248E+02 -0.87094580736E+02  0.88157408956E+02  0.12522413144E+03  0.00000000000E+00 0. -1.
         13    1    3    3    0    0 -0.56115738959E+02 -0.24427026948E+02  0.69203746085E+02  0.92384058563E+02  0.00000000000E+00 0.  1.
        -13    1    4    4    0    0  0.78012913526E+02  0.77045655652E+02  0.17446288356E+03  0.20605665597E+03  0.00000000000E+00 0. -1.
         13    1    4    4    0    0 -0.22473595211E+02  0.23631799419E+02  0.24868227210E+02  0.41011622134E+02  0.00000000000E+00 0.  1.
         21    1    1    2  502  501 -0.17420477604E+02  0.10844152613E+02  0.53765126517E+02  0.57547871509E+02  0.00000000000E+00 0. -1.
<scales pt_clust_5="13000.00000" pt_clust_6="13000.00000" pt_clust_7="13000.00000" pt_clust_8="13000.00000" pt_clust_9="20.51996"></scales>
<clustering>
<clus scale="   20.520">  1  9  2 -1</clus>
<clus scale="   89.940">  7  8 -1 -1</clus>
<clus scale="   93.277">  5  6 -1 -1</clus>
<clus scale="  146.865">  1  7  2 -1</clus>
<clus scale="   20.520">  1  5  2 -1</clus>
</clustering>
</event>
<event>
 9    1  0.2075077E-005  0.1502653E+03  0.7546771E-02  0.1202011E+00
         -1   -1    0    0    0  501 -0.00000000000E+00  0.00000000000E+00  0.52909084417E+02  0.52909084417E+02  0.00000000000E+00 0.  1.
          1   -1    0    0  502    0  0.00000000000E+00 -0.00000000000E+00 -0.78935988228E+03  0.78935988228E+03  0.00000000000E+00 0. -1.
         23    2    1    2    0    0 -0.18910818519E+02  0.59486919370E+02 -0.93995032179E+02  0.14061485349E+03  0.83911610130E+02 0.  0.
         23    2    1    2    0    0  0.49292219800E+02 -0.14847334479E+03 -0.48621474592E+03  0.51930041922E+03  0.93776805277E+02 0.  0.
        -11    1    4    4    0    0  0.35812048934E+02 -0.59540191106E+02 -0.93927148437E+02  0.11683255719E+03  0.00000000000E+00 0.  1.
         11    1    4    4    0    0  0.13480170866E+02 -0.88933153687E+02 -0.39228759748E+03  0.40246786203E+03  0.00000000000E+00 0. -1.
        -11    1    3    3    0    0 -0.45679802053E+02  0.62035813019E+02 -0.76275831975E+02  0.10841166430E+03  0.00000000000E+00 0.  1.
         11    1    3    3    0    0  0.26768983534E+02 -0.25488936485E+01 -0.17719200203E+02  0.32203189192E+02  0.00000000000E+00 0. -1.
         21    1    1    2  502  501 -0.30381401281E+02  0.88986425422E+02 -0.15624101977E+03  0.18235369399E+03  0.00000000000E+00 0.  1.
<scales pt_clust_5="13000.00000" pt_clust_6="13000.00000" pt_clust_7="13000.00000" pt_clust_8="13000.00000" pt_clust_9="94.02985"></scales>
<clustering>
<clus scale="   83.912">  7  8 -1 -1</clus>
<clus scale="   93.777">  5  6 -1 -1</clus>
<clus scale="   94.030">  1  9  2 -1</clus>
<clus scale="  144.315">  1  7  2 -1</clus>
<clus scale="  150.265">  2  5  1 -1</clus>
</clustering>
</event>
<event>
 9    1  0.2075077E-005  0.9528105E+02  0.7546771E-02  0.1293400E+00
         -3   -1    0    0    0  501 -0.00000000000E+00  0.00000000000E+00  0.22523688683E+03  0.22523688683E+03  0.00000000000E+00 0.  1.
          3   -1    0    0  502    0  0.00000000000E+00 -0.00000000000E+00 -0.17647342646E+03  0.17647342646E+03  0.00000000000E+00 0. -1.
         23    2    1    2    0    0 -0.18607625243E+02 -0.87482193647E+01  0.18273653680E+03  0.20577889054E+03  0.92355480883E+02 0.  0.
         23    2    1    2    0    0  0.56933361574E+02  0.45301906050E+01 -0.10156263269E+03  0.14556188141E+03  0.87243123938E+02 0.  0.
        -11    1    3    3    0    0 -0.21648294761E+02 -0.47107138750E+02  0.13402510939E+03  0.14370268311E+03  0.00000000000E+00 0.  1.
         11    1    3    3    0    0  0.30406695179E+01  0.38358919385E+02  0.48711427415E+02  0.62076207425E+02  0.00000000000E+00 0. -1.
        -13    1    4    4    0    0  0.37535251411E+02  0.33592685032E+02 -0.98316975615E+02  0.11046986594E+03  0.00000000000E+00 0. -1.
         13    1    4    4    0    0  0.19398110163E+02 -0.29062494427E+02 -0.32456570735E+01  0.35092015475E+02  0.00000000000E+00 0.  1.
         21    1    1    2  502  501 -0.38325736331E+02  0.42180287597E+01 -0.32410443744E+02  0.50369541348E+02  0.00000000000E+00 0.  1.
<scales pt_clust_5="13000.00000" pt_clust_6="13000.00000" pt_clust_7="13000.00000" pt_clust_8="13000.00000" pt_clust_9="38.55715"></scales>
<clustering>
<clus scale="   38.557">  2  9  1 -1</clus>
<clus scale="   87.243">  7  8 -1 -1</clus>
<clus scale="   90.334">  2  7  1 -1</clus>
<clus scale="   92.355">  5  6 -1 -1</clus>
<clus scale="   38.557">  2  5  1 -1</clus>
</clustering>
</event>
<event>
 9    1  0.2075077E-005  0.1064059E+03  0.7546771E-02  0.1268874E+00
          2   -1    0    0  502    0  0.00000000000E+00  0.00000000000E+00  0.39397179489E+03  0.39397179489E+03  0.00000000000E+00 0. -1.
         -2   -1    0    0    0  501 -0.00000000000E+00 -0.00000000000E+00 -0.70406335573E+02  0.70406335573E+02  0.00000000000E+00 0.  1.
         23    2    1    2    0    0  0.49957524324E+02 -0.45636015878E+01  0.50104542783E+01  0.10495280844E+03  0.92051108905E+02 0.  0.
         23    2    1    2    0    0 -0.66352369511E+02 -0.40220718873E+02  0.20739230167E+03  0.23846428314E+03  0.88505956727E+02 0.  0.
        -11    1    3    3    0    0  0.61114873007E+01 -0.44838858517E+02  0.66825844158E+00  0.45258370270E+02  0.00000000000E+00 0. -1.
         11    1    3    3    0    0  0.43846037024E+02  0.40275256929E+02  0.43421958367E+01  0.59694438167E+02  0.00000000000E+00 0.  1.
        -13    1    4    4    0    0 -0.56389372380E+02  0.15587692179E+02  0.80786912994E+02  0.99745991278E+02  0.00000000000E+00 0.  1.
         13    1    4    4    0    0 -0.99629971302E+01 -0.55808411051E+02  0.12660538868E+03  0.13871829186E+03  0.00000000000E+00 0. -1.
         21    1    1    2  502  501  0.16394845186E+02  0.44784320460E+02  0.11116270337E+03  0.12096103888E+03  0.00000000000E+00 0.  1.
<scales pt_clust_5="13000.00000" pt_clust_6="13000.00000" pt_clust_7="13000.00000" pt_clust_8="13000.00000" pt_clust_9="47.69095"></scales>
<clustering>
<clus scale="   47.691">  1  9  2 -1</clus>
<clus scale="   88.506">  7  8 -1 -1</clus>
<clus scale="   92.051">  5  6 -1 -1</clus>
<clus scale="  103.354">  1  7  2 -1</clus>
<clus scale="   47.691">  1  5  2 -1</clus>
</clustering>
</event>
<event>
 9    1  0.2075077E-005  0.1028546E+03  0.7546771E-02  0.1274499E+00
          3   -1    0    0  502    0  0.00000000000E+00  0.00000000000E+00  0.79360865848E+02  0.79360865848E+02  0.00000000000E+00 0. -1.
         -3   -1    0    0    0  501 -0.00000000000E+00 -0.00000000000E+00 -0.24486875572E+03  0.24486875572E+03  0.00000000000E+00 0.  1.
         23    2    1    2    0    0 -0.33031402794E+02  0.19077630840E+02 -0.15000401544E+03  0.18050056747E+03  0.92866682071E+02 0.  0.
         23    2    1    2    0    0  0.62497404933E+02 -0.18638205649E+02 -0.14578125945E+02  0.11424523842E+03  0.92661450520E+02 0.  0.
        -11    1    3    3    0    0 -0.64466257303E+02  0.77853224603E+01 -0.80811118148E+02  0.10366747992E+03  0.00000000000E+00 0.  1.
         11    1    3    3    0    0  0.31434854508E+02  0.11292308380E+02 -0.69192897295E+02  0.76833087550E+02  0.00000000000E+00 0. -1.
        -11    1    4    4    0    0  0.10913433750E+02  0.32946483402E+02  0.11820217170E+02  0.36664578802E+02  0.00000000000E+00 0. -1.
         11    1    4    4    0    0  0.51583971183E+02 -0.51584689051E+02 -0.26398343115E+02  0.77580659618E+02  0.00000000000E+00 0.  1.
         21    1    1    2  502  501 -0.29466002138E+02 -0.43942519092E+00 -0.92574848056E+00  0.29483815675E+02  0.00000000000E+00 0.  1.
<scales pt_clust_5="13000.00000" pt_clust_6="13000.00000" pt_clust_7="13000.00000" pt_clust_8="13000.00000" pt_clust_9="29.46928"></scales>
<clustering>
<clus scale="   29.469">  1  9  2 -1</clus>
<clus scale="   92.661">  7  8 -1 -1</clus>
<clus scale="   92.867">  5  6 -1 -1</clus>
<clus scale="  102.669">  1  7  2 -1</clus>
<clus scale="   29.469">  1  5  2 -1</clus>
</clustering>
</event>
<event>
 9    1  0.2075077E-005  0.2491683E+03  0.7546771E-02  0.1114311E+00
          2   -1    0    0  502    0  0.00000000000E+00  0.00000000000E+00  0.72889851474E+03  0.72889851474E+03  0.00000000000E+00 0. -1.
         -2   -1    0    0    0  501 -0.00000000000E+00 -0.00000000000E+00 -0.19950541164E+03  0.19950541164E+03  0.00000000000E+00 0.  1.
         23    2    1    2    0    0 -0.40698095434E+02  0.26715274405E+03 -0.41292856944E+01  0.28513878750E+03  0.90885386691E+02 0.  0.
         23    2    1    2    0    0 -0.28313022452E+02 -0.16876793804E+03  0.17081682757E+03  0.26116904024E+03  0.98725046707E+02 0.  0.
        -13    1    4    4    0    0 -0.60009317289E+02 -0.10031641833E+03  0.13204982683E+03  0.17635662367E+03  0.00000000000E+00 0. -1.
         13    1    4    4    0    0  0.31696294838E+02 -0.68451519713E+02  0.38767000745E+02  0.84812416568E+02  0.00000000000E+00 0.  1.
        -13    1    3    3    0    0 -0.28093277776E+02  0.88331234227E+02 -0.42248582628E+02  0.10186550903E+03  0.00000000000E+00 0.  1.
         13    1    3    3    0    0 -0.12604817659E+02  0.17882150982E+03  0.38119296934E+02  0.18327327847E+03  0.00000000000E+00 0. -1.
         21    1    1    2  502  501  0.69011117886E+02 -0.98384806009E+02  0.36270556122E+03  0.38209609863E+03  0.00000000000E+00 0. -1.
<scales pt_clust_5="13000.00000" pt_clust_6="13000.00000" pt_clust_7="13000.00000" pt_clust_8="13000.00000" pt_clust_9="120.17531"></scales>
<clustering>
<clus scale="   90.885">  7  8 -1 -1</clus>
<clus scale="   98.725">  5  6 -1 -1</clus>
<clus scale="  120.175">  1  9  2 -1</clus>
<clus scale="  246.167">  2  7  1 -1</clus>
<clus scale="  120.175">  1  5  2 -1</clus>
</clustering>
</event>
<event>
 9    1  0.2075077E-005  0.1029284E+03  0.7546771E-02  0.1276814E+00
          2   -1    0    0  502    0  0.00000000000E+00  0.00000000000E+00  0.20650925631E+03  0.20650925631E+03  0.00000000000E+00 0. -1.
         -2   -1    0    0    0  501 -0.00000000000E+00 -0.00000000000E+00 -0.16703242126E+03  0.16703242126E+03  0.00000000000E+00 0.  1.
         23    2    1    2    0    0  0.46442822487E+02 -0.36024586809E+01 -0.87118420174E+02  0.13129927970E+03  0.86486809668E+02 0.  0.
         23    2    1    2    0    0 -0.40837070887E+02  0.28147344754E+02 -0.84348711168E+01  0.10488515962E+03  0.92031572202E+02 0.  0.
        -11    1    3    3    0    0 -0.14703472287E+02 -0.25332706917E+02 -0.45811984397E+02  0.54375325759E+02  0.00000000000E+00 0.  1.
         11    1    3    3    0    0  0.61146294774E+02  0.21730248236E+02 -0.41306435777E+02  0.76923953939E+02  0.00000000000E+00 0. -1.
        -11    1    4    4    0    0 -0.38528117338E+02 -0.25752903759E+02  0.10843942351E+02  0.47594316502E+02  0.00000000000E+00 0.  1.
         11    1    4    4    0    0 -0.23089535493E+01  0.53900248513E+02 -0.19278813467E+02  0.57290843116E+02  0.00000000000E+00 0. -1.
         21    1    1    2  502  501 -0.56057515994E+01 -0.24544886073E+02  0.13503012634E+03  0.13735723826E+03  0.00000000000E+00 0. -1.
<scales pt_clust_5="13000.00000" pt_clust_6="13000.00000" pt_clust_7="13000.00000" pt_clust_8="13000.00000" pt_clust_9="25.17689"></scales>
<clustering>
<clus scale="   25.177">  1  9  2 -1</clus>
<clus scale="   86.487">  5  6 -1 -1</clus>
<clus scale="   92.032">  7  8 -1 -1</clus>
<clus scale="   98.002">  2  5  1 -1</clus>
<clus scale="   25.177">  1  5  2 -1</clus>
</clustering>
</event>
<event>
 9    1  0.2075077E-005  0.1574127E+03  0.7546771E-02  0.1192451E+00
          1   -1    0    0  502    0  0.00000000000E+00  0.00000000000E+00  0.68054803565E+03  0.68054803565E+03  0.00000000000E+00 0. -1.
         -1   -1    0    0    0  501 -0.00000000000E+00 -0.00000000000E+00 -0.84420574854E+02  0.84420574854E+02  0.00000000000E+00 0.  1.
         23    2    1    2    0    0  0.10364112094E+03  0.75158725277E+02  0.15357419824E+02  0.15780416688E+03  0.90972461808E+02 0.  0.
         23    2    1    2    0    0 -0.99748572133E+02 -0.49130578061E+02  0.43525613822E+03  0.45928979306E+03  0.95580420642E+02 0.  0.
        -11    1    3    3    0    0  0.72263719756E+02  0.20444222249E+02 -0.29203135567E+02  0.80578126953E+02  0.00000000000E+00 0.  1.
         11    1    3    3    0    0  0.31377401182E+02  0.54714503028E+02  0.44560555391E+02  0.77226039930E+02  0.00000000000E+00 0. -1.
        -13    1    4    4    0    0 -0.11784003942E+03 -0.34148509469E+02  0.35119929995E+03  0.37201255875E+03  0.00000000000E+00 0. -1.
         13    1    4    4    0    0  0.18091467284E+02 -0.14982068592E+02  0.84056838271E+02  0.87277234305E+02  0.00000000000E+00 0.  1.
         21    1    1    2  502  501 -0.38925488051E+01 -0.26028147216E+02  0.14551390276E+03  0.14787465056E+03  0.00000000000E+00 0.  1.
<scales pt_clust_5="13000.00000" pt_clust_6="13000.00000" pt_clust_7="13000.00000" pt_clust_8="13000.00000" pt_clust_9="26.31761"></scales>
<clustering>
<clus scale="   26.318">  1  9  2 -1</clus>
<clus scale="   90.972">  5  6 -1 -1</clus>
<clus scale="   95.580">  7  8 -1 -1</clus>
<clus scale="  154.658">  2  5  1 -1</clus>
<clus scale="   26.318">  1  5  2 -1</clus>
</clustering>
</event>
<event>
 9    1  0.2075077E-005  0.1158432E+03  0.7546771E-02  0.1250554E+00
          3   -1    0    0  502    0  0.00000000000E+00  0.00000000000E+00  0.47280307483E+03  0.47280307483E+03  0.00000000000E+00 0. -1.
         -3   -1    0    0    0  501 -0.00000000000E+00 -0.00000000000E+00 -0.68622819635E+02  0.68622819635E+02  0.00000000000E+00 0.  1.
         23    2    1    2    0    0  0.65041120091E+02  0.38032961181E+02  0.26869882053E+01  0.11805575628E+03  0.90846509266E+02 0.  0.
         23    2    1    2    0    0 -0.53936025284E+02 -0.17426148944E+02  0.27475974559E+03  0.29449287375E+03  0.89556515149E+02 0.  0.
        -13    1    3    3    0    0  0.31715849702E+02 -0.27118188213E+02  0.13983528997E+02  0.44009434642E+02  0.00000000000E+00 0. -1.
         13    1    3    3    0    0  0.33325270389E+02  0.65151149394E+02 -0.11296540792E+02  0.74046321635E+02  0.00000000000E+00 0.  1.
        -13    1    4    4    0    0 -0.50327350307E+02  0.29363220882E+02  0.16982237410E+03  0.17954018958E+03  0.00000000000E+00 0. -1.
         13    1    4    4    0    0 -0.36086749773E+01 -0.46789369826E+02  0.10493737148E+03  0.11495268417E+03  0.00000000000E+00 0.  1.
         21    1    1    2  502  501 -0.11105094807E+02 -0.20606812237E+02  0.12673352141E+03  0.12887726444E+03  0.00000000000E+00 0. -1.
<scales pt_clust_5="13000.00000" pt_clust_6="13000.00000" pt_clust_7="13000.00000" pt_clust_8="13000.00000" pt_clust_9="23.40863"></scales>
<clustering>
<clus scale="   23.409">  1  9  2 -1</clus>
<clus scale="   89.557">  7  8 -1 -1</clus>
<clus scale="   90.847">  5  6 -1 -1</clus>
<clus scale="  114.834">  1  7  2 -1</clus>
<clus scale="   23.409">  1  5  2 -1</clus>
</clustering>
</event>
<event>
 9    1  0.2075077E-005  0.1798364E+03  0.7546771E-02  0.1168350E+00
         -4   -1    0    0    0  501 -0.00000000000E+00  0.00000000000E+00  0.17122113557E+03  0.17122113557E+03  0.00000000000E+00 0.  1.
          4   -1    0    0  502    0  0.00000000000E+00 -0.00000000000E+00 -0.36571484487E+03  0.36571484487E+03  0.00000000000E+00 0. -1.
         23    2    1    2    0    0 -0.13433948486E+03 -0.78894255044E+02  0.81210326394E+02  0.19799645263E+03  0.91302121928E+02 0.  0.
         23    2    1    2    0    0  0.11942467464E+03  0.94080904280E+02 -0.24972075876E+03  0.30535059276E+03  0.88119564657E+02 0.  0.
        -11    1    4    4    0    0  0.47545605890E+02 -0.10622790906E+02 -0.68411805523E+02  0.83985733676E+02  0.00000000000E+00 0.  1.
         11    1    4    4    0    0  0.71879068751E+02  0.10470369519E+03 -0.18130895324E+03  0.22136485908E+03  0.00000000000E+00 0. -1.
        -13    1    3    3    0    0 -0.72325140596E+02 -0.36392366393E+02 -0.79680116738E+01  0.81356127636E+02  0.00000000000E+00 0. -1.
         13    1    3    3    0    0 -0.62014344263E+02 -0.42501888651E+02  0.89178338068E+02  0.11664032499E+03  0.00000000000E+00 0.  1.
         21    1    1    2  502  501  0.14914810218E+02 -0.15186649237E+02 -0.25983276928E+02  0.33588935065E+02  0.00000000000E+00 0.  1.
<scales pt_clust_5="13000.00000" pt_clust_6="13000.00000" pt_clust_7="13000.00000" pt_clust_8="13000.00000" pt_clust_9="21.28581"></scales>
<clustering>
<clus scale="   21.286">  2  9  1 -1</clus>
<clus scale="   88.120">  5  6 -1 -1</clus>
<clus scale="   91.302">  7  8 -1 -1</clus>
<clus scale="  178.242">  2  5  1 -1</clus>
<clus scale="   21.286">  2  5  1 -1</clus>
</clustering>
</event>
<event>
 9    1  0.2075077E-005  0.1141780E+03  0.7546771E-02  0.1256511E+00
          1   -1    0    0  502    0  0.00000000000E+00  0.00000000000E+00  0.82044904370E+02  0.82044904370E+02  0.00000000000E+00 0. -1.
         -1   -1    0    0    0  501 -0.00000000000E+00 -0.00000000000E+00 -0.33835821613E+03  0.33835821613E+03  0.00000000000E+00 0.  1.
         23    2    1    2    0    0 -0.59332205369E+02  0.21840305252E+02 -0.18985965785E+03  0.21996638264E+03  0.91330226569E+02 0.  0.
         23    2    1    2    0    0  0.45131844915E+02  0.39244241353E+02 -0.72672219902E+02  0.13741576806E+03  0.10012416223E+03 0.  0.
        -13    1    4    4    0    0  0.20351668417E+02 -0.33750315710E+02 -0.21550721181E+02  0.44918902494E+02  0.00000000000E+00 0.  1.
         13    1    4    4    0    0  0.24780176498E+02  0.72994557063E+02 -0.51121498721E+02  0.92496865566E+02  0.00000000000E+00 0. -1.
        -13    1    3    3    0    0 -0.77470812570E+02  0.93878524594E+00 -0.10353391959E+03  0.12931311079E+03  0.00000000000E+00 0.  1.
         13    1    3    3    0    0  0.18138607201E+02  0.20901520006E+02 -0.86325738263E+02  0.90653271846E+02  0.00000000000E+00 0. -1.
         21    1    1    2  502  501  0.14200360454E+02 -0.61084546605E+02  0.62185659954E+01  0.63020969796E+02  0.00000000000E+00 0. -1.
<scales pt_clust_5="13000.00000" pt_clust_6="13000.00000" pt_clust_7="13000.00000" pt_clust_8="13000.00000" pt_clust_9="62.71341"></scales>
<clustering>
<clus scale="   62.713">  1  9  2 -1</clus>
<clus scale="   91.330">  7  8 -1 -1</clus>
<clus scale="  100.124">  5  6 -1 -1</clus>
<clus scale="  106.550">  2  7  1 -1</clus>
<clus scale="   62.713">  1  5  2 -1</clus>
</clustering>
</event>
<event>
 9    1  0.2075077E-005  0.1062043E+03  0.7546771E-02  0.1268592E+00
          2   -1    0    0  502    0  0.00000000000E+00  0.00000000000E+00  0.64794666221E+02  0.64794666221E+02  0.00000000000E+00 0. -1.
         -2   -1    0    0    0  501 -0.00000000000E+00 -0.00000000000E+00 -0.21756316784E+03  0.21756316784E+03  0.00000000000E+00 0.  1.
         23    2    1    2    0    0 -0.47562291306E+02 -0.43594608027E+02 -0.10362441678E+03  0.15022548216E+03  0.87561488875E+02 0.  0.
         23    2    1    2    0    0  0.27622132463E+02  0.38389468907E+02 -0.46147311128E+02  0.11130726941E+03  0.89571202819E+02 0.  0.
        -13    1    3    3    0    0 -0.56184329069E+01  0.26174322302E+02 -0.19184730279E+02  0.32935024095E+02  0.00000000000E+00 0.  1.
         13    1    3    3    0    0 -0.41943858399E+02 -0.69768930329E+02 -0.84439686502E+02  0.11729045807E+03  0.00000000000E+00 0. -1.
        -13    1    4    4    0    0  0.34654361470E+02  0.65047212905E+02 -0.32643650715E+02  0.80608142316E+02  0.00000000000E+00 0.  1.
         13    1    4    4    0    0 -0.70322290070E+01 -0.26657743997E+02 -0.13503660413E+02  0.30699127095E+02  0.00000000000E+00 0. -1.
         21    1    1    2  502  501  0.19940158842E+02  0.52051391197E+01 -0.29967737065E+01  0.20825082486E+02  0.00000000000E+00 0. -1.
<scales pt_clust_5="13000.00000" pt_clust_6="13000.00000" pt_clust_7="13000.00000" pt_clust_8="13000.00000" pt_clust_9="20.60833"></scales>
<clustering>
<clus scale="   20.608">  1  9  2 -1</clus>
<clus scale="   87.561">  5  6 -1 -1</clus>
<clus scale="   89.571">  7  8 -1 -1</clus>
<clus scale="  104.515">  2  5  1 -1</clus>
<clus scale="   20.608">  1  5  2 -1</clus>
</clustering>
</event>
<event>
 9    1  0.2075077E-005  0.1314604E+03  0.7546771E-02  0.1226098E+00
         -2   -1    0    0    0  501 -0.00000000000E+00  0.00000000000E+00  0.32320792460E+03  0.32320792460E+03  0.00000000000E+00 0.  1.
          2   -1    0    0  502    0  0.00000000000E+00 -0.00000000000E+00 -0.99194517055E+02  0.99194517055E+02  0.00000000000E+00 0. -1.
         23    2    1    2    0    0 -0.15828940294E+02  0.92177118066E+02  0.23061573420E+03  0.26437560071E+03  0.89239368807E+02 0.  0.
         23    2    1    2    0    0 -0.47600126215E+01 -0.95589816681E+02 -0.18084086483E+02  0.13420705289E+03  0.92327829439E+02 0.  0.
        -11    1    4    4    0    0  0.65097264995E+01 -0.31447916589E+02  0.36941076995E+02  0.48948862770E+02  0.00000000000E+00 0.  1.
         11    1    4    4    0    0 -0.11269739121E+02 -0.64141900092E+02 -0.55025163478E+02  0.85258190123E+02  0.00000000000E+00 0. -1.
        -11    1    3    3    0    0 -0.29574510581E+02 -0.32475699244E+01  0.32591807564E+02  0.44129630712E+02  0.00000000000E+00 0. -1.
         11    1    3    3    0    0  0.13745570287E+02  0.95424687991E+02  0.19802392664E+03  0.22024597000E+03  0.00000000000E+00 0.  1.
         21    1    1    2  502  501  0.20588952916E+02  0.34126986144E+01  0.11481759823E+02  0.23819788048E+02  0.00000000000E+00 0. -1.
<scales pt_clust_5="13000.00000" pt_clust_6="13000.00000" pt_clust_7="13000.00000" pt_clust_8="13000.00000" pt_clust_9="20.86987"></scales>
<clustering>
<clus scale="   20.870">  2  9  1 -1</clus>
<clus scale="   89.239">  7  8 -1 -1</clus>
<clus scale="   92.328">  5  6 -1 -1</clus>
<clus scale="  129.310">  1  7  2 -1</clus>
<clus scale="   20.870">  2  5  1 -1</clus>
</clustering>
</event>
<event>
 9    1  0.2075077E-005  0.1105943E+03  0.7546771E-02  0.1259631E+00
         -2   -1    0    0    0  501 -0.00000000000E+00  0.00000000000E+00  0.51912288087E+03  0.51912288087E+03  0.00000000000E+00 0.  1.
          2   -1    0    0  502    0  0.00000000000E+00 -0.00000000000E+00 -0.29447818389E+03  0.29447818389E+03  0.00000000000E+00 0. -1.
         23    2    1    2    0    0 -0.54184340046E+02  0.29182018077E+02  0.49473550354E+03  0.50700876317E+03  0.92234129176E+02 0.  0.
         23    2    1    2    0    0  0.23900379587E+02 -0.38224425572E+02 -0.24731679814E+03  0.26763670053E+03  0.91823036174E+02 0.  0.
        -13    1    3    3    0    0 -0.80436495561E+02  0.18823076545E+02  0.37526355049E+03  0.38424870898E+03  0.00000000000E+00 0.  1.
         13    1    3    3    0    0  0.26252155515E+02  0.10358941532E+02  0.11947195305E+03  0.12276005419E+03  0.00000000000E+00 0. -1.
        -13    1    4    4    0    0 -0.33957265796E+02 -0.19754042695E+02 -0.70874024584E+02  0.81033607002E+02  0.00000000000E+00 0.  1.
         13    1    4    4    0    0  0.57857645383E+02 -0.18470382877E+02 -0.17644277356E+03  0.18660309353E+03  0.00000000000E+00 0. -1.
         21    1    1    2  502  501  0.30283960459E+02  0.90424074946E+01 -0.22774008419E+02  0.38955601058E+02  0.00000000000E+00 0. -1.
<scales pt_clust_5="13000.00000" pt_clust_6="13000.00000" pt_clust_7="13000.00000" pt_clust_8="13000.00000" pt_clust_9="31.60512"></scales>
<clustering>
<clus scale="   31.605">  2  9  1 -1</clus>
<clus scale="   91.823">  7  8 -1 -1</clus>
<clus scale="   92.234">  5  6 -1 -1</clus>
<clus scale="  110.252">  2  7  1 -1</clus>
<clus scale="   31.605">  2  5  1 -1</clus>
</clustering>
</event>
<event>
 9    1  0.2075077E-005  0.1021420E+03  0.7546771E-02  0.1280004E+00
          3   -1    0    0  502    0  0.00000000000E+00  0.00000000000E+00  0.12330268548E+03  0.12330268548E+03  0.00000000000E+00 0. -1.
         -3   -1    0    0    0  501 -0.00000000000E+00 -0.00000000000E+00 -0.19049050680E+03  0.19049050680E+03  0.00000000000E+00 0.  1.
         23    2    1    2    0    0 -0.23245451200E+02  0.29064490586E+02 -0.90757637241E+02  0.12806110373E+03  0.82326192405E+02 0.  0.
         23    2    1    2    0    0  0.42256724993E+02 -0.49875529850E+02 -0.37671055629E+02  0.11831567932E+03  0.91138862485E+02 0.  0.
        -11    1    4    4    0    0  0.58137284166E+02 -0.62585156517E+02 -0.13103640029E+02  0.86420778801E+02  0.00000000000E+00 0.  1.
         11    1    4    4    0    0 -0.15880559173E+02  0.12709626668E+02 -0.24567415600E+02  0.31894900516E+02  0.00000000000E+00 0. -1.
        -13    1    3    3    0    0 -0.10354383259E+02  0.57771027436E+02 -0.55088435259E+02  0.80494972284E+02  0.00000000000E+00 0. -1.
         13    1    3    3    0    0 -0.12891067942E+02 -0.28706536849E+02 -0.35669201981E+02  0.47566131444E+02  0.00000000000E+00 0.  1.
         21    1    1    2  502  501 -0.19011273793E+02  0.20811039263E+02  0.61240871552E+02  0.67416409241E+02  0.00000000000E+00 0. -1.
<scales pt_clust_5="13000.00000" pt_clust_6="13000.00000" pt_clust_7="13000.00000" pt_clust_8="13000.00000" pt_clust_9="28.18737"></scales>
<clustering>
<clus scale="   28.187">  1  9  2 -1</clus>
<clus scale="   82.326">  7  8 -1 -1</clus>
<clus scale="   91.139">  5  6 -1 -1</clus>
<clus scale="   94.363">  2  7  1 -1</clus>
<clus scale="   28.187">  1  5  2 -1</clus>
</clustering>
</event>
<event>
 9    1  0.2075077E-005  0.2819187E+03  0.7546771E-02  0.1094848E+00
          1   -1    0    0  502    0  0.00000000000E+00  0.00000000000E+00  0.15836637238E+03  0.15836637238E+03  0.00000000000E+00 0. -1.
         -1   -1    0    0    0  501 -0.00000000000E+00 -0.00000000000E+00 -0.68815369210E+03  0.68815369210E+03  0.00000000000E+00 0.  1.
         23    2    1    2    0    0 -0.26617825438E+03 -0.86046624454E+02 -0.25865200933E+03  0.39203050259E+03  0.92369737140E+02 0.  0.
         23    2    1    2    0    0  0.20589285441E+03  0.15333007563E+03 -0.20750373935E+03  0.34398902306E+03  0.96791872342E+02 0.  0.
        -13    1    3    3    0    0 -0.20870160097E+03 -0.10460944891E+03 -0.19382570236E+03  0.30342692357E+03  0.00000000000E+00 0. -1.
         13    1    3    3    0    0 -0.57476653409E+02  0.18562824458E+02 -0.64826306970E+02  0.88603579016E+02  0.00000000000E+00 0.  1.
        -13    1    4    4    0    0  0.97143986162E+01  0.50684163216E+02 -0.53180916343E+02  0.74104411505E+02  0.00000000000E+00 0. -1.
         13    1    4    4    0    0  0.19617845580E+03  0.10264591241E+03 -0.15432282301E+03  0.26988461156E+03  0.00000000000E+00 0.  1.
         21    1    1    2  502  501  0.60285399969E+02 -0.67283451173E+02 -0.63631571030E+02  0.11050053884E+03  0.00000000000E+00 0.  1.
<scales pt_clust_5="13000.00000" pt_clust_6="13000.00000" pt_clust_7="13000.00000" pt_clust_8="13000.00000" pt_clust_9="90.34042"></scales>
<clustering>
<clus scale="   90.340">  1  9  2 -1</clus>
<clus scale="   92.370">  5  6 -1 -1</clus>
<clus scale="   96.792">  7  8 -1 -1</clus>
<clus scale="  280.431">  2  5  1 -1</clus>
<clus scale="   90.340">  1  5  2 -1</clus>
</clustering>
</event>
<event>
 9    1  0.2075077E-005  0.1752386E+03  0.7546771E-02  0.1172494E+00
         -2   -1    0    0    0  501 -0.00000000000E+00  0.00000000000E+00  0.26648370817E+02  0.26648370817E+02  0.00000000000E+00 0.  1.
          2   -1    0    0  502    0  0.00000000000E+00 -0.00000000000E+00 -0.18686648487E+04  0.18686648487E+04  0.00000000000E+00 0. -1.
         23    2    1    2    0    0 -0.15714520527E+03 -0.11010892374E+03 -0.95965496070E+03  0.98296587677E+03  0.92009133665E+02 0.  0.
         23    2    1    2    0    0  0.10896123732E+03  0.42816807163E+02 -0.58989633717E+03  0.60839700923E+03  0.91996750073E+02 0.  0.
        -11    1    4    4    0    0  0.58637841984E+02  0.69888885041E+02 -0.33749617722E+03  0.34960909943E+03  0.00000000000E+00 0.  1.
         11    1    4    4    0    0  0.50323395334E+02 -0.27072077878E+02 -0.25240015995E+03  0.25878790980E+03  0.00000000000E+00 0. -1.
        -11    1    3    3    0    0 -0.12079417255E+03 -0.32614900783E+02 -0.50063621222E+03  0.51603447643E+03  0.00000000000E+00 0.  1.
         11    1    3    3    0    0 -0.36351032724E+02 -0.77494022952E+02 -0.45901874848E+03  0.46693140035E+03  0.00000000000E+00 0. -1.
         21    1    1    2  502  501  0.48183967956E+02  0.67292116573E+02 -0.29246518001E+03  0.30395033351E+03  0.00000000000E+00 0. -1.
<scales pt_clust_5="13000.00000" pt_clust_6="13000.00000" pt_clust_7="13000.00000" pt_clust_8="13000.00000" pt_clust_9="82.76427"></scales>
<clustering>
<clus scale="   82.764">  1  9  2 -1</clus>
<clus scale="   91.997">  5  6 -1 -1</clus>
<clus scale="   92.009">  7  8 -1 -1</clus>
<clus scale="  175.232">  2  5  1 -1</clus>
<clus scale="  175.232">  2  5  1 -1</clus>
</clustering>
</event>
<event>
 9    1  0.2075077E-005  0.1210819E+03  0.7546771E-02  0.1242915E+00
         -1   -1    0    0    0  501 -0.00000000000E+00  0.00000000000E+00  0.38356127055E+03  0.38356127055E+03  0.00000000000E+00 0.  1.
          1   -1    0    0  502    0  0.00000000000E+00 -0.00000000000E+00 -0.17161908243E+03  0.17161908243E+03  0.00000000000E+00 0. -1.
         23    2    1    2    0    0  0.75647269145E+02 -0.21382049377E+02  0.33285699201E+03  0.35290241117E+03  0.86986397312E+02 0.  0.
         23    2    1    2    0    0 -0.68451402993E+02  0.45393734291E+02 -0.61678829566E+02  0.13795654447E+03  0.92095300977E+02 0.  0.
        -11    1    3    3    0    0  0.53659020912E+02 -0.48146267520E+02  0.14562210276E+03  0.16249046253E+03  0.00000000000E+00 0.  1.
         11    1    3    3    0    0  0.21988248233E+02  0.26764218143E+02  0.18723488925E+03  0.19041194864E+03  0.00000000000E+00 0. -1.
        -13    1    4    4    0    0 -0.81851621904E+02  0.61162030105E+02 -0.55907271150E+02  0.11647362320E+03  0.00000000000E+00 0. -1.
         13    1    4    4    0    0  0.13400218911E+02 -0.15768295814E+02 -0.57715584155E+01  0.21482921270E+02  0.00000000000E+00 0.  1.
         21    1    1    2  502  501 -0.71958661521E+01 -0.24011684914E+02 -0.59235974315E+02  0.64321397335E+02  0.00000000000E+00 0.  1.
<scales pt_clust_5="13000.00000" pt_clust_6="13000.00000" pt_clust_7="13000.00000" pt_clust_8="13000.00000" pt_clust_9="25.06674"></scales>
<clustering>
<clus scale="   25.067">  2  9  1 -1</clus>
<clus scale="   86.986">  5  6 -1 -1</clus>
<clus scale="   92.095">  7  8 -1 -1</clus>
<clus scale="  117.243">  1  5  2 -1</clus>
<clus scale="   25.067">  2  5  1 -1</clus>
</clustering>
</event>
<event>
 9    1  0.2075077E-005  0.1182956E+03  0.7546771E-02  0.1248444E+00
          1   -1    0    0  502    0  0.00000000000E+00  0.00000000000E+00  0.14907459969E+03  0.14907459969E+03  0.00000000000E+00 0. -1.
         -1   -1    0    0    0  501 -0.00000000000E+00 -0.00000000000E+00 -0.13499294564E+03  0.13499294564E+03  0.00000000000E+00 0.  1.
         23    2    1    2    0    0  0.27985004826E+02 -0.48583743426E+02 -0.33306781996E+02  0.11173328404E+03  0.90727307994E+02 0.  0.
         23    2    1    2    0    0 -0.47878826757E+02  0.74180616000E+02  0.28557681111E+02  0.13484344418E+03  0.97836943151E+02 0.  0.
        -11    1    4    4    0    0  0.92308388681E+01  0.37418915075E+02 -0.27032209127E+02  0.47075725399E+02  0.00000000000E+00 0.  1.
         11    1    4    4    0    0 -0.57109665625E+02  0.36761700926E+02  0.55589890238E+02  0.87767718777E+02  0.00000000000E+00 0. -1.
        -13    1    3    3    0    0  0.60909848762E+02 -0.35768034491E+02 -0.28104531714E+02  0.76021225131E+02  0.00000000000E+00 0.  1.
         13    1    3    3    0    0 -0.32924843937E+02 -0.12815708935E+02 -0.52022502822E+01  0.35712058912E+02  0.00000000000E+00 0. -1.
         21    1    1    2  502  501  0.19893821931E+02 -0.25596872574E+02  0.18830754936E+02  0.37490817117E+02  0.00000000000E+00 0.  1.
<scales pt_clust_5="13000.00000" pt_clust_6="13000.00000" pt_clust_7="13000.00000" pt_clust_8="13000.00000" pt_clust_9="32.41858"></scales>
<clustering>
<clus scale="   32.419">  1  9  2 -1</clus>
<clus scale="   90.727">  7  8 -1 -1</clus>
<clus scale="   97.837">  5  6 -1 -1</clus>
<clus scale="  112.487">  2  7  1 -1</clus>
<clus scale="   32.419">  1  5  2 -1</clus>
</clustering>
</event>
<event>
 9    1  0.2075077E-005  0.1051683E+03  0.7546771E-02  0.1269815E+00
          3   -1    0    0  502    0  0.00000000000E+00  0.00000000000E+00  0.12320417920E+03  0.12320417920E+03  0.00000000000E+00 0. -1.
         -3   -1    0    0    0  501 -0.00000000000E+00 -0.00000000000E+00 -0.26673237126E+03  0.26673237126E+03  0.00000000000E+00 0.  1.
         23    2    1    2    0    0 -0.28349945548E+02 -0.39886436216E+02 -0.20149437417E+03  0.22643320439E+03  0.90980030893E+02 0.  0.
         23    2    1    2    0    0  0.31504716281E+02  0.70015664412E+02  0.31287052064E+02  0.12313629328E+03  0.91043542799E+02 0.  0.
        -11    1    3    3    0    0 -0.16601210173E+02  0.21555950022E+02 -0.18137641633E+02  0.32699131557E+02  0.00000000000E+00 0. -1.
         11    1    3    3    0    0 -0.11748735375E+02 -0.61442386238E+02 -0.18335673254E+03  0.19373407283E+03  0.00000000000E+00 0.  1.
        -13    1    4    4    0    0  0.18808930006E+02 -0.15531069165E+02 -0.11128760845E+02  0.26811178179E+02  0.00000000000E+00 0.  1.
         13    1    4    4    0    0  0.12695786274E+02  0.85546733577E+02  0.42415812909E+02  0.96325115103E+02  0.00000000000E+00 0. -1.
         21    1    1    2  502  501 -0.31547707328E+01 -0.30129228197E+02  0.26679130047E+02  0.40367052780E+02  0.00000000000E+00 0.  1.
<scales pt_clust_5="13000.00000" pt_clust_6="13000.00000" pt_clust_7="13000.00000" pt_clust_8="13000.00000" pt_clust_9="30.29394"></scales>
<clustering>
<clus scale="   30.294">  1  9  2 -1</clus>
<clus scale="   90.980">  5  6 -1 -1</clus>
<clus scale="   91.044">  7  8 -1 -1</clus>
<clus scale="  105.113">  2  5  1 -1</clus>
<clus scale="   30.294">  1  5  2 -1</clus>
</clustering>
</event>
<event>
 9    1  0.2075077E-005  0.1032926E+03  0.7546771E-02  0.1273970E+00
         -2   -1    0    0    0  501 -0.00000000000E+00  0.00000000000E+00  0.86253283655E+02  0.86253283655E+02  0.00000000000E+00 0.  1.
          2   -1    0    0  502    0  0.00000000000E+00 -0.00000000000E+00 -0.26003545959E+03  0.26003545959E+03  0.00000000000E+00 0. -1.
         23    2    1    2    0    0 -0.25053366063E+02 -0.23407784469E+02 -0.83411147597E+02  0.12932846476E+03  0.92697555142E+02 0.  0.
         23    2    1    2    0    0  0.76928495341E+01  0.60328303738E+02 -0.12276628565E+03  0.16486454955E+03  0.91706459099E+02 0.  0.
        -11    1    4    4    0    0  0.29919724232E+02  0.54146450664E+02 -0.29038755215E+02  0.68339427288E+02  0.00000000000E+00 0.  1.
         11    1    4    4    0    0 -0.22226874698E+02  0.61818530737E+01 -0.93727530436E+02  0.96525122263E+02  0.00000000000E+00 0. -1.
        -13    1    3    3    0    0 -0.99710545201E+01  0.35105028072E+02 -0.19507903916E+02  0.41380469298E+02  0.00000000000E+00 0. -1.
         13    1    3    3    0    0 -0.15082311543E+02 -0.58512812541E+02 -0.63903243682E+02  0.87947995463E+02  0.00000000000E+00 0.  1.
         21    1    1    2  502  501  0.17360516529E+02 -0.36920519269E+02  0.32395257309E+02  0.52095728936E+02  0.00000000000E+00 0.  1.
<scales pt_clust_5="13000.00000" pt_clust_6="13000.00000" pt_clust_7="13000.00000" pt_clust_8="13000.00000" pt_clust_9="40.79843"></scales>
<clustering>
<clus scale="   40.798">  1  9  2 -1</clus>
<clus scale="   91.706">  5  6 -1 -1</clus>
<clus scale="   92.698">  7  8 -1 -1</clus>
<clus scale="  102.404">  2  5  1 -1</clus>
<clus scale="  102.404">  2  5  1 -1</clus>
</clustering>
</event>
<event>
 9    1  0.2075077E-005  0.1852418E+03  0.7546771E-02  0.1162924E+00
         -2   -1    0    0    0  501 -0.00000000000E+00  0.00000000000E+00  0.12483369894E+03  0.12483369894E+03  0.00000000000E+00 0.  1.
          2   -1    0    0  502    0  0.00000000000E+00 -0.00000000000E+00 -0.56504369649E+03  0.56504369649E+03  0.00000000000E+00 0. -1.
         23    2    1    2    0    0 -0.17284517423E+03  0.51611143460E+02 -0.40469382535E+02  0.20657395578E+03  0.92173010675E+02 0.  0.
         23    2    1    2    0    0  0.11327229565E+03 -0.75868239007E+02 -0.13993544409E+03  0.21565430106E+03  0.91313998938E+02 0.  0.
        -11    1    4    4    0    0  0.10797516876E+03 -0.51079242717E+02 -0.63817921151E+02  0.13542692924E+03  0.00000000000E+00 0.  1.
         11    1    4    4    0    0  0.52971268943E+01 -0.24788996290E+02 -0.76117522942E+02  0.80227371820E+02  0.00000000000E+00 0. -1.
        -13    1    3    3    0    0 -0.45074144367E+02  0.21697575136E+01 -0.52280478880E+02  0.69062542742E+02  0.00000000000E+00 0. -1.
         13    1    3    3    0    0 -0.12777102987E+03  0.49441385946E+02  0.11811096345E+02  0.13751141303E+03  0.00000000000E+00 0.  1.
         21    1    1    2  502  501  0.59572878584E+02  0.24257095547E+02 -0.25980517093E+03  0.26764913859E+03  0.00000000000E+00 0.  1.
<scales pt_clust_5="13000.00000" pt_clust_6="13000.00000" pt_clust_7="13000.00000" pt_clust_8="13000.00000" pt_clust_9="64.32212"></scales>
<clustering>
<clus scale="   64.322">  2  9  1 -1</clus>
<clus scale="   91.314">  5  6 -1 -1</clus>
<clus scale="   92.173">  7  8 -1 -1</clus>
<clus scale="  184.816">  2  5  1 -1</clus>
<clus scale="   64.322">  2  5  1 -1</clus>
</clustering>
</event>
<event>
 9    1  0.2075077E-005  0.9701457E+02  0.7546771E-02  0.1290375E+00
         -1   -1    0    0    0  501 -0.00000000000E+00  0.00000000000E+00  0.10206230509E+03  0.10206230509E+03  0.00000000000E+00 0.  1.
          1   -1    0    0  502    0  0.00000000000E+00 -0.00000000000E+00 -0.49235565021E+03  0.49235565021E+03  0.00000000000E+00 0. -1.
         23    2    1    2    0    0  0.16215928739E+02 -0.11599660234E+02  0.66770589934E+02  0.11791679411E+03  0.95123867619E+02 0.  0.
         23    2    1    2    0    0  0.10418266927E+02  0.28632594673E+02 -0.24841238698E+03  0.26546806012E+03  0.88522376682E+02 0.  0.
        -11    1    3    3    0    0 -0.33845188790E+02  0.14100540421E+02  0.10049042365E+02  0.38017171079E+02  0.00000000000E+00 0. -1.
         11    1    3    3    0    0  0.50061117529E+02 -0.25700200655E+02  0.56721547569E+02  0.79899623032E+02  0.00000000000E+00 0.  1.
        -13    1    4    4    0    0  0.40728175387E+01  0.60110917849E+02 -0.18172685071E+03  0.19145380267E+03  0.00000000000E+00 0.  1.
         13    1    4    4    0    0  0.63454493884E+01 -0.31478323176E+02 -0.66685536273E+02  0.74014257451E+02  0.00000000000E+00 0. -1.
         21    1    1    2  502  501 -0.26634195666E+02 -0.17032934439E+02 -0.20865154807E+03  0.21103310107E+03  0.00000000000E+00 0. -1.
<scales pt_clust_5="13000.00000" pt_clust_6="13000.00000" pt_clust_7="13000.00000" pt_clust_8="13000.00000" pt_clust_9="31.61489"></scales>
<clustering>
<clus scale="   31.615">  2  9  1 -1</clus>
<clus scale="   88.522">  7  8 -1 -1</clus>
<clus scale="   90.551">  2  7  1 -1</clus>
<clus scale="   95.124">  5  6 -1 -1</clus>
<clus scale="   31.615">  2  5  1 -1</clus>
</clustering>
</event>
<event>
 9    1  0.2075077E-005  0.1795470E+03  0.7546771E-02  0.1168704E+00
          2   -1    0    0  502    0  0.00000000000E+00  0.00000000000E+00  0.25066361275E+03  0.25066361275E+03  0.00000000000E+00 0. -1.
         -2   -1    0    0    0  501 -0.00000000000E+00 -0.00000000000E+00 -0.36529445824E+03  0.36529445824E+03  0.00000000000E+00 0.  1.
         23    2    1    2    0    0  0.14208477350E+03 -0.73775747313E+02 -0.28914417006E+03  0.34395535322E+03  0.95236496039E+02 0.  0.
         23    2    1    2    0    0 -0.10785160158E+03  0.43477684531E+02  0.83035263017E+02  0.16973777551E+03  0.91617577552E+02 0.  0.
        -11    1    3    3    0    0  0.50419779950E+02 -0.16364990944E+02 -0.18991269738E+03  0.19717200553E+03  0.00000000000E+00 0.  1.
         11    1    3    3    0    0  0.91664993551E+02 -0.57410756369E+02 -0.99231472685E+02  0.14678334770E+03  0.00000000000E+00 0. -1.
        -13    1    4    4    0    0 -0.50388227189E+02  0.49774066379E+02  0.28454619884E+01  0.70883903512E+02  0.00000000000E+00 0. -1.
         13    1    4    4    0    0 -0.57463374390E+02 -0.62963818477E+01  0.80189801029E+02  0.98853872002E+02  0.00000000000E+00 0.  1.
         21    1    1    2  502  501 -0.34233171922E+02  0.30298062782E+02  0.91478061554E+02  0.10226494225E+03  0.00000000000E+00 0. -1.
<scales pt_clust_5="13000.00000" pt_clust_6="13000.00000" pt_clust_7="13000.00000" pt_clust_8="13000.00000" pt_clust_9="45.71523"></scales>
<clustering>
<clus scale="   45.715">  1  9  2 -1</clus>
<clus scale="   91.618">  7  8 -1 -1</clus>
<clus scale="   95.236">  5  6 -1 -1</clus>
<clus scale="  177.654">  1  7  2 -1</clus>
<clus scale="   45.715">  1  5  2 -1</clus>
</clustering>
</event>
<event>
 9    1  0.2075077E-005  0.1054704E+03  0.7546771E-02  0.1269254E+00
          1   -1    0    0  502    0  0.00000000000E+00  0.00000000000E+00  0.11536258603E+03  0.11536258603E+03  0.00000000000E+00 0. -1.
         -1   -1    0    0    0  501 -0.00000000000E+00 -0.00000000000E+00 -0.11821764707E+03  0.11821764707E+03  0.00000000000E+00 0.  1.
         23    2    1    2    0    0  0.86908879662E+01  0.44767883564E+02 -0.98834420675E+01  0.10166685076E+03  0.90325916454E+02 0.  0.
         23    2    1    2    0    0 -0.10413584945E+02 -0.64767089516E+02  0.38290329737E+01  0.11158675568E+03  0.90187160473E+02 0.  0.
        -11    1    3    3    0    0 -0.21632031809E+02  0.38503009917E+02 -0.39181673419E+02  0.59039225138E+02  0.00000000000E+00 0.  1.
         11    1    3    3    0    0  0.30322919776E+02  0.62648736462E+01  0.29298231352E+02  0.42627625619E+02  0.00000000000E+00 0. -1.
        -13    1    4    4    0    0  0.97744220910E+01 -0.82785912846E+02 -0.38770744553E+01  0.83451053913E+02  0.00000000000E+00 0. -1.
         13    1    4    4    0    0 -0.20188007036E+02  0.18018823329E+02  0.77061074289E+01  0.28135701768E+02  0.00000000000E+00 0.  1.
         21    1    1    2  502  501  0.17226969792E+01  0.19999205953E+02  0.31993480499E+01  0.20326626665E+02  0.00000000000E+00 0.  1.
<scales pt_clust_5="13000.00000" pt_clust_6="13000.00000" pt_clust_7="13000.00000" pt_clust_8="13000.00000" pt_clust_9="20.07326"></scales>
<clustering>
<clus scale="   20.073">  1  9  2 -1</clus>
<clus scale="   90.187">  7  8 -1 -1</clus>
<clus scale="   90.326">  5  6 -1 -1</clus>
<clus scale="  105.352">  1  7  2 -1</clus>
<clus scale="   20.073">  1  5  2 -1</clus>
</clustering>
</event>
<event>
 9    1  0.2075077E-005  0.1273291E+03  0.7546771E-02  0.1232524E+00
          1   -1    0    0  502    0  0.00000000000E+00  0.00000000000E+00  0.90227985140E+02  0.90227985140E+02  0.00000000000E+00 0. -1.
         -1   -1    0    0    0  501 -0.00000000000E+00 -0.00000000000E+00 -0.58925443490E+03  0.58925443490E+03  0.00000000000E+00 0.  1.
         23    2    1    2    0    0  0.61356674067E+02  0.54464727785E+02 -0.42473218572E+03  0.44259306456E+03  0.93595636579E+02 0.  0.
         23    2    1    2    0    0 -0.93734239945E+02 -0.45784501398E+02 -0.11833122780E+03  0.18154581675E+03  0.89856974127E+02 0.  0.
        -13    1    3    3    0    0  0.75108292100E+02  0.98489705332E+01 -0.29981078816E+03  0.30923254431E+03  0.00000000000E+00 0.  1.
         13    1    3    3    0    0 -0.13751618033E+02  0.44615757252E+02 -0.12492139755E+03  0.13336052025E+03  0.00000000000E+00 0. -1.
        -13    1    4    4    0    0 -0.39269921321E+01 -0.34383918797E+02 -0.71922093804E+02  0.79815178482E+02  0.00000000000E+00 0.  1.
         13    1    4    4    0    0 -0.89807247813E+02 -0.11400582602E+02 -0.46409133995E+02  0.10173063826E+03  0.00000000000E+00 0. -1.
         21    1    1    2  502  501  0.32377565878E+02 -0.86802263870E+01  0.44036963758E+02  0.55343538732E+02  0.00000000000E+00 0.  1.
<scales pt_clust_5="13000.00000" pt_clust_6="13000.00000" pt_clust_7="13000.00000" pt_clust_8="13000.00000" pt_clust_9="33.52094"></scales>
<clustering>
<clus scale="   33.521">  1  9  2 -1</clus>
<clus scale="   89.857">  7  8 -1 -1</clus>
<clus scale="   93.596">  5  6 -1 -1</clus>
<clus scale="  124.607">  1  7  2 -1</clus>
<clus scale="   33.521">  1  5  2 -1</clus>
</clustering>
</event>
<event>
 9    1  0.2075077E-005  0.1233396E+03  0.7546771E-02  0.1238337E+00
          1   -1    0    0  502    0  0.00000000000E+00  0.00000000000E+00  0.31902729301E+02  0.31902729301E+02  0.00000000000E+00 0. -1.
         -1   -1    0    0    0  501 -0.00000000000E+00 -0.00000000000E+00 -0.64374434449E+03  0.64374434449E+03  0.00000000000E+00 0.  1.
         23    2    1    2    0    0 -0.12443686214E+02  0.85764384424E+02 -0.39221124660E+03  0.41209253211E+03  0.92088099647E+02 0.  0.
         23    2    1    2    0    0  0.27633219654E+02 -0.63883107845E+02 -0.19378230251E+03  0.22643803982E+03  0.94222920852E+02 0.  0.
        -13    1    3    3    0    0  0.38276358553E+02  0.27027090064E+02 -0.18450588855E+03  0.19036272254E+03  0.00000000000E+00 0.  1.
         13    1    3    3    0    0 -0.50720044768E+02  0.58737294360E+02 -0.20770535805E+03  0.22172980957E+03  0.00000000000E+00 0. -1.
        -13    1    4    4    0    0  0.26490469228E+02 -0.28303127435E+02 -0.18600275125E+03  0.18999956699E+03  0.00000000000E+00 0.  1.
         13    1    4    4    0    0  0.11427504262E+01 -0.35579980410E+02 -0.77795512622E+01  0.36438472832E+02  0.00000000000E+00 0. -1.
         21    1    1    2  502  501 -0.15189533439E+02 -0.21881276578E+02 -0.25848066076E+02  0.37116501865E+02  0.00000000000E+00 0.  1.
<scales pt_clust_5="13000.00000" pt_clust_6="13000.00000" pt_clust_7="13000.00000" pt_clust_8="13000.00000" pt_clust_9="26.63667"></scales>
<clustering>
<clus scale="   26.637">  1  9  2 -1</clus>
<clus scale="   92.088">  5  6 -1 -1</clus>
<clus scale="   94.223">  7  8 -1 -1</clus>
<clus scale="  121.717">  2  5  1 -1</clus>
<clus scale="   26.637">  1  5  2 -1</clus>
</clustering>
</event>
<event>
 9    1  0.2075077E-005  0.1292718E+03  0.7546771E-02  0.1246820E+00
          1   -1    0    0  502    0  0.00000000000E+00  0.00000000000E+00  0.38551534401E+03  0.38551534401E+03  0.00000000000E+00 0. -1.
         -1   -1    0    0    0  501 -0.00000000000E+00 -0.00000000000E+00 -0.27609581233E+03  0.27609581233E+03  0.00000000000E+00 0.  1.
         23    2    1    2    0    0  0.18801925220E+02 -0.85931871996E+02 -0.19409804384E+03  0.23150720451E+03  0.90464004469E+02 0.  0.
         23    2    1    2    0    0  0.18501822346E+02 -0.11473969959E+02  0.31295024201E+03  0.32537361798E+03  0.86349104707E+02 0.  0.
        -11    1    4    4    0    0 -0.25082495823E+02  0.20016234911E+02  0.77883952827E+02  0.84235926805E+02  0.00000000000E+00 0.  1.
         11    1    4    4    0    0  0.43584318169E+02 -0.31490204869E+02  0.23506628919E+03  0.24113769118E+03  0.00000000000E+00 0. -1.
        -11    1    3    3    0    0 -0.20789166466E+01 -0.37073746953E+02 -0.16847513563E+03  0.17251856693E+03  0.00000000000E+00 0.  1.
         11    1    3    3    0    0  0.20880841866E+02 -0.48858125042E+02 -0.25622908201E+02  0.58988637587E+02  0.00000000000E+00 0. -1.
         21    1    1    2  502  501 -0.37303747566E+02  0.97405841954E+02 -0.94326664951E+01  0.10473033384E+03  0.00000000000E+00 0. -1.
<scales pt_clust_5="13000.00000" pt_clust_6="13000.00000" pt_clust_7="13000.00000" pt_clust_8="13000.00000" pt_clust_9="92.34430"></scales>
<clustering>
<clus scale="   86.349">  5  6 -1 -1</clus>
<clus scale="   89.051">  1  5  2 -1</clus>
<clus scale="   90.464">  7  8 -1 -1</clus>
<clus scale="   92.344">  1  9  2 -1</clus>
<clus scale="   89.051">  1  5  2 -1</clus>
</clustering>
</event>
<event>
 9    1  0.2075077E-005  0.1502278E+03  0.7546771E-02  0.1200746E+00
          1   -1    0    0  502    0  0.00000000000E+00  0.00000000000E+00  0.25064584121E+03  0.25064584121E+03  0.00000000000E+00 0. -1.
         -1   -1    0    0    0  501 -0.00000000000E+00 -0.00000000000E+00 -0.22438009773E+03  0.22438009773E+03  0.00000000000E+00 0.  1.
         23    2    1    2    0    0  0.11821805222E+03 -0.17624032316E+02 -0.15463754730E+03  0.21353889174E+03  0.86023094953E+02 0.  0.
         23    2    1    2    0    0 -0.13158920699E+03 -0.67042156218E+01  0.13901892785E+03  0.21123815382E+03  0.89076536877E+02 0.  0.
        -11    1    4    4    0    0 -0.10804530134E+03 -0.39373263064E+00  0.14970584152E+03  0.18462334942E+03  0.00000000000E+00 0. -1.
         11    1    4    4    0    0 -0.23543905655E+02 -0.63104829912E+01 -0.10686913669E+02  0.26614804392E+02  0.00000000000E+00 0.  1.
        -11    1    3    3    0    0  0.86700308076E+02 -0.51519928282E+02 -0.11001996213E+03  0.14925025460E+03  0.00000000000E+00 0.  1.
         11    1    3    3    0    0  0.31517744144E+02  0.33895895966E+02 -0.44617585176E+02  0.64288637147E+02  0.00000000000E+00 0. -1.
         21    1    1    2  502  501  0.13371154774E+02  0.24328247937E+02  0.41884362927E+02  0.50248893376E+02  0.00000000000E+00 0.  1.
<scales pt_clust_5="13000.00000" pt_clust_6="13000.00000" pt_clust_7="13000.00000" pt_clust_8="13000.00000" pt_clust_9="27.76061"></scales>
<clustering>
<clus scale="   27.761">  1  9  2 -1</clus>
<clus scale="   86.023">  7  8 -1 -1</clus>
<clus scale="   89.077">  5  6 -1 -1</clus>
<clus scale="  148.438">  2  7  1 -1</clus>
<clus scale="   27.761">  1  5  2 -1</clus>
</clustering>
</event>
<event>
 9    1  0.2075077E-005  0.1016612E+03  0.7546771E-02  0.1276945E+00
         -2   -1    0    0    0  501 -0.00000000000E+00  0.00000000000E+00  0.16550673156E+03  0.16550673156E+03  0.00000000000E+00 0.  1.
          2   -1    0    0  502    0  0.00000000000E+00 -0.00000000000E+00 -0.13857762141E+03  0.13857762141E+03  0.00000000000E+00 0. -1.
         23    2    1    2    0    0  0.19132751050E+02 -0.40101081803E+02  0.10011644313E+03  0.14225812803E+03  0.90773971388E+02 0.  0.
         23    2    1    2    0    0  0.12382660030E+02  0.56858672426E+02 -0.48360283111E+02  0.11834726009E+03  0.91000648841E+02 0.  0.
        -11    1    4    4    0    0 -0.26048017629E+02 -0.36710366085E+01 -0.37535730716E+02  0.45835650018E+02  0.00000000000E+00 0. -1.
         11    1    4    4    0    0  0.38430677659E+02  0.60529709035E+02 -0.10824552395E+02  0.72511610075E+02  0.00000000000E+00 0.  1.
        -13    1    3    3    0    0 -0.59348770602E+01 -0.61230255399E+02  0.87864087871E+02  0.10725886854E+03  0.00000000000E+00 0.  1.
         13    1    3    3    0    0  0.25067628111E+02  0.21129173596E+02  0.12252355260E+02  0.34999259497E+02  0.00000000000E+00 0. -1.
         21    1    1    2  502  501 -0.31515411081E+02 -0.16757590623E+02 -0.24827049862E+02  0.43478964844E+02  0.00000000000E+00 0. -1.
<scales pt_clust_5="13000.00000" pt_clust_6="13000.00000" pt_clust_7="13000.00000" pt_clust_8="13000.00000" pt_clust_9="35.69367"></scales>
<clustering>
<clus scale="   35.694">  2  9  1 -1</clus>
<clus scale="   90.774">  7  8 -1 -1</clus>
<clus scale="   91.001">  5  6 -1 -1</clus>
<clus scale="  101.458">  1  7  2 -1</clus>
<clus scale="   35.694">  2  5  1 -1</clus>
</clustering>
</event>
<event>
 9    1  0.2075077E-005  0.1211911E+03  0.7546771E-02  0.1241462E+00
         -2   -1    0    0    0  501 -0.00000000000E+00  0.00000000000E+00  0.86693738955E+02  0.86693738955E+02  0.00000000000E+00 0.  1.
          2   -1    0    0  502    0  0.00000000000E+00 -0.00000000000E+00 -0.26581051159E+03  0.26581051159E+03  0.00000000000E+00 0. -1.
         23    2    1    2    0    0 -0.81707165168E+01 -0.88001697887E+02 -0.21936057087E+02  0.12938050642E+03  0.91907918062E+02 0.  0.
         23    2    1    2    0    0 -0.26452942698E+02  0.59336647326E+02 -0.11055512391E+03  0.15835933494E+03  0.92922804772E+02 0.  0.
        -11    1    3    3    0    0 -0.30029871510E+02  0.56160549412E+01  0.92244989622E+00  0.30564426542E+02  0.00000000000E+00 0. -1.
         11    1    3    3    0    0  0.21859154993E+02 -0.93617752829E+02 -0.22858506983E+02  0.98816079882E+02  0.00000000000E+00 0.  1.
        -13    1    4    4    0    0 -0.24145601243E+02 -0.36663035925E+01  0.66170452562E+01  0.25302907527E+02  0.00000000000E+00 0.  1.
         13    1    4    4    0    0 -0.23073414555E+01  0.63002950919E+02 -0.11717216916E+03  0.13305642741E+03  0.00000000000E+00 0. -1.
         21    1    1    2  502  501  0.34623659215E+02  0.28665050561E+02 -0.46625591646E+02  0.64764409188E+02  0.00000000000E+00 0. -1.
<scales pt_clust_5="13000.00000" pt_clust_6="13000.00000" pt_clust_7="13000.00000" pt_clust_8="13000.00000" pt_clust_9="44.94978"></scales>
<clustering>
<clus scale="   44.950">  2  9  1 -1</clus>
<clus scale="   91.908">  5  6 -1 -1</clus>
<clus scale="   92.923">  7  8 -1 -1</clus>
<clus scale="  120.415">  1  5  2 -1</clus>
<clus scale="   44.950">  2  5  1 -1</clus>
</clustering>
</event>
<event>
 9    1  0.2075077E-005  0.1191426E+03  0.7546771E-02  0.1250814E+00
         -1   -1    0    0    0  501 -0.00000000000E+00  0.00000000000E+00  0.23205393108E+02  0.23205393108E+02  0.00000000000E+00 0.  1.
          1   -1    0    0  502    0  0.00000000000E+00 -0.00000000000E+00 -0.91833162272E+03  0.91833162272E+03  0.00000000000E+00 0. -1.
         23    2    1    2    0    0 -0.32649113058E+02  0.46078952790E+02 -0.20854022241E+03  0.24163089671E+03  0.10819996028E+03 0.  0.
         23    2    1    2    0    0  0.38073542417E+02 -0.16082945441E+02 -0.44293497778E+03  0.45435569858E+03  0.92409147420E+02 0.  0.
        -11    1    4    4    0    0 -0.28114955267E+02  0.10180867327E+02 -0.12108615137E+03  0.12472352153E+03  0.00000000000E+00 0.  1.
         11    1    4    4    0    0  0.66188497684E+02 -0.26263812769E+02 -0.32184882641E+03  0.32963217705E+03  0.00000000000E+00 0. -1.
        -13    1    3    3    0    0 -0.29170089547E+02  0.36897264880E+01 -0.62407893366E+00  0.29409142801E+02  0.00000000000E+00 0.  1.
         13    1    3    3    0    0 -0.34790235110E+01  0.42389226302E+02 -0.20791614348E+03  0.21222175391E+03  0.00000000000E+00 0. -1.
         21    1    1    2  502  501 -0.54244293587E+01 -0.29996007348E+02 -0.24365102942E+03  0.24555042054E+03  0.00000000000E+00 0. -1.
<scales pt_clust_5="13000.00000" pt_clust_6="13000.00000" pt_clust_7="13000.00000" pt_clust_8="13000.00000" pt_clust_9="30.48253"></scales>
<clustering>
<clus scale="   30.483">  2  9  1 -1</clus>
<clus scale="   92.409">  5  6 -1 -1</clus>
<clus scale="  105.010">  2  5  1 -1</clus>
<clus scale="  108.200">  7  8 -1 -1</clus>
<clus scale="   30.483">  2  5  1 -1</clus>
</clustering>
</event>
<event>
 9    1  0.2075077E-005  0.1053567E+03  0.7546771E-02  0.1272751E+00
         -1   -1    0    0    0  501 -0.00000000000E+00  0.00000000000E+00  0.25323690634E+03  0.25323690634E+03  0.00000000000E+00 0.  1.
          1   -1    0    0  502    0  0.00000000000E+00 -0.00000000000E+00 -0.58236579544E+02  0.58236579544E+02  0.00000000000E+00 0. -1.
         23    2    1    2    0    0 -0.44964403661E+02  0.38168245472E+02  0.10886096271E+03  0.14921888283E+03  0.83288373941E+02 0.  0.
         23    2    1    2    0    0  0.44659346258E+02 -0.17770795817E+02  0.94971359869E+02  0.14002504700E+03  0.90979097597E+02 0.  0.
        -11    1    4    4    0    0  0.40693693045E+02 -0.43424468765E+02  0.97199662864E+02  0.11397120514E+03  0.00000000000E+00 0.  1.
         11    1    4    4    0    0  0.39656532133E+01  0.25653672948E+02 -0.22283029955E+01  0.26053841854E+02  0.00000000000E+00 0. -1.
        -13    1    3    3    0    0  0.20221817891E+02  0.22393792942E+02  0.56798954595E+02  0.64315823281E+02  0.00000000000E+00 0.  1.
         13    1    3    3    0    0 -0.65186221553E+02  0.15774452530E+02  0.52062008112E+02  0.84903059554E+02  0.00000000000E+00 0. -1.
         21    1    1    2  502  501  0.30505740311E+00 -0.20397449655E+02 -0.88319957844E+01  0.22229556046E+02  0.00000000000E+00 0.  1.
<scales pt_clust_5="13000.00000" pt_clust_6="13000.00000" pt_clust_7="13000.00000" pt_clust_8="13000.00000" pt_clust_9="20.39973"></scales>
<clustering>
<clus scale="   20.400">  2  9  1 -1</clus>
<clus scale="   83.288">  7  8 -1 -1</clus>
<clus scale="   90.979">  5  6 -1 -1</clus>
<clus scale="   98.792">  1  7  2 -1</clus>
<clus scale="   20.400">  2  5  1 -1</clus>
</clustering>
</event>
<event>
 9    1  0.2075077E-005  0.9718378E+02  0.7546771E-02  0.1287515E+00
          2   -1    0    0  502    0  0.00000000000E+00  0.00000000000E+00  0.25412363144E+03  0.25412363144E+03  0.00000000000E+00 0. -1.
         -2   -1    0    0    0  501 -0.00000000000E+00 -0.00000000000E+00 -0.88308451681E+02  0.88308451681E+02  0.00000000000E+00 0.  1.
         23    2    1    2    0    0  0.14816222985E+02 -0.30561996003E+02 -0.37015421044E+02  0.10236305264E+03  0.89187987349E+02 0.  0.
         23    2    1    2    0    0 -0.34350517644E+02  0.10970986595E+02  0.17560181529E+03  0.20125146902E+03  0.91464942133E+02 0.  0.
        -11    1    4    4    0    0  0.19072768855E+02  0.83569393365E+01  0.36090116302E+01  0.21133715050E+02  0.00000000000E+00 0.  1.
         11    1    4    4    0    0 -0.53423286500E+02  0.26140472586E+01  0.17199280366E+03  0.18011775397E+03  0.00000000000E+00 0. -1.
        -13    1    3    3    0    0 -0.32840745696E+02  0.28289729963E+00  0.28956000993E+01  0.32969366216E+02  0.00000000000E+00 0. -1.
         13    1    3    3    0    0  0.47656968681E+02 -0.30844893302E+02 -0.39911021143E+02  0.69393686423E+02  0.00000000000E+00 0.  1.
         21    1    1    2  502  501  0.19534294659E+02  0.19591009408E+02  0.27228785509E+02  0.38817561461E+02  0.00000000000E+00 0.  1.
<scales pt_clust_5="13000.00000" pt_clust_6="13000.00000" pt_clust_7="13000.00000" pt_clust_8="13000.00000" pt_clust_9="27.66580"></scales>
<clustering>
<clus scale="   27.666">  1  9  2 -1</clus>
<clus scale="   89.188">  7  8 -1 -1</clus>
<clus scale="   91.465">  5  6 -1 -1</clus>
<clus scale="   95.044">  2  7  1 -1</clus>
<clus scale="   27.666">  1  5  2 -1</clus>
</clustering>
</event>
<event>
 9    1  0.2075077E-005  0.1029674E+03  0.7546771E-02  0.1277463E+00
          1   -1    0    0  502    0  0.00000000000E+00  0.00000000000E+00  0.10889227422E+03  0.10889227422E+03  0.00000000000E+00 0. -1.
         -1   -1    0    0    0  501 -0.00000000000E+00 -0.00000000000E+00 -0.21435754417E+03  0.21435754417E+03  0.00000000000E+00 0.  1.
         23    2    1    2    0    0  0.31546935407E+02  0.17855577373E+02 -0.15232917389E+03  0.18418384506E+03  0.96981858021E+02 0.  0.
         23    2    1    2    0    0 -0.36401837910E+02  0.14159697837E+02  0.38379258178E+02  0.10559154819E+03  0.90282981480E+02 0.  0.
        -11    1    3    3    0    0  0.58530836516E+02 -0.13889782248E+02 -0.10596510806E+03  0.12184986254E+03  0.00000000000E+00 0.  1.
         11    1    3    3    0    0 -0.26983901109E+02  0.31745359621E+02 -0.46364065830E+02  0.62333982520E+02  0.00000000000E+00 0. -1.
        -13    1    4    4    0    0  0.20846098416E+02  0.19497036977E+02 -0.10209867531E+02  0.30313951657E+02  0.00000000000E+00 0.  1.
         13    1    4    4    0    0 -0.57247936327E+02 -0.53373391393E+01  0.48589125708E+02  0.75277596534E+02  0.00000000000E+00 0. -1.
         21    1    1    2  502  501  0.48549025039E+01 -0.32015275211E+02  0.84846457649E+01  0.33474425146E+02  0.00000000000E+00 0. -1.
<scales pt_clust_5="13000.00000" pt_clust_6="13000.00000" pt_clust_7="13000.00000" pt_clust_8="13000.00000" pt_clust_9="32.38129"></scales>
<clustering>
<clus scale="   32.381">  1  9  2 -1</clus>
<clus scale="   90.283">  7  8 -1 -1</clus>
<clus scale="   96.684">  1  7  2 -1</clus>
<clus scale="   96.982">  5  6 -1 -1</clus>
<clus scale="   32.381">  1  5  2 -1</clus>
</clustering>
</event>
<event>
 9    1  0.2075077E-005  0.1255434E+03  0.7546771E-02  0.1234391E+00
         -1   -1    0    0    0  501 -0.00000000000E+00  0.00000000000E+00  0.46665952047E+03  0.46665952047E+03  0.00000000000E+00 0.  1.
          1   -1    0    0  502    0  0.00000000000E+00 -0.00000000000E+00 -0.47487976923E+02  0.47487976923E+02  0.00000000000E+00 0. -1.
         23    2    1    2    0    0  0.95369593290E+02 -0.20045271547E+02  0.27813036513E+03  0.30858127655E+03  0.91480773887E+02 0.  0.
         23    2    1    2    0    0 -0.68922178805E+02 -0.35296844406E+01  0.10753032833E+03  0.15679920990E+03  0.90887267053E+02 0.  0.
        -11    1    4    4    0    0 -0.78444810000E+02  0.17347448238E+02  0.10705487520E+03  0.13384793043E+03  0.00000000000E+00 0.  1.
         11    1    4    4    0    0  0.95226311959E+01 -0.20877132679E+02  0.47545312875E+00  0.22951279473E+02  0.00000000000E+00 0. -1.
        -11    1    3    3    0    0  0.15909537483E+02  0.30074477358E+02  0.11920128198E+03  0.12396182153E+03  0.00000000000E+00 0.  1.
         11    1    3    3    0    0  0.79460055807E+02 -0.50119748905E+02  0.15892908315E+03  0.18461945502E+03  0.00000000000E+00 0. -1.
         21    1    1    2  502  501 -0.26447414486E+02  0.23574955987E+02  0.33510850087E+02  0.48767010944E+02  0.00000000000E+00 0. -1.
<scales pt_clust_5="13000.00000" pt_clust_6="13000.00000" pt_clust_7="13000.00000" pt_clust_8="13000.00000" pt_clust_9="35.42943"></scales>
<clustering>
<clus scale="   35.429">  2  9  1 -1</clus>
<clus scale="   90.887">  5  6 -1 -1</clus>
<clus scale="   91.481">  7  8 -1 -1</clus>
<clus scale="  125.112">  2  5  1 -1</clus>
<clus scale="   35.429">  2  5  1 -1</clus>
</clustering>
</event>
<event>
 9    1  0.2075077E-005  0.9939664E+02  0.7546771E-02  0.1281976E+00
         -1   -1    0    0    0  501 -0.00000000000E+00  0.00000000000E+00  0.18988835326E+03  0.18988835326E+03  0.00000000000E+00 0.  1.
          1   -1    0    0  502    0  0.00000000000E+00 -0.00000000000E+00 -0.81956235921E+02  0.81956235921E+02  0.00000000000E+00 0. -1.
         23    2    1    2    0    0 -0.14288677717E+02  0.41106213502E+02  0.68985014783E+02  0.12287897201E+03  0.91904419909E+02 0.  0.
         23    2    1    2    0    0  0.25462576551E+02 -0.18396827024E+02  0.61039608684E+02  0.11537021455E+03  0.92723602866E+02 0.  0.
        -13    1    3    3    0    0  0.13901386692E+02 -0.24325979940E+02  0.32246299863E+02  0.42717978730E+02  0.00000000000E+00 0.  1.
         13    1    3    3    0    0 -0.28190064409E+02  0.65432193441E+02  0.36738714920E+02  0.80160993282E+02  0.00000000000E+00 0. -1.
        -13    1    4    4    0    0 -0.15918301767E+02  0.26590527882E+02  0.40266944411E+02  0.50812157172E+02  0.00000000000E+00 0. -1.
         13    1    4    4    0    0  0.41380878318E+02 -0.44987354906E+02  0.20772664273E+02  0.64558057381E+02  0.00000000000E+00 0.  1.
         21    1    1    2  502  501 -0.11173898834E+02 -0.22709386478E+02 -0.22092506134E+02  0.33595402612E+02  0.00000000000E+00 0. -1.
<scales pt_clust_5="13000.00000" pt_clust_6="13000.00000" pt_clust_7="13000.00000" pt_clust_8="13000.00000" pt_clust_9="25.30953"></scales>
<clustering>
<clus scale="   25.310">  2  9  1 -1</clus>
<clus scale="   91.904">  5  6 -1 -1</clus>
<clus scale="   92.724">  7  8 -1 -1</clus>
<clus scale="   98.633">  1  5  2 -1</clus>
<clus scale="   25.310">  2  5  1 -1</clus>
</clustering>
</event>
<event>
 9    1  0.2075077E-005  0.1329359E+03  0.7546771E-02  0.1223431E+00
          1   -1    0    0  502    0  0.00000000000E+00  0.00000000000E+00  0.82602285356E+02  0.82602285356E+02  0.00000000000E+00 0. -1.
         -1   -1    0    0    0  501 -0.00000000000E+00 -0.00000000000E+00 -0.43414578264E+03  0.43414578264E+03  0.00000000000E+00 0.  1.
         23    2    1    2    0    0 -0.10709237576E+03 -0.31462256105E+01 -0.24811606173E+03  0.28583783667E+03  0.93075308776E+02 0.  0.
         23    2    1    2    0    0  0.76452610107E+02  0.30403336025E+02 -0.13215939225E+03  0.18083757768E+03  0.92014999371E+02 0.  0.
        -11    1    3    3    0    0 -0.10668496741E+03 -0.33247765015E+02 -0.19167848464E+03  0.22187324675E+03  0.00000000000E+00 0. -1.
         11    1    3    3    0    0 -0.40740834989E+00  0.30101539404E+02 -0.56437577086E+02  0.63964589919E+02  0.00000000000E+00 0.  1.
        -11    1    4    4    0    0  0.96330776354E+02  0.13645598010E+02 -0.10065029946E+03  0.13998679794E+03  0.00000000000E+00 0.  1.
         11    1    4    4    0    0 -0.19878166247E+02  0.16757738015E+02 -0.31509092792E+02  0.40850779739E+02  0.00000000000E+00 0. -1.
         21    1    1    2  502  501  0.30639765654E+02 -0.27257110414E+02  0.28731956692E+02  0.50072653642E+02  0.00000000000E+00 0.  1.
<scales pt_clust_5="13000.00000" pt_clust_6="13000.00000" pt_clust_7="13000.00000" pt_clust_8="13000.00000" pt_clust_9="41.00909"></scales>
<clustering>
<clus scale="   41.009">  1  9  2 -1</clus>
<clus scale="   92.015">  7  8 -1 -1</clus>
<clus scale="   93.075">  5  6 -1 -1</clus>
<clus scale="  132.196">  1  7  2 -1</clus>
<clus scale="   41.009">  1  5  2 -1</clus>
</clustering>
</event>
<event>
 9    1  0.2075077E-005  0.1009200E+03  0.7546771E-02  0.1279689E+00
         -2   -1    0    0    0  501 -0.00000000000E+00  0.00000000000E+00  0.20911632125E+03  0.20911632125E+03  0.00000000000E+00 0.  1.
          2   -1    0    0  502    0  0.00000000000E+00 -0.00000000000E+00 -0.26298841470E+03  0.26298841470E+03  0.00000000000E+00 0. -1.
         23    2    1    2    0    0 -0.33281520278E+02  0.23466740237E+02  0.17392370986E+03  0.20074763302E+03  0.91606810990E+02 0.  0.
         23    2    1    2    0    0  0.38174998314E+02 -0.57838335947E+02 -0.17074267265E+03  0.20457078370E+03  0.88845605850E+02 0.  0.
        -11    1    4    4    0    0  0.20912024922E+02  0.20102856204E+02 -0.71805204671E+02  0.77443043792E+02  0.00000000000E+00 0.  1.
         11    1    4    4    0    0  0.17262973392E+02 -0.77941192151E+02 -0.98937467978E+02  0.12712773991E+03  0.00000000000E+00 0. -1.
        -13    1    3    3    0    0  0.10779660546E+02 -0.25870645162E+02  0.24070657125E+02  0.36944389249E+02  0.00000000000E+00 0. -1.
         13    1    3    3    0    0 -0.44061180823E+02  0.49337385399E+02  0.14985305274E+03  0.16380324377E+03  0.00000000000E+00 0.  1.
         21    1    1    2  502  501 -0.48934780364E+01  0.34371595710E+02 -0.57053130665E+02  0.66786319240E+02  0.00000000000E+00 0. -1.
<scales pt_clust_5="13000.00000" pt_clust_6="13000.00000" pt_clust_7="13000.00000" pt_clust_8="13000.00000" pt_clust_9="34.71819"></scales>
<clustering>
<clus scale="   34.718">  2  9  1 -1</clus>
<clus scale="   88.846">  5  6 -1 -1</clus>
<clus scale="   91.607">  7  8 -1 -1</clus>
<clus scale="   98.420">  2  5  1 -1</clus>
<clus scale="   34.718">  2  5  1 -1</clus>
</clustering>
</event>
<event>
 9    1  0.2075077E-005  0.1009288E+03  0.7546771E-02  0.1279300E+00
         -1   -1    0    0    0  501 -0.00000000000E+00  0.00000000000E+00  0.96478240279E+02  0.96478240279E+02  0.00000000000E+00 0.  1.
          1   -1    0    0  502    0  0.00000000000E+00 -0.00000000000E+00 -0.24943946573E+03  0.24943946573E+03  0.00000000000E+00 0. -1.
         23    2    1    2    0    0 -0.12749632998E+02 -0.34497825181E+02  0.38560007824E+02  0.10550055429E+03  0.91054048057E+02 0.  0.
         23    2    1    2    0    0 -0.12136110074E+02  0.57612444003E+02 -0.15904485952E+03  0.19342459206E+03  0.93012507769E+02 0.  0.
        -11    1    3    3    0    0  0.21634737143E+02 -0.27915544871E+02  0.56140362976E+02  0.66325559566E+02  0.00000000000E+00 0.  1.
         11    1    3    3    0    0 -0.34384370141E+02 -0.65822803102E+01 -0.17580355152E+02  0.39174994720E+02  0.00000000000E+00 0. -1.
        -13    1    4    4    0    0 -0.34309076543E+02  0.14888547676E+02 -0.13408460099E+03  0.13920295186E+03  0.00000000000E+00 0.  1.
         13    1    4    4    0    0  0.22172966470E+02  0.42723896327E+02 -0.24960258530E+02  0.54221640194E+02  0.00000000000E+00 0. -1.
         21    1    1    2  502  501  0.24885743072E+02 -0.23114618822E+02 -0.32476373757E+02  0.46992559666E+02  0.00000000000E+00 0. -1.
<scales pt_clust_5="13000.00000" pt_clust_6="13000.00000" pt_clust_7="13000.00000" pt_clust_8="13000.00000" pt_clust_9="33.96448"></scales>
<clustering>
<clus scale="   33.964">  2  9  1 -1</clus>
<clus scale="   91.054">  5  6 -1 -1</clus>
<clus scale="   93.013">  7  8 -1 -1</clus>
<clus scale="   99.127">  1  5  2 -1</clus>
<clus scale="   33.964">  2  5  1 -1</clus>
</clustering>
</event>
<event>
 9    1  0.2075077E-005  0.1012630E+03  0.7546771E-02  0.1278999E+00
          1   -1    0    0  502    0  0.00000000000E+00  0.00000000000E+00  0.26745454867E+03  0.26745454867E+03  0.00000000000E+00 0. -1.
         -1   -1    0    0    0  501 -0.00000000000E+00 -0.00000000000E+00 -0.11385880526E+03  0.11385880526E+03  0.00000000000E+00 0.  1.
         23    2    1    2    0    0 -0.25314036327E+02  0.55034435290E+02 -0.49030366350E+02  0.12322688711E+03  0.95453126604E+02 0.  0.
         23    2    1    2    0    0  0.18093264245E+02 -0.24554682599E+02  0.20460161003E+03  0.22670084154E+03  0.92742407119E+02 0.  0.
        -13    1    3    3    0    0  0.65607314458E+00  0.76711682499E+02 -0.45554233483E+02  0.89220518111E+02  0.00000000000E+00 0.  1.
         13    1    3    3    0    0 -0.25970109471E+02 -0.21677247209E+02 -0.34761328667E+01  0.34006368995E+02  0.00000000000E+00 0. -1.
        -13    1    4    4    0    0 -0.14291310306E+02 -0.40446259780E+02  0.17456797163E+03  0.17976128115E+03  0.00000000000E+00 0. -1.
         13    1    4    4    0    0  0.32384574551E+02  0.15891577182E+02  0.30033638401E+02  0.46939560391E+02  0.00000000000E+00 0.  1.
         21    1    1    2  502  501  0.72207720816E+01 -0.30479752691E+02 -0.19755002707E+01  0.31385625291E+02  0.00000000000E+00 0. -1.
<scales pt_clust_5="13000.00000" pt_clust_6="13000.00000" pt_clust_7="13000.00000" pt_clust_8="13000.00000" pt_clust_9="31.32339"></scales>
<clustering>
<clus scale="   31.323">  2  9  1 -1</clus>
<clus scale="   92.742">  7  8 -1 -1</clus>
<clus scale="   95.453">  5  6 -1 -1</clus>
<clus scale="   98.712">  1  7  2 -1</clus>
<clus scale="   98.712">  1  5  2 -1</clus>
</clustering>
</event>
<event>
 9    1  0.2075077E-005  0.1357207E+03  0.7546771E-02  0.1219927E+00
          1   -1    0    0  502    0  0.00000000000E+00  0.00000000000E+00  0.22107393282E+03  0.22107393282E+03  0.00000000000E+00 0. -1.
         -1   -1    0    0    0  501 -0.00000000000E+00 -0.00000000000E+00 -0.11886881696E+03  0.11886881696E+03  0.00000000000E+00 0.  1.
         23    2    1    2    0    0 -0.10639814241E+03  0.14491655751E+02 -0.26581556371E+02  0.14188348297E+03  0.88846895305E+02 0.  0.
         23    2    1    2    0    0  0.82664401105E+02 -0.19616005284E+01  0.10697245082E+03  0.16347382166E+03  0.91887616398E+02 0.  0.
        -11    1    4    4    0    0  0.53280285209E+02  0.42053111935E+02  0.77029496054E+02  0.10266838013E+03  0.00000000000E+00 0.  1.
         11    1    4    4    0    0  0.29384115896E+02 -0.44014712463E+02  0.29942954770E+02  0.60805441537E+02  0.00000000000E+00 0. -1.
        -13    1    3    3    0    0 -0.99802904338E+02 -0.10649854545E+02 -0.45031816765E+02  0.11000865256E+03  0.00000000000E+00 0.  1.
         13    1    3    3    0    0 -0.65952380718E+01  0.25141510296E+02  0.18450260394E+02  0.31874830412E+02  0.00000000000E+00 0. -1.
         21    1    1    2  502  501  0.23733741304E+02 -0.12530055223E+02  0.21814221406E+02  0.34585445143E+02  0.00000000000E+00 0. -1.
<scales pt_clust_5="13000.00000" pt_clust_6="13000.00000" pt_clust_7="13000.00000" pt_clust_8="13000.00000" pt_clust_9="26.83827"></scales>
<clustering>
<clus scale="   26.838">  1  9  2 -1</clus>
<clus scale="   88.847">  7  8 -1 -1</clus>
<clus scale="   91.888">  5  6 -1 -1</clus>
<clus scale="  133.681">  2  7  1 -1</clus>
<clus scale="   26.838">  1  5  2 -1</clus>
</clustering>
</event>
<event>
 9    1  0.2075077E-005  0.1272992E+03  0.7546771E-02  0.1231909E+00
         -2   -1    0    0    0  501 -0.00000000000E+00  0.00000000000E+00  0.86962498945E+02  0.86962498945E+02  0.00000000000E+00 0.  1.
          2   -1    0    0  502    0  0.00000000000E+00 -0.00000000000E+00 -0.28423112477E+03  0.28423112477E+03  0.00000000000E+00 0. -1.
         23    2    1    2    0    0 -0.64448617504E+02 -0.82476909426E+02 -0.31927754692E+02  0.14256834175E+03  0.91379897474E+02 0.  0.
         23    2    1    2    0    0  0.36267545223E+02  0.74736688955E+02 -0.15520820786E+03  0.19769383013E+03  0.89957518709E+02 0.  0.
        -11    1    3    3    0    0 -0.87620029644E+02 -0.63984858899E+02 -0.18658588313E+02  0.11008848569E+03  0.00000000000E+00 0.  1.
         11    1    3    3    0    0  0.23171412141E+02 -0.18492050527E+02 -0.13269166378E+02  0.32479856060E+02  0.00000000000E+00 0. -1.
        -13    1    4    4    0    0  0.26830162354E+02  0.95470039006E+02 -0.13278295547E+03  0.16572778651E+03  0.00000000000E+00 0. -1.
         13    1    4    4    0    0  0.94373828690E+01 -0.20733350050E+02 -0.22425252390E+02  0.31966043616E+02  0.00000000000E+00 0.  1.
         21    1    1    2  502  501  0.28181072281E+02  0.77402204711E+01 -0.10132663277E+02  0.30931451840E+02  0.00000000000E+00 0. -1.
<scales pt_clust_5="13000.00000" pt_clust_6="13000.00000" pt_clust_7="13000.00000" pt_clust_8="13000.00000" pt_clust_9="29.22471"></scales>
<clustering>
<clus scale="   29.225">  1  9  2 -1</clus>
<clus scale="   89.958">  7  8 -1 -1</clus>
<clus scale="   91.380">  5  6 -1 -1</clus>
<clus scale="  126.282">  2  7  1 -1</clus>
<clus scale="  126.282">  2  5  1 -1</clus>
</clustering>
</event>
<event>
 9    1  0.2075077E-005  0.1100872E+03  0.7546771E-02  0.1261400E+00
         -1   -1    0    0    0  501 -0.00000000000E+00  0.00000000000E+00  0.12979294684E+03  0.12979294684E+03  0.00000000000E+00 0.  1.
          1   -1    0    0  502    0  0.00000000000E+00 -0.00000000000E+00 -0.26145967849E+03  0.26145967849E+03  0.00000000000E+00 0. -1.
         23    2    1    2    0    0 -0.15376403279E+02 -0.58801142204E+02  0.82576340678E+02  0.13725621537E+03  0.91249156239E+02 0.  0.
         23    2    1    2    0    0 -0.12655504724E+02  0.42401444642E+02 -0.15584965021E+03  0.18717927374E+03  0.93749254594E+02 0.  0.
        -11    1    4    4    0    0  0.25167682701E+02 -0.76829207446E+01 -0.95638564245E+01  0.27998336976E+02  0.00000000000E+00 0.  1.
         11    1    4    4    0    0 -0.37823187425E+02  0.50084365386E+02 -0.14628579379E+03  0.15918093676E+03  0.00000000000E+00 0. -1.
        -13    1    3    3    0    0  0.36614480785E+02 -0.39707548005E+02  0.36238916864E+02  0.65042821796E+02  0.00000000000E+00 0. -1.
         13    1    3    3    0    0 -0.51990884063E+02 -0.19093594199E+02  0.46337423814E+02  0.72213393570E+02  0.00000000000E+00 0.  1.
         21    1    1    2  502  501  0.28031908003E+02  0.16399697562E+02 -0.58393422120E+02  0.66817136225E+02  0.00000000000E+00 0.  1.
<scales pt_clust_5="13000.00000" pt_clust_6="13000.00000" pt_clust_7="13000.00000" pt_clust_8="13000.00000" pt_clust_9="32.47673"></scales>
<clustering>
<clus scale="   32.477">  2  9  1 -1</clus>
<clus scale="   91.249">  7  8 -1 -1</clus>
<clus scale="   93.749">  5  6 -1 -1</clus>
<clus scale="  107.966">  1  7  2 -1</clus>
<clus scale="   32.477">  2  5  1 -1</clus>
</clustering>
</event>
<event>
 9    1  0.2075077E-005  0.1824573E+03  0.7546771E-02  0.1165619E+00
         -1   -1    0    0    0  501 -0.00000000000E+00  0.00000000000E+00  0.22375687879E+03  0.22375687879E+03  0.00000000000E+00 0.  1.
          1   -1    0    0  502    0  0.00000000000E+00 -0.00000000000E+00 -0.35400090282E+03  0.35400090282E+03  0.00000000000E+00 0. -1.
         23    2    1    2    0    0  0.10040308356E+03  0.11962694990E+03  0.13416666873E+03  0.22549945825E+03  0.91966974196E+02 0.  0.
         23    2    1    2    0    0 -0.69962546210E+02 -0.14854356328E+03 -0.19770734065E+03  0.27344123113E+03  0.93391467888E+02 0.  0.
        -11    1    4    4    0    0 -0.23836316228E+01 -0.74806070276E+02 -0.35408067203E+02  0.82797107878E+02  0.00000000000E+00 0.  1.
         11    1    4    4    0    0 -0.67578914587E+02 -0.73737493000E+02 -0.16229927345E+03  0.19064412326E+03  0.00000000000E+00 0. -1.
        -11    1    3    3    0    0  0.44701822226E+02  0.49386865582E+02  0.30710085715E+01  0.66683929818E+02  0.00000000000E+00 0. -1.
         11    1    3    3    0    0  0.55701261334E+02  0.70240084314E+02  0.13109566016E+03  0.15881552843E+03  0.00000000000E+00 0.  1.
         21    1    1    2  502  501 -0.30440537350E+02  0.28916613381E+02 -0.66703352114E+02  0.78817092225E+02  0.00000000000E+00 0.  1.
<scales pt_clust_5="13000.00000" pt_clust_6="13000.00000" pt_clust_7="13000.00000" pt_clust_8="13000.00000" pt_clust_9="41.98567"></scales>
<clustering>
<clus scale="   41.986">  2  9  1 -1</clus>
<clus scale="   91.967">  7  8 -1 -1</clus>
<clus scale="   93.391">  5  6 -1 -1</clus>
<clus scale="  181.732">  1  7  2 -1</clus>
<clus scale="   41.986">  2  5  1 -1</clus>
</clustering>
</event>
<event>
 9    1  0.2075077E-005  0.1001315E+03  0.7546771E-02  0.1281882E+00
         -1   -1    0    0    0  501 -0.00000000000E+00  0.00000000000E+00  0.21527988279E+02  0.21527988279E+02  0.00000000000E+00 0.  1.
          1   -1    0    0  502    0  0.00000000000E+00 -0.00000000000E+00 -0.66170166038E+03  0.66170166038E+03  0.00000000000E+00 0. -1.
         23    2    1    2    0    0 -0.30219647996E+02 -0.10587315632E+02 -0.17252613706E+03  0.19833326577E+03  0.92441862622E+02 0.  0.
         23    2    1    2    0    0  0.42135016868E+02  0.29283273151E+02 -0.33183707792E+03  0.34728826138E+03  0.88659012371E+02 0.  0.
        -11    1    4    4    0    0 -0.11020528247E+02 -0.22983597964E+02 -0.12112332984E+03  0.12377624509E+03  0.00000000000E+00 0.  1.
         11    1    4    4    0    0  0.53155545115E+02  0.52266871114E+02 -0.21071374808E+03  0.22351201629E+03  0.00000000000E+00 0. -1.
        -11    1    3    3    0    0 -0.25059806376E+02  0.39777334849E+02 -0.76921429085E+02  0.90150632365E+02  0.00000000000E+00 0. -1.
         11    1    3    3    0    0 -0.51598416201E+01 -0.50364650481E+02 -0.95604707976E+02  0.10818263341E+03  0.00000000000E+00 0.  1.
         21    1    1    2  502  501 -0.11915368872E+02 -0.18695957518E+02 -0.13581045712E+03  0.13760812151E+03  0.00000000000E+00 0. -1.
<scales pt_clust_5="13000.00000" pt_clust_6="13000.00000" pt_clust_7="13000.00000" pt_clust_8="13000.00000" pt_clust_9="22.17013"></scales>
<clustering>
<clus scale="   22.170">  2  9  1 -1</clus>
<clus scale="   88.659">  5  6 -1 -1</clus>
<clus scale="   92.442">  7  8 -1 -1</clus>
<clus scale="   96.650">  2  5  1 -1</clus>
<clus scale="   22.170">  2  5  1 -1</clus>
</clustering>
</event>
<event>
 9    1  0.2075077E-005  0.1168553E+03  0.7546771E-02  0.1248427E+00
          1   -1    0    0  502    0  0.00000000000E+00  0.00000000000E+00  0.33873228251E+02  0.33873228251E+02  0.00000000000E+00 0. -1.
         -1   -1    0    0    0  501 -0.00000000000E+00 -0.00000000000E+00 -0.93361250729E+03  0.93361250729E+03  0.00000000000E+00 0.  1.
         23    2    1    2    0    0  0.52702057678E+02 -0.26656897032E+02 -0.49274144469E+03  0.50455883740E+03  0.91090021668E+02 0.  0.
         23    2    1    2    0    0 -0.11486259766E+03  0.61816801705E+01 -0.33423849076E+03  0.36506429386E+03  0.91241111547E+02 0.  0.
        -11    1    4    4    0    0 -0.95131472686E+02 -0.34687431208E+02 -0.23900987232E+03  0.25957452504E+03  0.00000000000E+00 0. -1.
         11    1    4    4    0    0 -0.19731124970E+02  0.40869111378E+02 -0.95228618440E+02  0.10548976883E+03  0.00000000000E+00 0.  1.
        -11    1    3    3    0    0  0.81055114468E+01  0.28095585032E+02 -0.68498587134E+02  0.74478974573E+02  0.00000000000E+00 0.  1.
         11    1    3    3    0    0  0.44596546231E+02 -0.54752482064E+02 -0.42424285755E+03  0.43007986283E+03  0.00000000000E+00 0. -1.
         21    1    1    2  502  501  0.62160539977E+02  0.20475216862E+02 -0.72759343590E+02  0.97862604275E+02  0.00000000000E+00 0.  1.
<scales pt_clust_5="13000.00000" pt_clust_6="13000.00000" pt_clust_7="13000.00000" pt_clust_8="13000.00000" pt_clust_9="65.44591"></scales>
<clustering>
<clus scale="   65.446">  1  9  2 -1</clus>
<clus scale="   91.090">  7  8 -1 -1</clus>
<clus scale="   91.241">  5  6 -1 -1</clus>
<clus scale="  116.737">  2  7  1 -1</clus>
<clus scale="   65.446">  1  5  2 -1</clus>
</clustering>
</event>
<event>
 9    1  0.2075077E-005  0.1002727E+03  0.7546771E-02  0.1282698E+00
         -3   -1    0    0    0  501 -0.00000000000E+00  0.00000000000E+00  0.56199877306E+03  0.56199877306E+03  0.00000000000E+00 0.  1.
          3   -1    0    0  502    0  0.00000000000E+00 -0.00000000000E+00 -0.24564439995E+02  0.24564439995E+02  0.00000000000E+00 0. -1.
         23    2    1    2    0    0  0.60409140839E+00  0.24230818212E+02  0.29064947542E+03  0.30690415283E+03  0.95527713179E+02 0.  0.
         23    2    1    2    0    0  0.16133611790E+02 -0.36152235737E+02  0.23780242871E+03  0.25723240346E+03  0.89728683888E+02 0.  0.
        -13    1    3    3    0    0  0.40752172806E+02  0.49131217261E+01  0.64834460737E+02  0.76735817273E+02  0.00000000000E+00 0.  1.
         13    1    3    3    0    0 -0.40148081397E+02  0.19317696485E+02  0.22581501468E+03  0.23016833555E+03  0.00000000000E+00 0. -1.
        -13    1    4    4    0    0 -0.69230998178E+01  0.27016038797E+02  0.10124894388E+03  0.10501973291E+03  0.00000000000E+00 0.  1.
         13    1    4    4    0    0  0.23056711607E+02 -0.63168274534E+02  0.13655348482E+03  0.15221267055E+03  0.00000000000E+00 0. -1.
         21    1    1    2  502  501 -0.16737703198E+02  0.11921417525E+02  0.89824289428E+01  0.22426656770E+02  0.00000000000E+00 0. -1.
<scales pt_clust_5="13000.00000" pt_clust_6="13000.00000" pt_clust_7="13000.00000" pt_clust_8="13000.00000" pt_clust_9="20.54923"></scales>
<clustering>
<clus scale="   20.549">  2  9  1 -1</clus>
<clus scale="   89.729">  7  8 -1 -1</clus>
<clus scale="   94.764">  2  7  1 -1</clus>
<clus scale="   95.528">  5  6 -1 -1</clus>
<clus scale="   20.549">  2  5  1 -1</clus>
</clustering>
</event>
<event>
 9    1  0.2075077E-005  0.1657574E+03  0.7546771E-02  0.1203353E+00
         -1   -1    0    0    0  501 -0.00000000000E+00  0.00000000000E+00  0.78866118349E+03  0.78866118349E+03  0.00000000000E+00 0.  1.
          1   -1    0    0  502    0  0.00000000000E+00 -0.00000000000E+00 -0.41463103997E+03  0.41463103997E+03  0.00000000000E+00 0. -1.
         23    2    1    2    0    0  0.86300108315E+01  0.23776400004E+02  0.35249078942E+03  0.36763769952E+03  0.10133078111E+03 0.  0.
         23    2    1    2    0    0  0.11377176006E+03 -0.88444718337E+02  0.39885483625E+03  0.43374513368E+03  0.91011971734E+02 0.  0.
        -11    1    3    3    0    0  0.29042894578E+02  0.53807017100E+02  0.27954402100E+03  0.28615300888E+03  0.00000000000E+00 0.  1.
         11    1    3    3    0    0 -0.20412883746E+02 -0.30030617097E+02  0.72946768414E+02  0.81484690636E+02  0.00000000000E+00 0. -1.
        -13    1    4    4    0    0  0.98012295583E+02 -0.40415895875E+02  0.17801064982E+03  0.20718987952E+03  0.00000000000E+00 0.  1.
         13    1    4    4    0    0  0.15759464479E+02 -0.48028822462E+02  0.22084418643E+03  0.22655525416E+03  0.00000000000E+00 0. -1.
         21    1    1    2  502  501 -0.12240177089E+03  0.64668318333E+02 -0.37731548214E+03  0.40190939026E+03  0.00000000000E+00 0. -1.
<scales pt_clust_5="13000.00000" pt_clust_6="13000.00000" pt_clust_7="13000.00000" pt_clust_8="13000.00000" pt_clust_9="138.53637"></scales>
<clustering>
<clus scale="   91.012">  7  8 -1 -1</clus>
<clus scale="  101.331">  5  6 -1 -1</clus>
<clus scale="  104.440">  1  5  2 -1</clus>
<clus scale="  138.536">  2  9  1 -1</clus>
<clus scale="  138.536">  2  5  1 -1</clus>
</clustering>
</event>
<event>
 9    1  0.2075077E-005  0.1017969E+03  0.7546771E-02  0.1277255E+00
         -1   -1    0    0    0  501 -0.00000000000E+00  0.00000000000E+00  0.51802451557E+03  0.51802451557E+03  0.00000000000E+00 0.  1.
          1   -1    0    0  502    0  0.00000000000E+00 -0.00000000000E+00 -0.30992329254E+02  0.30992329254E+02  0.00000000000E+00 0. -1.
         23    2    1    2    0    0  0.26247658364E+01 -0.44421511313E+02  0.32682202827E+03  0.34168442992E+03  0.89193337316E+02 0.  0.
         23    2    1    2    0    0 -0.21876082213E+02  0.58357416433E+02  0.13621342372E+03  0.17355866930E+03  0.87660503440E+02 0.  0.
        -11    1    4    4    0    0 -0.11882877764E+02 -0.18875993197E+02  0.62368711202E+02  0.66237165097E+02  0.00000000000E+00 0.  1.
         11    1    4    4    0    0 -0.99932044490E+01  0.77233409630E+02  0.73844712514E+02  0.10732150420E+03  0.00000000000E+00 0. -1.
        -13    1    3    3    0    0  0.40480463223E+02 -0.46547078328E+02  0.19591327491E+03  0.20539549578E+03  0.00000000000E+00 0.  1.
         13    1    3    3    0    0 -0.37855697387E+02  0.21255670152E+01  0.13090875337E+03  0.13628893414E+03  0.00000000000E+00 0. -1.
         21    1    1    2  502  501  0.19251316377E+02 -0.13935905121E+02  0.23996734326E+02  0.33773745603E+02  0.00000000000E+00 0. -1.
<scales pt_clust_5="13000.00000" pt_clust_6="13000.00000" pt_clust_7="13000.00000" pt_clust_8="13000.00000" pt_clust_9="23.76600"></scales>
<clustering>
<clus scale="   23.766">  2  9  1 -1</clus>
<clus scale="   87.661">  5  6 -1 -1</clus>
<clus scale="   89.193">  7  8 -1 -1</clus>
<clus scale="  100.457">  2  5  1 -1</clus>
<clus scale="   23.766">  2  5  1 -1</clus>
</clustering>
</event>
<event>
 9    1  0.2075077E-005  0.9917474E+02  0.7546771E-02  0.1282139E+00
         -1   -1    0    0    0  501 -0.00000000000E+00  0.00000000000E+00  0.43133286748E+03  0.43133286748E+03  0.00000000000E+00 0.  1.
          1   -1    0    0  502    0  0.00000000000E+00 -0.00000000000E+00 -0.46836448183E+02  0.46836448183E+02  0.00000000000E+00 0. -1.
         23    2    1    2    0    0  0.28567146895E+02 -0.15001394851E+02  0.29892221092E+03  0.31443235232E+03  0.92043969264E+02 0.  0.
         23    2    1    2    0    0 -0.53904947898E+02  0.23251663366E+01  0.82959768255E+02  0.13528478898E+03  0.92241537133E+02 0.  0.
        -11    1    3    3    0    0  0.52480253744E+02  0.16511107188E+02  0.13447157430E+03  0.14529073608E+03  0.00000000000E+00 0.  1.
         11    1    3    3    0    0 -0.23913106849E+02 -0.31512502039E+02  0.16445063662E+03  0.16914161625E+03  0.00000000000E+00 0. -1.
        -13    1    4    4    0    0  0.22084431470E+02  0.18909679330E+02  0.21726252856E+02  0.36295015483E+02  0.00000000000E+00 0.  1.
         13    1    4    4    0    0 -0.75989379368E+02 -0.16584512994E+02  0.61233515399E+02  0.98989773493E+02  0.00000000000E+00 0. -1.
         21    1    1    2  502  501  0.25337801003E+02  0.12676228514E+02  0.26144401260E+01  0.28452174367E+02  0.00000000000E+00 0.  1.
<scales pt_clust_5="13000.00000" pt_clust_6="13000.00000" pt_clust_7="13000.00000" pt_clust_8="13000.00000" pt_clust_9="28.33180"></scales>
<clustering>
<clus scale="   28.332">  2  9  1 -1</clus>
<clus scale="   92.044">  5  6 -1 -1</clus>
<clus scale="   92.242">  7  8 -1 -1</clus>
<clus scale="   98.991">  1  5  2 -1</clus>
<clus scale="   28.332">  2  5  1 -1</clus>
</clustering>
</event>
<event>
 9    1  0.2075077E-005  0.1182043E+03  0.7546771E-02  0.1246350E+00
         -3   -1    0    0    0  501 -0.00000000000E+00  0.00000000000E+00  0.37663478904E+02  0.37663478904E+02  0.00000000000E+00 0.  1.
          3   -1    0    0  502    0  0.00000000000E+00 -0.00000000000E+00 -0.48577464969E+03  0.48577464969E+03  0.00000000000E+00 0. -1.
         23    2    1    2    0    0 -0.71462438679E+02 -0.90104720082E+01 -0.13911800350E+03  0.18127509678E+03  0.91207308185E+02 0.  0.
         23    2    1    2    0    0  0.80905790310E+02 -0.10947743014E+02 -0.23159713504E+03  0.26167916359E+03  0.90405484992E+02 0.  0.
        -11    1    3    3    0    0  0.13948567176E+02 -0.24863078876E+02 -0.25470729197E+02  0.38229481599E+02  0.00000000000E+00 0.  1.
         11    1    3    3    0    0 -0.85411005855E+02  0.15852606868E+02 -0.11364727431E+03  0.14304561518E+03  0.00000000000E+00 0. -1.
        -13    1    4    4    0    0  0.62754658756E+02 -0.37000711282E+02 -0.86227541642E+02  0.11288218978E+03  0.00000000000E+00 0.  1.
         13    1    4    4    0    0  0.18151131554E+02  0.26052968268E+02 -0.14536959340E+03  0.14879697381E+03  0.00000000000E+00 0. -1.
         21    1    1    2  502  501 -0.94433516310E+01  0.19958215022E+02 -0.77396032244E+02  0.80483868222E+02  0.00000000000E+00 0. -1.
<scales pt_clust_5="13000.00000" pt_clust_6="13000.00000" pt_clust_7="13000.00000" pt_clust_8="13000.00000" pt_clust_9="22.07957"></scales>
<clustering>
<clus scale="   22.080">  2  9  1 -1</clus>
<clus scale="   90.405">  7  8 -1 -1</clus>
<clus scale="   91.207">  5  6 -1 -1</clus>
<clus scale="  117.587">  2  7  1 -1</clus>
<clus scale="   22.080">  2  5  1 -1</clus>
</clustering>
</event>
<event>
 9    1  0.2075077E-005  0.1072456E+03  0.7546771E-02  0.1266138E+00
          2   -1    0    0  502    0  0.00000000000E+00  0.00000000000E+00  0.34553506152E+03  0.34553506152E+03  0.00000000000E+00 0. -1.
         -2   -1    0    0    0  501 -0.00000000000E+00 -0.00000000000E+00 -0.13469086444E+03  0.13469086444E+03  0.00000000000E+00 0.  1.
         23    2    1    2    0    0  0.27926107756E+02 -0.55951698844E+02 -0.70266843371E+02  0.13052566916E+03  0.90493430342E+02 0.  0.
         23    2    1    2    0    0  0.29054738534E+02  0.48859827874E+02  0.64259581356E+02  0.12537534336E+03  0.91423313857E+02 0.  0.
        -11    1    3    3    0    0  0.10430689461E+02 -0.19273349994E+02 -0.84632569769E+02  0.87423870701E+02  0.00000000000E+00 0.  1.
         11    1    3    3    0    0  0.17495418295E+02 -0.36678348850E+02  0.14365726398E+02  0.43101798462E+02  0.00000000000E+00 0. -1.
        -13    1    4    4    0    0  0.38948248953E+02 -0.15017639142E+02  0.15985067234E+02  0.44699194135E+02  0.00000000000E+00 0. -1.
         13    1    4    4    0    0 -0.98935104182E+01  0.63877467016E+02  0.48274514123E+02  0.80676149230E+02  0.00000000000E+00 0.  1.
         21    1    1    2  502  501 -0.56980846291E+02  0.70918709694E+01  0.21685145909E+03  0.22432491344E+03  0.00000000000E+00 0. -1.
<scales pt_clust_5="13000.00000" pt_clust_6="13000.00000" pt_clust_7="13000.00000" pt_clust_8="13000.00000" pt_clust_9="57.42048"></scales>
<clustering>
<clus scale="   57.420">  1  9  2 -1</clus>
<clus scale="   90.493">  5  6 -1 -1</clus>
<clus scale="   91.423">  7  8 -1 -1</clus>
<clus scale="  106.454">  2  5  1 -1</clus>
<clus scale="   57.420">  1  5  2 -1</clus>
</clustering>
</event>
<event>
 9    1  0.2075077E-005  0.1025170E+03  0.7546771E-02  0.1276172E+00
          2   -1    0    0  502    0  0.00000000000E+00  0.00000000000E+00  0.29217498241E+03  0.29217498241E+03  0.00000000000E+00 0. -1.
         -2   -1    0    0    0  501 -0.00000000000E+00 -0.00000000000E+00 -0.56646642204E+02  0.56646642204E+02  0.00000000000E+00 0.  1.
         23    2    1    2    0    0  0.54870637179E+02  0.63583711803E+01  0.52211890050E+02  0.11873533779E+03  0.91218327485E+02 0.  0.
         23    2    1    2    0    0 -0.28568318869E+02 -0.29537828565E+02  0.10119611538E+03  0.14079547779E+03  0.88848638933E+02 0.  0.
        -11    1    4    4    0    0  0.41791119163E+01  0.29795371973E+02  0.29416377232E+02  0.42077932659E+02  0.00000000000E+00 0. -1.
         11    1    4    4    0    0 -0.32747430785E+02 -0.59333200538E+02  0.71779738144E+02  0.98717545133E+02  0.00000000000E+00 0.  1.
        -13    1    3    3    0    0  0.22659669227E+02  0.20902762175E+02  0.71934629979E+02  0.78262232694E+02  0.00000000000E+00 0. -1.
         13    1    3    3    0    0  0.32210967952E+02 -0.14544390995E+02 -0.19722739929E+02  0.40473105096E+02  0.00000000000E+00 0.  1.
         21    1    1    2  502  501 -0.26302318310E+02  0.23179457385E+02  0.82120334783E+02  0.89290809035E+02  0.00000000000E+00 0. -1.
<scales pt_clust_5="13000.00000" pt_clust_6="13000.00000" pt_clust_7="13000.00000" pt_clust_8="13000.00000" pt_clust_9="35.05851"></scales>
<clustering>
<clus scale="   35.059">  1  9  2 -1</clus>
<clus scale="   88.849">  5  6 -1 -1</clus>
<clus scale="   91.218">  7  8 -1 -1</clus>
<clus scale="  100.414">  1  5  2 -1</clus>
<clus scale="   35.059">  1  5  2 -1</clus>
</clustering>
</event>
<event>
 9    1  0.2075077E-005  0.9490123E+02  0.7546771E-02  0.1292835E+00
         -2   -1    0    0    0  501 -0.00000000000E+00  0.00000000000E+00  0.37378041632E+02  0.37378041632E+02  0.00000000000E+00 0.  1.
          2   -1    0    0  502    0  0.00000000000E+00 -0.00000000000E+00 -0.54823616952E+03  0.54823616952E+03  0.00000000000E+00 0. -1.
         23    2    1    2    0    0 -0.22149834910E+02  0.26584688732E+01 -0.47345812051E+02  0.10530139110E+03  0.91373269639E+02 0.  0.
         23    2    1    2    0    0  0.44000356746E+02 -0.44105018992E+01 -0.42051539957E+03  0.43205051869E+03  0.88763537036E+02 0.  0.
        -11    1    4    4    0    0 -0.21976300876E+02  0.18695313636E+02 -0.10570232108E+03  0.10956939917E+03  0.00000000000E+00 0.  1.
         11    1    4    4    0    0  0.65976657623E+02 -0.23105815535E+02 -0.31481307849E+03  0.32248111952E+03  0.00000000000E+00 0. -1.
        -13    1    3    3    0    0  0.34801797774E+02 -0.67085414553E+01 -0.25171575184E+02  0.43471575242E+02  0.00000000000E+00 0. -1.
         13    1    3    3    0    0 -0.56951632684E+02  0.93670103286E+01 -0.22174236867E+02  0.61829815854E+02  0.00000000000E+00 0.  1.
         21    1    1    2  502  501 -0.21850521837E+02  0.17520330260E+01 -0.42996916265E+02  0.48262301360E+02  0.00000000000E+00 0.  1.
<scales pt_clust_5="13000.00000" pt_clust_6="13000.00000" pt_clust_7="13000.00000" pt_clust_8="13000.00000" pt_clust_9="21.92065"></scales>
<clustering>
<clus scale="   21.921">  2  9  1 -1</clus>
<clus scale="   88.764">  5  6 -1 -1</clus>
<clus scale="   91.373">  7  8 -1 -1</clus>
<clus scale="   92.391">  2  5  1 -1</clus>
<clus scale="   21.921">  2  5  1 -1</clus>
</clustering>
</event>
<event>
 9    1  0.2075077E-005  0.9673870E+02  0.7546771E-02  0.1287628E+00
          2   -1    0    0  502    0  0.00000000000E+00  0.00000000000E+00  0.64409332095E+02  0.64409332095E+02  0.00000000000E+00 0. -1.
         -2   -1    0    0    0  501 -0.00000000000E+00 -0.00000000000E+00 -0.57745362741E+03  0.57745362741E+03  0.00000000000E+00 0.  1.
         23    2    1    2    0    0 -0.15572815087E+02  0.34632155087E+02 -0.46471079566E+03  0.47486480042E+03  0.89991979334E+02 0.  0.
         23    2    1    2    0    0  0.30318598908E+02  0.18788341468E+02 -0.65638513554E+01  0.97601537322E+02  0.90613226011E+02 0.  0.
        -11    1    3    3    0    0  0.34973541702E+02  0.29362806870E+02 -0.25713445873E+03  0.26115790801E+03  0.00000000000E+00 0. -1.
         11    1    3    3    0    0 -0.50546356789E+02  0.52693482170E+01 -0.20757633692E+03  0.21370689242E+03  0.00000000000E+00 0.  1.
        -13    1    4    4    0    0  0.47513288040E+02 -0.76431362886E+01 -0.31400660657E+02  0.57462436099E+02  0.00000000000E+00 0.  1.
         13    1    4    4    0    0 -0.17194689132E+02  0.26431477757E+02  0.24836809301E+02  0.40139101223E+02  0.00000000000E+00 0. -1.
         21    1    1    2  502  501 -0.14745783822E+02 -0.53420496554E+02 -0.41769648305E+02  0.69396621763E+02  0.00000000000E+00 0.  1.
<scales pt_clust_5="13000.00000" pt_clust_6="13000.00000" pt_clust_7="13000.00000" pt_clust_8="13000.00000" pt_clust_9="55.41830"></scales>
<clustering>
<clus scale="   55.418">  1  9  2 -1</clus>
<clus scale="   89.992">  5  6 -1 -1</clus>
<clus scale="   90.613">  7  8 -1 -1</clus>
<clus scale="   96.157">  2  5  1 -1</clus>
<clus scale="   55.418">  1  5  2 -1</clus>
</clustering>
</event>
<event>
 9    1  0.2075077E-005  0.1034078E+03  0.7546771E-02  0.1274581E+00
          1   -1    0    0  502    0  0.00000000000E+00  0.00000000000E+00  0.13886342707E+03  0.13886342707E+03  0.00000000000E+00 0. -1.
         -1   -1    0    0    0  501 -0.00000000000E+00 -0.00000000000E+00 -0.19793333728E+03  0.19793333728E+03  0.00000000000E+00 0.  1.
         23    2    1    2    0    0 -0.25171529581E+02  0.21218052001E+02 -0.13541043603E+03  0.16966504364E+03  0.96780314202E+02 0.  0.
         23    2    1    2    0    0  0.59242891159E+02 -0.16076201819E+02  0.69243255286E+02  0.13195122110E+03  0.94065572500E+02 0.  0.
        -11    1    4    4    0    0 -0.20901722886E+02 -0.22298136560E+02  0.28674739283E+02  0.41908586073E+02  0.00000000000E+00 0.  1.
         11    1    4    4    0    0  0.80144614045E+02  0.62219347406E+01  0.40568516002E+02  0.90042635029E+02  0.00000000000E+00 0. -1.
        -11    1    3    3    0    0  0.21250187603E+02 -0.27616174112E+02 -0.45544939317E+02  0.57346011571E+02  0.00000000000E+00 0. -1.
         11    1    3    3    0    0 -0.46421717184E+02  0.48834226113E+02 -0.89865496713E+02  0.11231903207E+03  0.00000000000E+00 0.  1.
         21    1    1    2  502  501 -0.34071361578E+02 -0.51418501815E+01  0.70972705405E+01  0.35180499601E+02  0.00000000000E+00 0.  1.
<scales pt_clust_5="13000.00000" pt_clust_6="13000.00000" pt_clust_7="13000.00000" pt_clust_8="13000.00000" pt_clust_9="34.45717"></scales>
<clustering>
<clus scale="   34.457">  1  9  2 -1</clus>
<clus scale="   94.066">  5  6 -1 -1</clus>
<clus scale="   96.780">  7  8 -1 -1</clus>
<clus scale="  100.872">  1  5  2 -1</clus>
<clus scale="   34.457">  1  5  2 -1</clus>
</clustering>
</event>
<event>
 9    1  0.2075077E-005  0.9599322E+02  0.7546771E-02  0.1292639E+00
          2   -1    0    0  502    0  0.00000000000E+00  0.00000000000E+00  0.36957045003E+03  0.36957045003E+03  0.00000000000E+00 0. -1.
         -2   -1    0    0    0  501 -0.00000000000E+00 -0.00000000000E+00 -0.34079495296E+02  0.34079495296E+02  0.00000000000E+00 0.  1.
         23    2    1    2    0    0  0.22400277629E+01  0.95605446341E+01  0.93699813639E+02  0.12999400878E+03  0.89567658812E+02 0.  0.
         23    2    1    2    0    0 -0.21707467077E+01  0.10976550621E+02  0.14184546698E+03  0.17162204583E+03  0.95962457789E+02 0.  0.
        -11    1    3    3    0    0  0.81066041423E+01 -0.23026846235E+02  0.93756637940E+02  0.96882711750E+02  0.00000000000E+00 0. -1.
         11    1    3    3    0    0 -0.58665763794E+01  0.32587390870E+02 -0.56824301317E-01  0.33111297031E+02  0.00000000000E+00 0.  1.
        -11    1    4    4    0    0  0.34107236245E+02 -0.25039757131E+02  0.42923504124E+02  0.60272051631E+02  0.00000000000E+00 0.  1.
         11    1    4    4    0    0 -0.36277982953E+02  0.36016307753E+02  0.98921962860E+02  0.11134999420E+03  0.00000000000E+00 0. -1.
         21    1    1    2  502  501 -0.69281055190E-01 -0.20537095255E+02  0.99945674116E+02  0.10203389072E+03  0.00000000000E+00 0. -1.
<scales pt_clust_5="13000.00000" pt_clust_6="13000.00000" pt_clust_7="13000.00000" pt_clust_8="13000.00000" pt_clust_9="20.53721"></scales>
<clustering>
<clus scale="   20.537">  1  9  2 -1</clus>
<clus scale="   89.568">  5  6 -1 -1</clus>
<clus scale="   89.601">  2  5  1 -1</clus>
<clus scale="   95.962">  7  8 -1 -1</clus>
<clus scale="   20.537">  1  5  2 -1</clus>
</clustering>
</event>
<event>
 9    1  0.2075077E-005  0.1079999E+03  0.7546771E-02  0.1265465E+00
          1   -1    0    0  502    0  0.00000000000E+00  0.00000000000E+00  0.61372732989E+02  0.61372732989E+02  0.00000000000E+00 0. -1.
         -1   -1    0    0    0  501 -0.00000000000E+00 -0.00000000000E+00 -0.28468481543E+03  0.28468481543E+03  0.00000000000E+00 0.  1.
         23    2    1    2    0    0  0.34060775460E+02  0.30342567942E+02 -0.16203607725E+03  0.19292390288E+03  0.94250379936E+02 0.  0.
         23    2    1    2    0    0 -0.56800622259E+02 -0.40429405913E+02 -0.54813328376E+02  0.12743128914E+03  0.91506201606E+02 0.  0.
        -13    1    3    3    0    0  0.39123081131E+02  0.42525730163E+01 -0.16162195884E+03  0.16634409348E+03  0.00000000000E+00 0.  1.
         13    1    3    3    0    0 -0.50623056708E+01  0.26089994926E+02 -0.41411840742E+00  0.26579809405E+02  0.00000000000E+00 0. -1.
        -13    1    4    4    0    0 -0.23285605274E+02 -0.66095480166E+02 -0.47319576807E+02  0.84557520425E+02  0.00000000000E+00 0.  1.
         13    1    4    4    0    0 -0.33515016985E+02  0.25666074253E+02 -0.74937515683E+01  0.42873768713E+02  0.00000000000E+00 0. -1.
         21    1    1    2  502  501  0.22739846799E+02  0.10086837971E+02 -0.64626768109E+01  0.25702356395E+02  0.00000000000E+00 0.  1.
<scales pt_clust_5="13000.00000" pt_clust_6="13000.00000" pt_clust_7="13000.00000" pt_clust_8="13000.00000" pt_clust_9="24.87659"></scales>
<clustering>
<clus scale="   24.877">  1  9  2 -1</clus>
<clus scale="   91.506">  7  8 -1 -1</clus>
<clus scale="   94.250">  5  6 -1 -1</clus>
<clus scale="  105.614">  1  7  2 -1</clus>
<clus scale="   24.877">  1  5  2 -1</clus>
</clustering>
</event>
<event>
 9    1  0.2075077E-005  0.3965067E+03  0.7546771E-02  0.1045010E+00
          2   -1    0    0  502    0  0.00000000000E+00  0.00000000000E+00  0.11643711262E+04  0.11643711262E+04  0.00000000000E+00 0.  1.
         -2   -1    0    0    0  501 -0.00000000000E+00 -0.00000000000E+00 -0.20134573799E+03  0.20134573799E+03  0.00000000000E+00 0. -1.
         23    2    1    2    0    0  0.15054823854E+03 -0.35811146545E+03  0.28465400758E+03  0.49023079247E+03  0.91595480499E+02 0.  0.
         23    2    1    2    0    0 -0.23090329629E+03  0.31255423772E+03  0.33856670095E+03  0.52335027883E+03  0.90893451937E+02 0.  0.
        -13    1    4    4    0    0 -0.85095145846E+02  0.19101365978E+03  0.18467063635E+03  0.27898144383E+03  0.00000000000E+00 0.  1.
         13    1    4    4    0    0 -0.14580815044E+03  0.12154057794E+03  0.15389606459E+03  0.24436883500E+03  0.00000000000E+00 0. -1.
        -13    1    3    3    0    0  0.79168305646E+02 -0.11261781642E+03  0.14063788934E+03  0.19679788899E+03  0.00000000000E+00 0.  1.
         13    1    3    3    0    0  0.71379932890E+02 -0.24549364903E+03  0.14401611824E+03  0.29343290348E+03  0.00000000000E+00 0. -1.
         21    1    1    2  502  501  0.80355057750E+02  0.45557227726E+02  0.33980467966E+03  0.35213579287E+03  0.00000000000E+00 0.  1.
<scales pt_clust_5="13000.00000" pt_clust_6="13000.00000" pt_clust_7="13000.00000" pt_clust_8="13000.00000" pt_clust_9="92.37097"></scales>
<clustering>
<clus scale="   90.893">  5  6 -1 -1</clus>
<clus scale="   91.595">  7  8 -1 -1</clus>
<clus scale="   92.371">  1  9  2 -1</clus>
<clus scale="  396.345">  1  5  2 -1</clus>
<clus scale="   92.371">  1  5  2 -1</clus>
</clustering>
</event>
<event>
 9    1  0.2075077E-005  0.1289506E+03  0.7546771E-02  0.1229338E+00
         -1   -1    0    0    0  501 -0.00000000000E+00  0.00000000000E+00  0.47249476975E+03  0.47249476975E+03  0.00000000000E+00 0.  1.
          1   -1    0    0  502    0  0.00000000000E+00 -0.00000000000E+00 -0.43951765015E+02  0.43951765015E+02  0.00000000000E+00 0. -1.
         23    2    1    2    0    0 -0.92329951285E+02 -0.29793799825E+02  0.22639590796E+03  0.26239472780E+03  0.90462122583E+02 0.  0.
         23    2    1    2    0    0  0.88090491595E+02  0.19966029654E+01  0.17136386844E+03  0.21235930982E+03  0.89257940419E+02 0.  0.
        -11    1    3    3    0    0 -0.37176950626E+02  0.26580395551E+02  0.13028213977E+03  0.13806548819E+03  0.00000000000E+00 0.  1.
         11    1    3    3    0    0 -0.55153000659E+02 -0.56374195376E+02  0.96113768192E+02  0.12432923961E+03  0.00000000000E+00 0. -1.
        -13    1    4    4    0    0  0.39069810172E+01 -0.29816264621E+02  0.73466154724E+02  0.79382302981E+02  0.00000000000E+00 0. -1.
         13    1    4    4    0    0  0.84183510578E+02  0.31812867586E+02  0.97897713718E+02  0.13297700684E+03  0.00000000000E+00 0.  1.
         21    1    1    2  502  501  0.42394596901E+01  0.27797196860E+02  0.30783228333E+02  0.41692497147E+02  0.00000000000E+00 0.  1.
<scales pt_clust_5="13000.00000" pt_clust_6="13000.00000" pt_clust_7="13000.00000" pt_clust_8="13000.00000" pt_clust_9="28.11863"></scales>
<clustering>
<clus scale="   28.119">  2  9  1 -1</clus>
<clus scale="   89.258">  7  8 -1 -1</clus>
<clus scale="   90.462">  5  6 -1 -1</clus>
<clus scale="  128.109">  2  7  1 -1</clus>
<clus scale="   28.119">  2  5  1 -1</clus>
</clustering>
</event>
<event>
 9    1  0.2075077E-005  0.1090209E+03  0.7546771E-02  0.1263506E+00
          1   -1    0    0  502    0  0.00000000000E+00  0.00000000000E+00  0.88904782714E+02  0.88904782714E+02  0.00000000000E+00 0. -1.
         -1   -1    0    0    0  501 -0.00000000000E+00 -0.00000000000E+00 -0.18233350351E+03  0.18233350351E+03  0.00000000000E+00 0.  1.
         23    2    1    2    0    0  0.43075833400E+02 -0.17396792669E+02 -0.48220034581E+02  0.11219330396E+03  0.90022163382E+02 0.  0.
         23    2    1    2    0    0 -0.58992342684E+02  0.37087336079E+02 -0.59036153332E+02  0.13019621080E+03  0.92791265294E+02 0.  0.
        -11    1    4    4    0    0  0.12910299324E+02  0.26368200875E+02  0.89184433644E+01  0.30683814595E+02  0.00000000000E+00 0. -1.
         11    1    4    4    0    0 -0.71902642008E+02  0.10719135204E+02 -0.67954596696E+02  0.99512396209E+02  0.00000000000E+00 0.  1.
        -13    1    3    3    0    0  0.27919983392E+02 -0.53944469685E+02 -0.36771275586E+02  0.71004633584E+02  0.00000000000E+00 0.  1.
         13    1    3    3    0    0  0.15155850007E+02  0.36547677016E+02 -0.11448758995E+02  0.41188670375E+02  0.00000000000E+00 0. -1.
         21    1    1    2  502  501  0.15916509284E+02 -0.19690543410E+02  0.13827467121E+02  0.28848771457E+02  0.00000000000E+00 0.  1.
<scales pt_clust_5="13000.00000" pt_clust_6="13000.00000" pt_clust_7="13000.00000" pt_clust_8="13000.00000" pt_clust_9="25.31902"></scales>
<clustering>
<clus scale="   25.319">  1  9  2 -1</clus>
<clus scale="   90.022">  7  8 -1 -1</clus>
<clus scale="   92.791">  5  6 -1 -1</clus>
<clus scale="  106.674">  2  7  1 -1</clus>
<clus scale="   25.319">  1  5  2 -1</clus>
</clustering>
</event>
<event>
 9    1  0.2075077E-005  0.9507589E+02  0.7546771E-02  0.1291657E+00
         -1   -1    0    0    0  501 -0.00000000000E+00  0.00000000000E+00  0.31224047906E+02  0.31224047906E+02  0.00000000000E+00 0.  1.
          1   -1    0    0  502    0  0.00000000000E+00 -0.00000000000E+00 -0.41871370562E+03  0.41871370562E+03  0.00000000000E+00 0. -1.
         23    2    1    2    0    0  0.22859439140E+02 -0.28280532724E+02 -0.13170838737E+03  0.16501087112E+03  0.92515651629E+02 0.  0.
         23    2    1    2    0    0  0.19077081801E+01  0.49205997965E+01 -0.18524759249E+03  0.20660640127E+03  0.91332813769E+02 0.  0.
        -11    1    3    3    0    0  0.74504634882E+01 -0.58677710298E+02 -0.53724609268E+02  0.79905673972E+02  0.00000000000E+00 0.  1.
         11    1    3    3    0    0  0.15408975651E+02  0.30397177574E+02 -0.77983778103E+02  0.85105197152E+02  0.00000000000E+00 0. -1.
        -11    1    4    4    0    0 -0.43403581756E+02  0.13179256568E+02 -0.95871323530E+02  0.10606071086E+03  0.00000000000E+00 0. -1.
         11    1    4    4    0    0  0.45311289936E+02 -0.82586567712E+01 -0.89376268961E+02  0.10054569041E+03  0.00000000000E+00 0.  1.
         21    1    1    2  502  501 -0.24767147320E+02  0.23359932927E+02 -0.70533677849E+02  0.78320481125E+02  0.00000000000E+00 0. -1.
<scales pt_clust_5="13000.00000" pt_clust_6="13000.00000" pt_clust_7="13000.00000" pt_clust_8="13000.00000" pt_clust_9="34.04553"></scales>
<clustering>
<clus scale="   34.046">  2  9  1 -1</clus>
<clus scale="   91.333">  7  8 -1 -1</clus>
<clus scale="   92.516">  5  6 -1 -1</clus>
<clus scale="   93.925">  2  7  1 -1</clus>
<clus scale="   34.046">  2  5  1 -1</clus>
</clustering>
</event>
<event>
 9    1  0.2075077E-005  0.9477028E+02  0.7546771E-02  0.1292485E+00
         -2   -1    0    0    0  501 -0.00000000000E+00  0.00000000000E+00  0.47294167995E+02  0.47294167995E+02  0.00000000000E+00 0.  1.
          2   -1    0    0  502    0  0.00000000000E+00 -0.00000000000E+00 -0.47477877514E+03  0.47477877514E+03  0.00000000000E+00 0. -1.
         23    2    1    2    0    0  0.13627096404E+02 -0.84165606957E+01 -0.25527834285E+02  0.95682688857E+02  0.90812831545E+02 0.  0.
         23    2    1    2    0    0 -0.49604822013E+02  0.10221399874E+02 -0.27586215621E+03  0.29525099039E+03  0.92239377255E+02 0.  0.
        -13    1    3    3    0    0  0.47297455117E+02 -0.20876872968E+02 -0.29561517067E+02  0.59554818250E+02  0.00000000000E+00 0. -1.
         13    1    3    3    0    0 -0.33670358713E+02  0.12460312273E+02  0.40336827817E+01  0.36127870607E+02  0.00000000000E+00 0.  1.
        -13    1    4    4    0    0 -0.53069514330E+02  0.40262712852E+02 -0.12765868006E+03  0.14399374289E+03  0.00000000000E+00 0.  1.
         13    1    4    4    0    0  0.34646923176E+01 -0.30041312978E+02 -0.14820347615E+03  0.15125724750E+03  0.00000000000E+00 0. -1.
         21    1    1    2  502  501  0.35977725609E+02 -0.18048391785E+01 -0.12609461665E+03  0.13113926388E+03  0.00000000000E+00 0. -1.
<scales pt_clust_5="13000.00000" pt_clust_6="13000.00000" pt_clust_7="13000.00000" pt_clust_8="13000.00000" pt_clust_9="36.02297"></scales>
<clustering>
<clus scale="   36.023">  2  9  1 -1</clus>
<clus scale="   90.813">  5  6 -1 -1</clus>
<clus scale="   92.239">  7  8 -1 -1</clus>
<clus scale="   93.382">  1  5  2 -1</clus>
<clus scale="   36.023">  2  5  1 -1</clus>
</clustering>
</event>
<event>
 9    1  0.2075077E-005  0.1818534E+03  0.7546771E-02  0.1166729E+00
          3   -1    0    0  502    0  0.00000000000E+00  0.00000000000E+00  0.18364955652E+03  0.18364955652E+03  0.00000000000E+00 0. -1.
         -3   -1    0    0    0  501 -0.00000000000E+00 -0.00000000000E+00 -0.29986203784E+03  0.29986203784E+03  0.00000000000E+00 0.  1.
         23    2    1    2    0    0 -0.16332565190E+03 -0.33989287688E+02 -0.17430291549E+03  0.25777036762E+03  0.90738722862E+02 0.  0.
         23    2    1    2    0    0  0.12706488041E+03  0.22079525124E+02  0.59551391153E+01  0.16112872807E+03  0.96405466985E+02 0.  0.
        -11    1    4    4    0    0  0.25267474813E+02 -0.19611461488E+02 -0.31530264447E+02  0.44913386437E+02  0.00000000000E+00 0.  1.
         11    1    4    4    0    0  0.10179740560E+03  0.41690986611E+02  0.37485403563E+02  0.11621534163E+03  0.00000000000E+00 0. -1.
        -13    1    3    3    0    0 -0.14462351957E+03 -0.59630540841E+02 -0.15696039912E+03  0.22160399524E+03  0.00000000000E+00 0.  1.
         13    1    3    3    0    0 -0.18702132338E+02  0.25641253153E+02 -0.17342516366E+02  0.36166372380E+02  0.00000000000E+00 0. -1.
         21    1    1    2  502  501  0.36260771494E+02  0.11909762565E+02  0.52135295050E+02  0.64612498664E+02  0.00000000000E+00 0.  1.
<scales pt_clust_5="13000.00000" pt_clust_6="13000.00000" pt_clust_7="13000.00000" pt_clust_8="13000.00000" pt_clust_9="38.16656"></scales>
<clustering>
<clus scale="   38.167">  1  9  2 -1</clus>
<clus scale="   90.739">  7  8 -1 -1</clus>
<clus scale="   96.405">  5  6 -1 -1</clus>
<clus scale="  178.914">  2  7  1 -1</clus>
<clus scale="   38.167">  1  5  2 -1</clus>
</clustering>
</event>
<event>
 9    1  0.2075077E-005  0.2282430E+03  0.7546771E-02  0.1129378E+00
         -1   -1    0    0    0  501 -0.00000000000E+00  0.00000000000E+00  0.58785999968E+03  0.58785999968E+03  0.00000000000E+00 0.  1.
          1   -1    0    0  502    0  0.00000000000E+00 -0.00000000000E+00 -0.23821924260E+03  0.23821924260E+03  0.00000000000E+00 0. -1.
         23    2    1    2    0    0 -0.19069098444E+03 -0.10156906227E+03  0.46163151335E+03  0.52109784847E+03  0.10844347658E+03 0.  0.
         23    2    1    2    0    0  0.81853427673E+02  0.12171833606E+03 -0.80605171462E+02  0.18993070094E+03  0.89783854545E+02 0.  0.
        -11    1    3    3    0    0 -0.48875991753E+02  0.60430113392E+01  0.40073976384E+02  0.63492551839E+02  0.00000000000E+00 0. -1.
         11    1    3    3    0    0 -0.14181499269E+03 -0.10761207361E+03  0.42155753696E+03  0.45760529663E+03  0.00000000000E+00 0.  1.
        -11    1    4    4    0    0 -0.18762246537E+02  0.23313705930E+02 -0.55687406116E+01  0.30439475214E+02  0.00000000000E+00 0.  1.
         11    1    4    4    0    0  0.10061567421E+03  0.98404630133E+02 -0.75036430851E+02  0.15949122573E+03  0.00000000000E+00 0. -1.
         21    1    1    2  502  501  0.10883755676E+03 -0.20149273790E+02 -0.31385584797E+02  0.11505069287E+03  0.00000000000E+00 0.  1.
<scales pt_clust_5="13000.00000" pt_clust_6="13000.00000" pt_clust_7="13000.00000" pt_clust_8="13000.00000" pt_clust_9="110.68698"></scales>
<clustering>
<clus scale="   89.784">  7  8 -1 -1</clus>
<clus scale="  108.443">  5  6 -1 -1</clus>
<clus scale="  110.687">  2  9  1 -1</clus>
<clus scale="  219.991">  2  7  1 -1</clus>
<clus scale="  110.687">  2  5  1 -1</clus>
</clustering>
</event>
<event>
 9    1  0.2075077E-005  0.1064155E+03  0.7546771E-02  0.1268120E+00
          3   -1    0    0  502    0  0.00000000000E+00  0.00000000000E+00  0.37726470961E+02  0.37726470961E+02  0.00000000000E+00 0. -1.
         -3   -1    0    0    0  501 -0.00000000000E+00 -0.00000000000E+00 -0.40346141308E+03  0.40346141308E+03  0.00000000000E+00 0.  1.
         23    2    1    2    0    0  0.39375074858E+02 -0.41011620230E+01 -0.19134550782E+03  0.21593406134E+03  0.91908647208E+02 0.  0.
         23    2    1    2    0    0 -0.60209650267E+02  0.18563246440E+02 -0.10767755107E+03  0.15388361336E+03  0.90088375235E+02 0.  0.
        -11    1    4    4    0    0 -0.24600188459E+02 -0.28479991371E+01 -0.10952682133E+03  0.11229160682E+03  0.00000000000E+00 0.  1.
         11    1    4    4    0    0 -0.35609461808E+02  0.21411245577E+02  0.18492702632E+01  0.41592006539E+02  0.00000000000E+00 0. -1.
        -13    1    3    3    0    0  0.57691956315E+01  0.19163421782E+02  0.26291533472E+00  0.20014731502E+02  0.00000000000E+00 0. -1.
         13    1    3    3    0    0  0.33605879227E+02 -0.23264583805E+02 -0.19160842316E+03  0.19591932984E+03  0.00000000000E+00 0.  1.
         21    1    1    2  502  501  0.20834575409E+02 -0.14462084417E+02 -0.66711883231E+02  0.71370209348E+02  0.00000000000E+00 0. -1.
<scales pt_clust_5="13000.00000" pt_clust_6="13000.00000" pt_clust_7="13000.00000" pt_clust_8="13000.00000" pt_clust_9="25.36201"></scales>
<clustering>
<clus scale="   25.362">  2  9  1 -1</clus>
<clus scale="   90.088">  5  6 -1 -1</clus>
<clus scale="   91.909">  7  8 -1 -1</clus>
<clus scale="  104.847">  1  5  2 -1</clus>
<clus scale="  104.847">  1  5  2 -1</clus>
</clustering>
</event>
<event>
 9    1  0.2075077E-005  0.1002768E+03  0.7546771E-02  0.1280378E+00
          3   -1    0    0  502    0  0.00000000000E+00  0.00000000000E+00  0.63574052537E+03  0.63574052537E+03  0.00000000000E+00 0. -1.
         -3   -1    0    0    0  501 -0.00000000000E+00 -0.00000000000E+00 -0.30297004920E+02  0.30297004920E+02  0.00000000000E+00 0.  1.
         23    2    1    2    0    0  0.26773454829E+02  0.14464267748E+02  0.13285882994E+03  0.16251600194E+03  0.88509599866E+02 0.  0.
         23    2    1    2    0    0 -0.55440551875E+02 -0.32960948662E+02  0.19797778538E+03  0.22680347328E+03  0.89914031490E+02 0.  0.
        -11    1    3    3    0    0  0.26618473743E+02 -0.23136981653E+02  0.14161821333E+02  0.38005529175E+02  0.00000000000E+00 0.  1.
         11    1    3    3    0    0  0.15498108597E+00  0.37601249401E+02  0.11869700861E+03  0.12451047277E+03  0.00000000000E+00 0. -1.
        -11    1    4    4    0    0 -0.40418999847E+02 -0.55422935663E+02  0.78230723804E+02  0.10404539150E+03  0.00000000000E+00 0.  1.
         11    1    4    4    0    0 -0.15021552028E+02  0.22461987001E+02  0.11974706158E+03  0.12275808178E+03  0.00000000000E+00 0. -1.
         21    1    1    2  502  501  0.28667097046E+02  0.18496680914E+02  0.27460690513E+03  0.27671805507E+03  0.00000000000E+00 0.  1.
<scales pt_clust_5="13000.00000" pt_clust_6="13000.00000" pt_clust_7="13000.00000" pt_clust_8="13000.00000" pt_clust_9="34.11641"></scales>
<clustering>
<clus scale="   34.116">  1  9  2 -1</clus>
<clus scale="   88.510">  5  6 -1 -1</clus>
<clus scale="   89.914">  7  8 -1 -1</clus>
<clus scale="   99.019">  2  5  1 -1</clus>
<clus scale="   34.116">  1  5  2 -1</clus>
</clustering>
</event>
<event>
 9    1  0.2075077E-005  0.2060437E+03  0.7546771E-02  0.1144839E+00
          1   -1    0    0  502    0  0.00000000000E+00  0.00000000000E+00  0.33841941440E+03  0.33841941440E+03  0.00000000000E+00 0. -1.
         -1   -1    0    0    0  501 -0.00000000000E+00 -0.00000000000E+00 -0.19212656260E+03  0.19212656260E+03  0.00000000000E+00 0.  1.
         23    2    1    2    0    0 -0.16788472903E+03  0.10204004965E+03 -0.56638225113E+02  0.22351070955E+03  0.90286736369E+02 0.  0.
         23    2    1    2    0    0  0.14636409606E+03 -0.59199500814E+02  0.15856808338E+03  0.24171662184E+03  0.91411480091E+02 0.  0.
        -11    1    4    4    0    0  0.60560221044E+01 -0.19912707773E+02  0.65735472121E+02  0.68951748561E+02  0.00000000000E+00 0. -1.
         11    1    4    4    0    0  0.14030807395E+03 -0.39286793040E+02  0.92832611261E+02  0.17276487328E+03  0.00000000000E+00 0.  1.
        -11    1    3    3    0    0 -0.59714460985E+02 -0.83550582857E+01 -0.47784616329E+01  0.60485184510E+02  0.00000000000E+00 0. -1.
         11    1    3    3    0    0 -0.10817026805E+03  0.11039510794E+03 -0.51859763480E+02  0.16302552504E+03  0.00000000000E+00 0.  1.
         21    1    1    2  502  501  0.21520632975E+02 -0.42840548840E+02  0.44362993534E+02  0.65318645606E+02  0.00000000000E+00 0.  1.
<scales pt_clust_5="13000.00000" pt_clust_6="13000.00000" pt_clust_7="13000.00000" pt_clust_8="13000.00000" pt_clust_9="47.94216"></scales>
<clustering>
<clus scale="   47.942">  1  9  2 -1</clus>
<clus scale="   90.287">  7  8 -1 -1</clus>
<clus scale="   91.411">  5  6 -1 -1</clus>
<clus scale="  205.547">  2  7  1 -1</clus>
<clus scale="   47.942">  1  5  2 -1</clus>
</clustering>
</event>
<event>
 9    1  0.2075077E-005  0.1472129E+03  0.7546771E-02  0.1204823E+00
         -2   -1    0    0    0  501 -0.00000000000E+00  0.00000000000E+00  0.33440988033E+02  0.33440988033E+02  0.00000000000E+00 0.  1.
          2   -1    0    0  502    0  0.00000000000E+00 -0.00000000000E+00 -0.79006947327E+03  0.79006947327E+03  0.00000000000E+00 0. -1.
         23    2    1    2    0    0 -0.10280929914E+03  0.69979409512E+02 -0.26211438710E+03  0.30422223694E+03  0.91544239476E+02 0.  0.
         23    2    1    2    0    0  0.86408009913E+02 -0.52322512405E+02 -0.43824550422E+03  0.45807610983E+03  0.87009257824E+02 0.  0.
        -11    1    3    3    0    0 -0.64192552420E+02  0.89458079042E+02 -0.17130703098E+03  0.20364068983E+03  0.00000000000E+00 0.  1.
         11    1    3    3    0    0 -0.38616746717E+02 -0.19478669531E+02 -0.90807356123E+02  0.10058154711E+03  0.00000000000E+00 0. -1.
        -13    1    4    4    0    0 -0.73157896109E+01 -0.36339839561E+02 -0.15195053487E+03  0.15640674463E+03  0.00000000000E+00 0.  1.
         13    1    4    4    0    0  0.93723799524E+02 -0.15982672844E+02 -0.28629496935E+03  0.30166936520E+03  0.00000000000E+00 0. -1.
         21    1    1    2  502  501  0.16401289224E+02 -0.17656897107E+02 -0.56268593915E+02  0.61212114527E+02  0.00000000000E+00 0. -1.
<scales pt_clust_5="13000.00000" pt_clust_6="13000.00000" pt_clust_7="13000.00000" pt_clust_8="13000.00000" pt_clust_9="24.09913"></scales>
<clustering>
<clus scale="   24.099">  2  9  1 -1</clus>
<clus scale="   87.009">  7  8 -1 -1</clus>
<clus scale="   91.544">  5  6 -1 -1</clus>
<clus scale="  144.437">  2  7  1 -1</clus>
<clus scale="   24.099">  2  5  1 -1</clus>
</clustering>
</event>
<event>
 9    1  0.2075077E-005  0.1239022E+03  0.7546771E-02  0.1237155E+00
          1   -1    0    0  502    0  0.00000000000E+00  0.00000000000E+00  0.67054219357E+02  0.67054219357E+02  0.00000000000E+00 0. -1.
         -1   -1    0    0    0  501 -0.00000000000E+00 -0.00000000000E+00 -0.36670813246E+03  0.36670813246E+03  0.00000000000E+00 0.  1.
         23    2    1    2    0    0  0.11120381035E+02  0.73123180175E+02 -0.19417297644E+03  0.22666013792E+03  0.90559433445E+02 0.  0.
         23    2    1    2    0    0 -0.30038894591E+02 -0.98562339077E+02 -0.10809994645E+03  0.17529152115E+03  0.91785887212E+02 0.  0.
        -11    1    4    4    0    0  0.23429806960E+02  0.15646055057E+01 -0.11060570661E+02  0.25956503384E+02  0.00000000000E+00 0.  1.
         11    1    4    4    0    0 -0.53468701551E+02 -0.10012694458E+03 -0.97039375792E+02  0.14933501777E+03  0.00000000000E+00 0. -1.
        -13    1    3    3    0    0 -0.36461544473E+02  0.43474747236E+02 -0.12745568307E+03  0.13951504944E+03  0.00000000000E+00 0.  1.
         13    1    3    3    0    0  0.47581925508E+02  0.29648432939E+02 -0.66717293370E+02  0.87145088475E+02  0.00000000000E+00 0. -1.
         21    1    1    2  502  501  0.18918513556E+02  0.25439158902E+02  0.26190097973E+01  0.31810692748E+02  0.00000000000E+00 0. -1.
<scales pt_clust_5="13000.00000" pt_clust_6="13000.00000" pt_clust_7="13000.00000" pt_clust_8="13000.00000" pt_clust_9="31.70270"></scales>
<clustering>
<clus scale="   31.703">  1  9  2 -1</clus>
<clus scale="   90.559">  7  8 -1 -1</clus>
<clus scale="   91.786">  5  6 -1 -1</clus>
<clus scale="  122.996">  2  7  1 -1</clus>
<clus scale="   31.703">  1  5  2 -1</clus>
</clustering>
</event>
<event>
 9    1  0.2075077E-005  0.9996811E+02  0.7546771E-02  0.1280944E+00
         -2   -1    0    0    0  501 -0.00000000000E+00  0.00000000000E+00  0.13633191612E+03  0.13633191612E+03  0.00000000000E+00 0.  1.
          2   -1    0    0  502    0  0.00000000000E+00 -0.00000000000E+00 -0.52086180281E+03  0.52086180281E+03  0.00000000000E+00 0. -1.
         23    2    1    2    0    0  0.39963246325E+02  0.21212079453E+02  0.10699190737E+03  0.14562566674E+03  0.87821143229E+02 0.  0.
         23    2    1    2    0    0 -0.28547777705E+02 -0.50349328488E+02 -0.42472926362E+03  0.43780807436E+03  0.89055780888E+02 0.  0.
        -13    1    4    4    0    0  0.32414234207E+02 -0.14703276817E+02 -0.14247006528E+03  0.14684886254E+03  0.00000000000E+00 0.  1.
         13    1    4    4    0    0 -0.60962011912E+02 -0.35646051671E+02 -0.28225919834E+03  0.29095921182E+03  0.00000000000E+00 0. -1.
        -13    1    3    3    0    0 -0.15308861589E+02 -0.19109891933E+02  0.89461117836E+01  0.26068796076E+02  0.00000000000E+00 0. -1.
         13    1    3    3    0    0  0.55272107914E+02  0.40321971386E+02  0.98045795590E+02  0.11955687066E+03  0.00000000000E+00 0.  1.
         21    1    1    2  502  501 -0.11415468620E+02  0.29137249035E+02 -0.66792530446E+02  0.73759977823E+02  0.00000000000E+00 0. -1.
<scales pt_clust_5="13000.00000" pt_clust_6="13000.00000" pt_clust_7="13000.00000" pt_clust_8="13000.00000" pt_clust_9="31.29364"></scales>
<clustering>
<clus scale="   31.294">  2  9  1 -1</clus>
<clus scale="   87.821">  7  8 -1 -1</clus>
<clus scale="   89.056">  5  6 -1 -1</clus>
<clus scale="   98.870">  1  7  2 -1</clus>
<clus scale="   31.294">  2  5  1 -1</clus>
</clustering>
</event>
<event>
 9    1  0.2075077E-005  0.9708262E+02  0.7546771E-02  0.1287494E+00
         -2   -1    0    0    0  501 -0.00000000000E+00  0.00000000000E+00  0.14796956325E+03  0.14796956325E+03  0.00000000000E+00 0.  1.
          2   -1    0    0  502    0  0.00000000000E+00 -0.00000000000E+00 -0.10886297197E+03  0.10886297197E+03  0.00000000000E+00 0. -1.
         23    2    1    2    0    0  0.42208113350E+02  0.53102646199E+00  0.52845303530E+02  0.11488431708E+03  0.92865350823E+02 0.  0.
         23    2    1    2    0    0 -0.11385557031E+02  0.82261263565E+01  0.21173652458E+02  0.94560551885E+02  0.91082788444E+02 0.  0.
        -11    1    4    4    0    0 -0.16608312116E+02 -0.12527561406E+02  0.52585743265E+02  0.56551182312E+02  0.00000000000E+00 0.  1.
         11    1    4    4    0    0  0.52227550859E+01  0.20753687762E+02 -0.31412090807E+02  0.38009369573E+02  0.00000000000E+00 0. -1.
        -13    1    3    3    0    0  0.67524834134E+02 -0.47728069600E+01  0.15482060123E+02  0.69441177242E+02  0.00000000000E+00 0.  1.
         13    1    3    3    0    0 -0.25316720784E+02  0.53038334220E+01  0.37363243407E+02  0.45443139835E+02  0.00000000000E+00 0. -1.
         21    1    1    2  502  501 -0.30822556320E+02 -0.87571528185E+01 -0.34912364707E+02  0.47387666254E+02  0.00000000000E+00 0. -1.
<scales pt_clust_5="13000.00000" pt_clust_6="13000.00000" pt_clust_7="13000.00000" pt_clust_8="13000.00000" pt_clust_9="32.04244"></scales>
<clustering>
<clus scale="   32.042">  2  9  1 -1</clus>
<clus scale="   91.083">  5  6 -1 -1</clus>
<clus scale="   92.865">  7  8 -1 -1</clus>
<clus scale="   95.379">  2  5  1 -1</clus>
<clus scale="   32.042">  2  5  1 -1</clus>
</clustering>
</event>
<event>
 9    1  0.2075077E-005  0.1398579E+03  0.7546771E-02  0.1214018E+00
         -2   -1    0    0    0  501 -0.00000000000E+00  0.00000000000E+00  0.55372529487E+03  0.55372529487E+03  0.00000000000E+00 0.  1.
          2   -1    0    0  502    0  0.00000000000E+00 -0.00000000000E+00 -0.91994552677E+02  0.91994552677E+02  0.00000000000E+00 0. -1.
         23    2    1    2    0    0  0.10450485220E+03 -0.17267798429E+02  0.45057337727E+03  0.47130306613E+03  0.88830010922E+02 0.  0.
         23    2    1    2    0    0 -0.11023021067E+03 -0.12221092960E+02  0.14191247971E+02  0.14422441663E+03  0.91100144775E+02 0.  0.
        -11    1    3    3    0    0  0.64111961068E+02  0.32633134642E+02  0.19685251727E+03  0.20958573087E+03  0.00000000000E+00 0. -1.
         11    1    3    3    0    0  0.40392891135E+02 -0.49900933071E+02  0.25372086001E+03  0.26171733526E+03  0.00000000000E+00 0.  1.
        -11    1    4    4    0    0 -0.37568525637E+02  0.20552937764E+02 -0.30747544004E+02  0.52718391777E+02  0.00000000000E+00 0. -1.
         11    1    4    4    0    0 -0.72661685030E+02 -0.32774030724E+02  0.44938791974E+02  0.91506024858E+02  0.00000000000E+00 0.  1.
         21    1    1    2  502  501  0.57253584634E+01  0.29488891389E+02 -0.30338830491E+01  0.30192364784E+02  0.00000000000E+00 0.  1.
<scales pt_clust_5="13000.00000" pt_clust_6="13000.00000" pt_clust_7="13000.00000" pt_clust_8="13000.00000" pt_clust_9="30.03955"></scales>
<clustering>
<clus scale="   30.040">  2  9  1 -1</clus>
<clus scale="   88.830">  5  6 -1 -1</clus>
<clus scale="   91.100">  7  8 -1 -1</clus>
<clus scale="  138.390">  1  5  2 -1</clus>
<clus scale="   30.040">  2  5  1 -1</clus>
</clustering>
</event>
<event>
 9    1  0.2075077E-005  0.9469055E+02  0.7546771E-02  0.1294424E+00
         -1   -1    0    0    0  501 -0.00000000000E+00  0.00000000000E+00  0.10875227716E+02  0.10875227716E+02  0.00000000000E+00 0.  1.
          1   -1    0    0  502    0  0.00000000000E+00 -0.00000000000E+00 -0.10624522816E+04  0.10624522816E+04  0.00000000000E+00 0. -1.
         23    2    1    2    0    0 -0.30472198258E+02  0.50658660174E+00 -0.37386067594E+03  0.38631627285E+03  0.92410205917E+02 0.  0.
         23    2    1    2    0    0  0.69789550983E+01  0.51500952493E+01 -0.51795025602E+03  0.52542799402E+03  0.87902672864E+02 0.  0.
        -11    1    4    4    0    0  0.47495159753E+02  0.54935706148E+01 -0.28070145965E+03  0.28474423430E+03  0.00000000000E+00 0.  1.
         11    1    4    4    0    0 -0.40516204655E+02 -0.34347536547E+00 -0.23724879637E+03  0.24068375972E+03  0.00000000000E+00 0. -1.
        -11    1    3    3    0    0 -0.30434395801E+01 -0.42750643889E+02 -0.22054792186E+03  0.22467368763E+03  0.00000000000E+00 0. -1.
         11    1    3    3    0    0 -0.27428758678E+02  0.43257230490E+02 -0.15331275408E+03  0.16164258522E+03  0.00000000000E+00 0.  1.
         21    1    1    2  502  501  0.23493243160E+02 -0.56566818511E+01 -0.15976612188E+03  0.16158324240E+03  0.00000000000E+00 0. -1.
<scales pt_clust_5="13000.00000" pt_clust_6="13000.00000" pt_clust_7="13000.00000" pt_clust_8="13000.00000" pt_clust_9="24.16465"></scales>
<clustering>
<clus scale="   24.165">  2  9  1 -1</clus>
<clus scale="   87.903">  5  6 -1 -1</clus>
<clus scale="   90.297">  2  5  1 -1</clus>
<clus scale="   92.410">  7  8 -1 -1</clus>
<clus scale="   24.165">  2  5  1 -1</clus>
</clustering>
</event>
<event>
 9    1  0.2075077E-005  0.1020289E+03  0.7546771E-02  0.1279961E+00
          1   -1    0    0  502    0  0.00000000000E+00  0.00000000000E+00  0.26983554847E+03  0.26983554847E+03  0.00000000000E+00 0. -1.
         -1   -1    0    0    0  501 -0.00000000000E+00 -0.00000000000E+00 -0.59485737306E+02  0.59485737306E+02  0.00000000000E+00 0.  1.
         23    2    1    2    0    0 -0.36886326913E+02 -0.12787553827E+02  0.38625008441E+02  0.11119430067E+03  0.96685875798E+02 0.  0.
         23    2    1    2    0    0  0.26421456052E+02 -0.14173685647E+02  0.84798474755E+02  0.12651580429E+03  0.88974607106E+02 0.  0.
        -11    1    4    4    0    0 -0.20881109523E+02 -0.27971614001E+02  0.88954218090E+01  0.36021666451E+02  0.00000000000E+00 0.  1.
         11    1    4    4    0    0  0.47302565574E+02  0.13797928353E+02  0.75903052946E+02  0.90494137840E+02  0.00000000000E+00 0. -1.
        -11    1    3    3    0    0 -0.52779772626E+02  0.16041519069E+02 -0.62746107470E+01  0.55519415275E+02  0.00000000000E+00 0.  1.
         11    1    3    3    0    0  0.15893445713E+02 -0.28829072896E+02  0.44899619188E+02  0.55674885396E+02  0.00000000000E+00 0. -1.
         21    1    1    2  502  501  0.10464870861E+02  0.26961239474E+02  0.86926327965E+02  0.91611180811E+02  0.00000000000E+00 0. -1.
<scales pt_clust_5="13000.00000" pt_clust_6="13000.00000" pt_clust_7="13000.00000" pt_clust_8="13000.00000" pt_clust_9="28.92096"></scales>
<clustering>
<clus scale="   28.921">  1  9  2 -1</clus>
<clus scale="   88.975">  5  6 -1 -1</clus>
<clus scale="   94.753">  1  5  2 -1</clus>
<clus scale="   96.686">  7  8 -1 -1</clus>
<clus scale="   28.921">  1  5  2 -1</clus>
</clustering>
</event>
<event>
 9    1  0.2075077E-005  0.9336356E+02  0.7546771E-02  0.1301833E+00
          1   -1    0    0  502    0  0.00000000000E+00  0.00000000000E+00  0.25988168833E+02  0.25988168833E+02  0.00000000000E+00 0. -1.
         -1   -1    0    0    0  501 -0.00000000000E+00 -0.00000000000E+00 -0.39977094553E+03  0.39977094553E+03  0.00000000000E+00 0.  1.
         23    2    1    2    0    0  0.10627414554E+02  0.21548745958E+02 -0.21328773517E+03  0.23247498931E+03  0.89306619513E+02 0.  0.
         23    2    1    2    0    0 -0.32098308536E+02 -0.14821957476E+02 -0.12846846962E+03  0.15414398862E+03  0.77499869079E+02 0.  0.
        -11    1    4    4    0    0 -0.54577756903E+02 -0.25405069548E+02 -0.86883957158E+02  0.10570227584E+03  0.00000000000E+00 0. -1.
         11    1    4    4    0    0  0.22479448367E+02  0.10583112073E+02 -0.41584512461E+02  0.48441712776E+02  0.00000000000E+00 0.  1.
        -13    1    3    3    0    0  0.30870732464E+02 -0.23949329398E+02 -0.12671098647E+03  0.13259806407E+03  0.00000000000E+00 0. -1.
         13    1    3    3    0    0 -0.20243317910E+02  0.45498075356E+02 -0.86576748693E+02  0.99876925240E+02  0.00000000000E+00 0.  1.
         21    1    1    2  502  501  0.21470893983E+02 -0.67267884824E+01 -0.32026571908E+02  0.39140136431E+02  0.00000000000E+00 0. -1.
<scales pt_clust_5="13000.00000" pt_clust_6="13000.00000" pt_clust_7="13000.00000" pt_clust_8="13000.00000" pt_clust_9="22.49998"></scales>
<clustering>
<clus scale="   22.500">  1  9  2 -1</clus>
<clus scale="   77.500">  5  6 -1 -1</clus>
<clus scale="   82.142">  1  5  2 -1</clus>
<clus scale="   89.307">  7  8 -1 -1</clus>
<clus scale="   22.500">  1  5  2 -1</clus>
</clustering>
</event>
<event>
 9    1  0.2075077E-005  0.1354467E+03  0.7546771E-02  0.1226756E+00
         -3   -1    0    0    0  501 -0.00000000000E+00  0.00000000000E+00  0.17899408648E+03  0.17899408648E+03  0.00000000000E+00 0.  1.
          3   -1    0    0  502    0  0.00000000000E+00 -0.00000000000E+00 -0.23459559879E+03  0.23459559879E+03  0.00000000000E+00 0. -1.
         23    2    1    2    0    0  0.40869561565E+02  0.82263365402E+02  0.75484515527E+02  0.16521668275E+03  0.11472165368E+03 0.  0.
         23    2    1    2    0    0  0.38333034895E+02 -0.30324259181E+02 -0.10999753242E+03  0.15133977790E+03  0.91734884191E+02 0.  0.
        -11    1    4    4    0    0 -0.10894693782E+01 -0.45046621825E+02 -0.15087176610E+02  0.47518501444E+02  0.00000000000E+00 0.  1.
         11    1    4    4    0    0  0.39422504274E+02  0.14722362645E+02 -0.94910355815E+02  0.10382127646E+03  0.00000000000E+00 0. -1.
        -13    1    3    3    0    0 -0.13778750670E+02  0.57677355482E+02  0.85913377867E+02  0.10439176118E+03  0.00000000000E+00 0.  1.
         13    1    3    3    0    0  0.54648312235E+02  0.24586009920E+02 -0.10428862340E+02  0.60824921567E+02  0.00000000000E+00 0. -1.
         21    1    1    2  502  501 -0.79202596460E+02 -0.51939106221E+02 -0.21088495414E+02  0.97033224619E+02  0.00000000000E+00 0.  1.
<scales pt_clust_5="13000.00000" pt_clust_6="13000.00000" pt_clust_7="13000.00000" pt_clust_8="13000.00000" pt_clust_9="94.71390"></scales>
<clustering>
<clus scale="   91.735">  5  6 -1 -1</clus>
<clus scale="   94.714">  2  9  1 -1</clus>
<clus scale="  114.722">  7  8 -1 -1</clus>
<clus scale="  116.619">  2  5  1 -1</clus>
<clus scale="   94.714">  2  5  1 -1</clus>
</clustering>
</event>
<event>
 9    1  0.2075077E-005  0.2849996E+03  0.7546771E-02  0.1093186E+00
          2   -1    0    0  502    0  0.00000000000E+00  0.00000000000E+00  0.91683678293E+03  0.91683678293E+03  0.00000000000E+00 0. -1.
         -2   -1    0    0    0  501 -0.00000000000E+00 -0.00000000000E+00 -0.12031989368E+03  0.12031989368E+03  0.00000000000E+00 0.  1.
         23    2    1    2    0    0 -0.22524209218E+03 -0.19198582779E+03  0.22794491755E+03  0.38583121532E+03  0.96510533701E+02 0.  0.
         23    2    1    2    0    0  0.18460836827E+03  0.13076871377E+03  0.43779634839E+03  0.50132246725E+03  0.92075335289E+02 0.  0.
        -11    1    3    3    0    0 -0.26519841077E+02 -0.68557475972E+02  0.30021924861E+02  0.79402427260E+02  0.00000000000E+00 0.  1.
         11    1    3    3    0    0 -0.19872225111E+03 -0.12342835182E+03  0.19792299269E+03  0.30642878806E+03  0.00000000000E+00 0. -1.
        -13    1    4    4    0    0  0.77672728712E+02  0.88145115487E+01  0.10299425148E+03  0.12930028707E+03  0.00000000000E+00 0. -1.
         13    1    4    4    0    0  0.10693563956E+03  0.12195420223E+03  0.33480209690E+03  0.37202218017E+03  0.00000000000E+00 0.  1.
         21    1    1    2  502  501  0.40633723914E+02  0.61217114018E+02  0.13077562332E+03  0.15000299404E+03  0.00000000000E+00 0.  1.
<scales pt_clust_5="13000.00000" pt_clust_6="13000.00000" pt_clust_7="13000.00000" pt_clust_8="13000.00000" pt_clust_9="73.47540"></scales>
<clustering>
<clus scale="   73.475">  1  9  2 -1</clus>
<clus scale="   92.075">  7  8 -1 -1</clus>
<clus scale="   96.511">  5  6 -1 -1</clus>
<clus scale="  283.528">  1  7  2 -1</clus>
<clus scale="   73.475">  1  5  2 -1</clus>
</clustering>
</event>
<event>
 9    1  0.2075077E-005  0.1444376E+03  0.7546771E-02  0.1218532E+00
          1   -1    0    0  502    0  0.00000000000E+00  0.00000000000E+00  0.22583278454E+03  0.22583278454E+03  0.00000000000E+00 0. -1.
         -1   -1    0    0    0  501 -0.00000000000E+00 -0.00000000000E+00 -0.10574891404E+03  0.10574891404E+03  0.00000000000E+00 0.  1.
         23    2    1    2    0    0 -0.47150805452E+02 -0.52621470706E+02  0.62568129983E+01  0.14614261865E+03  0.12777440918E+03 0.  0.
         23    2    1    2    0    0  0.60642270102E+02  0.26924619350E+02  0.71947418815E+02  0.13448565095E+03  0.92236322500E+02 0.  0.
        -11    1    4    4    0    0  0.36839144509E+01  0.32104115538E+02  0.70182944197E+02  0.77265070480E+02  0.00000000000E+00 0. -1.
         11    1    4    4    0    0  0.56958355651E+02 -0.51794961875E+01  0.17644746188E+01  0.57220580475E+02  0.00000000000E+00 0.  1.
        -13    1    3    3    0    0 -0.65514903060E+02 -0.63198151678E+02 -0.36774286726E+02  0.98176153228E+02  0.00000000000E+00 0.  1.
         13    1    3    3    0    0  0.18364097607E+02  0.10576680972E+02  0.43031099724E+02  0.47966465419E+02  0.00000000000E+00 0. -1.
         21    1    1    2  502  501 -0.13491464650E+02  0.25696851356E+02  0.41879638691E+02  0.50953428981E+02  0.00000000000E+00 0. -1.
<scales pt_clust_5="13000.00000" pt_clust_6="13000.00000" pt_clust_7="13000.00000" pt_clust_8="13000.00000" pt_clust_9="29.02323"></scales>
<clustering>
<clus scale="   29.023">  1  9  2 -1</clus>
<clus scale="   92.236">  5  6 -1 -1</clus>
<clus scale="  114.208">  1  5  2 -1</clus>
<clus scale="  127.774">  7  8 -1 -1</clus>
<clus scale="   29.023">  1  5  2 -1</clus>
</clustering>
</event>
<event>
 9    1  0.2075077E-005  0.2126440E+03  0.7546771E-02  0.1139643E+00
          2   -1    0    0  502    0  0.00000000000E+00  0.00000000000E+00  0.72980187173E+03  0.72980187173E+03  0.00000000000E+00 0. -1.
         -2   -1    0    0    0  501 -0.00000000000E+00 -0.00000000000E+00 -0.10273047846E+03  0.10273047846E+03  0.00000000000E+00 0.  1.
         23    2    1    2    0    0  0.11616618649E+03 -0.13614850964E+03  0.10877286388E+03  0.22903192685E+03  0.92698910679E+02 0.  0.
         23    2    1    2    0    0 -0.14689633678E+03  0.15452171022E+03  0.28867177515E+03  0.37109912623E+03  0.94486374859E+02 0.  0.
        -11    1    4    4    0    0 -0.26092837201E+02  0.94976085480E+02  0.11925078247E+03  0.15466752111E+03  0.00000000000E+00 0.  1.
         11    1    4    4    0    0 -0.12080349958E+03  0.59545624741E+02  0.16942099268E+03  0.21643160512E+03  0.00000000000E+00 0. -1.
        -13    1    3    3    0    0  0.42751971576E+02 -0.10236462947E+03  0.97006564223E+02  0.14736526708E+03  0.00000000000E+00 0. -1.
         13    1    3    3    0    0  0.73414214912E+02 -0.33783880168E+02  0.11766299660E+02  0.81666659770E+02  0.00000000000E+00 0.  1.
         21    1    1    2  502  501  0.30730150289E+02 -0.18373200586E+02  0.22962675424E+03  0.23240129711E+03  0.00000000000E+00 0. -1.
<scales pt_clust_5="13000.00000" pt_clust_6="13000.00000" pt_clust_7="13000.00000" pt_clust_8="13000.00000" pt_clust_9="35.80386"></scales>
<clustering>
<clus scale="   35.804">  1  9  2 -1</clus>
<clus scale="   92.699">  7  8 -1 -1</clus>
<clus scale="   94.486">  5  6 -1 -1</clus>
<clus scale="  211.856">  2  7  1 -1</clus>
<clus scale="   35.804">  1  5  2 -1</clus>
</clustering>
</event>
<event>
 9    1  0.2075077E-005  0.1632967E+03  0.7546771E-02  0.1185063E+00
         -1   -1    0    0    0  501 -0.00000000000E+00  0.00000000000E+00  0.12573039785E+03  0.12573039785E+03  0.00000000000E+00 0.  1.
          1   -1    0    0  502    0  0.00000000000E+00 -0.00000000000E+00 -0.33857884505E+03  0.33857884505E+03  0.00000000000E+00 0. -1.
         23    2    1    2    0    0 -0.43886785737E+02  0.11498933690E+03 -0.82905080756E+01  0.15333702211E+03  0.91076408928E+02 0.  0.
         23    2    1    2    0    0  0.56339396484E+02 -0.15699277715E+03 -0.15807841238E+03  0.24709966868E+03  0.90821815255E+02 0.  0.
        -11    1    4    4    0    0  0.74571484728E+02 -0.10770593994E+03 -0.81704335550E+02  0.15439259788E+03  0.00000000000E+00 0. -1.
         11    1    4    4    0    0 -0.18232088244E+02 -0.49286837208E+02 -0.76374076827E+02  0.92707070792E+02  0.00000000000E+00 0.  1.
        -11    1    3    3    0    0 -0.30435453932E+02  0.20384128752E+02  0.32941354372E+02  0.49264210020E+02  0.00000000000E+00 0.  1.
         11    1    3    3    0    0 -0.13451331806E+02  0.94605208149E+02 -0.41231862448E+02  0.10407281209E+03  0.00000000000E+00 0. -1.
         21    1    1    2  502  501 -0.12452610747E+02  0.42003440251E+02 -0.46479526747E+02  0.63872552117E+02  0.00000000000E+00 0.  1.
<scales pt_clust_5="13000.00000" pt_clust_6="13000.00000" pt_clust_7="13000.00000" pt_clust_8="13000.00000" pt_clust_9="43.81046"></scales>
<clustering>
<clus scale="   43.810">  2  9  1 -1</clus>
<clus scale="   90.822">  5  6 -1 -1</clus>
<clus scale="   91.076">  7  8 -1 -1</clus>
<clus scale="  163.155">  2  5  1 -1</clus>
<clus scale="   43.810">  2  5  1 -1</clus>
</clustering>
</event>
<event>
 9    1  0.2075077E-005  0.9372460E+02  0.7546771E-02  0.1298408E+00
          3   -1    0    0  502    0  0.00000000000E+00  0.00000000000E+00  0.13232277275E+03  0.13232277275E+03  0.00000000000E+00 0. -1.
         -3   -1    0    0    0  501 -0.00000000000E+00 -0.00000000000E+00 -0.93797890672E+02  0.93797890672E+02  0.00000000000E+00 0.  1.
         23    2    1    2    0    0 -0.46948398713E+01 -0.14035966794E+02 -0.65196489504E+01  0.87715384532E+02  0.86211559410E+02 0.  0.
         23    2    1    2    0    0  0.13288998907E+01 -0.20049589866E+02  0.40590635459E+02  0.10386556391E+03  0.93470335676E+02 0.  0.
        -13    1    3    3    0    0  0.13002920396E+01 -0.48042650010E+02 -0.18008202154E+02  0.51323311704E+02  0.00000000000E+00 0.  1.
         13    1    3    3    0    0 -0.59951319109E+01  0.34006683216E+02  0.11488553204E+02  0.36392072828E+02  0.00000000000E+00 0. -1.
        -13    1    4    4    0    0 -0.32366667421E+02 -0.86121220944E+01  0.55869991434E+02  0.65140047204E+02  0.00000000000E+00 0.  1.
         13    1    4    4    0    0  0.33695567311E+02 -0.11437467772E+02 -0.15279355975E+02  0.38725516710E+02  0.00000000000E+00 0. -1.
         21    1    1    2  502  501  0.33659399806E+01  0.34085556660E+02  0.44538955670E+01  0.34539714975E+02  0.00000000000E+00 0. -1.
<scales pt_clust_5="13000.00000" pt_clust_6="13000.00000" pt_clust_7="13000.00000" pt_clust_8="13000.00000" pt_clust_9="34.25135"></scales>
<clustering>
<clus scale="   34.251">  2  9  1 -1</clus>
<clus scale="   86.212">  5  6 -1 -1</clus>
<clus scale="   86.487">  2  5  1 -1</clus>
<clus scale="   93.470">  7  8 -1 -1</clus>
<clus scale="   93.725">  1  5  2 -1</clus>
</clustering>
</event>
<event>
 9    1  0.2075077E-005  0.1194512E+03  0.7546771E-02  0.1244267E+00
         -2   -1    0    0    0  501 -0.00000000000E+00  0.00000000000E+00  0.55433496398E+03  0.55433496398E+03  0.00000000000E+00 0.  1.
          2   -1    0    0  502    0  0.00000000000E+00 -0.00000000000E+00 -0.48001147507E+02  0.48001147507E+02  0.00000000000E+00 0. -1.
         23    2    1    2    0    0  0.60451689388E+02  0.58187945095E+02  0.38522541542E+03  0.40467313381E+03  0.91222151048E+02 0.  0.
         23    2    1    2    0    0 -0.25330454011E+02 -0.56646506824E+02  0.11856260356E+03  0.16241587437E+03  0.92040027439E+02 0.  0.
        -13    1    3    3    0    0  0.56839590704E+02 -0.42537554173E+01  0.13093024233E+03  0.14279902612E+03  0.00000000000E+00 0. -1.
         13    1    3    3    0    0  0.36120986839E+01  0.62441700512E+02  0.25429517309E+03  0.26187410769E+03  0.00000000000E+00 0.  1.
        -13    1    4    4    0    0 -0.53512168133E+02 -0.14645444501E+02  0.37839311090E+02  0.67155451355E+02  0.00000000000E+00 0.  1.
         13    1    4    4    0    0  0.28181714123E+02 -0.42001062323E+02  0.80723292467E+02  0.95260423019E+02  0.00000000000E+00 0. -1.
         21    1    1    2  502  501 -0.35121235378E+02 -0.15414382705E+01  0.25457975027E+01  0.35247103304E+02  0.00000000000E+00 0.  1.
<scales pt_clust_5="13000.00000" pt_clust_6="13000.00000" pt_clust_7="13000.00000" pt_clust_8="13000.00000" pt_clust_9="35.15505"></scales>
<clustering>
<clus scale="   35.155">  2  9  1 -1</clus>
<clus scale="   91.222">  5  6 -1 -1</clus>
<clus scale="   92.040">  7  8 -1 -1</clus>
<clus scale="  118.822">  1  5  2 -1</clus>
<clus scale="   35.155">  2  5  1 -1</clus>
</clustering>
</event>
<event>
 9    1  0.2075077E-005  0.1381872E+03  0.7546771E-02  0.1216457E+00
         -1   -1    0    0    0  501 -0.00000000000E+00  0.00000000000E+00  0.46838381566E+02  0.46838381566E+02  0.00000000000E+00 0.  1.
          1   -1    0    0  502    0  0.00000000000E+00 -0.00000000000E+00 -0.66502562403E+03  0.66502562403E+03  0.00000000000E+00 0. -1.
         23    2    1    2    0    0  0.65058729636E+02 -0.67729723832E+02 -0.13704540397E+03  0.19035366201E+03  0.92914584956E+02 0.  0.
         23    2    1    2    0    0 -0.10884377743E+03  0.64689927150E+02 -0.40267149508E+03  0.43159946789E+03  0.90011183580E+02 0.  0.
        -11    1    3    3    0    0  0.27072999206E+02 -0.84678952324E+02 -0.78915320150E+02  0.11887430339E+03  0.00000000000E+00 0.  1.
         11    1    3    3    0    0  0.37985730430E+02  0.16949228492E+02 -0.58130083824E+02  0.71479358616E+02  0.00000000000E+00 0. -1.
        -13    1    4    4    0    0 -0.56058017998E+02 -0.13654258053E+02 -0.11241420827E+03  0.12635622013E+03  0.00000000000E+00 0.  1.
         13    1    4    4    0    0 -0.52785759436E+02  0.78344185203E+02 -0.29025728681E+03  0.30524324775E+03  0.00000000000E+00 0. -1.
         21    1    1    2  502  501  0.43785047798E+02  0.30397966824E+01 -0.78470343410E+02  0.89910875701E+02  0.00000000000E+00 0. -1.
<scales pt_clust_5="13000.00000" pt_clust_6="13000.00000" pt_clust_7="13000.00000" pt_clust_8="13000.00000" pt_clust_9="43.89044"></scales>
<clustering>
<clus scale="   43.890">  2  9  1 -1</clus>
<clus scale="   90.011">  7  8 -1 -1</clus>
<clus scale="   92.915">  5  6 -1 -1</clus>
<clus scale="  136.252">  2  7  1 -1</clus>
<clus scale="   43.890">  2  5  1 -1</clus>
</clustering>
</event>
<event>
 9    1  0.2075077E-005  0.9691924E+02  0.7546771E-02  0.1289149E+00
         -2   -1    0    0    0  501 -0.00000000000E+00  0.00000000000E+00  0.23218517518E+03  0.23218517518E+03  0.00000000000E+00 0.  1.
          2   -1    0    0  502    0  0.00000000000E+00 -0.00000000000E+00 -0.69421674672E+02  0.69421674672E+02  0.00000000000E+00 0. -1.
         23    2    1    2    0    0  0.81542904063E+01  0.30733464171E+02  0.12699198026E+03  0.15934471159E+03  0.90844569395E+02 0.  0.
         23    2    1    2    0    0 -0.90562092556E+01  0.92048509039E+01  0.35927182206E+02  0.10231333728E+03  0.94923718630E+02 0.  0.
        -11    1    3    3    0    0 -0.85009274638E+01  0.58717203685E+02  0.10311150801E+03  0.11896200595E+03  0.00000000000E+00 0.  1.
         11    1    3    3    0    0  0.16655217870E+02 -0.27983739514E+02  0.23880472252E+02  0.40382705635E+02  0.00000000000E+00 0. -1.
        -13    1    4    4    0    0 -0.15656998254E+01 -0.42299066428E+02  0.24911428456E+02  0.49114577310E+02  0.00000000000E+00 0. -1.
         13    1    4    4    0    0 -0.74905094302E+01  0.51503917332E+02  0.11015753751E+02  0.53198759974E+02  0.00000000000E+00 0.  1.
         21    1    1    2  502  501  0.90191884933E+00 -0.39938315075E+02 -0.15566196544E+00  0.39948800974E+02  0.00000000000E+00 0. -1.
<scales pt_clust_5="13000.00000" pt_clust_6="13000.00000" pt_clust_7="13000.00000" pt_clust_8="13000.00000" pt_clust_9="39.94850"></scales>
<clustering>
<clus scale="   39.948">  2  9  1 -1</clus>
<clus scale="   90.845">  5  6 -1 -1</clus>
<clus scale="   92.928">  1  5  2 -1</clus>
<clus scale="   94.924">  7  8 -1 -1</clus>
<clus scale="   39.948">  2  5  1 -1</clus>
</clustering>
</event>
<event>
 9    1  0.2075077E-005  0.1193914E+03  0.7546771E-02  0.1251052E+00
          1   -1    0    0  502    0  0.00000000000E+00  0.00000000000E+00  0.96919279447E+03  0.96919279447E+03  0.00000000000E+00 0. -1.
         -1   -1    0    0    0  501 -0.00000000000E+00 -0.00000000000E+00 -0.27267042792E+02  0.27267042792E+02  0.00000000000E+00 0.  1.
         23    2    1    2    0    0 -0.27661683704E+02  0.40510255158E+02  0.16956045789E+03  0.19052103924E+03  0.71702635888E+02 0.  0.
         23    2    1    2    0    0 -0.24288016490E+02 -0.10205136281E+03  0.59315947158E+03  0.60946791979E+03  0.92782531412E+02 0.  0.
        -11    1    3    3    0    0 -0.28088323607E+02 -0.14365581664E+02  0.71462009480E+02  0.78116212520E+02  0.00000000000E+00 0. -1.
         11    1    3    3    0    0  0.42663990257E+00  0.54875836822E+02  0.98098448412E+02  0.11240482672E+03  0.00000000000E+00 0.  1.
        -13    1    4    4    0    0 -0.27471280507E+02  0.89351315807E+01  0.13326088740E+03  0.13635604842E+03  0.00000000000E+00 0.  1.
         13    1    4    4    0    0  0.31832640164E+01 -0.11098649439E+03  0.45989858418E+03  0.47311187137E+03  0.00000000000E+00 0. -1.
         21    1    1    2  502  501  0.51949700194E+02  0.61541107651E+02  0.17920582221E+03  0.19647087824E+03  0.00000000000E+00 0. -1.
<scales pt_clust_5="13000.00000" pt_clust_6="13000.00000" pt_clust_7="13000.00000" pt_clust_8="13000.00000" pt_clust_9="80.53620"></scales>
<clustering>
<clus scale="   71.703">  5  6 -1 -1</clus>
<clus scale="   80.536">  2  9  1 -1</clus>
<clus scale="   92.783">  7  8 -1 -1</clus>
<clus scale="  103.860">  2  5  1 -1</clus>
<clus scale="  119.391">  1  5  2 -1</clus>
</clustering>
</event>
<event>
 9    1  0.2075077E-005  0.1073726E+03  0.7546771E-02  0.1267924E+00
         -2   -1    0    0    0  501 -0.00000000000E+00  0.00000000000E+00  0.15015583436E+03  0.15015583436E+03  0.00000000000E+00 0.  1.
          2   -1    0    0  502    0  0.00000000000E+00 -0.00000000000E+00 -0.15111858062E+03  0.15111858062E+03  0.00000000000E+00 0. -1.
         23    2    1    2    0    0 -0.43507709637E+02 -0.71630270266E+01  0.89516352296E+02  0.13866720721E+03  0.96287004699E+02 0.  0.
         23    2    1    2    0    0  0.63946075358E+02 -0.22812474972E+00 -0.85927630209E+02  0.14040198806E+03  0.90774489942E+02 0.  0.
        -13    1    3    3    0    0 -0.71398499605E+02 -0.21195511890E+02  0.59089904728E+02  0.95071616747E+02  0.00000000000E+00 0.  1.
         13    1    3    3    0    0  0.27890789968E+02  0.14032484863E+02  0.30426447569E+02  0.43595590467E+02  0.00000000000E+00 0. -1.
        -13    1    4    4    0    0  0.81319538025E+00 -0.36994014252E+02 -0.20352821252E+02  0.42230980455E+02  0.00000000000E+00 0.  1.
         13    1    4    4    0    0  0.63132879978E+02  0.36765889503E+02 -0.65574808957E+02  0.98171007609E+02  0.00000000000E+00 0. -1.
         21    1    1    2  502  501 -0.20438365721E+02  0.73911517763E+01 -0.45514683504E+01  0.22205219703E+02  0.00000000000E+00 0. -1.
<scales pt_clust_5="13000.00000" pt_clust_6="13000.00000" pt_clust_7="13000.00000" pt_clust_8="13000.00000" pt_clust_9="21.73375"></scales>
<clustering>
<clus scale="   21.734">  2  9  1 -1</clus>
<clus scale="   90.774">  7  8 -1 -1</clus>
<clus scale="   96.287">  5  6 -1 -1</clus>
<clus scale="  102.458">  2  7  1 -1</clus>
<clus scale="   21.734">  2  5  1 -1</clus>
</clustering>
</event>
<event>
 9    1  0.2075077E-005  0.1114188E+03  0.7546771E-02  0.1260301E+00
         -1   -1    0    0    0  501 -0.00000000000E+00  0.00000000000E+00  0.57599805085E+03  0.57599805085E+03  0.00000000000E+00 0.  1.
          1   -1    0    0  502    0  0.00000000000E+00 -0.00000000000E+00 -0.26991751843E+02  0.26991751843E+02  0.00000000000E+00 0. -1.
         23    2    1    2    0    0 -0.18917123640E+02  0.59126112601E+02  0.23070820416E+03  0.25534955940E+03  0.90129724609E+02 0.  0.
         23    2    1    2    0    0  0.37260545993E+02 -0.39169436664E+02  0.22562777702E+03  0.25108695302E+03  0.95990474300E+02 0.  0.
        -11    1    4    4    0    0  0.52050882385E+02 -0.59429030547E+02  0.20085210650E+03  0.21583019417E+03  0.00000000000E+00 0. -1.
         11    1    4    4    0    0 -0.14790336392E+02  0.20259593883E+02  0.24775670520E+02  0.35256758851E+02  0.00000000000E+00 0.  1.
        -13    1    3    3    0    0  0.22138423714E+02  0.54202123045E+02  0.18339273331E+03  0.19251201151E+03  0.00000000000E+00 0.  1.
         13    1    3    3    0    0 -0.41055547354E+02  0.49239895558E+01  0.47315470855E+02  0.62837547883E+02  0.00000000000E+00 0. -1.
         21    1    1    2  502  501 -0.18343422353E+02 -0.19956675937E+02  0.92670317823E+02  0.96553290278E+02  0.00000000000E+00 0.  1.
<scales pt_clust_5="13000.00000" pt_clust_6="13000.00000" pt_clust_7="13000.00000" pt_clust_8="13000.00000" pt_clust_9="27.10627"></scales>
<clustering>
<clus scale="   27.106">  1  9  2 -1</clus>
<clus scale="   90.130">  7  8 -1 -1</clus>
<clus scale="   95.990">  5  6 -1 -1</clus>
<clus scale="  106.411">  1  7  2 -1</clus>
<clus scale="  111.419">  2  5  1 -1</clus>
</clustering>
</event>
<event>
 9    1  0.2075077E-005  0.9190463E+02  0.7546771E-02  0.1299445E+00
          1   -1    0    0  502    0  0.00000000000E+00  0.00000000000E+00  0.29545896097E+03  0.29545896097E+03  0.00000000000E+00 0. -1.
         -1   -1    0    0    0  501 -0.00000000000E+00 -0.00000000000E+00 -0.37914315200E+03  0.37914315200E+03  0.00000000000E+00 0.  1.
         23    2    1    2    0    0  0.19133621991E+02 -0.14268373915E+02 -0.35798511125E+03  0.36908301180E+03  0.86598197079E+02 0.  0.
         23    2    1    2    0    0 -0.23603263676E+02  0.43455205818E+02  0.17905299369E+03  0.20579941223E+03  0.88588681865E+02 0.  0.
        -11    1    3    3    0    0  0.48351385558E+02  0.10915059745E+02 -0.16517078509E+03  0.17244820458E+03  0.00000000000E+00 0.  1.
         11    1    3    3    0    0 -0.29217763567E+02 -0.25183433660E+02 -0.19281432616E+03  0.19663480722E+03  0.00000000000E+00 0. -1.
        -13    1    4    4    0    0 -0.48373655104E+02 -0.23442273778E+01  0.72253250880E+02  0.86982976340E+02  0.00000000000E+00 0. -1.
         13    1    4    4    0    0  0.24770391428E+02  0.45799433196E+02  0.10679974281E+03  0.11881643589E+03  0.00000000000E+00 0.  1.
         21    1    1    2  502  501  0.44696416856E+01 -0.29186831904E+02  0.95247926536E+02  0.99719688943E+02  0.00000000000E+00 0.  1.
<scales pt_clust_5="13000.00000" pt_clust_6="13000.00000" pt_clust_7="13000.00000" pt_clust_8="13000.00000" pt_clust_9="29.52709"></scales>
<clustering>
<clus scale="   29.527">  1  9  2 -1</clus>
<clus scale="   86.598">  5  6 -1 -1</clus>
<clus scale="   88.589">  7  8 -1 -1</clus>
<clus scale="   89.988">  2  5  1 -1</clus>
<clus scale="   29.527">  1  5  2 -1</clus>
</clustering>
</event>
<event>
 9    1  0.2075077E-005  0.9908159E+02  0.7546771E-02  0.1283763E+00
          2   -1    0    0  502    0  0.00000000000E+00  0.00000000000E+00  0.46266849506E+03  0.46266849506E+03  0.00000000000E+00 0. -1.
         -2   -1    0    0    0  501 -0.00000000000E+00 -0.00000000000E+00 -0.12310875923E+03  0.12310875923E+03  0.00000000000E+00 0.  1.
         23    2    1    2    0    0 -0.19117605307E+02  0.16597903364E+02 -0.65079879817E+02  0.11507978863E+03  0.91471272897E+02 0.  0.
         23    2    1    2    0    0 -0.11326048947E+02 -0.76484517861E+02  0.97260346881E+02  0.15606237934E+03  0.94433735037E+02 0.  0.
        -11    1    3    3    0    0  0.32954920042E+01  0.51791100987E+02 -0.45380989703E+02  0.68939195204E+02  0.00000000000E+00 0. -1.
         11    1    3    3    0    0 -0.22413097311E+02 -0.35193197623E+02 -0.19698890114E+02  0.46140593426E+02  0.00000000000E+00 0.  1.
        -11    1    4    4    0    0 -0.31262488558E+02  0.70298576991E+01  0.46010900750E+02  0.56069288188E+02  0.00000000000E+00 0. -1.
         11    1    4    4    0    0  0.19936439611E+02 -0.83514375560E+02  0.51249446131E+02  0.99993091153E+02  0.00000000000E+00 0.  1.
         21    1    1    2  502  501  0.30443654254E+02  0.59886614497E+02  0.30737926876E+03  0.31463508632E+03  0.00000000000E+00 0. -1.
<scales pt_clust_5="13000.00000" pt_clust_6="13000.00000" pt_clust_7="13000.00000" pt_clust_8="13000.00000" pt_clust_9="67.18052"></scales>
<clustering>
<clus scale="   67.181">  1  9  2 -1</clus>
<clus scale="   91.471">  5  6 -1 -1</clus>
<clus scale="   94.434">  7  8 -1 -1</clus>
<clus scale="   96.262">  2  5  1 -1</clus>
<clus scale="   67.181">  1  5  2 -1</clus>
</clustering>
</event>
<event>
 9    1  0.2075077E-005  0.1116423E+03  0.7546771E-02  0.1257718E+00
         -1   -1    0    0    0  501 -0.00000000000E+00  0.00000000000E+00  0.39560236560E+03  0.39560236560E+03  0.00000000000E+00 0. -1.
          1   -1    0    0  502    0  0.00000000000E+00 -0.00000000000E+00 -0.41737571178E+02  0.41737571178E+02  0.00000000000E+00 0.  1.
         23    2    1    2    0    0 -0.31041982255E+02 -0.67828681103E+02  0.19501401336E+03  0.22757315799E+03  0.90524815337E+02 0.  0.
         23    2    1    2    0    0  0.32701367849E+02  0.44517274557E+02  0.15174552050E+03  0.18534015471E+03  0.90956598245E+02 0.  0.
        -13    1    4    4    0    0  0.25188239532E+02 -0.10285259241E+02  0.11676406197E+03  0.11989195192E+03  0.00000000000E+00 0. -1.
         13    1    4    4    0    0  0.75131283169E+01  0.54802533798E+02  0.34981458535E+02  0.65448202794E+02  0.00000000000E+00 0.  1.
        -13    1    3    3    0    0 -0.90695554468E+01 -0.80858772681E+02  0.18097379600E+03  0.19842356915E+03  0.00000000000E+00 0. -1.
         13    1    3    3    0    0 -0.21972426809E+02  0.13030091579E+02  0.14040217357E+02  0.29149588845E+02  0.00000000000E+00 0.  1.
         21    1    1    2  502  501 -0.16593855939E+01  0.23311406546E+02  0.71052605644E+01  0.24426624069E+02  0.00000000000E+00 0. -1.
<scales pt_clust_5="13000.00000" pt_clust_6="13000.00000" pt_clust_7="13000.00000" pt_clust_8="13000.00000" pt_clust_9="23.37039"></scales>
<clustering>
<clus scale="   23.370">  2  9  1 -1</clus>
<clus scale="   90.525">  7  8 -1 -1</clus>
<clus scale="   90.957">  5  6 -1 -1</clus>
<clus scale="  111.291">  1  7  2 -1</clus>
<clus scale="   23.370">  2  5  1 -1</clus>
</clustering>
</event>
<event>
 9    1  0.2075077E-005  0.2081462E+03  0.7546771E-02  0.1143310E+00
          1   -1    0    0  502    0  0.00000000000E+00  0.00000000000E+00  0.65766984889E+02  0.65766984889E+02  0.00000000000E+00 0. -1.
         -1   -1    0    0    0  501 -0.00000000000E+00 -0.00000000000E+00 -0.11144487413E+04  0.11144487413E+04  0.00000000000E+00 0.  1.
         23    2    1    2    0    0 -0.13581302613E+03  0.12558907604E+03 -0.80339556682E+03  0.82941725310E+03  0.90943657674E+02 0.  0.
         23    2    1    2    0    0  0.11990948352E+03 -0.15660078570E+03 -0.21270216335E+03  0.30308717915E+03  0.87849516516E+02 0.  0.
        -11    1    3    3    0    0 -0.87549286049E+02  0.10215404683E+03 -0.70124120696E+03  0.71403050153E+03  0.00000000000E+00 0.  1.
         11    1    3    3    0    0 -0.48263740084E+02  0.23435029212E+02 -0.10215435986E+03  0.11538675158E+03  0.00000000000E+00 0. -1.
        -13    1    4    4    0    0  0.41064431616E+02 -0.82945906133E+02 -0.43157083213E+02  0.10212171522E+03  0.00000000000E+00 0. -1.
         13    1    4    4    0    0  0.78845051906E+02 -0.73654879566E+02 -0.16954508014E+03  0.20096546393E+03  0.00000000000E+00 0.  1.
         21    1    1    2  502  501  0.15903542610E+02  0.31011709656E+02 -0.32584026255E+02  0.47711293949E+02  0.00000000000E+00 0. -1.
<scales pt_clust_5="13000.00000" pt_clust_6="13000.00000" pt_clust_7="13000.00000" pt_clust_8="13000.00000" pt_clust_9="34.85181"></scales>
<clustering>
<clus scale="   34.852">  1  9  2 -1</clus>
<clus scale="   87.850">  7  8 -1 -1</clus>
<clus scale="   90.944">  5  6 -1 -1</clus>
<clus scale="  206.813">  1  7  2 -1</clus>
<clus scale="   34.852">  1  5  2 -1</clus>
</clustering>
</event>
<event>
 9    1  0.2075077E-005  0.1246295E+03  0.7546771E-02  0.1235707E+00
         -3   -1    0    0    0  501 -0.00000000000E+00  0.00000000000E+00  0.94622253557E+02  0.94622253557E+02  0.00000000000E+00 0.  1.
          3   -1    0    0  502    0  0.00000000000E+00 -0.00000000000E+00 -0.33691210925E+03  0.33691210925E+03  0.00000000000E+00 0. -1.
         23    2    1    2    0    0 -0.70808274315E+01  0.95700412907E+02 -0.15761175424E+01  0.13378047411E+03  0.93198840971E+02 0.  0.
         23    2    1    2    0    0  0.10006180232E+02 -0.58679344637E+02 -0.90524039814E+02  0.14304104931E+03  0.93395668390E+02 0.  0.
        -11    1    4    4    0    0  0.17580823771E+02 -0.80801913531E+02 -0.85843689821E+02  0.11919384916E+03  0.00000000000E+00 0. -1.
         11    1    4    4    0    0 -0.75746435380E+01  0.22122568894E+02 -0.46803499930E+01  0.23847200155E+02  0.00000000000E+00 0.  1.
        -13    1    3    3    0    0 -0.23174246751E+02  0.62950371038E+02  0.40284937471E+02  0.78247499087E+02  0.00000000000E+00 0.  1.
         13    1    3    3    0    0  0.16093419320E+02  0.32750041869E+02 -0.41861055014E+02  0.55532975021E+02  0.00000000000E+00 0. -1.
         21    1    1    2  502  501 -0.29253528010E+01 -0.37021068269E+02 -0.15018969834E+03  0.15471283939E+03  0.00000000000E+00 0.  1.
<scales pt_clust_5="13000.00000" pt_clust_6="13000.00000" pt_clust_7="13000.00000" pt_clust_8="13000.00000" pt_clust_9="37.13647"></scales>
<clustering>
<clus scale="   37.136">  2  9  1 -1</clus>
<clus scale="   93.199">  7  8 -1 -1</clus>
<clus scale="   93.396">  5  6 -1 -1</clus>
<clus scale="  124.482">  1  7  2 -1</clus>
<clus scale="   37.136">  2  5  1 -1</clus>
</clustering>
</event>
<event>
 9    1  0.2075077E-005  0.1033320E+03  0.7546771E-02  0.1274798E+00
          1   -1    0    0  502    0  0.00000000000E+00  0.00000000000E+00  0.41921850259E+03  0.41921850259E+03  0.00000000000E+00 0. -1.
         -1   -1    0    0    0  501 -0.00000000000E+00 -0.00000000000E+00 -0.74674175284E+02  0.74674175284E+02  0.00000000000E+00 0.  1.
         23    2    1    2    0    0  0.52789284124E+02  0.93607996580E+01  0.13722544695E+02  0.10512997779E+03  0.89384959070E+02 0.  0.
         23    2    1    2    0    0 -0.60474521740E+01  0.56492866189E+02  0.25862084886E+03  0.28043689986E+03  0.92369344115E+02 0.  0.
        -11    1    4    4    0    0  0.38540013308E+02  0.29559690407E+02  0.73280566725E+02  0.87915580998E+02  0.00000000000E+00 0.  1.
         11    1    4    4    0    0 -0.44587465482E+02  0.26933175782E+02  0.18534028213E+03  0.19252131886E+03  0.00000000000E+00 0. -1.
        -13    1    3    3    0    0  0.11597664449E+02  0.46523750350E+02 -0.13304424369E+00  0.47947709727E+02  0.00000000000E+00 0.  1.
         13    1    3    3    0    0  0.41191619675E+02 -0.37162950692E+02  0.13855588938E+02  0.57182268059E+02  0.00000000000E+00 0. -1.
         21    1    1    2  502  501 -0.46741831950E+02 -0.65853665847E+02  0.72200933754E+02  0.10832580022E+03  0.00000000000E+00 0. -1.
<scales pt_clust_5="13000.00000" pt_clust_6="13000.00000" pt_clust_7="13000.00000" pt_clust_8="13000.00000" pt_clust_9="80.75583"></scales>
<clustering>
<clus scale="   80.756">  2  9  1 -1</clus>
<clus scale="   89.385">  7  8 -1 -1</clus>
<clus scale="   92.369">  5  6 -1 -1</clus>
<clus scale="  100.673">  2  7  1 -1</clus>
<clus scale="  103.332">  1  5  2 -1</clus>
</clustering>
</event>
<event>
 9    1  0.2075077E-005  0.2338731E+03  0.7546771E-02  0.1157003E+00
          2   -1    0    0  502    0  0.00000000000E+00  0.00000000000E+00  0.44433863047E+03  0.44433863047E+03  0.00000000000E+00 0. -1.
         -2   -1    0    0    0  501 -0.00000000000E+00 -0.00000000000E+00 -0.17809107061E+03  0.17809107061E+03  0.00000000000E+00 0.  1.
         23    2    1    2    0    0  0.98248819613E+02 -0.21956988721E+03  0.10054777943E+03  0.27498546789E+03  0.87426458672E+02 0.  0.
         23    2    1    2    0    0  0.43511953248E+01  0.49914378497E+02  0.75296604901E+02  0.12953946306E+03  0.92738965375E+02 0.  0.
        -11    1    3    3    0    0  0.26031872548E+02 -0.13319605162E+01  0.10524852561E+02  0.28110585703E+02  0.00000000000E+00 0. -1.
         11    1    3    3    0    0  0.72216947066E+02 -0.21823792669E+03  0.90022926870E+02  0.24687488218E+03  0.00000000000E+00 0.  1.
        -13    1    4    4    0    0 -0.33711898972E+02  0.56785143313E+02  0.40201846833E+02  0.77312567686E+02  0.00000000000E+00 0. -1.
         13    1    4    4    0    0  0.38063094297E+02 -0.68707648153E+01  0.35094758068E+02  0.52226895374E+02  0.00000000000E+00 0.  1.
         21    1    1    2  502  501 -0.10260001494E+03  0.16965550871E+03  0.90403175532E+02  0.21790477014E+03  0.00000000000E+00 0. -1.
<scales pt_clust_5="13000.00000" pt_clust_6="13000.00000" pt_clust_7="13000.00000" pt_clust_8="13000.00000" pt_clust_9="216.91761"></scales>
<clustering>
<clus scale="   87.426">  5  6 -1 -1</clus>
<clus scale="   92.739">  7  8 -1 -1</clus>
<clus scale="  105.408">  1  7  2 -1</clus>
<clus scale="  216.918">  2  9  1 -1</clus>
<clus scale="  105.408">  1  5  2 -1</clus>
</clustering>
</event>
<event>
 9    1  0.2075077E-005  0.1023837E+03  0.7546771E-02  0.1279228E+00
          3   -1    0    0  502    0  0.00000000000E+00  0.00000000000E+00  0.18051124841E+03  0.18051124841E+03  0.00000000000E+00 0. -1.
         -3   -1    0    0    0  501 -0.00000000000E+00 -0.00000000000E+00 -0.27511301735E+03  0.27511301735E+03  0.00000000000E+00 0.  1.
         23    2    1    2    0    0  0.42309755229E+01 -0.18894310991E+02 -0.23696745899E+03  0.25800535760E+03  0.10019127601E+03 0.  0.
         23    2    1    2    0    0  0.34476711204E+00  0.46478156552E+02  0.13182128169E+03  0.16773596145E+03  0.92726288370E+02 0.  0.
        -11    1    4    4    0    0  0.74412975275E+01  0.71210710506E+02  0.67257873597E+02  0.98234208708E+02  0.00000000000E+00 0. -1.
         11    1    4    4    0    0 -0.70965304154E+01 -0.24732553954E+02  0.64563408094E+02  0.69501752738E+02  0.00000000000E+00 0.  1.
        -11    1    3    3    0    0  0.55516033395E+01 -0.54355133596E+02 -0.19755686660E+03  0.20497320895E+03  0.00000000000E+00 0.  1.
         11    1    3    3    0    0 -0.13206278166E+01  0.35460822605E+02 -0.39410592391E+02  0.53032148648E+02  0.00000000000E+00 0. -1.
         21    1    1    2  502  501 -0.45757426349E+01 -0.27583845561E+02  0.10544408355E+02  0.29882946712E+02  0.00000000000E+00 0.  1.
<scales pt_clust_5="13000.00000" pt_clust_6="13000.00000" pt_clust_7="13000.00000" pt_clust_8="13000.00000" pt_clust_9="27.96079"></scales>
<clustering>
<clus scale="   27.961">  1  9  2 -1</clus>
<clus scale="   92.726">  5  6 -1 -1</clus>
<clus scale="   95.091">  1  5  2 -1</clus>
<clus scale="  100.191">  7  8 -1 -1</clus>
<clus scale="   27.961">  1  5  2 -1</clus>
</clustering>
</event>
<event>
 9    1  0.2075077E-005  0.9552149E+02  0.7546771E-02  0.1290410E+00
         -1   -1    0    0    0  501 -0.00000000000E+00  0.00000000000E+00  0.34641012391E+02  0.34641012391E+02  0.00000000000E+00 0.  1.
          1   -1    0    0  502    0  0.00000000000E+00 -0.00000000000E+00 -0.42020595422E+03  0.42020595422E+03  0.00000000000E+00 0. -1.
         23    2    1    2    0    0 -0.38077232965E+02 -0.40745439128E+01 -0.10606020547E+03  0.14429536310E+03  0.90032810963E+02 0.  0.
         23    2    1    2    0    0  0.22893000560E+02 -0.18831646284E+02 -0.14200500312E+03  0.17033237835E+03  0.89269131438E+02 0.  0.
        -13    1    3    3    0    0 -0.28468572545E+02  0.15443638639E+02  0.35181890383E+01  0.32578263478E+02  0.00000000000E+00 0.  1.
         13    1    3    3    0    0 -0.96086604198E+01 -0.19518182551E+02 -0.10957839451E+03  0.11171709962E+03  0.00000000000E+00 0. -1.
        -13    1    4    4    0    0  0.11232637050E+02 -0.41522401894E+02 -0.13794981398E+03  0.14450063381E+03  0.00000000000E+00 0. -1.
         13    1    4    4    0    0  0.11660363510E+02  0.22690755609E+02 -0.40551891434E+01  0.25831744546E+02  0.00000000000E+00 0.  1.
         21    1    1    2  502  501  0.15184232405E+02  0.22906190197E+02 -0.13749973324E+03  0.14021922516E+03  0.00000000000E+00 0.  1.
<scales pt_clust_5="13000.00000" pt_clust_6="13000.00000" pt_clust_7="13000.00000" pt_clust_8="13000.00000" pt_clust_9="27.48189"></scales>
<clustering>
<clus scale="   27.482">  2  9  1 -1</clus>
<clus scale="   89.269">  7  8 -1 -1</clus>
<clus scale="   90.033">  5  6 -1 -1</clus>
<clus scale="   94.802">  2  7  1 -1</clus>
<clus scale="   27.482">  2  5  1 -1</clus>
</clustering>
</event>
<event>
 9    1  0.2075077E-005  0.1690151E+03  0.7546771E-02  0.1194387E+00
          2   -1    0    0  502    0  0.00000000000E+00  0.00000000000E+00  0.56920683221E+03  0.56920683221E+03  0.00000000000E+00 0. -1.
         -2   -1    0    0    0  501 -0.00000000000E+00 -0.00000000000E+00 -0.10590121977E+03  0.10590121977E+03  0.00000000000E+00 0.  1.
         23    2    1    2    0    0 -0.69163735433E+02  0.34495984236E+02  0.37420064642E+02  0.12545254637E+03  0.91457558062E+02 0.  0.
         23    2    1    2    0    0  0.12538551340E+03 -0.14593845985E+03  0.20441316378E+03  0.29543054504E+03  0.92059243898E+02 0.  0.
        -11    1    3    3    0    0 -0.29810075107E+02 -0.29674185598E+02  0.25638570863E+02  0.49259863831E+02  0.00000000000E+00 0.  1.
         11    1    3    3    0    0 -0.39353660326E+02  0.64170169833E+02  0.11781493779E+02  0.76192682544E+02  0.00000000000E+00 0. -1.
        -13    1    4    4    0    0  0.44978723920E+02 -0.12227711303E+02  0.12816184394E+02  0.48341049964E+02  0.00000000000E+00 0.  1.
         13    1    4    4    0    0  0.80406789478E+02 -0.13371074854E+03  0.19159697938E+03  0.24708949508E+03  0.00000000000E+00 0. -1.
         21    1    1    2  502  501 -0.56221777964E+02  0.11144247561E+03  0.22147238403E+03  0.25422496056E+03  0.00000000000E+00 0. -1.
<scales pt_clust_5="13000.00000" pt_clust_6="13000.00000" pt_clust_7="13000.00000" pt_clust_8="13000.00000" pt_clust_9="141.74348"></scales>
<clustering>
<clus scale="   91.458">  5  6 -1 -1</clus>
<clus scale="   92.059">  7  8 -1 -1</clus>
<clus scale="  119.742">  2  5  1 -1</clus>
<clus scale="  141.743">  1  9  2 -1</clus>
<clus scale="  141.743">  1  5  2 -1</clus>
</clustering>
</event>
<event>
 9    1  0.2075077E-005  0.1329680E+03  0.7546771E-02  0.1223194E+00
         -2   -1    0    0    0  501 -0.00000000000E+00  0.00000000000E+00  0.29626159397E+03  0.29626159397E+03  0.00000000000E+00 0.  1.
          2   -1    0    0  502    0  0.00000000000E+00 -0.00000000000E+00 -0.12847807177E+03  0.12847807177E+03  0.00000000000E+00 0. -1.
         23    2    1    2    0    0 -0.60991417316E+02 -0.69962852146E+02  0.20540089241E+03  0.24292056094E+03  0.90587629716E+02 0.  0.
         23    2    1    2    0    0  0.78531180060E+02  0.83829506339E+02 -0.10768024447E+02  0.14687894533E+03  0.90900725281E+02 0.  0.
        -11    1    4    4    0    0  0.60821274160E+02  0.43373539142E+02 -0.48270671208E+02  0.88941267065E+02  0.00000000000E+00 0.  1.
         11    1    4    4    0    0  0.17709905900E+02  0.40455967198E+02  0.37502646762E+02  0.57937678267E+02  0.00000000000E+00 0. -1.
        -13    1    3    3    0    0 -0.37779879605E+02 -0.90848148912E+02  0.15220010616E+03  0.18123348968E+03  0.00000000000E+00 0. -1.
         13    1    3    3    0    0 -0.23211537711E+02  0.20885296766E+02  0.53200786247E+02  0.61687071265E+02  0.00000000000E+00 0.  1.
         21    1    1    2  502  501 -0.17539762744E+02 -0.13866654193E+02 -0.26849345760E+02  0.34940159464E+02  0.00000000000E+00 0. -1.
<scales pt_clust_5="13000.00000" pt_clust_6="13000.00000" pt_clust_7="13000.00000" pt_clust_8="13000.00000" pt_clust_9="22.35906"></scales>
<clustering>
<clus scale="   22.359">  2  9  1 -1</clus>
<clus scale="   90.588">  7  8 -1 -1</clus>
<clus scale="   90.901">  5  6 -1 -1</clus>
<clus scale="  132.754">  1  7  2 -1</clus>
<clus scale="   22.359">  2  5  1 -1</clus>
</clustering>
</event>
<event>
 9    1  0.2075077E-005  0.1192443E+03  0.7546771E-02  0.1247792E+00
          1   -1    0    0  502    0  0.00000000000E+00  0.00000000000E+00  0.51706458556E+03  0.51706458556E+03  0.00000000000E+00 0. -1.
         -1   -1    0    0    0  501 -0.00000000000E+00 -0.00000000000E+00 -0.43693110357E+02  0.43693110357E+02  0.00000000000E+00 0.  1.
         23    2    1    2    0    0  0.33144611295E+02 -0.70264251729E+02  0.12125387843E+03  0.17566578388E+03  0.10059987208E+03 0.  0.
         23    2    1    2    0    0 -0.46250621118E+02  0.20089478764E+02  0.23739050595E+03  0.25918885130E+03  0.91004951565E+02 0.  0.
        -13    1    3    3    0    0  0.15154289490E+02 -0.20460980684E+02  0.12002768758E+03  0.12269861452E+03  0.00000000000E+00 0. -1.
         13    1    3    3    0    0  0.17990321805E+02 -0.49803271045E+02  0.12261908491E+01  0.52967169354E+02  0.00000000000E+00 0.  1.
        -13    1    4    4    0    0  0.17074101314E+02 -0.11642084225E+02  0.12241507820E+03  0.12414714830E+03  0.00000000000E+00 0.  1.
         13    1    4    4    0    0 -0.63324722432E+02  0.31731562989E+02  0.11497542775E+03  0.13504170299E+03  0.00000000000E+00 0. -1.
         21    1    1    2  502  501  0.13106009823E+02  0.50174772965E+02  0.11472709082E+03  0.12590306074E+03  0.00000000000E+00 0. -1.
<scales pt_clust_5="13000.00000" pt_clust_6="13000.00000" pt_clust_7="13000.00000" pt_clust_8="13000.00000" pt_clust_9="51.85822"></scales>
<clustering>
<clus scale="   51.858">  1  9  2 -1</clus>
<clus scale="   91.005">  7  8 -1 -1</clus>
<clus scale="  100.600">  5  6 -1 -1</clus>
<clus scale="  111.269">  1  7  2 -1</clus>
<clus scale="   51.858">  1  5  2 -1</clus>
</clustering>
</event>
<event>
 9    1  0.2373414E-005  0.1135899E+03  0.7546771E-02  0.1266120E+00
          1   -1    0    0  502    0  0.00000000000E+00  0.00000000000E+00  0.42080641223E+03  0.42080641223E+03  0.00000000000E+00 0. -1.
         -1   -1    0    0    0  501 -0.00000000000E+00 -0.00000000000E+00 -0.53212606321E+02  0.53212606321E+02  0.00000000000E+00 0.  1.
         23    2    1    2    0    0 -0.17945100917E+02 -0.12966121245E+02  0.85295563945E+01  0.90593687557E+02  0.87431778810E+02 0.  0.
         23    2    1    2    0    0 -0.36833781857E+01  0.12485640013E+02  0.29242449560E+03  0.31336193990E+03  0.11186671206E+03 0.  0.
        -11    1    3    3    0    0 -0.13192848839E+01 -0.47782096225E+02  0.17638813890E+02  0.50950927251E+02  0.00000000000E+00 0.  1.
         11    1    3    3    0    0 -0.16625816033E+02  0.34815974980E+02 -0.91092574953E+01  0.39642760306E+02  0.00000000000E+00 0. -1.
        -13    1    4    4    0    0 -0.25819651128E+02 -0.26662213309E+02  0.31768217023E+02  0.48854351042E+02  0.00000000000E+00 0.  1.
         13    1    4    4    0    0  0.22136272942E+02  0.39147853323E+02  0.26065627858E+03  0.26450758886E+03  0.00000000000E+00 0. -1.
         21    1    1    2  502  501  0.21628479103E+02  0.48048123154E+00  0.66639753911E+02  0.70063391096E+02  0.00000000000E+00 0.  1.
<scales pt_clust_5="13000.00000" pt_clust_6="13000.00000" pt_clust_7="13000.00000" pt_clust_8="13000.00000" pt_clust_9="21.63382"></scales>
<clustering>
<clus scale="   21.634">  1  9  2 -1</clus>
<clus scale="   87.432">  5  6 -1 -1</clus>
<clus scale="   89.626">  2  5  1 -1</clus>
<clus scale="  111.867">  7  8 -1 -1</clus>
<clus scale="   21.634">  1  5  2 -1</clus>
</clustering>
</event>
<event>
 9    1  0.2075077E-005  0.1108864E+03  0.7546771E-02  0.1260026E+00
          2   -1    0    0  502    0  0.00000000000E+00  0.00000000000E+00  0.35306403537E+03  0.35306403537E+03  0.00000000000E+00 0. -1.
         -2   -1    0    0    0  501 -0.00000000000E+00 -0.00000000000E+00 -0.62547184670E+02  0.62547184670E+02  0.00000000000E+00 0.  1.
         23    2    1    2    0    0 -0.22247394673E+02 -0.14258992288E+02  0.40831575290E+02  0.10166386414E+03  0.89275183009E+02 0.  0.
         23    2    1    2    0    0  0.46258993336E+02  0.68625047815E+02  0.20535264872E+03  0.23980150872E+03  0.92118193629E+02 0.  0.
        -11    1    3    3    0    0 -0.48482470893E+02 -0.16728610419E+02 -0.20550878515E+01  0.51328547383E+02  0.00000000000E+00 0. -1.
         11    1    3    3    0    0  0.26235076220E+02  0.24696181313E+01  0.42886663142E+02  0.50335316761E+02  0.00000000000E+00 0.  1.
        -13    1    4    4    0    0  0.19824110443E+02  0.75738905632E+02  0.19569165305E+03  0.21077144079E+03  0.00000000000E+00 0.  1.
         13    1    4    4    0    0  0.26434882893E+02 -0.71138578165E+01  0.96609956700E+01  0.29030067929E+02  0.00000000000E+00 0. -1.
         21    1    1    2  502  501 -0.24011598663E+02 -0.54366055527E+02  0.44332626695E+02  0.74145847178E+02  0.00000000000E+00 0. -1.
<scales pt_clust_5="13000.00000" pt_clust_6="13000.00000" pt_clust_7="13000.00000" pt_clust_8="13000.00000" pt_clust_9="59.43252"></scales>
<clustering>
<clus scale="   59.433">  2  9  1 -1</clus>
<clus scale="   89.275">  5  6 -1 -1</clus>
<clus scale="   92.118">  7  8 -1 -1</clus>
<clus scale="  108.536">  2  5  1 -1</clus>
<clus scale="  110.886">  1  5  2 -1</clus>
</clustering>
</event>
<event>
 9    1  0.3568953E-005  0.9147964E+02  0.7546771E-02  0.1299646E+00
          3   -1    0    0  502    0  0.00000000000E+00  0.00000000000E+00  0.24443845808E+03  0.24443845808E+03  0.00000000000E+00 0. -1.
         -3   -1    0    0    0  501 -0.00000000000E+00 -0.00000000000E+00 -0.44008765790E+03  0.44008765790E+03  0.00000000000E+00 0.  1.
         23    2    1    2    0    0 -0.28372010777E+00 -0.17315090324E+02 -0.39952634909E+03  0.40979609966E+03  0.89507803195E+02 0.  0.
         23    2    1    2    0    0  0.15376550175E+02  0.75418828570E+02  0.16706265014E+03  0.20430881735E+03  0.88925394441E+02 0.  0.
        -11    1    4    4    0    0  0.24910567395E+02  0.44088218061E+02  0.16373992518E+03  0.17139157050E+03  0.00000000000E+00 0. -1.
         11    1    4    4    0    0 -0.95340172198E+01  0.31330610508E+02  0.33227249619E+01  0.32917246852E+02  0.00000000000E+00 0.  1.
        -13    1    3    3    0    0 -0.31003953748E+02  0.22405518975E+02 -0.22340759745E+03  0.22665878988E+03  0.00000000000E+00 0.  1.
         13    1    3    3    0    0  0.30720233641E+02 -0.39720609299E+02 -0.17611875163E+03  0.18313730978E+03  0.00000000000E+00 0. -1.
         21    1    1    2  502  501 -0.15092830067E+02 -0.58103738245E+02  0.36814499124E+02  0.70421198962E+02  0.00000000000E+00 0.  1.
<scales pt_clust_5="13000.00000" pt_clust_6="13000.00000" pt_clust_7="13000.00000" pt_clust_8="13000.00000" pt_clust_9="60.03197"></scales>
<clustering>
<clus scale="   60.032">  1  9  2 -1</clus>
<clus scale="   88.925">  5  6 -1 -1</clus>
<clus scale="   89.508">  7  8 -1 -1</clus>
<clus scale="   90.910">  1  5  2 -1</clus>
<clus scale="   60.032">  1  5  2 -1</clus>
</clustering>
</event>
<event>
 9    1  0.2075077E-005  0.1325841E+03  0.7546771E-02  0.1229786E+00
         -1   -1    0    0    0  501 -0.00000000000E+00  0.00000000000E+00  0.32580765390E+02  0.32580765390E+02  0.00000000000E+00 0.  1.
          1   -1    0    0  502    0  0.00000000000E+00 -0.00000000000E+00 -0.89857174372E+03  0.89857174372E+03  0.00000000000E+00 0. -1.
         23    2    1    2    0    0  0.61150398830E+02 -0.48856628015E+02 -0.15675418816E+03  0.20680088710E+03  0.10985622431E+03 0.  0.
         23    2    1    2    0    0 -0.30652247291E+02  0.60373043762E+02 -0.49711342070E+03  0.50973780850E+03  0.90146634392E+02 0.  0.
        -11    1    3    3    0    0  0.54114043619E+02  0.19040415644E+02 -0.34951628077E+02  0.67175021027E+02  0.00000000000E+00 0. -1.
         11    1    3    3    0    0  0.70363552110E+01 -0.67897043659E+02 -0.12180256009E+03  0.13962586607E+03  0.00000000000E+00 0.  1.
        -13    1    4    4    0    0 -0.10360312491E+01 -0.23433868911E+02 -0.12228431149E+03  0.12451374386E+03  0.00000000000E+00 0.  1.
         13    1    4    4    0    0 -0.29616216042E+02  0.83806912673E+02 -0.37482910921E+03  0.38522406464E+03  0.00000000000E+00 0. -1.
         21    1    1    2  502  501 -0.30498151539E+02 -0.11516415747E+02 -0.21212336947E+03  0.21461381352E+03  0.00000000000E+00 0.  1.
<scales pt_clust_5="13000.00000" pt_clust_6="13000.00000" pt_clust_7="13000.00000" pt_clust_8="13000.00000" pt_clust_9="32.60008"></scales>
<clustering>
<clus scale="   32.600">  2  9  1 -1</clus>
<clus scale="   90.147">  7  8 -1 -1</clus>
<clus scale="  109.856">  5  6 -1 -1</clus>
<clus scale="  116.776">  2  7  1 -1</clus>
<clus scale="   32.600">  2  5  1 -1</clus>
</clustering>
</event>
<event>
 9    1  0.2075077E-005  0.1418836E+03  0.7546771E-02  0.1211840E+00
          2   -1    0    0  502    0  0.00000000000E+00  0.00000000000E+00  0.48662174334E+03  0.48662174334E+03  0.00000000000E+00 0. -1.
         -2   -1    0    0    0  501 -0.00000000000E+00 -0.00000000000E+00 -0.86594037447E+02  0.86594037447E+02  0.00000000000E+00 0.  1.
         23    2    1    2    0    0  0.82889570272E+02 -0.83272422146E+02  0.35457016690E+02  0.15137084411E+03  0.88605616440E+02 0.  0.
         23    2    1    2    0    0 -0.25497563505E+02  0.91636649538E+02  0.15505022638E+03  0.20444524238E+03  0.93326754716E+02 0.  0.
        -11    1    4    4    0    0 -0.55515828386E+02  0.26846017913E+02  0.77215353987E+02  0.98817644024E+02  0.00000000000E+00 0.  1.
         11    1    4    4    0    0  0.30018264881E+02  0.64790631626E+02  0.77834872394E+02  0.10562759835E+03  0.00000000000E+00 0. -1.
        -11    1    3    3    0    0  0.56718307691E+02  0.78673090633E+00  0.27309764792E+02  0.62955608375E+02  0.00000000000E+00 0. -1.
         11    1    3    3    0    0  0.26171262581E+02 -0.84059153052E+02  0.81472518977E+01  0.88415235737E+02  0.00000000000E+00 0.  1.
         21    1    1    2  502  501 -0.57392006767E+02 -0.83642273928E+01  0.20952046282E+03  0.21739969430E+03  0.00000000000E+00 0. -1.
<scales pt_clust_5="13000.00000" pt_clust_6="13000.00000" pt_clust_7="13000.00000" pt_clust_8="13000.00000" pt_clust_9="57.99830"></scales>
<clustering>
<clus scale="   57.998">  1  9  2 -1</clus>
<clus scale="   88.606">  7  8 -1 -1</clus>
<clus scale="   93.327">  5  6 -1 -1</clus>
<clus scale="  138.824">  2  7  1 -1</clus>
<clus scale="   57.998">  1  5  2 -1</clus>
</clustering>
</event>
<event>
 9    1  0.2075077E-005  0.9880167E+02  0.7546771E-02  0.1283564E+00
          2   -1    0    0  502    0  0.00000000000E+00  0.00000000000E+00  0.40624158235E+03  0.40624158235E+03  0.00000000000E+00 0. -1.
         -2   -1    0    0    0  501 -0.00000000000E+00 -0.00000000000E+00 -0.35995133350E+02  0.35995133350E+02  0.00000000000E+00 0.  1.
         23    2    1    2    0    0  0.37818235288E+02 -0.25537499410E+02  0.11006375657E+03  0.15063534681E+03  0.92166123940E+02 0.  0.
         23    2    1    2    0    0 -0.22790625114E+02  0.88783280523E+01  0.13531957038E+03  0.16473862296E+03  0.90714885567E+02 0.  0.
        -11    1    4    4    0    0 -0.16411501773E+02  0.35385779684E+02  0.13155475595E+03  0.13721568644E+03  0.00000000000E+00 0. -1.
         11    1    4    4    0    0 -0.63791233407E+01 -0.26507451632E+02  0.37648144366E+01  0.27522936514E+02  0.00000000000E+00 0.  1.
        -13    1    3    3    0    0 -0.27855381100E+02 -0.14558940810E+02  0.15670032117E+02  0.35120292144E+02  0.00000000000E+00 0. -1.
         13    1    3    3    0    0  0.65673616389E+02 -0.10978558600E+02  0.94393724452E+02  0.11551505467E+03  0.00000000000E+00 0.  1.
         21    1    1    2  502  501 -0.15027610175E+02  0.16659171357E+02  0.12486312204E+03  0.12686274593E+03  0.00000000000E+00 0.  1.
<scales pt_clust_5="13000.00000" pt_clust_6="13000.00000" pt_clust_7="13000.00000" pt_clust_8="13000.00000" pt_clust_9="22.43562"></scales>
<clustering>
<clus scale="   22.436">  1  9  2 -1</clus>
<clus scale="   90.715">  5  6 -1 -1</clus>
<clus scale="   92.166">  7  8 -1 -1</clus>
<clus scale="   97.449">  1  5  2 -1</clus>
<clus scale="   22.436">  1  5  2 -1</clus>
</clustering>
</event>
<event>
 9    1  0.2075077E-005  0.1120502E+03  0.7546771E-02  0.1256986E+00
         -1   -1    0    0    0  501 -0.00000000000E+00  0.00000000000E+00  0.23488199763E+03  0.23488199763E+03  0.00000000000E+00 0.  1.
          1   -1    0    0  502    0  0.00000000000E+00 -0.00000000000E+00 -0.93404448557E+02  0.93404448557E+02  0.00000000000E+00 0. -1.
         23    2    1    2    0    0 -0.15172986434E+02 -0.58697849738E+02  0.13270427154E+03  0.17187162983E+03  0.90850296499E+02 0.  0.
         23    2    1    2    0    0  0.68519865381E+00  0.76488026363E+02  0.32446286583E+02  0.12344820087E+03  0.91300652306E+02 0.  0.
        -11    1    3    3    0    0 -0.25484517995E+02 -0.13716012963E+02  0.12079155140E+03  0.12421025947E+03  0.00000000000E+00 0.  1.
         11    1    3    3    0    0  0.10311531561E+02 -0.44981836775E+02  0.11912720137E+02  0.47661370352E+02  0.00000000000E+00 0. -1.
        -11    1    4    4    0    0  0.28738421276E+02 -0.81558909075E+01  0.64099797764E+01  0.30553285497E+02  0.00000000000E+00 0.  1.
         11    1    4    4    0    0 -0.28053222622E+02  0.84643917271E+02  0.26036306807E+02  0.92894915375E+02  0.00000000000E+00 0. -1.
         21    1    1    2  502  501  0.14487787780E+02 -0.17790176625E+02 -0.23673009049E+02  0.32966615486E+02  0.00000000000E+00 0. -1.
<scales pt_clust_5="13000.00000" pt_clust_6="13000.00000" pt_clust_7="13000.00000" pt_clust_8="13000.00000" pt_clust_9="22.94311"></scales>
<clustering>
<clus scale="   22.943">  2  9  1 -1</clus>
<clus scale="   90.850">  5  6 -1 -1</clus>
<clus scale="   91.301">  7  8 -1 -1</clus>
<clus scale="  111.684">  1  5  2 -1</clus>
<clus scale="   22.943">  2  5  1 -1</clus>
</clustering>
</event>
<event>
 9    1  0.2075077E-005  0.9333448E+02  0.7546771E-02  0.1295501E+00
          1   -1    0    0  502    0  0.00000000000E+00  0.00000000000E+00  0.35536513315E+03  0.35536513315E+03  0.00000000000E+00 0. -1.
         -1   -1    0    0    0  501 -0.00000000000E+00 -0.00000000000E+00 -0.61972811147E+02  0.61972811147E+02  0.00000000000E+00 0.  1.
         23    2    1    2    0    0  0.34373381808E+02 -0.78721056475E+01  0.33621649125E+01  0.94791275218E+02  0.87923729904E+02 0.  0.
         23    2    1    2    0    0 -0.11571611766E+02 -0.78887684184E+01  0.11849314782E+03  0.14878455751E+03  0.88882414494E+02 0.  0.
        -11    1    4    4    0    0  0.20342717119E+02  0.27881000848E+02  0.21692804609E+02  0.40764618481E+02  0.00000000000E+00 0.  1.
         11    1    4    4    0    0 -0.31914328885E+02 -0.35769769266E+02  0.96800343211E+02  0.10801993903E+03  0.00000000000E+00 0. -1.
        -13    1    3    3    0    0  0.15617000784E+01 -0.39565844250E+02  0.22246442943E+02  0.45418048857E+02  0.00000000000E+00 0. -1.
         13    1    3    3    0    0  0.32811681730E+02  0.31693738602E+02 -0.18884278031E+02  0.49373226361E+02  0.00000000000E+00 0.  1.
         21    1    1    2  502  501 -0.22801770042E+02  0.15760874066E+02  0.17153700927E+03  0.17376211157E+03  0.00000000000E+00 0. -1.
<scales pt_clust_5="13000.00000" pt_clust_6="13000.00000" pt_clust_7="13000.00000" pt_clust_8="13000.00000" pt_clust_9="27.71869"></scales>
<clustering>
<clus scale="   27.719">  1  9  2 -1</clus>
<clus scale="   87.924">  7  8 -1 -1</clus>
<clus scale="   88.882">  5  6 -1 -1</clus>
<clus scale="   92.422">  2  7  1 -1</clus>
<clus scale="   27.719">  1  5  2 -1</clus>
</clustering>
</event>
<event>
 9    1  0.2075077E-005  0.1444090E+03  0.7546771E-02  0.1223541E+00
         -2   -1    0    0    0  501 -0.00000000000E+00  0.00000000000E+00  0.42880423359E+03  0.42880423359E+03  0.00000000000E+00 0.  1.
          2   -1    0    0  502    0  0.00000000000E+00 -0.00000000000E+00 -0.98689122291E+02  0.98689122291E+02  0.00000000000E+00 0. -1.
         23    2    1    2    0    0 -0.24736352660E+02 -0.36806275565E+02  0.22017379841E+03  0.24302740302E+03  0.92839797779E+02 0.  0.
         23    2    1    2    0    0 -0.89862259025E+02  0.63019499836E+02  0.44117836765E+02  0.14973397842E+03  0.91799770236E+02 0.  0.
        -11    1    3    3    0    0 -0.43090546328E+02 -0.53166482439E+02  0.19947338247E+03  0.21088646318E+03  0.00000000000E+00 0.  1.
         11    1    3    3    0    0  0.18354193667E+02  0.16360206874E+02  0.20700415934E+02  0.32140939843E+02  0.00000000000E+00 0. -1.
        -11    1    4    4    0    0 -0.33540741962E+02  0.23509473894E+02  0.65881194651E+02  0.77575824474E+02  0.00000000000E+00 0.  1.
         11    1    4    4    0    0 -0.56321517063E+02  0.39510025941E+02 -0.21763357886E+02  0.72158153944E+02  0.00000000000E+00 0. -1.
         21    1    1    2  502  501  0.11459861169E+03 -0.26213224271E+02  0.65823476126E+02  0.13473197444E+03  0.00000000000E+00 0.  1.
<scales pt_clust_5="13000.00000" pt_clust_6="13000.00000" pt_clust_7="13000.00000" pt_clust_8="13000.00000" pt_clust_9="111.47535"></scales>
<clustering>
<clus scale="   91.800">  7  8 -1 -1</clus>
<clus scale="   92.840">  5  6 -1 -1</clus>
<clus scale="  102.887">  1  5  2 -1</clus>
<clus scale="  111.475">  1  9  2 -1</clus>
<clus scale="  144.409">  2  5  1 -1</clus>
</clustering>
</event>
<event>
 9    1  0.2075077E-005  0.9953284E+02  0.7546771E-02  0.1284435E+00
         -2   -1    0    0    0  501 -0.00000000000E+00  0.00000000000E+00  0.27752720593E+03  0.27752720593E+03  0.00000000000E+00 0.  1.
          2   -1    0    0  502    0  0.00000000000E+00 -0.00000000000E+00 -0.65720309880E+02  0.65720309880E+02  0.00000000000E+00 0. -1.
         23    2    1    2    0    0 -0.20082812215E+02 -0.57664683953E+01  0.14201937446E+03  0.17211015236E+03  0.94951726270E+02 0.  0.
         23    2    1    2    0    0  0.35651282776E+02  0.24767357317E+02  0.94135451833E+02  0.13655076543E+03  0.88883025921E+02 0.  0.
        -11    1    3    3    0    0  0.38452210177E+02 -0.32849749072E+01  0.53890521533E+02  0.66283873142E+02  0.00000000000E+00 0.  1.
         11    1    3    3    0    0 -0.58535022392E+02 -0.24814934881E+01  0.88128852923E+02  0.10582627922E+03  0.00000000000E+00 0. -1.
        -11    1    4    4    0    0  0.33868778801E+02 -0.27218560600E+02  0.60942083019E+02  0.74845719325E+02  0.00000000000E+00 0.  1.
         11    1    4    4    0    0  0.17825039743E+01  0.51985917917E+02  0.33193368815E+02  0.61705046109E+02  0.00000000000E+00 0. -1.
         21    1    1    2  502  501 -0.15568470560E+02 -0.19000888922E+02 -0.24347930236E+02  0.34586598014E+02  0.00000000000E+00 0. -1.
<scales pt_clust_5="13000.00000" pt_clust_6="13000.00000" pt_clust_7="13000.00000" pt_clust_8="13000.00000" pt_clust_9="24.56443"></scales>
<clustering>
<clus scale="   24.564">  2  9  1 -1</clus>
<clus scale="   88.883">  7  8 -1 -1</clus>
<clus scale="   93.761">  2  7  1 -1</clus>
<clus scale="   94.952">  5  6 -1 -1</clus>
<clus scale="   24.564">  2  5  1 -1</clus>
</clustering>
</event>
<event>
 9    1  0.2456945E-005  0.1097920E+03  0.7546771E-02  0.1269482E+00
         -3   -1    0    0    0  501 -0.00000000000E+00  0.00000000000E+00  0.20024756909E+03  0.20024756909E+03  0.00000000000E+00 0.  1.
          3   -1    0    0  502    0  0.00000000000E+00 -0.00000000000E+00 -0.24754797094E+03  0.24754797094E+03  0.00000000000E+00 0. -1.
         23    2    1    2    0    0 -0.10120873013E+01  0.14035410858E+02  0.16551016798E+03  0.18987579911E+03  0.91984706914E+02 0.  0.
         23    2    1    2    0    0 -0.21162752943E+02 -0.79323539552E+01 -0.12591962137E+03  0.16803644008E+03  0.10894819777E+03 0.  0.
        -13    1    4    4    0    0  0.34660406619E+02  0.25294327363E+02 -0.71050778464E+02  0.83002168069E+02  0.00000000000E+00 0.  1.
         13    1    4    4    0    0 -0.55823159562E+02 -0.33226681318E+02 -0.54868842901E+02  0.85034272009E+02  0.00000000000E+00 0. -1.
        -13    1    3    3    0    0  0.28754253617E+01 -0.38581608670E+02  0.53097731124E+02  0.65697622857E+02  0.00000000000E+00 0. -1.
         13    1    3    3    0    0 -0.38875126630E+01  0.52617019528E+02  0.11241243686E+03  0.12417817626E+03  0.00000000000E+00 0.  1.
         21    1    1    2  502  501  0.22174840244E+02 -0.61030569025E+01 -0.86890948465E+02  0.89883300832E+02  0.00000000000E+00 0. -1.
<scales pt_clust_5="13000.00000" pt_clust_6="13000.00000" pt_clust_7="13000.00000" pt_clust_8="13000.00000" pt_clust_9="22.99937"></scales>
<clustering>
<clus scale="   22.999">  2  9  1 -1</clus>
<clus scale="   91.985">  7  8 -1 -1</clus>
<clus scale="   92.983">  1  7  2 -1</clus>
<clus scale="  108.948">  5  6 -1 -1</clus>
<clus scale="   22.999">  2  5  1 -1</clus>
</clustering>
</event>
<event>
 9    1  0.2075077E-005  0.1107747E+03  0.7546771E-02  0.1259895E+00
         -2   -1    0    0    0  501 -0.00000000000E+00  0.00000000000E+00  0.85113851782E+02  0.85113851782E+02  0.00000000000E+00 0.  1.
          2   -1    0    0  502    0  0.00000000000E+00 -0.00000000000E+00 -0.22945510486E+03  0.22945510486E+03  0.00000000000E+00 0. -1.
         23    2    1    2    0    0 -0.28740589356E+02  0.61967177907E+02  0.64289139563E+01  0.11391262448E+03  0.90932955894E+02 0.  0.
         23    2    1    2    0    0  0.37718000510E+02 -0.38639607889E+02 -0.10123400691E+03  0.14517119366E+03  0.88942028617E+02 0.  0.
        -11    1    3    3    0    0  0.27492599677E+02  0.47381470472E+02 -0.38547246822E+01  0.54915441212E+02  0.00000000000E+00 0.  1.
         11    1    3    3    0    0 -0.56233189033E+02  0.14585707434E+02  0.10283638638E+02  0.58997183271E+02  0.00000000000E+00 0. -1.
        -13    1    4    4    0    0 -0.27156207652E+01  0.26459153883E+02 -0.34431563935E+02  0.43508551060E+02  0.00000000000E+00 0.  1.
         13    1    4    4    0    0  0.40433621275E+02 -0.65098761772E+02 -0.66802442975E+02  0.10166264260E+03  0.00000000000E+00 0. -1.
         21    1    1    2  502  501 -0.89774111532E+01 -0.23327570017E+02 -0.49536160126E+02  0.55485138497E+02  0.00000000000E+00 0. -1.
<scales pt_clust_5="13000.00000" pt_clust_6="13000.00000" pt_clust_7="13000.00000" pt_clust_8="13000.00000" pt_clust_9="24.99539"></scales>
<clustering>
<clus scale="   24.995">  2  9  1 -1</clus>
<clus scale="   88.942">  7  8 -1 -1</clus>
<clus scale="   90.933">  5  6 -1 -1</clus>
<clus scale="  109.146">  2  7  1 -1</clus>
<clus scale="   24.995">  2  5  1 -1</clus>
</clustering>
</event>
<event>
 9    1  0.2075077E-005  0.9180730E+02  0.7546771E-02  0.1298542E+00
         -2   -1    0    0    0  501 -0.00000000000E+00  0.00000000000E+00  0.18618894210E+02  0.18618894210E+02  0.00000000000E+00 0.  1.
          2   -1    0    0  502    0  0.00000000000E+00 -0.00000000000E+00 -0.13389025499E+04  0.13389025499E+04  0.00000000000E+00 0. -1.
         23    2    1    2    0    0  0.20657407549E+01 -0.16833777589E+02 -0.28217300488E+03  0.29645224238E+03  0.89301086100E+02 0.  0.
         23    2    1    2    0    0  0.57018145413E+00 -0.71167019389E+02 -0.37115658197E+03  0.38832941674E+03  0.89316615553E+02 0.  0.
        -13    1    4    4    0    0  0.29263825255E+02  0.58389952729E+01 -0.68561787089E+02  0.74774220044E+02  0.00000000000E+00 0.  1.
         13    1    4    4    0    0 -0.28693643801E+02 -0.77006014662E+02 -0.30259479488E+03  0.31355519670E+03  0.00000000000E+00 0. -1.
        -13    1    3    3    0    0 -0.44462604808E+01  0.36017017108E+02 -0.14021848764E+03  0.14483859647E+03  0.00000000000E+00 0.  1.
         13    1    3    3    0    0  0.65120012358E+01 -0.52850794696E+02 -0.14195451724E+03  0.15161364591E+03  0.00000000000E+00 0. -1.
         21    1    1    2  502  501 -0.26359222091E+01  0.88000796978E+02 -0.66695406880E+03  0.67273978494E+03  0.00000000000E+00 0.  1.
<scales pt_clust_5="13000.00000" pt_clust_6="13000.00000" pt_clust_7="13000.00000" pt_clust_8="13000.00000" pt_clust_9="88.04027"></scales>
<clustering>
<clus scale="   88.040">  2  9  1 -1</clus>
<clus scale="   89.301">  7  8 -1 -1</clus>
<clus scale="   89.317">  5  6 -1 -1</clus>
<clus scale="   91.792">  1  7  2 -1</clus>
<clus scale="   88.040">  2  5  1 -1</clus>
</clustering>
</event>
<event>
 9    1  0.2075077E-005  0.9693524E+02  0.7546771E-02  0.1287057E+00
          4   -1    0    0  502    0  0.00000000000E+00  0.00000000000E+00  0.18480541985E+02  0.18480541985E+02  0.00000000000E+00 0. -1.
         -4   -1    0    0    0  501 -0.00000000000E+00 -0.00000000000E+00 -0.68438549799E+03  0.68438549799E+03  0.00000000000E+00 0.  1.
         23    2    1    2    0    0 -0.36633305042E+02 -0.24936954183E+02 -0.32707585070E+03  0.34226801897E+03  0.90581090627E+02 0.  0.
         23    2    1    2    0    0  0.76724502593E+01  0.24227173602E+02 -0.25784828033E+03  0.27459145781E+03  0.90933550458E+02 0.  0.
        -13    1    3    3    0    0 -0.19454894543E+02 -0.55852468242E+02 -0.25766748664E+03  0.26436816147E+03  0.00000000000E+00 0.  1.
         13    1    3    3    0    0 -0.17178410500E+02  0.30915514059E+02 -0.69408364056E+02  0.77899857495E+02  0.00000000000E+00 0. -1.
        -13    1    4    4    0    0  0.36236264356E+01 -0.34927294818E+02 -0.93959430739E+02  0.10030663596E+03  0.00000000000E+00 0.  1.
         13    1    4    4    0    0  0.40488238236E+01  0.59154468420E+02 -0.16388884960E+03  0.17428482186E+03  0.00000000000E+00 0. -1.
         21    1    1    2  502  501  0.28960854783E+02  0.70978058090E+00 -0.80980824971E+02  0.86006563187E+02  0.00000000000E+00 0.  1.
<scales pt_clust_5="13000.00000" pt_clust_6="13000.00000" pt_clust_7="13000.00000" pt_clust_8="13000.00000" pt_clust_9="28.96955"></scales>
<clustering>
<clus scale="   28.970">  1  9  2 -1</clus>
<clus scale="   90.581">  5  6 -1 -1</clus>
<clus scale="   90.934">  7  8 -1 -1</clus>
<clus scale="   96.605">  2  5  1 -1</clus>
<clus scale="   28.970">  1  5  2 -1</clus>
</clustering>
</event>
<event>
 9    1  0.2075077E-005  0.9381658E+02  0.7546771E-02  0.1298488E+00
          2   -1    0    0  502    0  0.00000000000E+00  0.00000000000E+00  0.36312464551E+03  0.36312464551E+03  0.00000000000E+00 0. -1.
         -2   -1    0    0    0  501 -0.00000000000E+00 -0.00000000000E+00 -0.70809452079E+02  0.70809452079E+02  0.00000000000E+00 0.  1.
         23    2    1    2    0    0  0.83568167405E+01 -0.19974093279E+02 -0.12033159906E+02  0.86241977385E+02  0.82607995603E+02 0.  0.
         23    2    1    2    0    0  0.40926193327E+02  0.45882553573E+02  0.16944580822E+03  0.20175117299E+03  0.90617282319E+02 0.  0.
        -11    1    4    4    0    0  0.31787782901E+02  0.64226502138E+02  0.69864113983E+02  0.10008247170E+03  0.00000000000E+00 0.  1.
         11    1    4    4    0    0  0.91384104268E+01 -0.18343948566E+02  0.99581694239E+02  0.10166870129E+03  0.00000000000E+00 0. -1.
        -13    1    3    3    0    0 -0.27060416230E+02  0.18520323606E+02 -0.81525042739E+01  0.33789522621E+02  0.00000000000E+00 0.  1.
         13    1    3    3    0    0  0.35417232971E+02 -0.38494416885E+02 -0.38806556323E+01  0.52452454764E+02  0.00000000000E+00 0. -1.
         21    1    1    2  502  501 -0.49283010068E+02 -0.25908460293E+02  0.13490254511E+03  0.14594094721E+03  0.00000000000E+00 0. -1.
<scales pt_clust_5="13000.00000" pt_clust_6="13000.00000" pt_clust_7="13000.00000" pt_clust_8="13000.00000" pt_clust_9="55.67821"></scales>
<clustering>
<clus scale="   55.678">  1  9  2 -1</clus>
<clus scale="   82.608">  7  8 -1 -1</clus>
<clus scale="   86.105">  2  7  1 -1</clus>
<clus scale="   90.617">  5  6 -1 -1</clus>
<clus scale="   55.678">  1  5  2 -1</clus>
</clustering>
</event>
<event>
 9    1  0.2075077E-005  0.1389885E+03  0.7546771E-02  0.1227009E+00
         -1   -1    0    0    0  501 -0.00000000000E+00  0.00000000000E+00  0.30260357469E+03  0.30260357469E+03  0.00000000000E+00 0.  1.
          1   -1    0    0  502    0  0.00000000000E+00 -0.00000000000E+00 -0.18481483381E+03  0.18481483381E+03  0.00000000000E+00 0. -1.
         23    2    1    2    0    0  0.31250387061E+02 -0.46846734355E+02  0.20699362426E+03  0.24882543202E+03  0.12608144956E+03 0.  0.
         23    2    1    2    0    0 -0.10352989671E+02  0.66134408038E+02  0.29926423541E+02  0.11611447280E+03  0.90033525121E+02 0.  0.
        -11    1    4    4    0    0  0.19876757376E+02  0.67642758874E+02 -0.40409223911E+01  0.70618392545E+02  0.00000000000E+00 0. -1.
         11    1    4    4    0    0 -0.30229747046E+02 -0.15083508359E+01  0.33967345932E+02  0.45496080253E+02  0.00000000000E+00 0.  1.
        -11    1    3    3    0    0  0.80924347016E+01 -0.64385050527E+02  0.20983245124E+03  0.21963738258E+03  0.00000000000E+00 0.  1.
         11    1    3    3    0    0  0.23157952359E+02  0.17538316173E+02 -0.28388269820E+01  0.29188049443E+02  0.00000000000E+00 0. -1.
         21    1    1    2  502  501 -0.20897397390E+02 -0.19287673684E+02 -0.11913130692E+03  0.12247850368E+03  0.00000000000E+00 0. -1.
<scales pt_clust_5="13000.00000" pt_clust_6="13000.00000" pt_clust_7="13000.00000" pt_clust_8="13000.00000" pt_clust_9="28.43792"></scales>
<clustering>
<clus scale="   28.438">  2  9  1 -1</clus>
<clus scale="   90.034">  5  6 -1 -1</clus>
<clus scale="  107.365">  2  5  1 -1</clus>
<clus scale="  126.081">  7  8 -1 -1</clus>
<clus scale="   28.438">  2  5  1 -1</clus>
</clustering>
</event>
<event>
 9    1  0.2075077E-005  0.1281086E+03  0.7546771E-02  0.1230695E+00
         -2   -1    0    0    0  501 -0.00000000000E+00  0.00000000000E+00  0.63095112276E+02  0.63095112276E+02  0.00000000000E+00 0.  1.
          2   -1    0    0  502    0  0.00000000000E+00 -0.00000000000E+00 -0.33558208519E+03  0.33558208519E+03  0.00000000000E+00 0. -1.
         23    2    1    2    0    0 -0.99117140793E+02  0.23419433729E+02 -0.95974584201E+02  0.16631493793E+03  0.89871354124E+02 0.  0.
         23    2    1    2    0    0  0.76632302968E+02 -0.17109589659E+01 -0.13109029491E+03  0.17722613331E+03  0.91372860697E+02 0.  0.
        -11    1    3    3    0    0 -0.76070638291E+02  0.32184950412E+01 -0.10904626870E+03  0.13299695274E+03  0.00000000000E+00 0. -1.
         11    1    3    3    0    0 -0.23046502503E+02  0.20200938688E+02  0.13071684503E+02  0.33317985192E+02  0.00000000000E+00 0.  1.
        -13    1    4    4    0    0  0.43457107711E+02  0.29509010031E+02 -0.11902392444E+03  0.13009994802E+03  0.00000000000E+00 0.  1.
         13    1    4    4    0    0  0.33175195257E+02 -0.31219968997E+02 -0.12066370461E+02  0.47126185297E+02  0.00000000000E+00 0. -1.
         21    1    1    2  502  501  0.22484837825E+02 -0.21708474763E+02 -0.45422093804E+02  0.55136126216E+02  0.00000000000E+00 0.  1.
<scales pt_clust_5="13000.00000" pt_clust_6="13000.00000" pt_clust_7="13000.00000" pt_clust_8="13000.00000" pt_clust_9="31.25421"></scales>
<clustering>
<clus scale="   31.254">  2  9  1 -1</clus>
<clus scale="   89.871">  5  6 -1 -1</clus>
<clus scale="   91.373">  7  8 -1 -1</clus>
<clus scale="  127.042">  1  5  2 -1</clus>
<clus scale="   31.254">  2  5  1 -1</clus>
</clustering>
</event>
<event>
 9    1  0.2075077E-005  0.1126863E+03  0.7546771E-02  0.1256826E+00
         -2   -1    0    0    0  501 -0.00000000000E+00  0.00000000000E+00  0.10704273744E+03  0.10704273744E+03  0.00000000000E+00 0.  1.
          2   -1    0    0  502    0  0.00000000000E+00 -0.00000000000E+00 -0.25684130793E+03  0.25684130793E+03  0.00000000000E+00 0. -1.
         23    2    1    2    0    0  0.65979407055E+02 -0.63046011997E+02  0.65084705691E+00  0.13154578112E+03  0.94740630909E+02 0.  0.
         23    2    1    2    0    0 -0.83697507345E+01  0.31527981653E+01 -0.95531343334E+02  0.13272870427E+03  0.91709751471E+02 0.  0.
        -11    1    4    4    0    0 -0.41254257897E+02  0.24937827666E+02 -0.72462854294E+02  0.87032604785E+02  0.00000000000E+00 0. -1.
         11    1    4    4    0    0  0.32884507163E+02 -0.21785029500E+02 -0.23068489040E+02  0.45696099486E+02  0.00000000000E+00 0.  1.
        -13    1    3    3    0    0  0.37084489188E+02 -0.70930481248E+02  0.33787386552E+02  0.86879111405E+02  0.00000000000E+00 0.  1.
         13    1    3    3    0    0  0.28894917867E+02  0.78844692514E+01 -0.33136539495E+02  0.44666669717E+02  0.00000000000E+00 0. -1.
         21    1    1    2  502  501 -0.57609656321E+02  0.59893213832E+02 -0.54918074216E+02  0.99609559983E+02  0.00000000000E+00 0.  1.
<scales pt_clust_5="13000.00000" pt_clust_6="13000.00000" pt_clust_7="13000.00000" pt_clust_8="13000.00000" pt_clust_9="83.10277"></scales>
<clustering>
<clus scale="   83.103">  2  9  1 -1</clus>
<clus scale="   91.710">  5  6 -1 -1</clus>
<clus scale="   94.741">  7  8 -1 -1</clus>
<clus scale="  110.150">  2  5  1 -1</clus>
<clus scale="   83.103">  2  5  1 -1</clus>
</clustering>
</event>
<event>
 9    1  0.2075077E-005  0.1116487E+03  0.7546771E-02  0.1258143E+00
          1   -1    0    0  502    0  0.00000000000E+00  0.00000000000E+00  0.80866843189E+02  0.80866843189E+02  0.00000000000E+00 0. -1.
         -1   -1    0    0    0  501 -0.00000000000E+00 -0.00000000000E+00 -0.26484730870E+03  0.26484730870E+03  0.00000000000E+00 0.  1.
         23    2    1    2    0    0 -0.41247514515E+01  0.59036818659E+02 -0.17114237258E+03  0.20263489482E+03  0.90933103849E+02 0.  0.
         23    2    1    2    0    0  0.22675168602E+02 -0.71346921858E+02 -0.17623934939E+02  0.12030732477E+03  0.92513257323E+02 0.  0.
        -11    1    4    4    0    0  0.57498107346E+02 -0.37432809132E+02 -0.20520491483E+02  0.71612415952E+02  0.00000000000E+00 0.  1.
         11    1    4    4    0    0 -0.34822938744E+02 -0.33914112726E+02  0.28965565432E+01  0.48694908816E+02  0.00000000000E+00 0. -1.
        -11    1    3    3    0    0 -0.45177170373E+02  0.43031732334E+02 -0.80474869925E+02  0.10182785179E+03  0.00000000000E+00 0. -1.
         11    1    3    3    0    0  0.41052418921E+02  0.16005086326E+02 -0.90667502651E+02  0.10080704303E+03  0.00000000000E+00 0.  1.
         21    1    1    2  502  501 -0.18550417150E+02  0.12310103198E+02  0.47858420007E+01  0.22771932304E+02  0.00000000000E+00 0. -1.
<scales pt_clust_5="13000.00000" pt_clust_6="13000.00000" pt_clust_7="13000.00000" pt_clust_8="13000.00000" pt_clust_9="22.26335"></scales>
<clustering>
<clus scale="   22.263">  1  9  2 -1</clus>
<clus scale="   90.933">  7  8 -1 -1</clus>
<clus scale="   92.513">  5  6 -1 -1</clus>
<clus scale="  110.343">  2  7  1 -1</clus>
<clus scale="   22.263">  1  5  2 -1</clus>
</clustering>
</event>
<event>
 9    1  0.2075077E-005  0.1060498E+03  0.7546771E-02  0.1268427E+00
         -2   -1    0    0    0  501 -0.00000000000E+00  0.00000000000E+00  0.21484054393E+03  0.21484054393E+03  0.00000000000E+00 0.  1.
          2   -1    0    0  502    0  0.00000000000E+00 -0.00000000000E+00 -0.21679366048E+03  0.21679366048E+03  0.00000000000E+00 0. -1.
         23    2    1    2    0    0 -0.55823379114E+02  0.82018137862E+01  0.14877593212E+03  0.18132070521E+03  0.86944814418E+02 0.  0.
         23    2    1    2    0    0  0.74305924344E+02  0.15756026566E+02 -0.22149999451E+02  0.11822203661E+03  0.87841930187E+02 0.  0.
        -11    1    4    4    0    0 -0.67435157290E+01 -0.24654136811E+02 -0.44754999409E+01  0.25948633220E+02  0.00000000000E+00 0.  1.
         11    1    4    4    0    0  0.81049440073E+02  0.40410163377E+02 -0.17674499510E+02  0.92273403391E+02  0.00000000000E+00 0. -1.
        -13    1    3    3    0    0  0.57556355944E+01 -0.30417574608E+02  0.45122388386E+02  0.54720984273E+02  0.00000000000E+00 0. -1.
         13    1    3    3    0    0 -0.61579014709E+02  0.38619388395E+02  0.10365354373E+03  0.12659972093E+03  0.00000000000E+00 0.  1.
         21    1    1    2  502  501 -0.18482545230E+02 -0.23957840353E+02 -0.12857904922E+03  0.13209146260E+03  0.00000000000E+00 0.  1.
<scales pt_clust_5="13000.00000" pt_clust_6="13000.00000" pt_clust_7="13000.00000" pt_clust_8="13000.00000" pt_clust_9="30.25860"></scales>
<clustering>
<clus scale="   30.259">  2  9  1 -1</clus>
<clus scale="   86.945">  7  8 -1 -1</clus>
<clus scale="   87.842">  5  6 -1 -1</clus>
<clus scale="  105.308">  1  7  2 -1</clus>
<clus scale="   30.259">  2  5  1 -1</clus>
</clustering>
</event>
<event>
 9    1  0.2075077E-005  0.1067000E+03  0.7546771E-02  0.1267435E+00
         -1   -1    0    0    0  501 -0.00000000000E+00  0.00000000000E+00  0.74652775755E+02  0.74652775755E+02  0.00000000000E+00 0.  1.
          1   -1    0    0  502    0  0.00000000000E+00 -0.00000000000E+00 -0.27297477212E+03  0.27297477212E+03  0.00000000000E+00 0. -1.
         23    2    1    2    0    0 -0.34392597939E+02 -0.39046666316E+02 -0.14383726401E+02  0.10478573389E+03  0.89809050204E+02 0.  0.
         23    2    1    2    0    0  0.70229567594E+02  0.17451733403E+02 -0.14048945391E+03  0.18252242126E+03  0.91325749057E+02 0.  0.
        -11    1    3    3    0    0  0.25195211466E+02 -0.36228259631E+02 -0.68820263595E+01  0.44661479638E+02  0.00000000000E+00 0.  1.
         11    1    3    3    0    0 -0.59587809405E+02 -0.28184066858E+01 -0.75017000412E+01  0.60124254253E+02  0.00000000000E+00 0. -1.
        -13    1    4    4    0    0  0.91635690506E+02  0.22854539625E+02 -0.11414571000E+03  0.14815084497E+03  0.00000000000E+00 0. -1.
         13    1    4    4    0    0 -0.21406122912E+02 -0.54028062229E+01 -0.26343743913E+02  0.34371576289E+02  0.00000000000E+00 0.  1.
         21    1    1    2  502  501 -0.35836969654E+02  0.21594932914E+02 -0.43448816052E+02  0.60319392718E+02  0.00000000000E+00 0.  1.
<scales pt_clust_5="13000.00000" pt_clust_6="13000.00000" pt_clust_7="13000.00000" pt_clust_8="13000.00000" pt_clust_9="41.84052"></scales>
<clustering>
<clus scale="   41.841">  2  9  1 -1</clus>
<clus scale="   89.809">  5  6 -1 -1</clus>
<clus scale="   91.326">  7  8 -1 -1</clus>
<clus scale="  105.405">  1  5  2 -1</clus>
<clus scale="   41.841">  2  5  1 -1</clus>
</clustering>
</event>
<event>
 9    1  0.2075077E-005  0.1058021E+03  0.7546771E-02  0.1270572E+00
          2   -1    0    0  502    0  0.00000000000E+00  0.00000000000E+00  0.23382863542E+03  0.23382863542E+03  0.00000000000E+00 0. -1.
         -2   -1    0    0    0  501 -0.00000000000E+00 -0.00000000000E+00 -0.13154992233E+03  0.13154992233E+03  0.00000000000E+00 0.  1.
         23    2    1    2    0    0 -0.11822111745E+02  0.46032816615E+02 -0.34012242851E+02  0.10941284958E+03  0.92496251049E+02 0.  0.
         23    2    1    2    0    0  0.93740643738E+02 -0.25834866278E+02  0.96249990266E+02  0.16257469140E+03  0.87816405385E+02 0.  0.
        -11    1    4    4    0    0 -0.69417260172E+01 -0.23101034408E+02  0.13017819080E+01  0.24156572334E+02  0.00000000000E+00 0.  1.
         11    1    4    4    0    0  0.10068236975E+03 -0.27338318699E+01  0.94948208358E+02  0.13841811907E+03  0.00000000000E+00 0. -1.
        -11    1    3    3    0    0 -0.16667177664E+02  0.14349120499E+02  0.30367869024E+02  0.37495326902E+02  0.00000000000E+00 0. -1.
         11    1    3    3    0    0  0.48450659193E+01  0.31683696116E+02 -0.64380111875E+02  0.71917522680E+02  0.00000000000E+00 0.  1.
         21    1    1    2  502  501 -0.81918531993E+02 -0.20197950337E+02  0.40040965676E+02  0.93391016774E+02  0.00000000000E+00 0. -1.
<scales pt_clust_5="13000.00000" pt_clust_6="13000.00000" pt_clust_7="13000.00000" pt_clust_8="13000.00000" pt_clust_9="84.37181"></scales>
<clustering>
<clus scale="   84.372">  1  9  2 -1</clus>
<clus scale="   87.816">  5  6 -1 -1</clus>
<clus scale="   92.496">  7  8 -1 -1</clus>
<clus scale="  101.736">  1  5  2 -1</clus>
<clus scale="   84.372">  1  5  2 -1</clus>
</clustering>
</event>
<event>
 9    1  0.2075077E-005  0.1040681E+03  0.7546771E-02  0.1273411E+00
         -1   -1    0    0    0  501 -0.00000000000E+00  0.00000000000E+00  0.55755112255E+03  0.55755112255E+03  0.00000000000E+00 0.  1.
          1   -1    0    0  502    0  0.00000000000E+00 -0.00000000000E+00 -0.29283394792E+02  0.29283394792E+02  0.00000000000E+00 0. -1.
         23    2    1    2    0    0  0.16623976681E+02  0.55280948956E+02  0.32311072291E+03  0.34027570084E+03  0.89747832321E+02 0.  0.
         23    2    1    2    0    0 -0.89930791236E+01 -0.30668678414E+02  0.19590037950E+03  0.21917853944E+03  0.92956065738E+02 0.  0.
        -11    1    4    4    0    0  0.24200001472E+02  0.16576862985E+02  0.24192520448E+02  0.38022499961E+02  0.00000000000E+00 0.  1.
         11    1    4    4    0    0 -0.33193080596E+02 -0.47245541399E+02  0.17170785905E+03  0.18115603948E+03  0.00000000000E+00 0. -1.
        -13    1    3    3    0    0  0.46540438600E+02  0.35916935385E+02  0.26993919817E+03  0.27626655494E+03  0.00000000000E+00 0.  1.
         13    1    3    3    0    0 -0.29916461919E+02  0.19364013571E+02  0.53171524738E+02  0.64009145896E+02  0.00000000000E+00 0. -1.
         21    1    1    2  502  501 -0.76308975577E+01 -0.24612270542E+02  0.92566253506E+01  0.27380277056E+02  0.00000000000E+00 0. -1.
<scales pt_clust_5="13000.00000" pt_clust_6="13000.00000" pt_clust_7="13000.00000" pt_clust_8="13000.00000" pt_clust_9="25.76809"></scales>
<clustering>
<clus scale="   25.768">  2  9  1 -1</clus>
<clus scale="   89.748">  7  8 -1 -1</clus>
<clus scale="   92.956">  5  6 -1 -1</clus>
<clus scale="  101.213">  1  7  2 -1</clus>
<clus scale="   25.768">  2  5  1 -1</clus>
</clustering>
</event>
<event>
 9    1  0.2075077E-005  0.1629188E+03  0.7546771E-02  0.1186689E+00
          2   -1    0    0  502    0  0.00000000000E+00  0.00000000000E+00  0.35860558297E+03  0.35860558297E+03  0.00000000000E+00 0. -1.
         -2   -1    0    0    0  501 -0.00000000000E+00 -0.00000000000E+00 -0.23363501088E+03  0.23363501088E+03  0.00000000000E+00 0.  1.
         23    2    1    2    0    0  0.71519734394E+02 -0.12475474453E+03 -0.14240022599E+03  0.22504415347E+03  0.98428796387E+02 0.  0.
         23    2    1    2    0    0  0.15937108243E+02  0.10547907151E+03  0.84636171517E+02  0.16369657640E+03  0.90848564380E+02 0.  0.
        -11    1    3    3    0    0  0.94204068939E+02 -0.78398306326E+02 -0.10353732041E+03  0.16043901570E+03  0.00000000000E+00 0.  1.
         11    1    3    3    0    0 -0.22684334545E+02 -0.46356438207E+02 -0.38862905579E+02  0.64605137776E+02  0.00000000000E+00 0. -1.
        -13    1    4    4    0    0  0.49683397450E+02  0.85093428519E+02  0.72866878935E+02  0.12255167728E+03  0.00000000000E+00 0.  1.
         13    1    4    4    0    0 -0.33746289207E+02  0.20385642995E+02  0.11769292582E+02  0.41144899118E+02  0.00000000000E+00 0. -1.
         21    1    1    2  502  501 -0.87456842637E+02  0.19275673019E+02  0.18273462657E+03  0.20349986398E+03  0.00000000000E+00 0. -1.
<scales pt_clust_5="13000.00000" pt_clust_6="13000.00000" pt_clust_7="13000.00000" pt_clust_8="13000.00000" pt_clust_9="89.55585"></scales>
<clustering>
<clus scale="   89.556">  1  9  2 -1</clus>
<clus scale="   90.849">  7  8 -1 -1</clus>
<clus scale="   98.429">  5  6 -1 -1</clus>
<clus scale="  158.454">  1  7  2 -1</clus>
<clus scale="   89.556">  1  5  2 -1</clus>
</clustering>
</event>
<event>
 9    1  0.2075077E-005  0.9381281E+02  0.7546771E-02  0.1294732E+00
         -3   -1    0    0    0  501 -0.00000000000E+00  0.00000000000E+00  0.90380060258E+02  0.90380060258E+02  0.00000000000E+00 0.  1.
          3   -1    0    0  502    0  0.00000000000E+00 -0.00000000000E+00 -0.28959948841E+03  0.28959948841E+03  0.00000000000E+00 0. -1.
         23    2    1    2    0    0  0.98697397913E+01 -0.14809930203E+02  0.41757561510E+02  0.10100324053E+03  0.90228680906E+02 0.  0.
         23    2    1    2    0    0 -0.41304067921E+02  0.92100804987E+01 -0.21591234459E+03  0.23838429250E+03  0.91750088562E+02 0.  0.
        -11    1    4    4    0    0  0.23182743398E+02 -0.65920754216E+01 -0.11562592359E+03  0.11811117329E+03  0.00000000000E+00 0. -1.
         11    1    4    4    0    0 -0.64486811319E+02  0.15802155920E+02 -0.10028642100E+03  0.12027311921E+03  0.00000000000E+00 0.  1.
        -13    1    3    3    0    0  0.27768089822E+02  0.31231686422E+02  0.12633775682E+02  0.43658874666E+02  0.00000000000E+00 0. -1.
         13    1    3    3    0    0 -0.17898350031E+02 -0.46041616625E+02  0.29123785827E+02  0.57344365863E+02  0.00000000000E+00 0.  1.
         21    1    1    2  502  501  0.31434328129E+02  0.55998497047E+01 -0.25064645071E+02  0.40592015646E+02  0.00000000000E+00 0. -1.
<scales pt_clust_5="13000.00000" pt_clust_6="13000.00000" pt_clust_7="13000.00000" pt_clust_8="13000.00000" pt_clust_9="31.92922"></scales>
<clustering>
<clus scale="   31.929">  2  9  1 -1</clus>
<clus scale="   90.229">  7  8 -1 -1</clus>
<clus scale="   91.750">  5  6 -1 -1</clus>
<clus scale="   92.325">  1  7  2 -1</clus>
<clus scale="   31.929">  2  5  1 -1</clus>
</clustering>
</event>
<event>
 9    1  0.2075077E-005  0.1071674E+03  0.7546771E-02  0.1266427E+00
          2   -1    0    0  502    0  0.00000000000E+00  0.00000000000E+00  0.22396112838E+03  0.22396112838E+03  0.00000000000E+00 0. -1.
         -2   -1    0    0    0  501 -0.00000000000E+00 -0.00000000000E+00 -0.16981283204E+03  0.16981283204E+03  0.00000000000E+00 0.  1.
         23    2    1    2    0    0 -0.66238392698E+02 -0.93610511945E+01 -0.11381898157E+03  0.15973561628E+03  0.89919700829E+02 0.  0.
         23    2    1    2    0    0 -0.36479501163E+01  0.85179197860E+01  0.11040625050E+03  0.14349507460E+03  0.91189000367E+02 0.  0.
        -11    1    3    3    0    0  0.12528228584E+02 -0.17043264411E+02 -0.55826929028E-01  0.21152600073E+02  0.00000000000E+00 0.  1.
         11    1    3    3    0    0 -0.78766621282E+02  0.76822132161E+01 -0.11376315464E+03  0.13858301621E+03  0.00000000000E+00 0. -1.
        -13    1    4    4    0    0 -0.14694968727E+02  0.43823761384E+02  0.30324239242E+02  0.55281313780E+02  0.00000000000E+00 0. -1.
         13    1    4    4    0    0  0.11047018610E+02 -0.35305841598E+02  0.80082011257E+02  0.88213760820E+02  0.00000000000E+00 0.  1.
         21    1    1    2  502  501  0.69886342814E+02  0.84313140852E+00  0.57561027414E+02  0.90543269543E+02  0.00000000000E+00 0. -1.
<scales pt_clust_5="13000.00000" pt_clust_6="13000.00000" pt_clust_7="13000.00000" pt_clust_8="13000.00000" pt_clust_9="69.89143"></scales>
<clustering>
<clus scale="   69.891">  1  9  2 -1</clus>
<clus scale="   89.920">  5  6 -1 -1</clus>
<clus scale="   91.189">  7  8 -1 -1</clus>
<clus scale="  106.089">  2  5  1 -1</clus>
<clus scale="   69.891">  1  5  2 -1</clus>
</clustering>
</event>
<event>
 9    1  0.2075077E-005  0.9951372E+02  0.7546771E-02  0.1285419E+00
          2   -1    0    0  502    0  0.00000000000E+00  0.00000000000E+00  0.51499258541E+03  0.51499258541E+03  0.00000000000E+00 0. -1.
         -2   -1    0    0    0  501 -0.00000000000E+00 -0.00000000000E+00 -0.33450267574E+02  0.33450267574E+02  0.00000000000E+00 0.  1.
         23    2    1    2    0    0  0.30864944074E+02 -0.19200345026E+02  0.63737947899E+02  0.11258672471E+03  0.85392895235E+02 0.  0.
         23    2    1    2    0    0 -0.11218714292E+02  0.31811578864E+02  0.30807254831E+03  0.32366838277E+03  0.93352508715E+02 0.  0.
        -11    1    3    3    0    0  0.14964387408E+02  0.30632609162E+02  0.58923004332E+01  0.34597815523E+02  0.00000000000E+00 0.  1.
         11    1    3    3    0    0  0.15900556666E+02 -0.49832954188E+02  0.57845647466E+02  0.77988909186E+02  0.00000000000E+00 0. -1.
        -11    1    4    4    0    0  0.20828477978E+02 -0.25906827779E+02  0.10300542404E+03  0.10823634603E+03  0.00000000000E+00 0.  1.
         11    1    4    4    0    0 -0.32047192270E+02  0.57718406643E+02  0.20506712427E+03  0.21543203674E+03  0.00000000000E+00 0. -1.
         21    1    1    2  502  501 -0.19646229782E+02 -0.12611233838E+02  0.10973182163E+03  0.11218774550E+03  0.00000000000E+00 0. -1.
<scales pt_clust_5="13000.00000" pt_clust_6="13000.00000" pt_clust_7="13000.00000" pt_clust_8="13000.00000" pt_clust_9="23.34561"></scales>
<clustering>
<clus scale="   23.346">  1  9  2 -1</clus>
<clus scale="   85.393">  5  6 -1 -1</clus>
<clus scale="   92.088">  2  5  1 -1</clus>
<clus scale="   93.353">  7  8 -1 -1</clus>
<clus scale="   23.346">  1  5  2 -1</clus>
</clustering>
</event>
<event>
 9    1  0.2075077E-005  0.1745632E+03  0.7546771E-02  0.1182786E+00
         -1   -1    0    0    0  501 -0.00000000000E+00  0.00000000000E+00  0.20034718510E+03  0.20034718510E+03  0.00000000000E+00 0.  1.
          1   -1    0    0  502    0  0.00000000000E+00 -0.00000000000E+00 -0.34091810030E+03  0.34091810030E+03  0.00000000000E+00 0. -1.
         23    2    1    2    0    0 -0.18292962154E+02 -0.68685627560E+02  0.14132298223E+02  0.14123585410E+03  0.12122498395E+03 0.  0.
         23    2    1    2    0    0  0.69933722118E+02 -0.86402544567E+02  0.36974709967E+02  0.14811766988E+03  0.90639890545E+02 0.  0.
        -11    1    3    3    0    0  0.13648048537E+02  0.32030203976E+02  0.51469878865E+01  0.35195094544E+02  0.00000000000E+00 0. -1.
         11    1    3    3    0    0 -0.31941010691E+02 -0.10071583154E+03  0.89853103367E+01  0.10604075956E+03  0.00000000000E+00 0.  1.
        -13    1    4    4    0    0  0.67984219049E+02 -0.12303549951E+02  0.13786127447E+02  0.70450611715E+02  0.00000000000E+00 0. -1.
         13    1    4    4    0    0  0.19495030691E+01 -0.74098994617E+02  0.23188582520E+02  0.77667058170E+02  0.00000000000E+00 0.  1.
         21    1    1    2  502  501 -0.51640759964E+02  0.15508817213E+03 -0.19167792339E+03  0.25191176142E+03  0.00000000000E+00 0. -1.
<scales pt_clust_5="13000.00000" pt_clust_6="13000.00000" pt_clust_7="13000.00000" pt_clust_8="13000.00000" pt_clust_9="149.18686"></scales>
<clustering>
<clus scale="   90.640">  7  8 -1 -1</clus>
<clus scale="  121.225">  5  6 -1 -1</clus>
<clus scale="  140.527">  1  5  2 -1</clus>
<clus scale="  149.187">  2  9  1 -1</clus>
<clus scale="  149.187">  2  5  1 -1</clus>
</clustering>
</event>
<event>
 9    1  0.2075077E-005  0.1061075E+03  0.7546771E-02  0.1268260E+00
          1   -1    0    0  502    0  0.00000000000E+00  0.00000000000E+00  0.62332418233E+03  0.62332418233E+03  0.00000000000E+00 0. -1.
         -1   -1    0    0    0  501 -0.00000000000E+00 -0.00000000000E+00 -0.40967993386E+02  0.40967993386E+02  0.00000000000E+00 0.  1.
         23    2    1    2    0    0 -0.52146590227E+02  0.45484890853E+02  0.11748290629E+03  0.16565219926E+03  0.94075903823E+02 0.  0.
         23    2    1    2    0    0  0.16357900153E+02 -0.17672287081E+02  0.14090349696E+03  0.17151493414E+03  0.94782311383E+02 0.  0.
        -11    1    3    3    0    0 -0.19725053869E+02  0.63645483098E+02  0.35180582725E+02  0.75349178296E+02  0.00000000000E+00 0.  1.
         11    1    3    3    0    0 -0.32421536358E+02 -0.18160592246E+02  0.82302323564E+02  0.90303020960E+02  0.00000000000E+00 0. -1.
        -13    1    4    4    0    0  0.43777097083E+02 -0.55866811910E+01  0.22808407777E+02  0.49677647902E+02  0.00000000000E+00 0.  1.
         13    1    4    4    0    0 -0.27419196930E+02 -0.12085605890E+02  0.11809508918E+03  0.12183728624E+03  0.00000000000E+00 0. -1.
         21    1    1    2  502  501  0.35788690074E+02 -0.27812603772E+02  0.32396978570E+03  0.32712504232E+03  0.00000000000E+00 0. -1.
<scales pt_clust_5="13000.00000" pt_clust_6="13000.00000" pt_clust_7="13000.00000" pt_clust_8="13000.00000" pt_clust_9="45.32517"></scales>
<clustering>
<clus scale="   45.325">  1  9  2 -1</clus>
<clus scale="   94.076">  5  6 -1 -1</clus>
<clus scale="   94.782">  7  8 -1 -1</clus>
<clus scale="  105.477">  2  5  1 -1</clus>
<clus scale="   45.325">  1  5  2 -1</clus>
</clustering>
</event>
<event>
 9    1  0.2075077E-005  0.1259995E+03  0.7546771E-02  0.1233658E+00
          2   -1    0    0  502    0  0.00000000000E+00  0.00000000000E+00  0.13545392704E+03  0.13545392704E+03  0.00000000000E+00 0. -1.
         -2   -1    0    0    0  501 -0.00000000000E+00 -0.00000000000E+00 -0.38602419614E+03  0.38602419614E+03  0.00000000000E+00 0.  1.
         23    2    1    2    0    0  0.40359617527E+02 -0.80325775709E+02 -0.33616287266E+03  0.35953149295E+03  0.90422831728E+02 0.  0.
         23    2    1    2    0    0 -0.24784888635E+02  0.59867713298E+02  0.66988748470E+02  0.13021009101E+03  0.90932621089E+02 0.  0.
        -13    1    4    4    0    0  0.52353728338E+01  0.46082203580E+02 -0.90971232976E+01  0.47262419191E+02  0.00000000000E+00 0.  1.
         13    1    4    4    0    0 -0.30020261469E+02  0.13785509718E+02  0.76085871768E+02  0.82947671815E+02  0.00000000000E+00 0. -1.
        -13    1    3    3    0    0  0.68200286174E+02 -0.66143751452E+02 -0.27308086935E+03  0.28913567074E+03  0.00000000000E+00 0.  1.
         13    1    3    3    0    0 -0.27840668647E+02 -0.14182024257E+02 -0.63082003303E+02  0.70395822202E+02  0.00000000000E+00 0. -1.
         21    1    1    2  502  501 -0.15574728892E+02  0.20458062411E+02  0.18603855085E+02  0.31736539221E+02  0.00000000000E+00 0. -1.
<scales pt_clust_5="13000.00000" pt_clust_6="13000.00000" pt_clust_7="13000.00000" pt_clust_8="13000.00000" pt_clust_9="25.71195"></scales>
<clustering>
<clus scale="   25.712">  1  9  2 -1</clus>
<clus scale="   90.423">  7  8 -1 -1</clus>
<clus scale="   90.933">  5  6 -1 -1</clus>
<clus scale="  125.632">  2  7  1 -1</clus>
<clus scale="   25.712">  1  5  2 -1</clus>
</clustering>
</event>
<event>
 9    1  0.2075077E-005  0.9509197E+02  0.7546771E-02  0.1292324E+00
          1   -1    0    0  502    0  0.00000000000E+00  0.00000000000E+00  0.32617977754E+03  0.32617977754E+03  0.00000000000E+00 0. -1.
         -1   -1    0    0    0  501 -0.00000000000E+00 -0.00000000000E+00 -0.35611486969E+02  0.35611486969E+02  0.00000000000E+00 0.  1.
         23    2    1    2    0    0  0.58281343621E+01 -0.73505922988E+01  0.12181506768E+03  0.15229101776E+03  0.90915592835E+02 0.  0.
         23    2    1    2    0    0 -0.30734979461E+02  0.32296049044E+00  0.13343533840E+03  0.16571564321E+03  0.93337782304E+02 0.  0.
        -11    1    3    3    0    0  0.36157522833E+02  0.25422973145E+02  0.78452900754E+02  0.90047496676E+02  0.00000000000E+00 0.  1.
         11    1    3    3    0    0 -0.30329388471E+02 -0.32773565443E+02  0.43362166923E+02  0.62243521085E+02  0.00000000000E+00 0. -1.
        -13    1    4    4    0    0 -0.37185243238E+02 -0.19438350070E+02  0.13626151341E+02  0.44116479557E+02  0.00000000000E+00 0.  1.
         13    1    4    4    0    0  0.64502637777E+01  0.19761310560E+02  0.11980918706E+03  0.12159916366E+03  0.00000000000E+00 0. -1.
         21    1    1    2  502  501  0.24906845099E+02  0.70276318084E+01  0.35317884494E+02  0.43784603535E+02  0.00000000000E+00 0.  1.
<scales pt_clust_5="13000.00000" pt_clust_6="13000.00000" pt_clust_7="13000.00000" pt_clust_8="13000.00000" pt_clust_9="25.87931"></scales>
<clustering>
<clus scale="   25.879">  1  9  2 -1</clus>
<clus scale="   90.916">  5  6 -1 -1</clus>
<clus scale="   92.716">  2  5  1 -1</clus>
<clus scale="   93.338">  7  8 -1 -1</clus>
<clus scale="   25.879">  1  5  2 -1</clus>
</clustering>
</event>
<event>
 9    1  0.2075077E-005  0.9399918E+02  0.7546771E-02  0.1293707E+00
         -1   -1    0    0    0  501 -0.00000000000E+00  0.00000000000E+00  0.64933203424E+02  0.64933203424E+02  0.00000000000E+00 0.  1.
          1   -1    0    0  502    0  0.00000000000E+00 -0.00000000000E+00 -0.19475495622E+03  0.19475495622E+03  0.00000000000E+00 0. -1.
         23    2    1    2    0    0  0.29925434154E+02 -0.12722928507E+02 -0.26633407616E+02  0.10025727792E+03  0.91020760578E+02 0.  0.
         23    2    1    2    0    0 -0.76707691373E+01 -0.24188813504E+01 -0.64211838997E+02  0.11206303867E+03  0.91489194352E+02 0.  0.
        -11    1    4    4    0    0 -0.28579141160E+02 -0.12979638973E+02  0.11021632960E+02  0.33267322261E+02  0.00000000000E+00 0.  1.
         11    1    4    4    0    0  0.20908372023E+02  0.10560757622E+02 -0.75233471958E+02  0.78795716413E+02  0.00000000000E+00 0. -1.
        -13    1    3    3    0    0  0.49779433149E+01  0.30667731066E+02 -0.37846088066E+02  0.48965457521E+02  0.00000000000E+00 0.  1.
         13    1    3    3    0    0  0.24947490840E+02 -0.43390659572E+02  0.11212680449E+02  0.51291820402E+02  0.00000000000E+00 0. -1.
         21    1    1    2  502  501 -0.22254665017E+02  0.15141809857E+02 -0.38976506182E+02  0.47367843047E+02  0.00000000000E+00 0.  1.
<scales pt_clust_5="13000.00000" pt_clust_6="13000.00000" pt_clust_7="13000.00000" pt_clust_8="13000.00000" pt_clust_9="26.91736"></scales>
<clustering>
<clus scale="   26.917">  2  9  1 -1</clus>
<clus scale="   91.021">  7  8 -1 -1</clus>
<clus scale="   91.489">  5  6 -1 -1</clus>
<clus scale="   93.543">  1  7  2 -1</clus>
<clus scale="   26.917">  2  5  1 -1</clus>
</clustering>
</event>
<event>
 9    1  0.2075077E-005  0.1185661E+03  0.7546771E-02  0.1247970E+00
          1   -1    0    0  502    0  0.00000000000E+00  0.00000000000E+00  0.74280555298E+03  0.74280555298E+03  0.00000000000E+00 0. -1.
         -1   -1    0    0    0  501 -0.00000000000E+00 -0.00000000000E+00 -0.62497516439E+02  0.62497516439E+02  0.00000000000E+00 0.  1.
         23    2    1    2    0    0 -0.10764574733E+02 -0.65590770683E+02  0.61461179486E+01  0.11151261464E+03  0.89326721585E+02 0.  0.
         23    2    1    2    0    0  0.31955091696E+02  0.86847613433E+02  0.53953095679E+03  0.55585428386E+03  0.96523032000E+02 0.  0.
        -11    1    4    4    0    0  0.51256653444E+02  0.95294963775E+02  0.49360726047E+03  0.50532811344E+03  0.00000000000E+00 0. -1.
         11    1    4    4    0    0 -0.19301561748E+02 -0.84473503419E+01  0.45923696317E+02  0.50526170418E+02  0.00000000000E+00 0.  1.
        -13    1    3    3    0    0  0.81847052340E+01 -0.46087218891E+02  0.44441137280E+02  0.64544835793E+02  0.00000000000E+00 0. -1.
         13    1    3    3    0    0 -0.18949279967E+02 -0.19503551793E+02 -0.38295019332E+02  0.46967778843E+02  0.00000000000E+00 0.  1.
         21    1    1    2  502  501 -0.21190516963E+02 -0.21256842749E+02  0.13463096180E+03  0.13793617092E+03  0.00000000000E+00 0. -1.
<scales pt_clust_5="13000.00000" pt_clust_6="13000.00000" pt_clust_7="13000.00000" pt_clust_8="13000.00000" pt_clust_9="30.01485"></scales>
<clustering>
<clus scale="   30.015">  1  9  2 -1</clus>
<clus scale="   89.327">  7  8 -1 -1</clus>
<clus scale="   96.523">  5  6 -1 -1</clus>
<clus scale="  112.785">  2  7  1 -1</clus>
<clus scale="   30.015">  1  5  2 -1</clus>
</clustering>
</event>
<event>
 9    1  0.2075077E-005  0.1139909E+03  0.7546771E-02  0.1257253E+00
         -1   -1    0    0    0  501 -0.00000000000E+00  0.00000000000E+00  0.24834120613E+03  0.24834120613E+03  0.00000000000E+00 0.  1.
          1   -1    0    0  502    0  0.00000000000E+00 -0.00000000000E+00 -0.13095966941E+03  0.13095966941E+03  0.00000000000E+00 0. -1.
         23    2    1    2    0    0 -0.14049441122E+02 -0.69769214213E+02  0.20146977877E+03  0.23224720648E+03  0.91014081958E+02 0.  0.
         23    2    1    2    0    0 -0.25627377265E+01  0.55635330135E+02 -0.60038300522E+02  0.11458628768E+03  0.80147128531E+02 0.  0.
        -11    1    3    3    0    0 -0.47949327928E+02 -0.34187085338E+02  0.14969404468E+03  0.16086081520E+03  0.00000000000E+00 0. -1.
         11    1    3    3    0    0  0.33899886806E+02 -0.35582128875E+02  0.51775734090E+02  0.71386391290E+02  0.00000000000E+00 0.  1.
        -13    1    4    4    0    0  0.27958642453E+02  0.27744095810E+02  0.26654118250E+01  0.39478158015E+02  0.00000000000E+00 0.  1.
         13    1    4    4    0    0 -0.30521380179E+02  0.27891234325E+02 -0.62703712347E+02  0.75108129669E+02  0.00000000000E+00 0. -1.
         21    1    1    2  502  501  0.16612178848E+02  0.14133884078E+02 -0.24049941529E+02  0.32467381366E+02  0.00000000000E+00 0. -1.
<scales pt_clust_5="13000.00000" pt_clust_6="13000.00000" pt_clust_7="13000.00000" pt_clust_8="13000.00000" pt_clust_9="21.81126"></scales>
<clustering>
<clus scale="   21.811">  2  9  1 -1</clus>
<clus scale="   80.147">  7  8 -1 -1</clus>
<clus scale="   91.014">  5  6 -1 -1</clus>
<clus scale="  105.517">  2  7  1 -1</clus>
<clus scale="   21.811">  2  5  1 -1</clus>
</clustering>
</event>
<event>
 9    1  0.2075077E-005  0.9276558E+02  0.7546771E-02  0.1297029E+00
         -3   -1    0    0    0  501 -0.00000000000E+00  0.00000000000E+00  0.20788023541E+03  0.20788023541E+03  0.00000000000E+00 0.  1.
          3   -1    0    0  502    0  0.00000000000E+00 -0.00000000000E+00 -0.18724519179E+03  0.18724519179E+03  0.00000000000E+00 0. -1.
         23    2    1    2    0    0 -0.20543606413E+02 -0.27194305824E+02  0.49112424699E+02  0.10885254246E+03  0.90968542405E+02 0.  0.
         23    2    1    2    0    0 -0.14244364326E+01  0.66456300600E+01 -0.14164961057E+03  0.16917123440E+03  0.92239367700E+02 0.  0.
        -13    1    3    3    0    0 -0.55191452769E+02 -0.88539552173E+01  0.17747406837E+02  0.58646904702E+02  0.00000000000E+00 0.  1.
         13    1    3    3    0    0  0.34647846356E+02 -0.18340350607E+02  0.31365017862E+02  0.50205637761E+02  0.00000000000E+00 0. -1.
        -13    1    4    4    0    0  0.44176519877E+02 -0.73306464415E+01 -0.67116164209E+02  0.80683844627E+02  0.00000000000E+00 0. -1.
         13    1    4    4    0    0 -0.45600956310E+02  0.13976276501E+02 -0.74533446365E+02  0.88487389769E+02  0.00000000000E+00 0.  1.
         21    1    1    2  502  501  0.21968042846E+02  0.20548675764E+02  0.11317222950E+03  0.11710165034E+03  0.00000000000E+00 0.  1.
<scales pt_clust_5="13000.00000" pt_clust_6="13000.00000" pt_clust_7="13000.00000" pt_clust_8="13000.00000" pt_clust_9="30.08061"></scales>
<clustering>
<clus scale="   30.081">  1  9  2 -1</clus>
<clus scale="   90.969">  5  6 -1 -1</clus>
<clus scale="   91.502">  1  5  2 -1</clus>
<clus scale="   92.239">  7  8 -1 -1</clus>
<clus scale="   92.766">  2  5  1 -1</clus>
</clustering>
</event>
<event>
 9    1  0.2075077E-005  0.1092875E+03  0.7546771E-02  0.1262417E+00
         -2   -1    0    0    0  501 -0.00000000000E+00  0.00000000000E+00  0.12397189262E+03  0.12397189262E+03  0.00000000000E+00 0.  1.
          2   -1    0    0  502    0  0.00000000000E+00 -0.00000000000E+00 -0.16648493106E+03  0.16648493106E+03  0.00000000000E+00 0. -1.
         23    2    1    2    0    0 -0.46295785157E+02 -0.45324130859E+02  0.37952980585E+02  0.12004346618E+03  0.93661243188E+02 0.  0.
         23    2    1    2    0    0  0.23638764447E+01  0.49459121327E+02 -0.46128908887E+02  0.11450139204E+03  0.92362871054E+02 0.  0.
        -13    1    4    4    0    0  0.26244755820E+02 -0.17957631421E+02 -0.23307597330E+02  0.39427247274E+02  0.00000000000E+00 0.  1.
         13    1    4    4    0    0 -0.23880879375E+02  0.67416752748E+02 -0.22821311558E+02  0.75074144764E+02  0.00000000000E+00 0. -1.
        -13    1    3    3    0    0 -0.64295666587E+02 -0.25211710627E+02 -0.50775958577E+01  0.69248430121E+02  0.00000000000E+00 0. -1.
         13    1    3    3    0    0  0.17999881430E+02 -0.20112420232E+02  0.43030576443E+02  0.50795036057E+02  0.00000000000E+00 0.  1.
         21    1    1    2  502  501  0.43931908713E+02 -0.41349904683E+01 -0.34337110133E+02  0.55911965460E+02  0.00000000000E+00 0. -1.
<scales pt_clust_5="13000.00000" pt_clust_6="13000.00000" pt_clust_7="13000.00000" pt_clust_8="13000.00000" pt_clust_9="44.12608"></scales>
<clustering>
<clus scale="   44.126">  2  9  1 -1</clus>
<clus scale="   92.363">  5  6 -1 -1</clus>
<clus scale="   93.661">  7  8 -1 -1</clus>
<clus scale="  108.177">  2  5  1 -1</clus>
<clus scale="   44.126">  2  5  1 -1</clus>
</clustering>
</event>
<event>
 9    1  0.2075077E-005  0.9610581E+02  0.7546771E-02  0.1288878E+00
          1   -1    0    0  502    0  0.00000000000E+00  0.00000000000E+00  0.76185449804E+03  0.76185449804E+03  0.00000000000E+00 0. -1.
         -1   -1    0    0    0  501 -0.00000000000E+00 -0.00000000000E+00 -0.29076433719E+02  0.29076433719E+02  0.00000000000E+00 0.  1.
         23    2    1    2    0    0  0.22329548524E+02  0.19839803503E+02  0.86929134184E+02  0.12747190135E+03  0.88318654453E+02 0.  0.
         23    2    1    2    0    0 -0.58182440942E+02 -0.34812695482E+02  0.43709245255E+03  0.45111759704E+03  0.88657510020E+02 0.  0.
        -11    1    4    4    0    0 -0.43905829537E+02  0.23861308403E+02  0.23197013068E+03  0.23729143565E+03  0.00000000000E+00 0.  1.
         11    1    4    4    0    0 -0.14276611406E+02 -0.58674003884E+02  0.20512232187E+03  0.21382616139E+03  0.00000000000E+00 0. -1.
        -13    1    3    3    0    0  0.77490051939E+01  0.47356694054E+02  0.16976832465E+02  0.50901045115E+02  0.00000000000E+00 0.  1.
         13    1    3    3    0    0  0.14580543330E+02 -0.27516890551E+02  0.69952301719E+02  0.76570856239E+02  0.00000000000E+00 0. -1.
         21    1    1    2  502  501  0.35852892418E+02  0.14972891979E+02  0.20875647758E+03  0.21234143336E+03  0.00000000000E+00 0. -1.
<scales pt_clust_5="13000.00000" pt_clust_6="13000.00000" pt_clust_7="13000.00000" pt_clust_8="13000.00000" pt_clust_9="38.85380"></scales>
<clustering>
<clus scale="   38.854">  1  9  2 -1</clus>
<clus scale="   88.319">  7  8 -1 -1</clus>
<clus scale="   88.658">  5  6 -1 -1</clus>
<clus scale="   95.793">  2  7  1 -1</clus>
<clus scale="   38.854">  1  5  2 -1</clus>
</clustering>
</event>
<event>
 9    1  0.2075077E-005  0.1169187E+03  0.7546771E-02  0.1249561E+00
         -1   -1    0    0    0  501 -0.00000000000E+00  0.00000000000E+00  0.62291877769E+02  0.62291877769E+02  0.00000000000E+00 0.  1.
          1   -1    0    0  502    0  0.00000000000E+00 -0.00000000000E+00 -0.34555774058E+03  0.34555774058E+03  0.00000000000E+00 0. -1.
         23    2    1    2    0    0 -0.74308230119E+02  0.14797737967E+02 -0.51518908710E+02  0.13450896979E+03  0.98477301383E+02 0.  0.
         23    2    1    2    0    0  0.41668106692E+02  0.81591434492E+01 -0.15192118257E+03  0.18409632177E+03  0.94913683107E+02 0.  0.
        -11    1    3    3    0    0 -0.27816061988E+02 -0.41485384024E+02 -0.30571325821E+02  0.58560877338E+02  0.00000000000E+00 0. -1.
         11    1    3    3    0    0 -0.46492168131E+02  0.56283121992E+02 -0.20947582890E+02  0.75948092455E+02  0.00000000000E+00 0.  1.
        -11    1    4    4    0    0  0.10849062354E+02  0.48174003028E+02 -0.10073082237E+03  0.11218348941E+03  0.00000000000E+00 0.  1.
         11    1    4    4    0    0  0.30819044338E+02 -0.40014859579E+02 -0.51190360201E+02  0.71912832364E+02  0.00000000000E+00 0. -1.
         21    1    1    2  502  501  0.32640123427E+02 -0.22956881417E+02 -0.79825771529E+02  0.89244326778E+02  0.00000000000E+00 0. -1.
<scales pt_clust_5="13000.00000" pt_clust_6="13000.00000" pt_clust_7="13000.00000" pt_clust_8="13000.00000" pt_clust_9="39.90484"></scales>
<clustering>
<clus scale="   39.905">  2  9  1 -1</clus>
<clus scale="   94.914">  7  8 -1 -1</clus>
<clus scale="   98.477">  5  6 -1 -1</clus>
<clus scale="  113.933">  2  7  1 -1</clus>
<clus scale="   39.905">  2  5  1 -1</clus>
</clustering>
</event>
<event>
 9    1  0.2075077E-005  0.1016529E+03  0.7546771E-02  0.1277640E+00
         -4   -1    0    0    0  501 -0.00000000000E+00  0.00000000000E+00  0.14750376011E+03  0.14750376011E+03  0.00000000000E+00 0.  1.
          4   -1    0    0  502    0  0.00000000000E+00 -0.00000000000E+00 -0.28089563540E+03  0.28089563540E+03  0.00000000000E+00 0. -1.
         23    2    1    2    0    0  0.21416488771E+02 -0.32174313407E+02  0.82738176566E+02  0.12789932730E+03  0.89547638870E+02 0.  0.
         23    2    1    2    0    0 -0.92087933159E+02  0.44457722895E+02 -0.14309740521E+03  0.19813257984E+03  0.91230341759E+02 0.  0.
        -13    1    3    3    0    0  0.45671537242E+02  0.11578295037E+02  0.45853722171E+02  0.65745798854E+02  0.00000000000E+00 0.  1.
         13    1    3    3    0    0 -0.24255048471E+02 -0.43752608444E+02  0.36884454395E+02  0.62153528443E+02  0.00000000000E+00 0. -1.
        -13    1    4    4    0    0 -0.11774951793E+02 -0.25321196584E+02 -0.15287873392E+02  0.31836010413E+02  0.00000000000E+00 0.  1.
         13    1    4    4    0    0 -0.80312981366E+02  0.69778919479E+02 -0.12780953182E+03  0.16629656943E+03  0.00000000000E+00 0. -1.
         21    1    1    2  502  501  0.70671444388E+02 -0.12283409488E+02 -0.73032646640E+02  0.10236748837E+03  0.00000000000E+00 0.  1.
<scales pt_clust_5="13000.00000" pt_clust_6="13000.00000" pt_clust_7="13000.00000" pt_clust_8="13000.00000" pt_clust_9="71.73099"></scales>
<clustering>
<clus scale="   71.731">  2  9  1 -1</clus>
<clus scale="   89.548">  5  6 -1 -1</clus>
<clus scale="   91.230">  7  8 -1 -1</clus>
<clus scale="  100.145">  1  5  2 -1</clus>
<clus scale="   71.731">  2  5  1 -1</clus>
</clustering>
</event>
<event>
 9    1  0.2113528E-005  0.1592499E+03  0.7546771E-02  0.1192024E+00
         -1   -1    0    0    0  501 -0.00000000000E+00  0.00000000000E+00  0.60771953564E+03  0.60771953564E+03  0.00000000000E+00 0.  1.
          1   -1    0    0  502    0  0.00000000000E+00 -0.00000000000E+00 -0.73205919638E+03  0.73205919638E+03  0.00000000000E+00 0. -1.
         23    2    1    2    0    0  0.46710969432E+02 -0.10417868143E+03  0.57284768119E+03  0.59432732009E+03  0.10970590336E+03 0.  0.
         23    2    1    2    0    0 -0.84745428345E+02  0.14614343741E+03 -0.42621465548E+03  0.46862320237E+03  0.97000419237E+02 0.  0.
        -13    1    4    4    0    0 -0.31215862327E+02  0.87831152139E+02 -0.33559626371E+03  0.34830101000E+03  0.00000000000E+00 0. -1.
         13    1    4    4    0    0 -0.53529566018E+02  0.58312285270E+02 -0.90618391769E+02  0.12032219238E+03  0.00000000000E+00 0.  1.
        -13    1    3    3    0    0  0.71182235391E+02 -0.54274177850E+02  0.45887313655E+03  0.46752235504E+03  0.00000000000E+00 0.  1.
         13    1    3    3    0    0 -0.24471265959E+02 -0.49904503580E+02  0.11397454464E+03  0.12680496505E+03  0.00000000000E+00 0. -1.
         21    1    1    2  502  501  0.38034458913E+02 -0.41964755980E+02 -0.27097268645E+03  0.27682820956E+03  0.00000000000E+00 0. -1.
<scales pt_clust_5="13000.00000" pt_clust_6="13000.00000" pt_clust_7="13000.00000" pt_clust_8="13000.00000" pt_clust_9="56.63621"></scales>
<clustering>
<clus scale="   56.636">  2  9  1 -1</clus>
<clus scale="   97.000">  5  6 -1 -1</clus>
<clus scale="  109.706">  7  8 -1 -1</clus>
<clus scale="  150.779">  2  5  1 -1</clus>
<clus scale="   56.636">  2  5  1 -1</clus>
</clustering>
</event>
<event>
 9    1  0.2075077E-005  0.1046309E+03  0.7546771E-02  0.1273273E+00
         -2   -1    0    0    0  501 -0.00000000000E+00  0.00000000000E+00  0.60871631784E+03  0.60871631784E+03  0.00000000000E+00 0.  1.
          2   -1    0    0  502    0  0.00000000000E+00 -0.00000000000E+00 -0.38252221276E+02  0.38252221276E+02  0.00000000000E+00 0. -1.
         23    2    1    2    0    0  0.86156832513E+01  0.36228409354E+02  0.47521012248E+03  0.48630716366E+03  0.96349723783E+02 0.  0.
         23    2    1    2    0    0 -0.12867943048E+02 -0.56940980985E+02  0.79411606213E+02  0.13424030514E+03  0.91139437403E+02 0.  0.
        -11    1    3    3    0    0 -0.43361531818E+02  0.19241841109E+02  0.18466662183E+03  0.19066261329E+03  0.00000000000E+00 0.  1.
         11    1    3    3    0    0  0.51977215069E+02  0.16986568245E+02  0.29054350065E+03  0.29564455036E+03  0.00000000000E+00 0. -1.
        -13    1    4    4    0    0 -0.26564911834E+02 -0.18595753868E+01  0.72286905722E+02  0.77036025990E+02  0.00000000000E+00 0.  1.
         13    1    4    4    0    0  0.13696968785E+02 -0.55081405598E+02  0.71247004909E+01  0.57204279155E+02  0.00000000000E+00 0. -1.
         21    1    1    2  502  501  0.42522597970E+01  0.20712571631E+02  0.15842367875E+02  0.26421070320E+02  0.00000000000E+00 0.  1.
<scales pt_clust_5="13000.00000" pt_clust_6="13000.00000" pt_clust_7="13000.00000" pt_clust_8="13000.00000" pt_clust_9="21.14456"></scales>
<clustering>
<clus scale="   21.145">  2  9  1 -1</clus>
<clus scale="   91.139">  7  8 -1 -1</clus>
<clus scale="   96.350">  5  6 -1 -1</clus>
<clus scale="   99.854">  2  7  1 -1</clus>
<clus scale="   21.145">  2  5  1 -1</clus>
</clustering>
</event>
<event>
 9    1  0.2075077E-005  0.1885809E+03  0.7546771E-02  0.1160006E+00
         -1   -1    0    0    0  501 -0.00000000000E+00  0.00000000000E+00  0.24298722570E+03  0.24298722570E+03  0.00000000000E+00 0.  1.
          1   -1    0    0  502    0  0.00000000000E+00 -0.00000000000E+00 -0.25632767584E+03  0.25632767584E+03  0.00000000000E+00 0. -1.
         23    2    1    2    0    0  0.10875899936E+03  0.12790269691E+03  0.12072710702E+03  0.22580858910E+03  0.90702065695E+02 0.  0.
         23    2    1    2    0    0 -0.80993850370E+02 -0.13915536898E+03 -0.59337776623E+02  0.19299503233E+03  0.88328309479E+02 0.  0.
        -11    1    3    3    0    0  0.46227167471E+02 -0.23871759331E+01  0.30631992008E+02  0.55506473098E+02  0.00000000000E+00 0. -1.
         11    1    3    3    0    0  0.62531831893E+02  0.13028987284E+03  0.90095115010E+02  0.17030211600E+03  0.00000000000E+00 0.  1.
        -11    1    4    4    0    0 -0.45263097037E+02 -0.13276925217E+03 -0.67687816076E+02  0.15575000071E+03  0.00000000000E+00 0. -1.
         11    1    4    4    0    0 -0.35730753333E+02 -0.63861168103E+01  0.83500394528E+01  0.37245031622E+02  0.00000000000E+00 0.  1.
         21    1    1    2  502  501 -0.27765148994E+02  0.11252672073E+02 -0.74729780536E+02  0.80511280119E+02  0.00000000000E+00 0. -1.
<scales pt_clust_5="13000.00000" pt_clust_6="13000.00000" pt_clust_7="13000.00000" pt_clust_8="13000.00000" pt_clust_9="29.95874"></scales>
<clustering>
<clus scale="   29.959">  2  9  1 -1</clus>
<clus scale="   88.328">  7  8 -1 -1</clus>
<clus scale="   90.702">  5  6 -1 -1</clus>
<clus scale="  187.451">  2  7  1 -1</clus>
<clus scale="   29.959">  2  5  1 -1</clus>
</clustering>
</event>
<event>
 9    1  0.2075077E-005  0.9899313E+02  0.7546771E-02  0.1287960E+00
          1   -1    0    0  502    0  0.00000000000E+00  0.00000000000E+00  0.43170944038E+03  0.43170944038E+03  0.00000000000E+00 0. -1.
         -1   -1    0    0    0  501 -0.00000000000E+00 -0.00000000000E+00 -0.62874388841E+02  0.62874388841E+02  0.00000000000E+00 0.  1.
         23    2    1    2    0    0  0.68201383600E+01  0.27732265559E+02 -0.67746893254E+00  0.99318360468E+02  0.95121421992E+02 0.  0.
         23    2    1    2    0    0 -0.42545937969E+02 -0.70050713186E+01  0.21129576484E+03  0.23174638393E+03  0.84860228396E+02 0.  0.
        -11    1    3    3    0    0  0.28732578537E+02  0.51210413270E+01  0.38971037675E+02  0.48688067441E+02  0.00000000000E+00 0. -1.
         11    1    3    3    0    0 -0.21912440177E+02  0.22611224232E+02 -0.39648506608E+02  0.50630293027E+02  0.00000000000E+00 0.  1.
        -13    1    4    4    0    0 -0.39104220567E+02 -0.39553486025E+02  0.17108433070E+03  0.17989848952E+03  0.00000000000E+00 0. -1.
         13    1    4    4    0    0 -0.34417174015E+01  0.32548414706E+02  0.40211434143E+02  0.51847894407E+02  0.00000000000E+00 0.  1.
         21    1    1    2  502  501  0.35725799609E+02 -0.20727194240E+02  0.15821675563E+03  0.16351908482E+03  0.00000000000E+00 0.  1.
<scales pt_clust_5="13000.00000" pt_clust_6="13000.00000" pt_clust_7="13000.00000" pt_clust_8="13000.00000" pt_clust_9="41.30314"></scales>
<clustering>
<clus scale="   41.303">  1  9  2 -1</clus>
<clus scale="   84.860">  7  8 -1 -1</clus>
<clus scale="   89.179">  1  7  2 -1</clus>
<clus scale="   95.121">  5  6 -1 -1</clus>
<clus scale="   41.303">  1  5  2 -1</clus>
</clustering>
</event>
<event>
 9    1  0.2075077E-005  0.1294081E+03  0.7546771E-02  0.1229459E+00
          2   -1    0    0  502    0  0.00000000000E+00  0.00000000000E+00  0.18223004827E+03  0.18223004827E+03  0.00000000000E+00 0. -1.
         -2   -1    0    0    0  501 -0.00000000000E+00 -0.00000000000E+00 -0.34965509303E+03  0.34965509303E+03  0.00000000000E+00 0.  1.
         23    2    1    2    0    0  0.77156989521E+02  0.48208678194E+02 -0.25621635315E+03  0.28904053426E+03  0.98083296962E+02 0.  0.
         23    2    1    2    0    0 -0.48923735059E+02 -0.46791180247E+02 -0.30792232905E+02  0.11996519742E+03  0.94130444514E+02 0.  0.
        -11    1    4    4    0    0  0.23376851750E+02  0.13768248342E+01  0.81024015660E+01  0.24779462373E+02  0.00000000000E+00 0.  1.
         11    1    4    4    0    0 -0.72300586808E+02 -0.48168005081E+02 -0.38894634471E+02  0.95185735050E+02  0.00000000000E+00 0. -1.
        -11    1    3    3    0    0 -0.67104474427E+01 -0.21880182803E+02 -0.63345728610E+02  0.67353202133E+02  0.00000000000E+00 0. -1.
         11    1    3    3    0    0  0.83867436964E+02  0.70088860996E+02 -0.19287062454E+03  0.22168733213E+03  0.00000000000E+00 0.  1.
         21    1    1    2  502  501 -0.28233254463E+02 -0.14174979466E+01  0.11958354129E+03  0.12287940961E+03  0.00000000000E+00 0. -1.
<scales pt_clust_5="13000.00000" pt_clust_6="13000.00000" pt_clust_7="13000.00000" pt_clust_8="13000.00000" pt_clust_9="28.26882"></scales>
<clustering>
<clus scale="   28.269">  1  9  2 -1</clus>
<clus scale="   94.130">  5  6 -1 -1</clus>
<clus scale="   98.083">  7  8 -1 -1</clus>
<clus scale="  126.438">  1  5  2 -1</clus>
<clus scale="   28.269">  1  5  2 -1</clus>
</clustering>
</event>
<event>
 9    1  0.2075077E-005  0.1329272E+03  0.7546771E-02  0.1223246E+00
         -3   -1    0    0    0  501 -0.00000000000E+00  0.00000000000E+00  0.22482587086E+03  0.22482587086E+03  0.00000000000E+00 0.  1.
          3   -1    0    0  502    0  0.00000000000E+00 -0.00000000000E+00 -0.11126321449E+03  0.11126321449E+03  0.00000000000E+00 0. -1.
         23    2    1    2    0    0  0.81124038301E+02 -0.54242290045E+02  0.11646204751E+03  0.17686078054E+03  0.90515145491E+02 0.  0.
         23    2    1    2    0    0 -0.67951839825E+02  0.69924537849E+02  0.12186733898E+02  0.13379150318E+03  0.90800640481E+02 0.  0.
        -13    1    4    4    0    0 -0.26708798075E+02 -0.15516786653E+02  0.22704358699E+02  0.38335603120E+02  0.00000000000E+00 0. -1.
         13    1    4    4    0    0 -0.41243041750E+02  0.85441324502E+02 -0.10517624800E+02  0.95455900063E+02  0.00000000000E+00 0.  1.
        -13    1    3    3    0    0  0.25650194152E+02  0.32469873581E+01  0.88531071339E+02  0.92229203506E+02  0.00000000000E+00 0.  1.
         13    1    3    3    0    0  0.55473844149E+02 -0.57489277403E+02  0.27930976166E+02  0.84631577030E+02  0.00000000000E+00 0. -1.
         21    1    1    2  502  501 -0.13172198476E+02 -0.15682247805E+02 -0.15086125025E+02  0.25436801630E+02  0.00000000000E+00 0.  1.
<scales pt_clust_5="13000.00000" pt_clust_6="13000.00000" pt_clust_7="13000.00000" pt_clust_8="13000.00000" pt_clust_9="20.48023"></scales>
<clustering>
<clus scale="   20.480">  2  9  1 -1</clus>
<clus scale="   90.515">  7  8 -1 -1</clus>
<clus scale="   90.801">  5  6 -1 -1</clus>
<clus scale="  132.732">  1  7  2 -1</clus>
<clus scale="   20.480">  2  5  1 -1</clus>
</clustering>
</event>
<event>
 9    1  0.2075077E-005  0.1190366E+03  0.7546771E-02  0.1248077E+00
         -2   -1    0    0    0  501 -0.00000000000E+00  0.00000000000E+00  0.62142140315E+02  0.62142140315E+02  0.00000000000E+00 0.  1.
          2   -1    0    0  502    0  0.00000000000E+00 -0.00000000000E+00 -0.39741576377E+03  0.39741576377E+03  0.00000000000E+00 0. -1.
         23    2    1    2    0    0  0.25033156868E+01 -0.38909258246E+02 -0.42493662165E+02  0.11629086333E+03  0.10098344717E+03 0.  0.
         23    2    1    2    0    0  0.20556440108E+02  0.62839973578E+02 -0.15230329175E+03  0.19891287158E+03  0.10953815908E+03 0.  0.
        -11    1    3    3    0    0  0.47048953447E+02  0.48218173758E+00 -0.29144826200E+02  0.55346701925E+02  0.00000000000E+00 0.  1.
         11    1    3    3    0    0 -0.44545637761E+02 -0.39391439983E+02 -0.13348835965E+02  0.60944161403E+02  0.00000000000E+00 0. -1.
        -11    1    4    4    0    0  0.63555270538E+02  0.21224290850E+02 -0.67384534398E+02  0.95028513675E+02  0.00000000000E+00 0.  1.
         11    1    4    4    0    0 -0.42998830431E+02  0.41615682728E+02 -0.84918757351E+02  0.10388435790E+03  0.00000000000E+00 0. -1.
         21    1    1    2  502  501 -0.23059755794E+02 -0.23930715332E+02 -0.14047666954E+03  0.14435416918E+03  0.00000000000E+00 0.  1.
<scales pt_clust_5="13000.00000" pt_clust_6="13000.00000" pt_clust_7="13000.00000" pt_clust_8="13000.00000" pt_clust_9="33.23299"></scales>
<clustering>
<clus scale="   33.233">  2  9  1 -1</clus>
<clus scale="  100.983">  5  6 -1 -1</clus>
<clus scale="  109.538">  7  8 -1 -1</clus>
<clus scale="  111.215">  1  5  2 -1</clus>
<clus scale="   33.233">  2  5  1 -1</clus>
</clustering>
</event>
<event>
 9    1  0.2075077E-005  0.9475804E+02  0.7546771E-02  0.1292602E+00
          1   -1    0    0  502    0  0.00000000000E+00  0.00000000000E+00  0.18663207086E+03  0.18663207086E+03  0.00000000000E+00 0. -1.
         -1   -1    0    0    0  501 -0.00000000000E+00 -0.00000000000E+00 -0.72820351829E+02  0.72820351829E+02  0.00000000000E+00 0.  1.
         23    2    1    2    0    0 -0.29460818726E+02  0.51011842011E+01  0.33385967861E+02  0.10274741912E+03  0.92457813979E+02 0.  0.
         23    2    1    2    0    0 -0.76368938389E+01  0.25375108301E+00  0.42748119247E+02  0.10355879433E+03  0.94014018347E+02 0.  0.
        -11    1    4    4    0    0  0.19643825592E+02 -0.32405526548E+02  0.47473283012E+02  0.60742988358E+02  0.00000000000E+00 0. -1.
         11    1    4    4    0    0 -0.27280719431E+02  0.32659277631E+02 -0.47251637648E+01  0.42815805967E+02  0.00000000000E+00 0.  1.
        -11    1    3    3    0    0  0.27572693911E+02  0.91967766471E+01 -0.10248548545E+02  0.30819910731E+02  0.00000000000E+00 0.  1.
         11    1    3    3    0    0 -0.57033512637E+02 -0.40955924460E+01  0.43634516407E+02  0.71927508390E+02  0.00000000000E+00 0. -1.
         21    1    1    2  502  501  0.37097712565E+02 -0.53549352841E+01  0.37677631921E+02  0.53146209241E+02  0.00000000000E+00 0.  1.
<scales pt_clust_5="13000.00000" pt_clust_6="13000.00000" pt_clust_7="13000.00000" pt_clust_8="13000.00000" pt_clust_9="37.48220"></scales>
<clustering>
<clus scale="   37.482">  1  9  2 -1</clus>
<clus scale="   92.458">  7  8 -1 -1</clus>
<clus scale="   93.214">  2  7  1 -1</clus>
<clus scale="   94.014">  5  6 -1 -1</clus>
<clus scale="   37.482">  1  5  2 -1</clus>
</clustering>
</event>
<event>
 9    1  0.2075077E-005  0.3147465E+03  0.7546771E-02  0.1078110E+00
          1   -1    0    0  502    0  0.00000000000E+00  0.00000000000E+00  0.86089819991E+03  0.86089819991E+03  0.00000000000E+00 0. -1.
         -1   -1    0    0    0  501 -0.00000000000E+00 -0.00000000000E+00 -0.13549336084E+03  0.13549336084E+03  0.00000000000E+00 0.  1.
         23    2    1    2    0    0 -0.30167286776E+03  0.40588504856E+02  0.26018821586E+03  0.41055072546E+03  0.90554097853E+02 0.  0.
         23    2    1    2    0    0  0.29022115067E+03 -0.68663872513E+02  0.35965108071E+03  0.47600708884E+03  0.91053858174E+02 0.  0.
        -11    1    3    3    0    0 -0.16630324889E+03  0.53640818609E+02  0.18767418124E+03  0.25642875485E+03  0.00000000000E+00 0. -1.
         11    1    3    3    0    0 -0.13536961887E+03 -0.13052313753E+02  0.72514034617E+02  0.15412197061E+03  0.00000000000E+00 0.  1.
        -11    1    4    4    0    0  0.18064876534E+03 -0.81251359213E+02  0.26377042271E+03  0.32986451111E+03  0.00000000000E+00 0. -1.
         11    1    4    4    0    0  0.10957238532E+03  0.12587486700E+02  0.95880657998E+02  0.14614257773E+03  0.00000000000E+00 0.  1.
         21    1    1    2  502  501  0.11451717090E+02  0.28075367657E+02  0.10556554250E+03  0.10983374644E+03  0.00000000000E+00 0. -1.
<scales pt_clust_5="13000.00000" pt_clust_6="13000.00000" pt_clust_7="13000.00000" pt_clust_8="13000.00000" pt_clust_9="30.32108"></scales>
<clustering>
<clus scale="   30.321">  1  9  2 -1</clus>
<clus scale="   90.554">  5  6 -1 -1</clus>
<clus scale="   91.054">  7  8 -1 -1</clus>
<clus scale="  314.602">  2  5  1 -1</clus>
<clus scale="   30.321">  1  5  2 -1</clus>
</clustering>
</event>
<event>
 9    1  0.2075077E-005  0.1299291E+03  0.7546771E-02  0.1229398E+00
         -1   -1    0    0    0  501 -0.00000000000E+00  0.00000000000E+00  0.71674756787E+03  0.71674756787E+03  0.00000000000E+00 0.  1.
          1   -1    0    0  502    0  0.00000000000E+00 -0.00000000000E+00 -0.55539314308E+03  0.55539314308E+03  0.00000000000E+00 0. -1.
         23    2    1    2    0    0 -0.93759971182E+02 -0.84401262665E+01  0.68456775516E+03  0.69665103256E+03  0.88473057056E+02 0.  0.
         23    2    1    2    0    0  0.15282308618E+03  0.18400157332E+02 -0.32817152104E+03  0.37145791331E+03  0.81184805740E+02 0.  0.
        -11    1    4    4    0    0  0.57298790582E+02  0.33827637447E+02 -0.74132389536E+02  0.99614615573E+02  0.00000000000E+00 0.  1.
         11    1    4    4    0    0  0.95524295601E+02 -0.15427480115E+02 -0.25403913150E+03  0.27184329774E+03  0.00000000000E+00 0. -1.
        -11    1    3    3    0    0 -0.83944451114E+02 -0.42193181162E+02  0.48669911390E+03  0.49568433794E+03  0.00000000000E+00 0.  1.
         11    1    3    3    0    0 -0.98155200673E+01  0.33753054895E+02  0.19786864126E+03  0.20096669461E+03  0.00000000000E+00 0. -1.
         21    1    1    2  502  501 -0.59063115001E+02 -0.99600310655E+01 -0.19504180933E+03  0.20403176508E+03  0.00000000000E+00 0.  1.
<scales pt_clust_5="13000.00000" pt_clust_6="13000.00000" pt_clust_7="13000.00000" pt_clust_8="13000.00000" pt_clust_9="59.89703"></scales>
<clustering>
<clus scale="   59.897">  2  9  1 -1</clus>
<clus scale="   81.185">  5  6 -1 -1</clus>
<clus scale="   88.473">  7  8 -1 -1</clus>
<clus scale="  125.080">  2  5  1 -1</clus>
<clus scale="   59.897">  2  5  1 -1</clus>
</clustering>
</event>
<event>
 9    1  0.2075077E-005  0.1424248E+03  0.7546771E-02  0.1210909E+00
         -3   -1    0    0    0  501 -0.00000000000E+00  0.00000000000E+00  0.51125779396E+02  0.51125779396E+02  0.00000000000E+00 0.  1.
          3   -1    0    0  502    0  0.00000000000E+00 -0.00000000000E+00 -0.75737748836E+03  0.75737748836E+03  0.00000000000E+00 0. -1.
         23    2    1    2    0    0 -0.13827932150E+03  0.64854202133E+02 -0.24696522170E+03  0.30334068145E+03  0.87729755530E+02 0.  0.
         23    2    1    2    0    0  0.44477371633E+02 -0.47770186606E+02 -0.28723630339E+03  0.30845992959E+03  0.91556577396E+02 0.  0.
        -11    1    4    4    0    0  0.34242241005E+02  0.22275590597E+02 -0.12335820532E+03  0.12994606506E+03  0.00000000000E+00 0. -1.
         11    1    4    4    0    0  0.10235130628E+02 -0.70045777203E+02 -0.16387809807E+03  0.17851386453E+03  0.00000000000E+00 0.  1.
        -13    1    3    3    0    0 -0.47733061229E+02 -0.31686715815E+01 -0.24589802075E+02  0.53787953856E+02  0.00000000000E+00 0.  1.
         13    1    3    3    0    0 -0.90546260272E+02  0.68022873714E+02 -0.22237541962E+03  0.24955272759E+03  0.00000000000E+00 0. -1.
         21    1    1    2  502  501  0.93801949869E+02 -0.17084015527E+02 -0.17205018388E+03  0.19670265672E+03  0.00000000000E+00 0.  1.
<scales pt_clust_5="13000.00000" pt_clust_6="13000.00000" pt_clust_7="13000.00000" pt_clust_8="13000.00000" pt_clust_9="95.34500"></scales>
<clustering>
<clus scale="   87.730">  7  8 -1 -1</clus>
<clus scale="   91.557">  5  6 -1 -1</clus>
<clus scale="   95.345">  2  9  1 -1</clus>
<clus scale="  139.995">  1  7  2 -1</clus>
<clus scale="   95.345">  2  5  1 -1</clus>
</clustering>
</event>
<event>
 9    1  0.2075077E-005  0.1226300E+03  0.7546771E-02  0.1239067E+00
          4   -1    0    0  502    0  0.00000000000E+00  0.00000000000E+00  0.15966737684E+03  0.15966737684E+03  0.00000000000E+00 0. -1.
         -4   -1    0    0    0  501 -0.00000000000E+00 -0.00000000000E+00 -0.50186622615E+03  0.50186622615E+03  0.00000000000E+00 0.  1.
         23    2    1    2    0    0  0.89840878459E+02  0.37944931086E+00 -0.31899305938E+03  0.34368444018E+03  0.91054352269E+02 0.  0.
         23    2    1    2    0    0 -0.67109505578E+02  0.15242455298E+02 -0.14955194134E+03  0.18852743535E+03  0.91873785929E+02 0.  0.
        -13    1    4    4    0    0 -0.75419613714E+02  0.42305232811E+02 -0.11348009284E+03  0.14267299088E+03  0.00000000000E+00 0.  1.
         13    1    4    4    0    0  0.83101081361E+01 -0.27062777512E+02 -0.36071848492E+02  0.45854444469E+02  0.00000000000E+00 0. -1.
        -13    1    3    3    0    0  0.34547670864E+02 -0.25761896178E+02 -0.42569272640E+02  0.60575241064E+02  0.00000000000E+00 0. -1.
         13    1    3    3    0    0  0.55293207594E+02  0.26141345489E+02 -0.27642378674E+03  0.28310919912E+03  0.00000000000E+00 0.  1.
         21    1    1    2  502  501 -0.22731372881E+02 -0.15621904609E+02  0.12634615140E+03  0.12932172745E+03  0.00000000000E+00 0. -1.
<scales pt_clust_5="13000.00000" pt_clust_6="13000.00000" pt_clust_7="13000.00000" pt_clust_8="13000.00000" pt_clust_9="27.58186"></scales>
<clustering>
<clus scale="   27.582">  1  9  2 -1</clus>
<clus scale="   91.054">  7  8 -1 -1</clus>
<clus scale="   91.874">  5  6 -1 -1</clus>
<clus scale="  122.017">  2  7  1 -1</clus>
<clus scale="   27.582">  1  5  2 -1</clus>
</clustering>
</event>
<event>
 9    1  0.2075077E-005  0.2395597E+03  0.7546771E-02  0.1120216E+00
         -1   -1    0    0    0  501 -0.00000000000E+00  0.00000000000E+00  0.79487643247E+02  0.79487643247E+02  0.00000000000E+00 0.  1.
          1   -1    0    0  502    0  0.00000000000E+00 -0.00000000000E+00 -0.93808604298E+03  0.93808604298E+03  0.00000000000E+00 0. -1.
         23    2    1    2    0    0  0.34418485519E+02  0.19139049733E+03 -0.30709033461E+03  0.37486095231E+03  0.91658634853E+02 0.  0.
         23    2    1    2    0    0 -0.19128584891E+02 -0.24480105240E+03 -0.50870803095E+03  0.57258206032E+03  0.93663744510E+02 0.  0.
        -11    1    4    4    0    0 -0.22281876869E+02 -0.16078482726E+02 -0.10538518175E+03  0.10890838432E+03  0.00000000000E+00 0. -1.
         11    1    4    4    0    0  0.31532919779E+01 -0.22872256967E+03 -0.40332284920E+03  0.46367367600E+03  0.00000000000E+00 0.  1.
        -13    1    3    3    0    0 -0.15226274593E+02  0.14659594571E+03 -0.22515280270E+03  0.26910220234E+03  0.00000000000E+00 0. -1.
         13    1    3    3    0    0  0.49644760112E+02  0.44794551615E+02 -0.81937531910E+02  0.10575874998E+03  0.00000000000E+00 0.  1.
         21    1    1    2  502  501 -0.15289900628E+02  0.53410555068E+02 -0.42800034178E+02  0.70130673600E+02  0.00000000000E+00 0.  1.
<scales pt_clust_5="13000.00000" pt_clust_6="13000.00000" pt_clust_7="13000.00000" pt_clust_8="13000.00000" pt_clust_9="55.55599"></scales>
<clustering>
<clus scale="   55.556">  1  9  2 -1</clus>
<clus scale="   91.659">  7  8 -1 -1</clus>
<clus scale="   93.664">  5  6 -1 -1</clus>
<clus scale="  238.783">  1  7  2 -1</clus>
<clus scale="  239.560">  2  5  1 -1</clus>
</clustering>
</event>
<event>
 9    1  0.2075077E-005  0.1184929E+03  0.7546771E-02  0.1248743E+00
          1   -1    0    0  502    0  0.00000000000E+00  0.00000000000E+00  0.20344177679E+03  0.20344177679E+03  0.00000000000E+00 0. -1.
         -1   -1    0    0    0  501 -0.00000000000E+00 -0.00000000000E+00 -0.21171148269E+03  0.21171148269E+03  0.00000000000E+00 0.  1.
         23    2    1    2    0    0 -0.65474565117E+01  0.96227706143E+02 -0.11108039640E+03  0.17238862353E+03  0.89868473015E+02 0.  0.
         23    2    1    2    0    0  0.62827319018E+02 -0.31524260208E+02 -0.29545018327E+01  0.10660210531E+03  0.80088880497E+02 0.  0.
        -13    1    4    4    0    0  0.47362771334E+02  0.18292254604E+02  0.12328234321E+02  0.52247718117E+02  0.00000000000E+00 0.  1.
         13    1    4    4    0    0  0.15464547684E+02 -0.49816514812E+02 -0.15282736154E+02  0.54354387195E+02  0.00000000000E+00 0. -1.
        -13    1    3    3    0    0  0.37005781268E+02  0.30497920054E+02 -0.20103203272E+02  0.51997016806E+02  0.00000000000E+00 0.  1.
         13    1    3    3    0    0 -0.43553237780E+02  0.65729786089E+02 -0.90977193125E+02  0.12039160672E+03  0.00000000000E+00 0. -1.
         21    1    1    2  502  501 -0.56279862506E+02 -0.64703445935E+02  0.10576519233E+03  0.13616253064E+03  0.00000000000E+00 0. -1.
<scales pt_clust_5="13000.00000" pt_clust_6="13000.00000" pt_clust_7="13000.00000" pt_clust_8="13000.00000" pt_clust_9="85.75523"></scales>
<clustering>
<clus scale="   80.089">  5  6 -1 -1</clus>
<clus scale="   85.755">  1  9  2 -1</clus>
<clus scale="   89.868">  7  8 -1 -1</clus>
<clus scale="  111.258">  1  5  2 -1</clus>
<clus scale="   85.755">  1  5  2 -1</clus>
</clustering>
</event>
<event>
 9    1  0.2075077E-005  0.1068284E+03  0.7546771E-02  0.1266651E+00
          1   -1    0    0  502    0  0.00000000000E+00  0.00000000000E+00  0.12060841334E+03  0.12060841334E+03  0.00000000000E+00 0. -1.
         -1   -1    0    0    0  501 -0.00000000000E+00 -0.00000000000E+00 -0.16640132962E+03  0.16640132962E+03  0.00000000000E+00 0.  1.
         23    2    1    2    0    0 -0.36026038661E+02  0.43889341474E+02 -0.10178231403E+03  0.14858643250E+03  0.92163651818E+02 0.  0.
         23    2    1    2    0    0  0.13134232859E+02 -0.45836988349E+02  0.47309270200E+02  0.11386373563E+03  0.91941533988E+02 0.  0.
        -11    1    3    3    0    0  0.16595143277E+02 -0.17496067249E+02 -0.95606910676E+01  0.25940662352E+02  0.00000000000E+00 0. -1.
         11    1    3    3    0    0 -0.52621181938E+02  0.61385408723E+02 -0.92221622959E+02  0.12264577014E+03  0.00000000000E+00 0.  1.
        -13    1    4    4    0    0  0.36184867675E+02 -0.55333091203E+02  0.70210560211E+01  0.66486020023E+02  0.00000000000E+00 0. -1.
         13    1    4    4    0    0 -0.23050634817E+02  0.94961028547E+01  0.40288214178E+02  0.47377715611E+02  0.00000000000E+00 0.  1.
         21    1    1    2  502  501  0.22891805802E+02  0.19476468746E+01  0.86801275490E+01  0.24559574823E+02  0.00000000000E+00 0. -1.
<scales pt_clust_5="13000.00000" pt_clust_6="13000.00000" pt_clust_7="13000.00000" pt_clust_8="13000.00000" pt_clust_9="22.97451"></scales>
<clustering>
<clus scale="   22.975">  1  9  2 -1</clus>
<clus scale="   91.942">  7  8 -1 -1</clus>
<clus scale="   92.164">  5  6 -1 -1</clus>
<clus scale="  106.637">  1  7  2 -1</clus>
<clus scale="   22.975">  1  5  2 -1</clus>
</clustering>
</event>
<event>
 9    1  0.2075077E-005  0.1169164E+03  0.7546771E-02  0.1249260E+00
         -2   -1    0    0    0  501 -0.00000000000E+00  0.00000000000E+00  0.43196863491E+02  0.43196863491E+02  0.00000000000E+00 0.  1.
          2   -1    0    0  502    0  0.00000000000E+00 -0.00000000000E+00 -0.76250468044E+03  0.76250468044E+03  0.00000000000E+00 0. -1.
         23    2    1    2    0    0  0.50010633871E+02  0.34649108485E+02 -0.12081356219E+03  0.16350580202E+03  0.91851000362E+02 0.  0.
         23    2    1    2    0    0 -0.29446948803E+02 -0.10146957753E+03 -0.23952267840E+03  0.27647941350E+03  0.88918809408E+02 0.  0.
        -11    1    3    3    0    0 -0.21755123766E+02  0.19063419619E+01 -0.34691821528E+01  0.22112321781E+02  0.00000000000E+00 0.  1.
         11    1    3    3    0    0  0.71765757637E+02  0.32742766523E+02 -0.11734438004E+03  0.14139348024E+03  0.00000000000E+00 0. -1.
        -11    1    4    4    0    0  0.27437699260E+02 -0.64297856626E+02 -0.12947922374E+03  0.14714588370E+03  0.00000000000E+00 0.  1.
         11    1    4    4    0    0 -0.56884648063E+02 -0.37171720902E+02 -0.11004345466E+03  0.12933352981E+03  0.00000000000E+00 0. -1.
         21    1    1    2  502  501 -0.20563685068E+02  0.66820469044E+02 -0.35897157636E+03  0.36571632841E+03  0.00000000000E+00 0. -1.
<scales pt_clust_5="13000.00000" pt_clust_6="13000.00000" pt_clust_7="13000.00000" pt_clust_8="13000.00000" pt_clust_9="69.91309"></scales>
<clustering>
<clus scale="   69.913">  2  9  1 -1</clus>
<clus scale="   88.919">  7  8 -1 -1</clus>
<clus scale="   91.851">  5  6 -1 -1</clus>
<clus scale="  114.627">  2  7  1 -1</clus>
<clus scale="   69.913">  2  5  1 -1</clus>
</clustering>
</event>
<event>
 9    1  0.2075077E-005  0.1204458E+03  0.7546771E-02  0.1242992E+00
         -1   -1    0    0    0  501 -0.00000000000E+00  0.00000000000E+00  0.15002982795E+03  0.15002982795E+03  0.00000000000E+00 0.  1.
          1   -1    0    0  502    0  0.00000000000E+00 -0.00000000000E+00 -0.20527165529E+03  0.20527165529E+03  0.00000000000E+00 0. -1.
         23    2    1    2    0    0  0.27180114428E+02  0.69575600364E+02  0.62089582459E+02  0.13158472738E+03  0.88768808959E+02 0.  0.
         23    2    1    2    0    0 -0.53422964887E+02 -0.74168008228E+02 -0.29823017600E+02  0.13224273706E+03  0.90795498256E+02 0.  0.
        -11    1    3    3    0    0  0.17507644433E+01  0.57024483882E+02 -0.64455843605E+01  0.57414305673E+02  0.00000000000E+00 0.  1.
         11    1    3    3    0    0  0.25429349985E+02  0.12551116482E+02  0.68535166819E+02  0.74170421709E+02  0.00000000000E+00 0. -1.
        -13    1    4    4    0    0 -0.33476638923E+02 -0.52293576464E+01  0.24854078697E+02  0.42020908639E+02  0.00000000000E+00 0.  1.
         13    1    4    4    0    0 -0.19946325964E+02 -0.68938650581E+02 -0.54677096297E+02  0.90221828417E+02  0.00000000000E+00 0. -1.
         21    1    1    2  502  501  0.26242850459E+02  0.45924078636E+01 -0.87508392201E+02  0.91474018802E+02  0.00000000000E+00 0.  1.
<scales pt_clust_5="13000.00000" pt_clust_6="13000.00000" pt_clust_7="13000.00000" pt_clust_8="13000.00000" pt_clust_9="26.64165"></scales>
<clustering>
<clus scale="   26.642">  2  9  1 -1</clus>
<clus scale="   88.769">  5  6 -1 -1</clus>
<clus scale="   90.795">  7  8 -1 -1</clus>
<clus scale="  118.926">  1  5  2 -1</clus>
<clus scale="   26.642">  2  5  1 -1</clus>
</clustering>
</event>
<event>
 9    1  0.2075077E-005  0.1263955E+03  0.7546771E-02  0.1233951E+00
          1   -1    0    0  502    0  0.00000000000E+00  0.00000000000E+00  0.41218756990E+03  0.41218756990E+03  0.00000000000E+00 0. -1.
         -1   -1    0    0    0  501 -0.00000000000E+00 -0.00000000000E+00 -0.50436798751E+02  0.50436798751E+02  0.00000000000E+00 0.  1.
         23    2    1    2    0    0 -0.78781643916E+02 -0.66233501018E+01  0.96279857350E+02  0.15519530287E+03  0.92549202679E+02 0.  0.
         23    2    1    2    0    0  0.98975785844E+02  0.13524476056E+02  0.22758065861E+03  0.26394228220E+03  0.88845115372E+02 0.  0.
        -11    1    3    3    0    0  0.20422706709E+02 -0.54934051825E+01  0.87343117219E+01  0.22881272934E+02  0.00000000000E+00 0. -1.
         11    1    3    3    0    0 -0.99204350625E+02 -0.11299449193E+01  0.87545545628E+02  0.13231402994E+03  0.00000000000E+00 0.  1.
        -11    1    4    4    0    0  0.36609919679E+02  0.27622510422E+02  0.26559012140E+02  0.52996890727E+02  0.00000000000E+00 0.  1.
         11    1    4    4    0    0  0.62365866165E+02 -0.14098034366E+02  0.20102164647E+03  0.21094539148E+03  0.00000000000E+00 0. -1.
         21    1    1    2  502  501 -0.20194141928E+02 -0.69011259540E+01  0.37890255184E+02  0.43486783574E+02  0.00000000000E+00 0. -1.
<scales pt_clust_5="13000.00000" pt_clust_6="13000.00000" pt_clust_7="13000.00000" pt_clust_8="13000.00000" pt_clust_9="21.34078"></scales>
<clustering>
<clus scale="   21.341">  1  9  2 -1</clus>
<clus scale="   88.845">  7  8 -1 -1</clus>
<clus scale="   92.549">  5  6 -1 -1</clus>
<clus scale="  123.709">  1  7  2 -1</clus>
<clus scale="   21.341">  1  5  2 -1</clus>
</clustering>
</event>
<event>
 9    1  0.2075077E-005  0.1969058E+03  0.7546771E-02  0.1163454E+00
         -1   -1    0    0    0  501 -0.00000000000E+00  0.00000000000E+00  0.10020675418E+04  0.10020675418E+04  0.00000000000E+00 0.  1.
          1   -1    0    0  502    0  0.00000000000E+00 -0.00000000000E+00 -0.26663652556E+03  0.26663652556E+03  0.00000000000E+00 0. -1.
         23    2    1    2    0    0  0.11383562335E+03  0.20928414512E+02  0.57279097658E+03  0.59261600219E+03  0.98527536833E+02 0.  0.
         23    2    1    2    0    0 -0.25173132879E+03  0.74364528993E+02  0.33524167522E+03  0.43549027785E+03  0.91466148020E+02 0.  0.
        -11    1    3    3    0    0  0.25048640180E+02 -0.37769662502E+02  0.15606311814E+03  0.16251054927E+03  0.00000000000E+00 0. -1.
         11    1    3    3    0    0  0.88786983174E+02  0.58698077015E+02  0.41672785845E+03  0.43010545292E+03  0.00000000000E+00 0.  1.
        -13    1    4    4    0    0 -0.22316737910E+03  0.49567025385E+02  0.23274866806E+03  0.32623996013E+03  0.00000000000E+00 0. -1.
         13    1    4    4    0    0 -0.28563949693E+02  0.24797503608E+02  0.10249300716E+03  0.10925031773E+03  0.00000000000E+00 0.  1.
         21    1    1    2  502  501  0.13789570544E+03 -0.95292943506E+02 -0.17260163557E+03  0.24059778731E+03  0.00000000000E+00 0. -1.
<scales pt_clust_5="13000.00000" pt_clust_6="13000.00000" pt_clust_7="13000.00000" pt_clust_8="13000.00000" pt_clust_9="174.37275"></scales>
<clustering>
<clus scale="   91.466">  7  8 -1 -1</clus>
<clus scale="   98.528">  5  6 -1 -1</clus>
<clus scale="  152.001">  1  5  2 -1</clus>
<clus scale="  174.373">  2  9  1 -1</clus>
<clus scale="  174.373">  2  5  1 -1</clus>
</clustering>
</event>
<event>
 9    1  0.2075077E-005  0.1049997E+03  0.7546771E-02  0.1270156E+00
          1   -1    0    0  502    0  0.00000000000E+00  0.00000000000E+00  0.36529207716E+03  0.36529207716E+03  0.00000000000E+00 0. -1.
         -1   -1    0    0    0  501 -0.00000000000E+00 -0.00000000000E+00 -0.43227257695E+02  0.43227257695E+02  0.00000000000E+00 0.  1.
         23    2    1    2    0    0 -0.34954185464E+02 -0.38983344982E+02  0.10015350507E+03  0.14741435916E+03  0.94650792081E+02 0.  0.
         23    2    1    2    0    0  0.40201750815E+02  0.87133892791E+01  0.14276124106E+03  0.17620184696E+03  0.94732333447E+02 0.  0.
        -11    1    4    4    0    0 -0.27693602041E+02  0.19832440227E+02  0.40034041159E+02  0.52564110673E+02  0.00000000000E+00 0. -1.
         11    1    4    4    0    0  0.67895352857E+02 -0.11119050948E+02  0.10272719990E+03  0.12363773629E+03  0.00000000000E+00 0.  1.
        -11    1    3    3    0    0 -0.85941072855E+01 -0.40930311991E+02 -0.20256299957E+01  0.41871855662E+02  0.00000000000E+00 0.  1.
         11    1    3    3    0    0 -0.26360078179E+02  0.19469670094E+01  0.10217913506E+03  0.10554250350E+03  0.00000000000E+00 0. -1.
         21    1    1    2  502  501 -0.52475653509E+01  0.30269955703E+02  0.79150073335E+02  0.84903128737E+02  0.00000000000E+00 0. -1.
<scales pt_clust_5="13000.00000" pt_clust_6="13000.00000" pt_clust_7="13000.00000" pt_clust_8="13000.00000" pt_clust_9="30.72144"></scales>
<clustering>
<clus scale="   30.721">  1  9  2 -1</clus>
<clus scale="   94.651">  7  8 -1 -1</clus>
<clus scale="   94.732">  5  6 -1 -1</clus>
<clus scale="  104.926">  2  7  1 -1</clus>
<clus scale="   30.721">  1  5  2 -1</clus>
</clustering>
</event>
<event>
 9    1  0.2075077E-005  0.1083997E+03  0.7546771E-02  0.1264257E+00
          1   -1    0    0  502    0  0.00000000000E+00  0.00000000000E+00  0.24233777047E+03  0.24233777047E+03  0.00000000000E+00 0. -1.
         -1   -1    0    0    0  501 -0.00000000000E+00 -0.00000000000E+00 -0.74446246972E+02  0.74446246972E+02  0.00000000000E+00 0.  1.
         23    2    1    2    0    0  0.56669286815E+02  0.16994466105E+02  0.42508411436E+01  0.10909344065E+03  0.91559211417E+02 0.  0.
         23    2    1    2    0    0 -0.37495774586E+02 -0.29386676490E+02  0.12824707429E+03  0.16557290899E+03  0.93260743410E+02 0.  0.
        -13    1    4    4    0    0 -0.14108177573E+01 -0.57861314436E+02  0.60723800966E+02  0.83888629258E+02  0.00000000000E+00 0.  1.
         13    1    4    4    0    0 -0.36084956828E+02  0.28474637946E+02  0.67523273321E+02  0.81684279732E+02  0.00000000000E+00 0. -1.
        -13    1    3    3    0    0  0.22643135162E+02 -0.37196606536E+02  0.10519858977E+02  0.44799180133E+02  0.00000000000E+00 0.  1.
         13    1    3    3    0    0  0.34026151653E+02  0.54191072641E+02 -0.62690178333E+01  0.64294260513E+02  0.00000000000E+00 0. -1.
         21    1    1    2  502  501 -0.19173512229E+02  0.12392210385E+02  0.35393608066E+02  0.42117667805E+02  0.00000000000E+00 0. -1.
<scales pt_clust_5="13000.00000" pt_clust_6="13000.00000" pt_clust_7="13000.00000" pt_clust_8="13000.00000" pt_clust_9="22.82960"></scales>
<clustering>
<clus scale="   22.830">  1  9  2 -1</clus>
<clus scale="   91.559">  7  8 -1 -1</clus>
<clus scale="   93.261">  5  6 -1 -1</clus>
<clus scale="  106.939">  2  7  1 -1</clus>
<clus scale="   22.830">  1  5  2 -1</clus>
</clustering>
</event>
<event>
 9    1  0.2075077E-005  0.1348065E+03  0.7546771E-02  0.1220588E+00
          1   -1    0    0  502    0  0.00000000000E+00  0.00000000000E+00  0.35326913802E+03  0.35326913802E+03  0.00000000000E+00 0. -1.
         -1   -1    0    0    0  501 -0.00000000000E+00 -0.00000000000E+00 -0.15159913851E+03  0.15159913851E+03  0.00000000000E+00 0.  1.
         23    2    1    2    0    0  0.25533149872E+02 -0.80898110173E+02 -0.28732554385E+02  0.12631091080E+03  0.89064249469E+02 0.  0.
         23    2    1    2    0    0 -0.94585436145E+02  0.10639044732E+03  0.37751081840E+02  0.17232287013E+03  0.89468963210E+02 0.  0.
        -11    1    4    4    0    0 -0.66596262307E+02  0.11915812366E+03  0.23887797017E+02  0.13857975117E+03  0.00000000000E+00 0.  1.
         11    1    4    4    0    0 -0.27989173838E+02 -0.12767676340E+02  0.13863284822E+02  0.33743118962E+02  0.00000000000E+00 0. -1.
        -13    1    3    3    0    0  0.86895990267E+01 -0.98057953789E+02 -0.27604800952E+02  0.10223940761E+03  0.00000000000E+00 0. -1.
         13    1    3    3    0    0  0.16843550845E+02  0.17159843617E+02 -0.11277534334E+01  0.24071503190E+02  0.00000000000E+00 0.  1.
         21    1    1    2  502  501  0.69052286273E+02 -0.25492337146E+02  0.19265147205E+03  0.20623449560E+03  0.00000000000E+00 0. -1.
<scales pt_clust_5="13000.00000" pt_clust_6="13000.00000" pt_clust_7="13000.00000" pt_clust_8="13000.00000" pt_clust_9="73.60759"></scales>
<clustering>
<clus scale="   73.608">  1  9  2 -1</clus>
<clus scale="   89.064">  7  8 -1 -1</clus>
<clus scale="   89.469">  5  6 -1 -1</clus>
<clus scale="  134.538">  2  7  1 -1</clus>
<clus scale="   73.608">  1  5  2 -1</clus>
</clustering>
</event>
<event>
 9    1  0.2075077E-005  0.1358609E+03  0.7546771E-02  0.1219377E+00
         -3   -1    0    0    0  501 -0.00000000000E+00  0.00000000000E+00  0.47736398763E+03  0.47736398763E+03  0.00000000000E+00 0.  1.
          3   -1    0    0  502    0  0.00000000000E+00 -0.00000000000E+00 -0.61833965917E+02  0.61833965917E+02  0.00000000000E+00 0. -1.
         23    2    1    2    0    0 -0.88359333335E+02  0.46789045763E+02  0.33319409310E+03  0.35928570493E+03  0.89840567116E+02 0.  0.
         23    2    1    2    0    0  0.99923291343E+02 -0.28611156424E+02  0.71951971217E+02  0.15599599145E+03  0.91402411135E+02 0.  0.
        -11    1    4    4    0    0  0.71953065505E+01  0.26215473508E+02  0.29751493576E+02  0.40301052811E+02  0.00000000000E+00 0.  1.
         11    1    4    4    0    0  0.92727984792E+02 -0.54826629932E+02  0.42200477641E+02  0.11569493864E+03  0.00000000000E+00 0. -1.
        -13    1    3    3    0    0 -0.64015049072E+02 -0.13473171187E+01  0.91709853633E+02  0.11185007387E+03  0.00000000000E+00 0. -1.
         13    1    3    3    0    0 -0.24344284263E+02  0.48136362881E+02  0.24148423947E+03  0.24743563106E+03  0.00000000000E+00 0.  1.
         21    1    1    2  502  501 -0.11563958008E+02 -0.18177889339E+02  0.10383957394E+02  0.23916257165E+02  0.00000000000E+00 0.  1.
<scales pt_clust_5="13000.00000" pt_clust_6="13000.00000" pt_clust_7="13000.00000" pt_clust_8="13000.00000" pt_clust_9="21.54439"></scales>
<clustering>
<clus scale="   21.544">  2  9  1 -1</clus>
<clus scale="   89.841">  7  8 -1 -1</clus>
<clus scale="   91.402">  5  6 -1 -1</clus>
<clus scale="  134.815">  1  7  2 -1</clus>
<clus scale="   21.544">  2  5  1 -1</clus>
</clustering>
</event>
<event>
 9    1  0.2075077E-005  0.1102290E+03  0.7546771E-02  0.1260817E+00
          1   -1    0    0  502    0  0.00000000000E+00  0.00000000000E+00  0.21451997517E+03  0.21451997517E+03  0.00000000000E+00 0. -1.
         -1   -1    0    0    0  501 -0.00000000000E+00 -0.00000000000E+00 -0.13020221314E+03  0.13020221314E+03  0.00000000000E+00 0.  1.
         23    2    1    2    0    0  0.62669908820E+02  0.23454940440E+02 -0.34252208032E+02  0.11702086866E+03  0.89682875977E+02 0.  0.
         23    2    1    2    0    0 -0.55770929135E+02 -0.46276854819E+01 -0.25660293499E+00  0.10719482232E+03  0.91426757993E+02 0.  0.
        -13    1    3    3    0    0  0.72564198692E+01 -0.32397427015E+02 -0.11131234597E+02  0.35016471698E+02  0.00000000000E+00 0. -1.
         13    1    3    3    0    0  0.55413488951E+02  0.55852367455E+02 -0.23120973435E+02  0.82004396959E+02  0.00000000000E+00 0.  1.
        -13    1    4    4    0    0 -0.43294110489E+02 -0.45963003937E+02  0.65614483564E+01  0.63482519944E+02  0.00000000000E+00 0. -1.
         13    1    4    4    0    0 -0.12476818646E+02  0.41335318456E+02 -0.68180512914E+01  0.43712302373E+02  0.00000000000E+00 0.  1.
         21    1    1    2  502  501 -0.68989796852E+01 -0.18827254958E+02  0.11882657299E+03  0.12050649733E+03  0.00000000000E+00 0. -1.
<scales pt_clust_5="13000.00000" pt_clust_6="13000.00000" pt_clust_7="13000.00000" pt_clust_8="13000.00000" pt_clust_9="20.05147"></scales>
<clustering>
<clus scale="   20.051">  1  9  2 -1</clus>
<clus scale="   89.683">  5  6 -1 -1</clus>
<clus scale="   91.427">  7  8 -1 -1</clus>
<clus scale="  108.787">  2  5  1 -1</clus>
<clus scale="   20.051">  1  5  2 -1</clus>
</clustering>
</event>
<event>
 9    1  0.2075077E-005  0.1305684E+03  0.7546771E-02  0.1226829E+00
         -1   -1    0    0    0  501 -0.00000000000E+00  0.00000000000E+00  0.13209584267E+03  0.13209584267E+03  0.00000000000E+00 0.  1.
          1   -1    0    0  502    0  0.00000000000E+00 -0.00000000000E+00 -0.46651673103E+03  0.46651673103E+03  0.00000000000E+00 0. -1.
         23    2    1    2    0    0  0.91244588809E+01 -0.91327224302E+02  0.75771010533E+02  0.15081847746E+03  0.92633954124E+02 0.  0.
         23    2    1    2    0    0  0.21206977858E+02  0.95569105091E+02 -0.24099563086E+03  0.27584827127E+03  0.91816038421E+02 0.  0.
        -11    1    4    4    0    0 -0.85758296564E+00  0.72007502220E+02 -0.65295874434E+02  0.97207854840E+02  0.00000000000E+00 0.  1.
         11    1    4    4    0    0  0.22064560824E+02  0.23561602871E+02 -0.17569975642E+03  0.17864041643E+03  0.00000000000E+00 0. -1.
        -13    1    3    3    0    0  0.41613879785E+02 -0.56981732291E+02  0.75776461022E+02  0.10354083663E+03  0.00000000000E+00 0.  1.
         13    1    3    3    0    0 -0.32489420904E+02 -0.34345492011E+02 -0.54504893687E-02  0.47277640824E+02  0.00000000000E+00 0. -1.
         21    1    1    2  502  501 -0.30331436739E+02 -0.42418807888E+01 -0.16919626804E+03  0.17194582497E+03  0.00000000000E+00 0. -1.
<scales pt_clust_5="13000.00000" pt_clust_6="13000.00000" pt_clust_7="13000.00000" pt_clust_8="13000.00000" pt_clust_9="30.62662"></scales>
<clustering>
<clus scale="   30.627">  2  9  1 -1</clus>
<clus scale="   91.816">  5  6 -1 -1</clus>
<clus scale="   92.634">  7  8 -1 -1</clus>
<clus scale="  129.989">  2  5  1 -1</clus>
<clus scale="   30.627">  2  5  1 -1</clus>
</clustering>
</event>
<event>
 9    1  0.2075077E-005  0.1351035E+03  0.7546771E-02  0.1220109E+00
         -3   -1    0    0    0  501 -0.00000000000E+00  0.00000000000E+00  0.13460411485E+03  0.13460411485E+03  0.00000000000E+00 0.  1.
          3   -1    0    0  502    0  0.00000000000E+00 -0.00000000000E+00 -0.20081571142E+03  0.20081571142E+03  0.00000000000E+00 0. -1.
         23    2    1    2    0    0 -0.93886387541E+02 -0.96938452244E+01  0.38895704145E+02  0.13746702553E+03  0.92063472156E+02 0.  0.
         23    2    1    2    0    0  0.10932318724E+03  0.24348478692E+02 -0.10004608067E+03  0.17607429496E+03  0.91915893091E+02 0.  0.
        -11    1    4    4    0    0  0.75954044125E+02  0.55061893894E+02 -0.89183874631E+02  0.12943953211E+03  0.00000000000E+00 0. -1.
         11    1    4    4    0    0  0.33369143117E+02 -0.30713415202E+02 -0.10862206043E+02  0.46634762848E+02  0.00000000000E+00 0.  1.
        -13    1    3    3    0    0 -0.42652677824E+01 -0.19786520818E+02  0.42641491407E+02  0.47201649386E+02  0.00000000000E+00 0.  1.
         13    1    3    3    0    0 -0.89621119759E+02  0.10092675594E+02 -0.37457872626E+01  0.90265376140E+02  0.00000000000E+00 0. -1.
         21    1    1    2  502  501 -0.15436799701E+02 -0.14654633467E+02 -0.50612200372E+01  0.21878505784E+02  0.00000000000E+00 0.  1.
<scales pt_clust_5="13000.00000" pt_clust_6="13000.00000" pt_clust_7="13000.00000" pt_clust_8="13000.00000" pt_clust_9="21.28504"></scales>
<clustering>
<clus scale="   21.285">  2  9  1 -1</clus>
<clus scale="   91.916">  5  6 -1 -1</clus>
<clus scale="   92.063">  7  8 -1 -1</clus>
<clus scale="  135.003">  2  5  1 -1</clus>
<clus scale="   21.285">  2  5  1 -1</clus>
</clustering>
</event>
<event>
 9    1  0.2075077E-005  0.1054667E+03  0.7546771E-02  0.1269366E+00
          4   -1    0    0  502    0  0.00000000000E+00  0.00000000000E+00  0.64712201078E+03  0.64712201078E+03  0.00000000000E+00 0. -1.
         -4   -1    0    0    0  501 -0.00000000000E+00 -0.00000000000E+00 -0.36281977532E+02  0.36281977532E+02  0.00000000000E+00 0.  1.
         23    2    1    2    0    0 -0.52411428517E+02 -0.18971915383E+02  0.76458548175E+02  0.13143133782E+03  0.91221683606E+02 0.  0.
         23    2    1    2    0    0  0.28638871054E+02  0.36737094741E+02  0.33542389509E+03  0.35081386073E+03  0.91604456321E+02 0.  0.
        -11    1    4    4    0    0  0.47425625257E+02  0.51367506899E+02  0.30062965833E+03  0.30865191100E+03  0.00000000000E+00 0. -1.
         11    1    4    4    0    0 -0.18786754203E+02 -0.14630412157E+02  0.34794236758E+02  0.42161949729E+02  0.00000000000E+00 0.  1.
        -13    1    3    3    0    0 -0.75903818158E+02 -0.12000291113E+02  0.74200007607E+02  0.10682245891E+03  0.00000000000E+00 0.  1.
         13    1    3    3    0    0  0.23492389641E+02 -0.69716242696E+01  0.22585405678E+01  0.24608878916E+02  0.00000000000E+00 0. -1.
         21    1    1    2  502  501  0.23772557463E+02 -0.17765179359E+02  0.19895758999E+03  0.20115878976E+03  0.00000000000E+00 0. -1.
<scales pt_clust_5="13000.00000" pt_clust_6="13000.00000" pt_clust_7="13000.00000" pt_clust_8="13000.00000" pt_clust_9="29.67720"></scales>
<clustering>
<clus scale="   29.677">  1  9  2 -1</clus>
<clus scale="   91.222">  7  8 -1 -1</clus>
<clus scale="   91.604">  5  6 -1 -1</clus>
<clus scale="  105.134">  2  7  1 -1</clus>
<clus scale="   29.677">  1  5  2 -1</clus>
</clustering>
</event>
<event>
 9    1  0.2075077E-005  0.1206139E+03  0.7546771E-02  0.1242368E+00
          1   -1    0    0  502    0  0.00000000000E+00  0.00000000000E+00  0.11637367753E+03  0.11637367753E+03  0.00000000000E+00 0. -1.
         -1   -1    0    0    0  501 -0.00000000000E+00 -0.00000000000E+00 -0.48986957286E+03  0.48986957286E+03  0.00000000000E+00 0.  1.
         23    2    1    2    0    0  0.57259716720E+02 -0.42961517137E+02 -0.31695707156E+03  0.33753194049E+03  0.91332680498E+02 0.  0.
         23    2    1    2    0    0 -0.59790171614E+02  0.83726599027E+02 -0.12730714751E+03  0.18700237067E+03  0.90431016931E+02 0.  0.
        -11    1    3    3    0    0  0.42373975678E+02  0.22809837541E+02 -0.11701371667E+03  0.12652293228E+03  0.00000000000E+00 0.  1.
         11    1    3    3    0    0  0.14885741042E+02 -0.65771354679E+02 -0.19994335489E+03  0.21100900821E+03  0.00000000000E+00 0. -1.
        -11    1    4    4    0    0 -0.78055480618E+02  0.37310320022E+02 -0.72306703118E+02  0.11275183968E+03  0.00000000000E+00 0. -1.
         11    1    4    4    0    0  0.18265309003E+02  0.46416279005E+02 -0.55000444395E+02  0.74250530997E+02  0.00000000000E+00 0.  1.
         21    1    1    2  502  501  0.25304548943E+01 -0.40765081889E+02  0.70768323747E+02  0.81708939226E+02  0.00000000000E+00 0. -1.
<scales pt_clust_5="13000.00000" pt_clust_6="13000.00000" pt_clust_7="13000.00000" pt_clust_8="13000.00000" pt_clust_9="40.84354"></scales>
<clustering>
<clus scale="   40.844">  1  9  2 -1</clus>
<clus scale="   90.431">  7  8 -1 -1</clus>
<clus scale="   91.333">  5  6 -1 -1</clus>
<clus scale="  119.933">  1  7  2 -1</clus>
<clus scale="   40.844">  1  5  2 -1</clus>
</clustering>
</event>
<event>
 9    1  0.2075077E-005  0.1566165E+03  0.7546771E-02  0.1194627E+00
         -1   -1    0    0    0  501 -0.00000000000E+00  0.00000000000E+00  0.46535881513E+03  0.46535881513E+03  0.00000000000E+00 0.  1.
          1   -1    0    0  502    0  0.00000000000E+00 -0.00000000000E+00 -0.39926829803E+03  0.39926829803E+03  0.00000000000E+00 0. -1.
         23    2    1    2    0    0 -0.10220133846E+03  0.77853284180E+02  0.41846908343E+03  0.44549844577E+03  0.82742032577E+02 0.  0.
         23    2    1    2    0    0  0.95125085422E+02  0.10413260695E+02 -0.17414256173E+03  0.22010824223E+03  0.94682567651E+02 0.  0.
        -11    1    4    4    0    0  0.10206855243E+03 -0.19487233522E+02 -0.13331512595E+03  0.16902859070E+03  0.00000000000E+00 0. -1.
         11    1    4    4    0    0 -0.69434670079E+01  0.29900494217E+02 -0.40827435785E+02  0.51079651539E+02  0.00000000000E+00 0.  1.
        -13    1    3    3    0    0 -0.12117694213E+02  0.43152488162E+02  0.64104336532E+02  0.78219829390E+02  0.00000000000E+00 0. -1.
         13    1    3    3    0    0 -0.90083644247E+02  0.34700796018E+02  0.35436474689E+03  0.36727861638E+03  0.00000000000E+00 0.  1.
         21    1    1    2  502  501  0.70762530374E+01 -0.88266544875E+02 -0.17823600459E+03  0.19902042517E+03  0.00000000000E+00 0. -1.
<scales pt_clust_5="13000.00000" pt_clust_6="13000.00000" pt_clust_7="13000.00000" pt_clust_8="13000.00000" pt_clust_9="88.54974"></scales>
<clustering>
<clus scale="   82.742">  7  8 -1 -1</clus>
<clus scale="   88.550">  2  9  1 -1</clus>
<clus scale="   94.683">  5  6 -1 -1</clus>
<clus scale="  149.700">  1  7  2 -1</clus>
<clus scale="   88.550">  2  5  1 -1</clus>
</clustering>
</event>
<event>
 9    1  0.2075077E-005  0.1433628E+03  0.7546771E-02  0.1225673E+00
          1   -1    0    0  502    0  0.00000000000E+00  0.00000000000E+00  0.21331542315E+03  0.21331542315E+03  0.00000000000E+00 0. -1.
         -1   -1    0    0    0  501 -0.00000000000E+00 -0.00000000000E+00 -0.16855022476E+03  0.16855022476E+03  0.00000000000E+00 0.  1.
         23    2    1    2    0    0  0.10548893207E+03 -0.32409222473E+02  0.43299244031E+02  0.14789897616E+03  0.88436475086E+02 0.  0.
         23    2    1    2    0    0  0.91956858395E+01  0.26477420100E+02  0.46243274328E+02  0.11070777248E+03  0.96603085119E+02 0.  0.
        -11    1    4    4    0    0 -0.59749818993E+01  0.61034158594E+02  0.37783893650E+02  0.72031184520E+02  0.00000000000E+00 0.  1.
         11    1    4    4    0    0  0.15170667739E+02 -0.34556738494E+02  0.84593806774E+01  0.38676587963E+02  0.00000000000E+00 0. -1.
        -13    1    3    3    0    0  0.44704193305E+02  0.22434123049E+02  0.43106119352E+02  0.66029480549E+02  0.00000000000E+00 0.  1.
         13    1    3    3    0    0  0.60784738764E+02 -0.54843345522E+02  0.19312467857E+00  0.81869495612E+02  0.00000000000E+00 0. -1.
         21    1    1    2  502  501 -0.11468461791E+03  0.59318023736E+01 -0.44777319965E+02  0.12325889926E+03  0.00000000000E+00 0.  1.
<scales pt_clust_5="13000.00000" pt_clust_6="13000.00000" pt_clust_7="13000.00000" pt_clust_8="13000.00000" pt_clust_9="112.83563"></scales>
<clustering>
<clus scale="   88.436">  7  8 -1 -1</clus>
<clus scale="   96.603">  5  6 -1 -1</clus>
<clus scale="  100.587">  1  5  2 -1</clus>
<clus scale="  112.836">  2  9  1 -1</clus>
<clus scale="  100.587">  1  5  2 -1</clus>
</clustering>
</event>
<event>
 9    1  0.2075077E-005  0.1232432E+03  0.7546771E-02  0.1237911E+00
          1   -1    0    0  502    0  0.00000000000E+00  0.00000000000E+00  0.28983173626E+03  0.28983173626E+03  0.00000000000E+00 0. -1.
         -1   -1    0    0    0  501 -0.00000000000E+00 -0.00000000000E+00 -0.22426047774E+03  0.22426047774E+03  0.00000000000E+00 0.  1.
         23    2    1    2    0    0  0.30072897885E+01  0.80258312164E+02 -0.17961537254E+03  0.21726721669E+03  0.92157044940E+02 0.  0.
         23    2    1    2    0    0  0.17248132048E+02 -0.98288966487E+02  0.22542712991E+03  0.26327168906E+03  0.92392490860E+02 0.  0.
        -11    1    3    3    0    0  0.19994699117E+02  0.93085795979E+02 -0.16778021718E+03  0.19291177953E+03  0.00000000000E+00 0.  1.
         11    1    3    3    0    0 -0.16987409328E+02 -0.12827483816E+02 -0.11835155364E+02  0.24355437159E+02  0.00000000000E+00 0. -1.
        -13    1    4    4    0    0  0.29006316965E+02 -0.18423806980E+02  0.14612192589E+03  0.15010802881E+03  0.00000000000E+00 0. -1.
         13    1    4    4    0    0 -0.11758184917E+02 -0.79865159508E+02  0.79305204017E+02  0.11316366024E+03  0.00000000000E+00 0.  1.
         21    1    1    2  502  501 -0.20255421837E+02  0.18030654324E+02  0.19759501148E+02  0.33553308254E+02  0.00000000000E+00 0.  1.
<scales pt_clust_5="13000.00000" pt_clust_6="13000.00000" pt_clust_7="13000.00000" pt_clust_8="13000.00000" pt_clust_9="27.11801"></scales>
<clustering>
<clus scale="   27.118">  1  9  2 -1</clus>
<clus scale="   92.157">  5  6 -1 -1</clus>
<clus scale="   92.392">  7  8 -1 -1</clus>
<clus scale="  123.067">  2  5  1 -1</clus>
<clus scale="   27.118">  1  5  2 -1</clus>
</clustering>
</event>
<event>
 9    1  0.2075077E-005  0.1259992E+03  0.7546771E-02  0.1233780E+00
          1   -1    0    0  502    0  0.00000000000E+00  0.00000000000E+00  0.30735889476E+03  0.30735889476E+03  0.00000000000E+00 0. -1.
         -1   -1    0    0    0  501 -0.00000000000E+00 -0.00000000000E+00 -0.92881518593E+02  0.92881518593E+02  0.00000000000E+00 0.  1.
         23    2    1    2    0    0  0.45731851604E+02 -0.79133358090E+02 -0.17940899813E+02  0.12941852105E+03  0.89854254714E+02 0.  0.
         23    2    1    2    0    0 -0.26273573860E+02  0.67520145295E+02  0.19956490426E+03  0.23091155132E+03  0.90800456038E+02 0.  0.
        -11    1    4    4    0    0 -0.10049785829E+02  0.88794659321E+02  0.15076245881E+03  0.17525640845E+03  0.00000000000E+00 0. -1.
         11    1    4    4    0    0 -0.16223788031E+02 -0.21274514025E+02  0.48802445455E+02  0.55655142867E+02  0.00000000000E+00 0.  1.
        -11    1    3    3    0    0  0.19248011267E+02  0.16742288189E+02  0.77983578101E+01  0.26675916781E+02  0.00000000000E+00 0. -1.
         11    1    3    3    0    0  0.26483840337E+02 -0.95875646280E+02 -0.25739257623E+02  0.10274260427E+03  0.00000000000E+00 0.  1.
         21    1    1    2  502  501 -0.19458277744E+02  0.11613212795E+02  0.32853371713E+02  0.39910340980E+02  0.00000000000E+00 0.  1.
<scales pt_clust_5="13000.00000" pt_clust_6="13000.00000" pt_clust_7="13000.00000" pt_clust_8="13000.00000" pt_clust_9="22.66035"></scales>
<clustering>
<clus scale="   22.660">  1  9  2 -1</clus>
<clus scale="   89.854">  7  8 -1 -1</clus>
<clus scale="   90.800">  5  6 -1 -1</clus>
<clus scale="  125.319">  2  7  1 -1</clus>
<clus scale="   22.660">  1  5  2 -1</clus>
</clustering>
</event>
<event>
 9    1  0.2075077E-005  0.1213901E+03  0.7546771E-02  0.1241274E+00
          1   -1    0    0  502    0  0.00000000000E+00  0.00000000000E+00  0.11807183145E+03  0.11807183145E+03  0.00000000000E+00 0. -1.
         -1   -1    0    0    0  501 -0.00000000000E+00 -0.00000000000E+00 -0.20535981875E+03  0.20535981875E+03  0.00000000000E+00 0.  1.
         23    2    1    2    0    0 -0.29745643858E+02 -0.63499468138E+02 -0.87985472781E+02  0.14449900946E+03  0.90672677973E+02 0.  0.
         23    2    1    2    0    0  0.17180039469E+02  0.10194506238E+03  0.88362350259E+00  0.13848523320E+03  0.92138100290E+02 0.  0.
        -11    1    3    3    0    0 -0.51817503705E+02 -0.24894057390E+02 -0.81237505486E+02  0.99520350085E+02  0.00000000000E+00 0.  1.
         11    1    3    3    0    0  0.22071859846E+02 -0.38605410748E+02 -0.67479672946E+01  0.44978659370E+02  0.00000000000E+00 0. -1.
        -13    1    4    4    0    0 -0.18052966130E+02  0.84052245616E+02 -0.27014330761E+02  0.90113615207E+02  0.00000000000E+00 0.  1.
         13    1    4    4    0    0  0.35233005599E+02  0.17892816759E+02  0.27897954264E+02  0.48371617993E+02  0.00000000000E+00 0. -1.
         21    1    1    2  502  501  0.12565604389E+02 -0.38445594238E+02 -0.18613802447E+00  0.40447407547E+02  0.00000000000E+00 0. -1.
<scales pt_clust_5="13000.00000" pt_clust_6="13000.00000" pt_clust_7="13000.00000" pt_clust_8="13000.00000" pt_clust_9="40.44698"></scales>
<clustering>
<clus scale="   40.447">  1  9  2 -1</clus>
<clus scale="   90.673">  5  6 -1 -1</clus>
<clus scale="   92.138">  7  8 -1 -1</clus>
<clus scale="  120.282">  2  5  1 -1</clus>
<clus scale="   40.447">  1  5  2 -1</clus>
</clustering>
</event>
<event>
 9    1  0.2075077E-005  0.1145460E+03  0.7546771E-02  0.1252639E+00
          1   -1    0    0  502    0  0.00000000000E+00  0.00000000000E+00  0.45158282156E+03  0.45158282156E+03  0.00000000000E+00 0. -1.
         -1   -1    0    0    0  501 -0.00000000000E+00 -0.00000000000E+00 -0.81154791735E+02  0.81154791735E+02  0.00000000000E+00 0.  1.
         23    2    1    2    0    0 -0.15145648963E+02 -0.48538523185E+02  0.34989388164E+02  0.10989076144E+03  0.90919432740E+02 0.  0.
         23    2    1    2    0    0  0.10237994911E+03  0.80619370749E+02  0.16932432159E+03  0.23249724919E+03  0.91668468285E+02 0.  0.
        -13    1    4    4    0    0  0.20729999669E+02  0.28299125475E+02 -0.25293508456E+01  0.35170598583E+02  0.00000000000E+00 0. -1.
         13    1    4    4    0    0  0.81649949445E+02  0.52320245274E+02  0.17185367243E+03  0.19732665060E+03  0.00000000000E+00 0.  1.
        -13    1    3    3    0    0  0.35400518313E+02 -0.39077734910E+02  0.18774842393E+02  0.55971070826E+02  0.00000000000E+00 0. -1.
         13    1    3    3    0    0 -0.50546167276E+02 -0.94607882752E+01  0.16214545771E+02  0.53919690612E+02  0.00000000000E+00 0.  1.
         21    1    1    2  502  501 -0.87234300151E+02 -0.32080847564E+02  0.16611432007E+03  0.19034960267E+03  0.00000000000E+00 0. -1.
<scales pt_clust_5="13000.00000" pt_clust_6="13000.00000" pt_clust_7="13000.00000" pt_clust_8="13000.00000" pt_clust_9="92.94624"></scales>
<clustering>
<clus scale="   90.919">  7  8 -1 -1</clus>
<clus scale="   91.668">  5  6 -1 -1</clus>
<clus scale="   92.946">  1  9  2 -1</clus>
<clus scale="  113.947">  2  7  1 -1</clus>
<clus scale="   92.946">  1  5  2 -1</clus>
</clustering>
</event>
<event>
 9    1  0.2075077E-005  0.1219449E+03  0.7546771E-02  0.1241001E+00
          2   -1    0    0  502    0  0.00000000000E+00  0.00000000000E+00  0.49699977772E+03  0.49699977772E+03  0.00000000000E+00 0. -1.
         -2   -1    0    0    0  501 -0.00000000000E+00 -0.00000000000E+00 -0.38476557557E+02  0.38476557557E+02  0.00000000000E+00 0.  1.
         23    2    1    2    0    0 -0.73258573260E+02  0.20466350380E+02  0.13325175871E+03  0.17731970437E+03  0.88885073561E+02 0.  0.
         23    2    1    2    0    0  0.87715210002E+02 -0.37141028029E+01  0.28510717754E+03  0.31230031350E+03  0.92399299250E+02 0.  0.
        -11    1    3    3    0    0 -0.41090780848E+02  0.60281710558E+01  0.21795109835E+01  0.41587755231E+02  0.00000000000E+00 0.  1.
         11    1    3    3    0    0 -0.32167792412E+02  0.14438179324E+02  0.13107224773E+03  0.13573194914E+03  0.00000000000E+00 0. -1.
        -13    1    4    4    0    0 -0.39755648838E+01  0.24344885573E+02  0.10924718862E+03  0.11199744100E+03  0.00000000000E+00 0.  1.
         13    1    4    4    0    0  0.91690774886E+02 -0.28058988376E+02  0.17585998892E+03  0.20030287250E+03  0.00000000000E+00 0. -1.
         21    1    1    2  502  501 -0.14456636742E+02 -0.16752247577E+02  0.40164283918E+02  0.45856317420E+02  0.00000000000E+00 0. -1.
<scales pt_clust_5="13000.00000" pt_clust_6="13000.00000" pt_clust_7="13000.00000" pt_clust_8="13000.00000" pt_clust_9="22.12763"></scales>
<clustering>
<clus scale="   22.128">  1  9  2 -1</clus>
<clus scale="   88.885">  5  6 -1 -1</clus>
<clus scale="   92.399">  7  8 -1 -1</clus>
<clus scale="  119.304">  2  5  1 -1</clus>
<clus scale="   22.128">  1  5  2 -1</clus>
</clustering>
</event>
<event>
 9    1  0.2075077E-005  0.3212258E+03  0.7546771E-02  0.1075353E+00
         -2   -1    0    0    0  501 -0.00000000000E+00  0.00000000000E+00  0.85331471704E+02  0.85331471704E+02  0.00000000000E+00 0.  1.
          2   -1    0    0  502    0  0.00000000000E+00 -0.00000000000E+00 -0.17279416378E+04  0.17279416378E+04  0.00000000000E+00 0. -1.
         23    2    1    2    0    0  0.25811345139E+03 -0.20148639784E+03 -0.44403065633E+03  0.55736503307E+03  0.79203750024E+02 0.  0.
         23    2    1    2    0    0 -0.24477034408E+03  0.13648830390E+03 -0.80827168848E+03  0.86000027646E+03  0.88066876067E+02 0.  0.
        -11    1    3    3    0    0  0.20816459566E+03 -0.13705632373E+03 -0.28463009919E+03  0.37832687999E+03  0.00000000000E+00 0.  1.
         11    1    3    3    0    0  0.49948855738E+02 -0.64430074120E+02 -0.15940055714E+03  0.17903815308E+03  0.00000000000E+00 0. -1.
        -13    1    4    4    0    0 -0.13990322787E+03  0.82784149438E+02 -0.33606637251E+03  0.37331854401E+03  0.00000000000E+00 0.  1.
         13    1    4    4    0    0 -0.10486711621E+03  0.53704154467E+02 -0.47220531597E+03  0.48668173245E+03  0.00000000000E+00 0. -1.
         21    1    1    2  502  501 -0.13343107312E+02  0.64998093940E+02 -0.39030782126E+03  0.39590779996E+03  0.00000000000E+00 0. -1.
<scales pt_clust_5="13000.00000" pt_clust_6="13000.00000" pt_clust_7="13000.00000" pt_clust_8="13000.00000" pt_clust_9="66.35353"></scales>
<clustering>
<clus scale="   66.354">  2  9  1 -1</clus>
<clus scale="   79.204">  5  6 -1 -1</clus>
<clus scale="   88.067">  7  8 -1 -1</clus>
<clus scale="  318.910">  1  5  2 -1</clus>
<clus scale="   66.354">  2  5  1 -1</clus>
</clustering>
</event>
<event>
 9    1  0.2075077E-005  0.1147871E+03  0.7546771E-02  0.1252282E+00
          2   -1    0    0  502    0  0.00000000000E+00  0.00000000000E+00  0.23487183351E+03  0.23487183351E+03  0.00000000000E+00 0. -1.
         -2   -1    0    0    0  501 -0.00000000000E+00 -0.00000000000E+00 -0.82036746071E+02  0.82036746071E+02  0.00000000000E+00 0.  1.
         23    2    1    2    0    0  0.31478766310E+02 -0.66149900395E+02  0.94734380163E+01  0.11691224646E+03  0.90620115287E+02 0.  0.
         23    2    1    2    0    0 -0.54342921276E+01  0.67533341367E+02  0.10643996458E+03  0.15479191567E+03  0.89670437558E+02 0.  0.
        -13    1    4    4    0    0  0.25946409807E+02  0.79876108282E+01 -0.19341340372E+01  0.27216887829E+02  0.00000000000E+00 0. -1.
         13    1    4    4    0    0 -0.31380701935E+02  0.59545730539E+02  0.10837409861E+03  0.12757502784E+03  0.00000000000E+00 0.  1.
        -13    1    3    3    0    0  0.18603708512E+02 -0.88541204373E+02  0.10375289467E+02  0.91067499547E+02  0.00000000000E+00 0. -1.
         13    1    3    3    0    0  0.12875057798E+02  0.22391303978E+02 -0.90185145037E+00  0.25844746917E+02  0.00000000000E+00 0.  1.
         21    1    1    2  502  501 -0.26044474183E+02 -0.13834409722E+01  0.36921684844E+02  0.45204417440E+02  0.00000000000E+00 0.  1.
<scales pt_clust_5="13000.00000" pt_clust_6="13000.00000" pt_clust_7="13000.00000" pt_clust_8="13000.00000" pt_clust_9="26.08119"></scales>
<clustering>
<clus scale="   26.081">  1  9  2 -1</clus>
<clus scale="   89.670">  5  6 -1 -1</clus>
<clus scale="   90.620">  7  8 -1 -1</clus>
<clus scale="  114.039">  1  5  2 -1</clus>
<clus scale="   26.081">  1  5  2 -1</clus>
</clustering>
</event>
<event>
 9    1  0.2075077E-005  0.1722411E+03  0.7546771E-02  0.1175540E+00
         -1   -1    0    0    0  501 -0.00000000000E+00  0.00000000000E+00  0.98034522439E+03  0.98034522439E+03  0.00000000000E+00 0.  1.
          1   -1    0    0  502    0  0.00000000000E+00 -0.00000000000E+00 -0.58401708008E+02  0.58401708008E+02  0.00000000000E+00 0. -1.
         23    2    1    2    0    0 -0.31795868428E+01 -0.15082631209E+03  0.72412033923E+03  0.74580863979E+03  0.95506938476E+02 0.  0.
         23    2    1    2    0    0  0.30136744553E+00  0.12511673000E+03  0.21150697689E+03  0.26367204698E+03  0.95569138007E+02 0.  0.
        -13    1    3    3    0    0  0.46047309316E+02 -0.68505414386E+02  0.34680782073E+03  0.35649545722E+03  0.00000000000E+00 0. -1.
         13    1    3    3    0    0 -0.49226896159E+02 -0.82320897708E+02  0.37731251850E+03  0.38931318257E+03  0.00000000000E+00 0.  1.
        -13    1    4    4    0    0 -0.37426683209E+02  0.85806264878E+02  0.17380948943E+03  0.19741633753E+03  0.00000000000E+00 0.  1.
         13    1    4    4    0    0  0.37728050654E+02  0.39310465118E+02  0.37697487456E+02  0.66255709448E+02  0.00000000000E+00 0. -1.
         21    1    1    2  502  501  0.28782193973E+01  0.25709582098E+02 -0.13683799732E+02  0.29266245637E+02  0.00000000000E+00 0. -1.
<scales pt_clust_5="13000.00000" pt_clust_6="13000.00000" pt_clust_7="13000.00000" pt_clust_8="13000.00000" pt_clust_9="25.87019"></scales>
<clustering>
<clus scale="   25.870">  2  9  1 -1</clus>
<clus scale="   95.507">  5  6 -1 -1</clus>
<clus scale="   95.569">  7  8 -1 -1</clus>
<clus scale="  172.207">  1  5  2 -1</clus>
<clus scale="   25.870">  2  5  1 -1</clus>
</clustering>
</event>
<event>
 9    1  0.2075077E-005  0.1343173E+03  0.7546771E-02  0.1221818E+00
         -1   -1    0    0    0  501 -0.00000000000E+00  0.00000000000E+00  0.39480696790E+02  0.39480696790E+02  0.00000000000E+00 0.  1.
          1   -1    0    0  502    0  0.00000000000E+00 -0.00000000000E+00 -0.77158772570E+03  0.77158772570E+03  0.00000000000E+00 0. -1.
         23    2    1    2    0    0  0.56807385753E+02  0.11704099409E+03 -0.27080663158E+03  0.31533354084E+03  0.95777538579E+02 0.  0.
         23    2    1    2    0    0 -0.17153426254E+02 -0.76708284180E+02 -0.35417480186E+03  0.37459423118E+03  0.93287978132E+02 0.  0.
        -11    1    3    3    0    0  0.70227056071E+02  0.53697490349E+02 -0.10456496760E+03  0.13692732497E+03  0.00000000000E+00 0. -1.
         11    1    3    3    0    0 -0.13419670318E+02  0.63343503742E+02 -0.16624166398E+03  0.17840621587E+03  0.00000000000E+00 0.  1.
        -11    1    4    4    0    0 -0.45321960371E+02 -0.64095213868E+01 -0.11763317396E+03  0.12622490115E+03  0.00000000000E+00 0.  1.
         11    1    4    4    0    0  0.28168534116E+02 -0.70298762793E+02 -0.23654162791E+03  0.24836933003E+03  0.00000000000E+00 0. -1.
         21    1    1    2  502  501 -0.39653959499E+02 -0.40332709912E+02 -0.10712559547E+03  0.12114065047E+03  0.00000000000E+00 0.  1.
<scales pt_clust_5="13000.00000" pt_clust_6="13000.00000" pt_clust_7="13000.00000" pt_clust_8="13000.00000" pt_clust_9="56.56115"></scales>
<clustering>
<clus scale="   56.561">  1  9  2 -1</clus>
<clus scale="   93.288">  7  8 -1 -1</clus>
<clus scale="   95.778">  5  6 -1 -1</clus>
<clus scale="  132.554">  2  7  1 -1</clus>
<clus scale="  132.554">  2  5  1 -1</clus>
</clustering>
</event>
<event>
 9    1  0.2075077E-005  0.1086732E+03  0.7546771E-02  0.1265395E+00
         -2   -1    0    0    0  501 -0.00000000000E+00  0.00000000000E+00  0.69181869142E+02  0.69181869142E+02  0.00000000000E+00 0.  1.
          2   -1    0    0  502    0  0.00000000000E+00 -0.00000000000E+00 -0.33601308667E+03  0.33601308667E+03  0.00000000000E+00 0. -1.
         23    2    1    2    0    0  0.58633408234E+01  0.60746117830E+02 -0.19786396726E+02  0.11066755032E+03  0.90173918633E+02 0.  0.
         23    2    1    2    0    0 -0.36298940318E+02 -0.53992373901E+02 -0.10651857272E+03  0.15058448218E+03  0.84241856757E+02 0.  0.
        -11    1    3    3    0    0  0.18606648335E+02 -0.73933686838E+01  0.21983719307E+02  0.29734713338E+02  0.00000000000E+00 0. -1.
         11    1    3    3    0    0 -0.12743307511E+02  0.68139486513E+02 -0.41770116032E+02  0.80932836982E+02  0.00000000000E+00 0.  1.
        -11    1    4    4    0    0  0.23931921346E+02  0.21610690866E+00 -0.14544819728E+02  0.28005987617E+02  0.00000000000E+00 0. -1.
         11    1    4    4    0    0 -0.60230861663E+02 -0.54208480809E+02 -0.91973752997E+02  0.12257849456E+03  0.00000000000E+00 0.  1.
         21    1    1    2  502  501  0.30435599494E+02 -0.67537439290E+01 -0.14052624808E+03  0.14394292332E+03  0.00000000000E+00 0. -1.
<scales pt_clust_5="13000.00000" pt_clust_6="13000.00000" pt_clust_7="13000.00000" pt_clust_8="13000.00000" pt_clust_9="31.17593"></scales>
<clustering>
<clus scale="   31.176">  2  9  1 -1</clus>
<clus scale="   84.242">  7  8 -1 -1</clus>
<clus scale="   90.174">  5  6 -1 -1</clus>
<clus scale="  103.804">  2  7  1 -1</clus>
<clus scale="   31.176">  2  5  1 -1</clus>
</clustering>
</event>
<event>
 9    1  0.2075077E-005  0.9684985E+02  0.7546771E-02  0.1288797E+00
          3   -1    0    0  502    0  0.00000000000E+00  0.00000000000E+00  0.52306609734E+02  0.52306609734E+02  0.00000000000E+00 0. -1.
         -3   -1    0    0    0  501 -0.00000000000E+00 -0.00000000000E+00 -0.33239549955E+03  0.33239549955E+03  0.00000000000E+00 0.  1.
         23    2    1    2    0    0  0.28975754728E+02  0.10682229416E+02 -0.23151020335E+03  0.25151796482E+03  0.93330637960E+02 0.  0.
         23    2    1    2    0    0 -0.37747325604E+01 -0.20441527059E+02 -0.51761808795E+02  0.10597260874E+03  0.90104407872E+02 0.  0.
        -13    1    3    3    0    0  0.57956919580E+02  0.13309906755E+02 -0.96054991270E+02  0.11297220673E+03  0.00000000000E+00 0.  1.
         13    1    3    3    0    0 -0.28981164851E+02 -0.26276773394E+01 -0.13545521208E+03  0.13854575809E+03  0.00000000000E+00 0. -1.
        -13    1    4    4    0    0  0.37469214423E+02 -0.22612072962E+02 -0.47285774828E+02  0.64429747588E+02  0.00000000000E+00 0.  1.
         13    1    4    4    0    0 -0.41243946983E+02  0.21705459031E+01 -0.44760339663E+01  0.41542861148E+02  0.00000000000E+00 0. -1.
         21    1    1    2  502  501 -0.25201022168E+02  0.97592976433E+01  0.31831223355E+01  0.27211535727E+02  0.00000000000E+00 0. -1.
<scales pt_clust_5="13000.00000" pt_clust_6="13000.00000" pt_clust_7="13000.00000" pt_clust_8="13000.00000" pt_clust_9="27.02472"></scales>
<clustering>
<clus scale="   27.025">  1  9  2 -1</clus>
<clus scale="   90.104">  7  8 -1 -1</clus>
<clus scale="   93.331">  5  6 -1 -1</clus>
<clus scale="   93.745">  1  7  2 -1</clus>
<clus scale="   27.025">  1  5  2 -1</clus>
</clustering>
</event>
<event>
 9    1  0.2075077E-005  0.1117151E+03  0.7546771E-02  0.1261244E+00
          2   -1    0    0  502    0  0.00000000000E+00  0.00000000000E+00  0.82685281984E+03  0.82685281984E+03  0.00000000000E+00 0. -1.
         -2   -1    0    0    0  501 -0.00000000000E+00 -0.00000000000E+00 -0.28032610766E+02  0.28032610766E+02  0.00000000000E+00 0.  1.
         23    2    1    2    0    0  0.37008595475E+01  0.47825048744E+00  0.22639296194E+03  0.25050274715E+03  0.10716309080E+03 0.  0.
         23    2    1    2    0    0 -0.34090927228E+02 -0.54118662770E+02  0.25224942375E+03  0.27832335047E+03  0.98707115513E+02 0.  0.
        -11    1    4    4    0    0 -0.13030956754E+02  0.22843295862E+02  0.12789760895E+03  0.13057342906E+03  0.00000000000E+00 0. -1.
         11    1    4    4    0    0 -0.21059970474E+02 -0.76961958633E+02  0.12435181480E+03  0.14774992141E+03  0.00000000000E+00 0.  1.
        -13    1    3    3    0    0 -0.41432626723E+02 -0.17363994123E+02  0.17124998499E+03  0.17704442439E+03  0.00000000000E+00 0.  1.
         13    1    3    3    0    0  0.45133486271E+02  0.17842244611E+02  0.55142976954E+02  0.73458322762E+02  0.00000000000E+00 0. -1.
         21    1    1    2  502  501  0.30390067680E+02  0.53640412283E+02  0.32017782338E+03  0.32605933299E+03  0.00000000000E+00 0.  1.
<scales pt_clust_5="13000.00000" pt_clust_6="13000.00000" pt_clust_7="13000.00000" pt_clust_8="13000.00000" pt_clust_9="61.65103"></scales>
<clustering>
<clus scale="   61.651">  1  9  2 -1</clus>
<clus scale="   98.707">  5  6 -1 -1</clus>
<clus scale="  103.631">  1  5  2 -1</clus>
<clus scale="  107.163">  7  8 -1 -1</clus>
<clus scale="   61.651">  1  5  2 -1</clus>
</clustering>
</event>
<event>
 9    1  0.2075077E-005  0.9404585E+02  0.7546771E-02  0.1294891E+00
          2   -1    0    0  502    0  0.00000000000E+00  0.00000000000E+00  0.29436514802E+03  0.29436514802E+03  0.00000000000E+00 0. -1.
         -2   -1    0    0    0  501 -0.00000000000E+00 -0.00000000000E+00 -0.85887426925E+02  0.85887426925E+02  0.00000000000E+00 0.  1.
         23    2    1    2    0    0 -0.10169418226E+02 -0.15828552056E+02 -0.42131971042E+02  0.10115644921E+03  0.90019798405E+02 0.  0.
         23    2    1    2    0    0 -0.70245455335E+01  0.16357695276E+01  0.15368684835E+03  0.17964209056E+03  0.92734100323E+02 0.  0.
        -13    1    4    4    0    0  0.35175572893E+02  0.21518185557E+02  0.43251193164E+02  0.59758003213E+02  0.00000000000E+00 0. -1.
         13    1    4    4    0    0 -0.42200118426E+02 -0.19882416029E+02  0.11043565518E+03  0.11988408734E+03  0.00000000000E+00 0.  1.
        -13    1    3    3    0    0  0.30383084354E+02  0.17224591762E+02 -0.15763070147E+01  0.34961451915E+02  0.00000000000E+00 0. -1.
         13    1    3    3    0    0 -0.40552502579E+02 -0.33053143818E+02 -0.40555664027E+02  0.66194997291E+02  0.00000000000E+00 0.  1.
         21    1    1    2  502  501  0.17193963759E+02  0.14192782529E+02  0.96922843787E+02  0.99454035179E+02  0.00000000000E+00 0.  1.
<scales pt_clust_5="13000.00000" pt_clust_6="13000.00000" pt_clust_7="13000.00000" pt_clust_8="13000.00000" pt_clust_9="22.29501"></scales>
<clustering>
<clus scale="   22.295">  1  9  2 -1</clus>
<clus scale="   90.020">  7  8 -1 -1</clus>
<clus scale="   91.371">  2  7  1 -1</clus>
<clus scale="   92.734">  5  6 -1 -1</clus>
<clus scale="   22.295">  1  5  2 -1</clus>
</clustering>
</event>
<event>
 9    1  0.2075077E-005  0.1123104E+03  0.7546771E-02  0.1260419E+00
          1   -1    0    0  502    0  0.00000000000E+00  0.00000000000E+00  0.39855700090E+02  0.39855700090E+02  0.00000000000E+00 0. -1.
         -1   -1    0    0    0  501 -0.00000000000E+00 -0.00000000000E+00 -0.76719413539E+03  0.76719413539E+03  0.00000000000E+00 0.  1.
         23    2    1    2    0    0 -0.57958605902E+01 -0.26392673928E+02 -0.28028558747E+03  0.29779996686E+03  0.96925974222E+02 0.  0.
         23    2    1    2    0    0  0.51850404058E+02  0.10937368049E+03 -0.27850878115E+03  0.31582295520E+03  0.86752126594E+02 0.  0.
        -11    1    4    4    0    0  0.51292177740E+02  0.85013215623E+02 -0.27347568303E+03  0.29094171846E+03  0.00000000000E+00 0.  1.
         11    1    4    4    0    0  0.55822631798E+00  0.24360464868E+02 -0.50330981151E+01  0.24881236742E+02  0.00000000000E+00 0. -1.
        -13    1    3    3    0    0 -0.24895613621E+02  0.30507728860E+02 -0.89069115651E+02  0.97384908793E+02  0.00000000000E+00 0.  1.
         13    1    3    3    0    0  0.19099753031E+02 -0.56900402789E+02 -0.19121647182E+03  0.20041505807E+03  0.00000000000E+00 0. -1.
         21    1    1    2  502  501 -0.46054543467E+02 -0.82981006563E+02 -0.16854406668E+03  0.19342691343E+03  0.00000000000E+00 0. -1.
<scales pt_clust_5="13000.00000" pt_clust_6="13000.00000" pt_clust_7="13000.00000" pt_clust_8="13000.00000" pt_clust_9="94.90452"></scales>
<clustering>
<clus scale="   86.752">  5  6 -1 -1</clus>
<clus scale="   94.905">  1  9  2 -1</clus>
<clus scale="   96.926">  7  8 -1 -1</clus>
<clus scale="  103.658">  1  5  2 -1</clus>
<clus scale="   94.905">  1  5  2 -1</clus>
</clustering>
</event>
<event>
 9    1  0.2075077E-005  0.1218303E+03  0.7546771E-02  0.1240829E+00
          4   -1    0    0  502    0  0.00000000000E+00  0.00000000000E+00  0.10869429475E+03  0.10869429475E+03  0.00000000000E+00 0. -1.
         -4   -1    0    0    0  501 -0.00000000000E+00 -0.00000000000E+00 -0.48803888801E+03  0.48803888801E+03  0.00000000000E+00 0.  1.
         23    2    1    2    0    0  0.67621188628E+02  0.45757908373E+02 -0.29582701790E+03  0.31921209706E+03  0.87842626688E+02 0.  0.
         23    2    1    2    0    0 -0.84095317374E+02 -0.18580600332E+02 -0.15519404443E+03  0.19911496854E+03  0.90245876124E+02 0.  0.
        -11    1    4    4    0    0 -0.32227076256E+02  0.30484993397E+02 -0.25769941310E+02  0.51303110447E+02  0.00000000000E+00 0.  1.
         11    1    4    4    0    0 -0.51868241118E+02 -0.49065593729E+02 -0.12942410312E+03  0.14781185809E+03  0.00000000000E+00 0. -1.
        -13    1    3    3    0    0  0.87886022002E+02  0.31057577468E+02 -0.20891653012E+03  0.22876766060E+03  0.00000000000E+00 0.  1.
         13    1    3    3    0    0 -0.20264833374E+02  0.14700330905E+02 -0.86910487782E+02  0.90444436461E+02  0.00000000000E+00 0. -1.
         21    1    1    2  502  501  0.16474128747E+02 -0.27177308041E+02  0.71676469064E+02  0.78406117158E+02  0.00000000000E+00 0.  1.
<scales pt_clust_5="13000.00000" pt_clust_6="13000.00000" pt_clust_7="13000.00000" pt_clust_8="13000.00000" pt_clust_9="31.78054"></scales>
<clustering>
<clus scale="   31.781">  1  9  2 -1</clus>
<clus scale="   87.843">  7  8 -1 -1</clus>
<clus scale="   90.246">  5  6 -1 -1</clus>
<clus scale="  120.061">  2  7  1 -1</clus>
<clus scale="   31.781">  1  5  2 -1</clus>
</clustering>
</event>
<event>
 9    1  0.2075077E-005  0.1790209E+03  0.7546771E-02  0.1168777E+00
         -1   -1    0    0    0  501 -0.00000000000E+00  0.00000000000E+00  0.48590357379E+03  0.48590357379E+03  0.00000000000E+00 0.  1.
          1   -1    0    0  502    0  0.00000000000E+00 -0.00000000000E+00 -0.25956937129E+03  0.25956937129E+03  0.00000000000E+00 0. -1.
         23    2    1    2    0    0 -0.38166515172E+02 -0.15116259910E+03  0.42986121115E+03  0.46627167193E+03  0.91223883672E+02 0.  0.
         23    2    1    2    0    0  0.23232474480E+02  0.12942397891E+03 -0.19336761532E+03  0.25093810893E+03  0.91041669962E+02 0.  0.
        -13    1    4    4    0    0  0.17970450024E+02  0.31913266526E+02 -0.27076235780E+01  0.36724989855E+02  0.00000000000E+00 0.  1.
         13    1    4    4    0    0  0.52620244566E+01  0.97510712384E+02 -0.19065999174E+03  0.21421311907E+03  0.00000000000E+00 0. -1.
        -13    1    3    3    0    0  0.29014678391E+02 -0.47377926768E+02  0.10730412180E+03  0.12083333175E+03  0.00000000000E+00 0. -1.
         13    1    3    3    0    0 -0.67181193563E+02 -0.10378467233E+03  0.32255708935E+03  0.34543834019E+03  0.00000000000E+00 0.  1.
         21    1    1    2  502  501  0.14934040692E+02  0.21738620189E+02 -0.10159393320E+02  0.28263164220E+02  0.00000000000E+00 0. -1.
<scales pt_clust_5="13000.00000" pt_clust_6="13000.00000" pt_clust_7="13000.00000" pt_clust_8="13000.00000" pt_clust_9="26.37410"></scales>
<clustering>
<clus scale="   26.374">  2  9  1 -1</clus>
<clus scale="   91.042">  5  6 -1 -1</clus>
<clus scale="   91.224">  7  8 -1 -1</clus>
<clus scale="  178.928">  2  5  1 -1</clus>
<clus scale="   26.374">  2  5  1 -1</clus>
</clustering>
</event>
<event>
 9    1  0.2075077E-005  0.9833270E+02  0.7546771E-02  0.1285463E+00
          2   -1    0    0  502    0  0.00000000000E+00  0.00000000000E+00  0.16859111250E+03  0.16859111250E+03  0.00000000000E+00 0. -1.
         -2   -1    0    0    0  501 -0.00000000000E+00 -0.00000000000E+00 -0.23701513147E+03  0.23701513147E+03  0.00000000000E+00 0.  1.
         23    2    1    2    0    0  0.23857860434E+02  0.65190804705E+01 -0.19968162154E+03  0.22109620682E+03  0.91646531702E+02 0.  0.
         23    2    1    2    0    0 -0.42790301536E+02 -0.20448427602E+02  0.11153641865E+03  0.15382797183E+03  0.94728686973E+02 0.  0.
        -11    1    3    3    0    0 -0.13680129136E+02  0.25485984680E+02 -0.16819970872E+02  0.33460316323E+02  0.00000000000E+00 0. -1.
         11    1    3    3    0    0  0.37537989570E+02 -0.18966904209E+02 -0.18286165067E+03  0.18763589049E+03  0.00000000000E+00 0.  1.
        -13    1    4    4    0    0 -0.45629347676E+02 -0.54368942733E+02  0.84520199094E+02  0.11037066348E+03  0.00000000000E+00 0. -1.
         13    1    4    4    0    0  0.28390461396E+01  0.33920515131E+02  0.27016219560E+02  0.43457308350E+02  0.00000000000E+00 0.  1.
         21    1    1    2  502  501  0.18932441102E+02  0.13929347131E+02  0.19721183907E+02  0.30682065320E+02  0.00000000000E+00 0. -1.
<scales pt_clust_5="13000.00000" pt_clust_6="13000.00000" pt_clust_7="13000.00000" pt_clust_8="13000.00000" pt_clust_9="23.50455"></scales>
<clustering>
<clus scale="   23.505">  1  9  2 -1</clus>
<clus scale="   91.647">  5  6 -1 -1</clus>
<clus scale="   94.729">  7  8 -1 -1</clus>
<clus scale="   95.367">  2  5  1 -1</clus>
<clus scale="   23.505">  1  5  2 -1</clus>
</clustering>
</event>
<event>
 9    1  0.2075077E-005  0.1291777E+03  0.7546771E-02  0.1229395E+00
         -2   -1    0    0    0  501 -0.00000000000E+00  0.00000000000E+00  0.95889866225E+02  0.95889866225E+02  0.00000000000E+00 0.  1.
          2   -1    0    0  502    0  0.00000000000E+00 -0.00000000000E+00 -0.36046143422E+03  0.36046143422E+03  0.00000000000E+00 0. -1.
         23    2    1    2    0    0 -0.75689147205E+02 -0.69043918124E+02 -0.27170022175E+02  0.14035258786E+03  0.92003962847E+02 0.  0.
         23    2    1    2    0    0  0.57857577769E+02  0.52096417046E+02 -0.52732300489E+02  0.12969811454E+03  0.89327316233E+02 0.  0.
        -11    1    4    4    0    0  0.28565478440E+02  0.63288978370E+00  0.20759831316E+02  0.35317951587E+02  0.00000000000E+00 0.  1.
         11    1    4    4    0    0  0.29292099329E+02  0.51463527262E+02 -0.73492131806E+02  0.94380162951E+02  0.00000000000E+00 0. -1.
        -11    1    3    3    0    0 -0.67085853791E+02  0.10116964934E+01 -0.11979939048E+02  0.68154634826E+02  0.00000000000E+00 0.  1.
         11    1    3    3    0    0 -0.86032934146E+01 -0.70055614617E+02 -0.15190083126E+02  0.72197953034E+02  0.00000000000E+00 0. -1.
         21    1    1    2  502  501  0.17831569436E+02  0.16947501078E+02 -0.18466924533E+03  0.18630059805E+03  0.00000000000E+00 0. -1.
<scales pt_clust_5="13000.00000" pt_clust_6="13000.00000" pt_clust_7="13000.00000" pt_clust_8="13000.00000" pt_clust_9="24.60046"></scales>
<clustering>
<clus scale="   24.600">  2  9  1 -1</clus>
<clus scale="   89.327">  5  6 -1 -1</clus>
<clus scale="   92.004">  7  8 -1 -1</clus>
<clus scale="  127.285">  2  5  1 -1</clus>
<clus scale="   24.600">  2  5  1 -1</clus>
</clustering>
</event>
<event>
 9    1  0.2075077E-005  0.2193997E+03  0.7546771E-02  0.1168861E+00
          2   -1    0    0  502    0  0.00000000000E+00  0.00000000000E+00  0.73425513173E+03  0.73425513173E+03  0.00000000000E+00 0. -1.
         -2   -1    0    0    0  501 -0.00000000000E+00 -0.00000000000E+00 -0.23487545284E+03  0.23487545284E+03  0.00000000000E+00 0.  1.
         23    2    1    2    0    0  0.81510951552E+01  0.34778206236E+02 -0.14716010770E+03  0.17626113788E+03  0.90199376102E+02 0.  0.
         23    2    1    2    0    0  0.19346839635E+03 -0.33564337185E+02  0.16952397757E+03  0.27499303780E+03  0.91248050680E+02 0.  0.
        -11    1    4    4    0    0  0.35402068161E+02 -0.12029214549E+02 -0.59312834939E+01  0.37857476892E+02  0.00000000000E+00 0.  1.
         11    1    4    4    0    0  0.15806632819E+03 -0.21535122636E+02  0.17545526106E+03  0.23713556091E+03  0.00000000000E+00 0. -1.
        -13    1    3    3    0    0  0.39413926320E+02 -0.94548452709E+01 -0.82442878554E+02  0.91867730522E+02  0.00000000000E+00 0. -1.
         13    1    3    3    0    0 -0.31262831165E+02  0.44233051507E+02 -0.64717229144E+02  0.84393407362E+02  0.00000000000E+00 0.  1.
         21    1    1    2  502  501 -0.20161949150E+03 -0.12138690504E+01  0.47701580902E+03  0.51787640889E+03  0.00000000000E+00 0. -1.
<scales pt_clust_5="13000.00000" pt_clust_6="13000.00000" pt_clust_7="13000.00000" pt_clust_8="13000.00000" pt_clust_9="199.52444"></scales>
<clustering>
<clus scale="   90.199">  7  8 -1 -1</clus>
<clus scale="   91.248">  5  6 -1 -1</clus>
<clus scale="   97.015">  2  7  1 -1</clus>
<clus scale="  199.524">  1  9  2 -1</clus>
<clus scale="  199.524">  1  5  2 -1</clus>
</clustering>
</event>
<event>
 9    1  0.2075077E-005  0.1095850E+03  0.7546771E-02  0.1262293E+00
         -1   -1    0    0    0  501 -0.00000000000E+00  0.00000000000E+00  0.13825269332E+03  0.13825269332E+03  0.00000000000E+00 0.  1.
          1   -1    0    0  502    0  0.00000000000E+00 -0.00000000000E+00 -0.31928529139E+03  0.31928529139E+03  0.00000000000E+00 0. -1.
         23    2    1    2    0    0 -0.29994729876E+02 -0.44899963628E+02  0.84480105681E+02  0.13561805493E+03  0.91321837553E+02 0.  0.
         23    2    1    2    0    0  0.18721612171E+02  0.72671238574E+02 -0.10767528712E+03  0.16126197951E+03  0.93700858593E+02 0.  0.
        -13    1    3    3    0    0 -0.60585439785E+02 -0.24213305653E+02  0.70692803459E+02  0.96199543375E+02  0.00000000000E+00 0.  1.
         13    1    3    3    0    0  0.30590709910E+02 -0.20686657975E+02  0.13787302221E+02  0.39418511558E+02  0.00000000000E+00 0. -1.
        -13    1    4    4    0    0 -0.22966256893E+02  0.73760696600E+02 -0.59271115690E+02  0.97371219946E+02  0.00000000000E+00 0.  1.
         13    1    4    4    0    0  0.41687869064E+02 -0.10894580262E+01 -0.48404171435E+02  0.63890759568E+02  0.00000000000E+00 0. -1.
         21    1    1    2  502  501  0.11273117705E+02 -0.27771274946E+02 -0.15783741662E+03  0.16065795026E+03  0.00000000000E+00 0. -1.
<scales pt_clust_5="13000.00000" pt_clust_6="13000.00000" pt_clust_7="13000.00000" pt_clust_8="13000.00000" pt_clust_9="29.97210"></scales>
<clustering>
<clus scale="   29.972">  2  9  1 -1</clus>
<clus scale="   91.322">  5  6 -1 -1</clus>
<clus scale="   93.701">  7  8 -1 -1</clus>
<clus scale="  107.558">  1  5  2 -1</clus>
<clus scale="   29.972">  2  5  1 -1</clus>
</clustering>
</event>
<event>
 9    1  0.2075077E-005  0.9599862E+02  0.7546771E-02  0.1290119E+00
         -1   -1    0    0    0  501 -0.00000000000E+00  0.00000000000E+00  0.46917713890E+02  0.46917713890E+02  0.00000000000E+00 0.  1.
          1   -1    0    0  502    0  0.00000000000E+00 -0.00000000000E+00 -0.33943643929E+03  0.33943643929E+03  0.00000000000E+00 0. -1.
         23    2    1    2    0    0  0.49620422893E+01 -0.27885514339E+02 -0.38386416330E+02  0.10261398566E+03  0.90850918111E+02 0.  0.
         23    2    1    2    0    0 -0.16659055570E+02  0.88384764070E+01 -0.15204021397E+03  0.17922985389E+03  0.93013284329E+02 0.  0.
        -11    1    3    3    0    0 -0.20888935947E+02 -0.53177792445E+02 -0.13481606240E+02  0.58702461286E+02  0.00000000000E+00 0. -1.
         11    1    3    3    0    0  0.25850978236E+02  0.25292278106E+02 -0.24904810090E+02  0.43911524377E+02  0.00000000000E+00 0.  1.
        -13    1    4    4    0    0 -0.26678102846E+02  0.44124120241E+02 -0.54525650383E+02  0.75044691406E+02  0.00000000000E+00 0.  1.
         13    1    4    4    0    0  0.10019047276E+02 -0.35285643834E+02 -0.97514563590E+02  0.10418516248E+03  0.00000000000E+00 0. -1.
         21    1    1    2  502  501  0.11697013281E+02  0.19047037932E+02 -0.10209209509E+03  0.10451031363E+03  0.00000000000E+00 0. -1.
<scales pt_clust_5="13000.00000" pt_clust_6="13000.00000" pt_clust_7="13000.00000" pt_clust_8="13000.00000" pt_clust_9="22.35195"></scales>
<clustering>
<clus scale="   22.352">  2  9  1 -1</clus>
<clus scale="   90.851">  5  6 -1 -1</clus>
<clus scale="   93.013">  7  8 -1 -1</clus>
<clus scale="   93.905">  1  5  2 -1</clus>
<clus scale="   22.352">  2  5  1 -1</clus>
</clustering>
</event>
<event>
 9    1  0.2075077E-005  0.1689768E+03  0.7546771E-02  0.1179488E+00
          3   -1    0    0  502    0  0.00000000000E+00  0.00000000000E+00  0.82873083169E+03  0.82873083169E+03  0.00000000000E+00 0. -1.
         -3   -1    0    0    0  501 -0.00000000000E+00 -0.00000000000E+00 -0.70697294495E+02  0.70697294495E+02  0.00000000000E+00 0.  1.
         23    2    1    2    0    0 -0.33998060664E+02 -0.13326194750E+03  0.90781649956E+02  0.19017242503E+03  0.94919062847E+02 0.  0.
         23    2    1    2    0    0 -0.16471016072E+02  0.15335575097E+03  0.42892024390E+03  0.46481171808E+03  0.91038875817E+02 0.  0.
        -11    1    4    4    0    0  0.28906823070E+02  0.79736935926E+02  0.28041433966E+03  0.29296038172E+03  0.00000000000E+00 0.  1.
         11    1    4    4    0    0 -0.45377839143E+02  0.73618815046E+02  0.14850590423E+03  0.17185133635E+03  0.00000000000E+00 0. -1.
        -11    1    3    3    0    0 -0.30583081946E+02 -0.10742656827E+03  0.11078636581E+03  0.15731945627E+03  0.00000000000E+00 0. -1.
         11    1    3    3    0    0 -0.34149787183E+01 -0.25835379232E+02 -0.20004715856E+02  0.32852968758E+02  0.00000000000E+00 0.  1.
         21    1    1    2  502  501  0.50469076737E+02 -0.20093803469E+02  0.23833164334E+03  0.24444398308E+03  0.00000000000E+00 0. -1.
<scales pt_clust_5="13000.00000" pt_clust_6="13000.00000" pt_clust_7="13000.00000" pt_clust_8="13000.00000" pt_clust_9="54.32208"></scales>
<clustering>
<clus scale="   54.322">  1  9  2 -1</clus>
<clus scale="   91.039">  5  6 -1 -1</clus>
<clus scale="   94.919">  7  8 -1 -1</clus>
<clus scale="  166.828">  1  5  2 -1</clus>
<clus scale="   54.322">  1  5  2 -1</clus>
</clustering>
</event>
<event>
 9    1  0.2075077E-005  0.1200727E+03  0.7546771E-02  0.1243499E+00
          3   -1    0    0  502    0  0.00000000000E+00  0.00000000000E+00  0.12854009772E+03  0.12854009772E+03  0.00000000000E+00 0. -1.
         -3   -1    0    0    0  501 -0.00000000000E+00 -0.00000000000E+00 -0.18249484305E+03  0.18249484305E+03  0.00000000000E+00 0.  1.
         23    2    1    2    0    0 -0.53834808868E+02  0.49511567117E+02 -0.10231019422E+03  0.15549844768E+03  0.91448397826E+02 0.  0.
         23    2    1    2    0    0  0.49886731538E+02 -0.69774856163E+02  0.36500268614E+02  0.13173032799E+03  0.93077350451E+02 0.  0.
        -13    1    4    4    0    0 -0.27402422374E+02 -0.18973022921E+02  0.34301859772E+01  0.33505738711E+02  0.00000000000E+00 0.  1.
         13    1    4    4    0    0  0.77289153911E+02 -0.50801833241E+02  0.33070082637E+02  0.98224589277E+02  0.00000000000E+00 0. -1.
        -13    1    3    3    0    0 -0.66343821961E+02  0.15687588670E+01 -0.47485716967E+02  0.81601820032E+02  0.00000000000E+00 0. -1.
         13    1    3    3    0    0  0.12509013092E+02  0.47942808250E+02 -0.54824477256E+02  0.73896627648E+02  0.00000000000E+00 0.  1.
         21    1    1    2  502  501  0.39480773308E+01  0.20263289046E+02  0.11855180279E+02  0.23806165105E+02  0.00000000000E+00 0. -1.
<scales pt_clust_5="13000.00000" pt_clust_6="13000.00000" pt_clust_7="13000.00000" pt_clust_8="13000.00000" pt_clust_9="20.64433"></scales>
<clustering>
<clus scale="   20.644">  1  9  2 -1</clus>
<clus scale="   91.448">  7  8 -1 -1</clus>
<clus scale="   93.077">  5  6 -1 -1</clus>
<clus scale="  118.814">  2  7  1 -1</clus>
<clus scale="   20.644">  1  5  2 -1</clus>
</clustering>
</event>
<event>
 9    1  0.2075077E-005  0.1018434E+03  0.7546771E-02  0.1280195E+00
          2   -1    0    0  502    0  0.00000000000E+00  0.00000000000E+00  0.84643517727E+03  0.84643517727E+03  0.00000000000E+00 0. -1.
         -2   -1    0    0    0  501 -0.00000000000E+00 -0.00000000000E+00 -0.17589145752E+02  0.17589145752E+02  0.00000000000E+00 0.  1.
         23    2    1    2    0    0 -0.33061219646E+00 -0.69621362949E+02  0.32433354684E+03  0.34144591568E+03  0.80906243562E+02 0.  0.
         23    2    1    2    0    0  0.96132957951E+01  0.36167923163E+02  0.42479398774E+03  0.43562819398E+03  0.89002568800E+02 0.  0.
        -11    1    4    4    0    0 -0.36208768180E+02 -0.11693082548E+01  0.19616284468E+03  0.19948008374E+03  0.00000000000E+00 0.  1.
         11    1    4    4    0    0  0.45822063975E+02  0.37337231418E+02  0.22863114306E+03  0.23614811024E+03  0.00000000000E+00 0. -1.
        -13    1    3    3    0    0  0.22527024939E+02 -0.73194856765E+02  0.29073643933E+03  0.30065367295E+03  0.00000000000E+00 0. -1.
         13    1    3    3    0    0 -0.22857637135E+02  0.35734938159E+01  0.33597107516E+02  0.40792242729E+02  0.00000000000E+00 0.  1.
         21    1    1    2  502  501 -0.92826835986E+01  0.33453439786E+02  0.79718496938E+02  0.86950213355E+02  0.00000000000E+00 0.  1.
<scales pt_clust_5="13000.00000" pt_clust_6="13000.00000" pt_clust_7="13000.00000" pt_clust_8="13000.00000" pt_clust_9="34.71744"></scales>
<clustering>
<clus scale="   34.717">  2  9  1 -1</clus>
<clus scale="   80.906">  7  8 -1 -1</clus>
<clus scale="   89.003">  5  6 -1 -1</clus>
<clus scale="   94.850">  2  7  1 -1</clus>
<clus scale="  101.843">  1  5  2 -1</clus>
</clustering>
</event>
<event>
 9    1  0.2075077E-005  0.1313631E+03  0.7546771E-02  0.1226347E+00
          2   -1    0    0  502    0  0.00000000000E+00  0.00000000000E+00  0.53486276420E+03  0.53486276420E+03  0.00000000000E+00 0. -1.
         -2   -1    0    0    0  501 -0.00000000000E+00 -0.00000000000E+00 -0.56386788137E+02  0.56386788137E+02  0.00000000000E+00 0.  1.
         23    2    1    2    0    0  0.39118545922E+02  0.78237226451E+02  0.66471139597E+02  0.14530927059E+03  0.95105454541E+02 0.  0.
         23    2    1    2    0    0 -0.18840172975E+02 -0.10252217489E+03  0.34258168030E+03  0.36964778053E+03  0.91714369153E+02 0.  0.
        -11    1    3    3    0    0 -0.30071832403E+02  0.40369805396E+02  0.26055375705E+02  0.56682615456E+02  0.00000000000E+00 0.  1.
         11    1    3    3    0    0  0.69190378324E+02  0.37867421055E+02  0.40415763892E+02  0.88626655138E+02  0.00000000000E+00 0. -1.
        -13    1    4    4    0    0 -0.46825334233E+02 -0.71891796194E+02  0.29136632163E+03  0.30373570035E+03  0.00000000000E+00 0. -1.
         13    1    4    4    0    0  0.27985161258E+02 -0.30630378695E+02  0.51215358669E+02  0.65912080177E+02  0.00000000000E+00 0.  1.
         21    1    1    2  502  501 -0.20278372947E+02  0.24284948438E+02  0.69423156169E+02  0.76292501220E+02  0.00000000000E+00 0.  1.
<scales pt_clust_5="13000.00000" pt_clust_6="13000.00000" pt_clust_7="13000.00000" pt_clust_8="13000.00000" pt_clust_9="31.63813"></scales>
<clustering>
<clus scale="   31.638">  1  9  2 -1</clus>
<clus scale="   91.714">  7  8 -1 -1</clus>
<clus scale="   95.105">  5  6 -1 -1</clus>
<clus scale="  128.929">  1  7  2 -1</clus>
<clus scale="   31.638">  1  5  2 -1</clus>
</clustering>
</event>
<event>
 9    1  0.2075077E-005  0.9521654E+02  0.7546771E-02  0.1291292E+00
          1   -1    0    0  502    0  0.00000000000E+00  0.00000000000E+00  0.21532735415E+03  0.21532735415E+03  0.00000000000E+00 0. -1.
         -1   -1    0    0    0  501 -0.00000000000E+00 -0.00000000000E+00 -0.10005586672E+03  0.10005586672E+03  0.00000000000E+00 0.  1.
         23    2    1    2    0    0  0.52474752854E+01  0.49740898126E+02 -0.33102994498E+02  0.10820760256E+03  0.90063222591E+02 0.  0.
         23    2    1    2    0    0 -0.19864406148E+02 -0.15386348514E+02  0.13993591653E+03  0.16889900491E+03  0.91178280161E+02 0.  0.
        -13    1    3    3    0    0  0.21816975219E+02  0.69503526683E+02 -0.37679396874E+02  0.82014983861E+02  0.00000000000E+00 0.  1.
         13    1    3    3    0    0 -0.16569499934E+02 -0.19762628557E+02  0.45764023753E+01  0.26192618697E+02  0.00000000000E+00 0. -1.
        -13    1    4    4    0    0 -0.33896529788E+01  0.38243429992E+02  0.53456409941E+02  0.65815176431E+02  0.00000000000E+00 0.  1.
         13    1    4    4    0    0 -0.16474753169E+02 -0.53629778505E+02  0.86479506585E+02  0.10308382848E+03  0.00000000000E+00 0. -1.
         21    1    1    2  502  501  0.14616930862E+02 -0.34354549612E+02  0.84385654021E+01  0.38276613394E+02  0.00000000000E+00 0. -1.
<scales pt_clust_5="13000.00000" pt_clust_6="13000.00000" pt_clust_7="13000.00000" pt_clust_8="13000.00000" pt_clust_9="37.33483"></scales>
<clustering>
<clus scale="   37.335">  2  9  1 -1</clus>
<clus scale="   90.063">  5  6 -1 -1</clus>
<clus scale="   91.178">  7  8 -1 -1</clus>
<clus scale="   94.149">  2  5  1 -1</clus>
<clus scale="   95.217">  1  5  2 -1</clus>
</clustering>
</event>
<event>
 9    1  0.2075077E-005  0.1073413E+03  0.7546771E-02  0.1271935E+00
          3   -1    0    0  502    0  0.00000000000E+00  0.00000000000E+00  0.71274690536E+02  0.71274690536E+02  0.00000000000E+00 0. -1.
         -3   -1    0    0    0  501 -0.00000000000E+00 -0.00000000000E+00 -0.38326207373E+03  0.38326207373E+03  0.00000000000E+00 0.  1.
         23    2    1    2    0    0  0.31847831448E+02  0.25622309573E+02 -0.27901277547E+03  0.29425434124E+03  0.84063674371E+02 0.  0.
         23    2    1    2    0    0 -0.54219582315E+02 -0.25799441311E+02 -0.56350660745E+02  0.12792556182E+03  0.97898815734E+02 0.  0.
        -11    1    4    4    0    0  0.66198166421E+00  0.32775098523E+02 -0.64484685266E+01  0.33409999240E+02  0.00000000000E+00 0.  1.
         11    1    4    4    0    0 -0.54881563979E+02 -0.58574539834E+02 -0.49902192218E+02  0.94515562580E+02  0.00000000000E+00 0. -1.
        -13    1    3    3    0    0 -0.85937572915E+01 -0.25086750264E+02 -0.11181842488E+03  0.11491978875E+03  0.00000000000E+00 0. -1.
         13    1    3    3    0    0  0.40441588739E+02  0.50709059837E+02 -0.16719435059E+03  0.17933455249E+03  0.00000000000E+00 0.  1.
         21    1    1    2  502  501  0.22371750868E+02  0.17713173769E+00  0.23376053017E+02  0.32356861208E+02  0.00000000000E+00 0. -1.
<scales pt_clust_5="13000.00000" pt_clust_6="13000.00000" pt_clust_7="13000.00000" pt_clust_8="13000.00000" pt_clust_9="22.37245"></scales>
<clustering>
<clus scale="   22.372">  1  9  2 -1</clus>
<clus scale="   84.064">  7  8 -1 -1</clus>
<clus scale="   94.893">  2  7  1 -1</clus>
<clus scale="   97.899">  5  6 -1 -1</clus>
<clus scale="   22.372">  1  5  2 -1</clus>
</clustering>
</event>
<event>
 9    1  0.2075077E-005  0.1092036E+03  0.7546771E-02  0.1262174E+00
         -1   -1    0    0    0  501 -0.00000000000E+00  0.00000000000E+00  0.28454983776E+03  0.28454983776E+03  0.00000000000E+00 0.  1.
          1   -1    0    0  502    0  0.00000000000E+00 -0.00000000000E+00 -0.10232334639E+03  0.10232334639E+03  0.00000000000E+00 0. -1.
         23    2    1    2    0    0  0.18164118961E+02  0.54343290116E+02  0.17164444791E+03  0.20261781845E+03  0.91153910810E+02 0.  0.
         23    2    1    2    0    0 -0.66223781149E+02 -0.42057812145E+02  0.39533286168E+02  0.12681984923E+03  0.91465538269E+02 0.  0.
        -11    1    4    4    0    0 -0.53180831622E+02 -0.66768679486E+02  0.96419680394E+01  0.85902415333E+02  0.00000000000E+00 0.  1.
         11    1    4    4    0    0 -0.13042949528E+02  0.24710867341E+02  0.29891318128E+02  0.40917433895E+02  0.00000000000E+00 0. -1.
        -11    1    3    3    0    0 -0.26842899788E+02 -0.84588439458E+01  0.29120794915E+02  0.40498321031E+02  0.00000000000E+00 0.  1.
         11    1    3    3    0    0  0.45007018749E+02  0.62802134062E+02  0.14252365300E+03  0.16211949742E+03  0.00000000000E+00 0. -1.
         21    1    1    2  502  501  0.48059662188E+02 -0.12285477971E+02 -0.28951242706E+02  0.57435516476E+02  0.00000000000E+00 0. -1.
<scales pt_clust_5="13000.00000" pt_clust_6="13000.00000" pt_clust_7="13000.00000" pt_clust_8="13000.00000" pt_clust_9="49.60508"></scales>
<clustering>
<clus scale="   49.605">  2  9  1 -1</clus>
<clus scale="   91.154">  7  8 -1 -1</clus>
<clus scale="   91.466">  5  6 -1 -1</clus>
<clus scale="  108.943">  1  7  2 -1</clus>
<clus scale="   49.605">  2  5  1 -1</clus>
</clustering>
</event>
<event>
 9    1  0.2075077E-005  0.1384927E+03  0.7546771E-02  0.1224120E+00
          1   -1    0    0  502    0  0.00000000000E+00  0.00000000000E+00  0.46407312068E+03  0.46407312068E+03  0.00000000000E+00 0. -1.
         -1   -1    0    0    0  501 -0.00000000000E+00 -0.00000000000E+00 -0.53479670939E+02  0.53479670939E+02  0.00000000000E+00 0.  1.
         23    2    1    2    0    0 -0.11303307053E+02  0.71348186433E+02  0.64209709794E+02  0.13265836572E+03  0.90868183133E+02 0.  0.
         23    2    1    2    0    0 -0.17119545045E+02 -0.68769234291E+02  0.30021392172E+03  0.33061587000E+03  0.11897969698E+03 0.  0.
        -11    1    4    4    0    0 -0.65627299818E+02 -0.20476556374E+02  0.17294127262E+03  0.18610458247E+03  0.00000000000E+00 0. -1.
         11    1    4    4    0    0  0.48507754773E+02 -0.48292677917E+02  0.12727264911E+03  0.14451128753E+03  0.00000000000E+00 0.  1.
        -13    1    3    3    0    0 -0.52291034268E+01  0.91837027501E+02  0.62520607865E+02  0.11122144375E+03  0.00000000000E+00 0.  1.
         13    1    3    3    0    0 -0.60742036263E+01 -0.20488841068E+02  0.16891019297E+01  0.21436921965E+02  0.00000000000E+00 0. -1.
         21    1    1    2  502  501  0.28422852098E+02 -0.25789521423E+01  0.46169818220E+02  0.54278555894E+02  0.00000000000E+00 0. -1.
<scales pt_clust_5="13000.00000" pt_clust_6="13000.00000" pt_clust_7="13000.00000" pt_clust_8="13000.00000" pt_clust_9="28.53961"></scales>
<clustering>
<clus scale="   28.540">  1  9  2 -1</clus>
<clus scale="   90.868">  7  8 -1 -1</clus>
<clus scale="  115.244">  2  7  1 -1</clus>
<clus scale="  118.980">  5  6 -1 -1</clus>
<clus scale="   28.540">  1  5  2 -1</clus>
</clustering>
</event>
<event>
 9    1  0.2075077E-005  0.9879960E+02  0.7546771E-02  0.1284231E+00
          2   -1    0    0  502    0  0.00000000000E+00  0.00000000000E+00  0.52254320651E+02  0.52254320651E+02  0.00000000000E+00 0. -1.
         -2   -1    0    0    0  501 -0.00000000000E+00 -0.00000000000E+00 -0.48742669106E+03  0.48742669106E+03  0.00000000000E+00 0.  1.
         23    2    1    2    0    0 -0.27483974885E+01 -0.28895045218E+02 -0.31123337493E+03  0.32511125226E+03  0.89379166194E+02 0.  0.
         23    2    1    2    0    0  0.10103963416E+02  0.51155219635E+02 -0.14734981014E+03  0.18143841541E+03  0.92135690522E+02 0.  0.
        -13    1    3    3    0    0  0.20603304934E+02  0.16044190103E+02 -0.31905998337E+02  0.41229903469E+02  0.00000000000E+00 0. -1.
         13    1    3    3    0    0 -0.23351702422E+02 -0.44939235321E+02 -0.27932737659E+03  0.28388134879E+03  0.00000000000E+00 0.  1.
        -13    1    4    4    0    0  0.66831519873E+01 -0.21012424166E+02 -0.62520628607E+01  0.22918873878E+02  0.00000000000E+00 0.  1.
         13    1    4    4    0    0  0.34208114287E+01  0.72167643801E+02 -0.14109774728E+03  0.15851954154E+03  0.00000000000E+00 0. -1.
         21    1    1    2  502  501 -0.73555659275E+01 -0.22260174417E+02  0.23410814653E+02  0.33131344040E+02  0.00000000000E+00 0. -1.
<scales pt_clust_5="13000.00000" pt_clust_6="13000.00000" pt_clust_7="13000.00000" pt_clust_8="13000.00000" pt_clust_9="23.44397"></scales>
<clustering>
<clus scale="   23.444">  1  9  2 -1</clus>
<clus scale="   89.379">  5  6 -1 -1</clus>
<clus scale="   92.136">  7  8 -1 -1</clus>
<clus scale="   96.234">  2  5  1 -1</clus>
<clus scale="   23.444">  1  5  2 -1</clus>
</clustering>
</event>
<event>
 9    1  0.2075077E-005  0.1393110E+03  0.7546771E-02  0.1215698E+00
          2   -1    0    0  502    0  0.00000000000E+00  0.00000000000E+00  0.62694882306E+02  0.62694882306E+02  0.00000000000E+00 0. -1.
         -2   -1    0    0    0  501 -0.00000000000E+00 -0.00000000000E+00 -0.42385930512E+03  0.42385930512E+03  0.00000000000E+00 0.  1.
         23    2    1    2    0    0 -0.92572555849E+02  0.28619832514E+02 -0.17982520514E+03  0.22241562653E+03  0.87993372554E+02 0.  0.
         23    2    1    2    0    0  0.11066646592E+03 -0.66331426329E+01 -0.18504782021E+03  0.23542344560E+03  0.94289117668E+02 0.  0.
        -11    1    4    4    0    0  0.10720100923E+03  0.25078406214E+02 -0.16279739888E+03  0.19652983468E+03  0.00000000000E+00 0.  1.
         11    1    4    4    0    0  0.34654566870E+01 -0.31711548847E+02 -0.22250421334E+02  0.38893610913E+02  0.00000000000E+00 0. -1.
        -11    1    3    3    0    0 -0.90003268792E+02 -0.49856945029E+01 -0.15906630569E+03  0.18283198612E+03  0.00000000000E+00 0. -1.
         11    1    3    3    0    0 -0.25692870574E+01  0.33605527017E+02 -0.20758899450E+02  0.39583640414E+02  0.00000000000E+00 0.  1.
         21    1    1    2  502  501 -0.18093910071E+02 -0.21986689881E+02  0.37086025380E+01  0.28715115295E+02  0.00000000000E+00 0.  1.
<scales pt_clust_5="13000.00000" pt_clust_6="13000.00000" pt_clust_7="13000.00000" pt_clust_8="13000.00000" pt_clust_9="28.47462"></scales>
<clustering>
<clus scale="   28.475">  1  9  2 -1</clus>
<clus scale="   87.993">  7  8 -1 -1</clus>
<clus scale="   94.289">  5  6 -1 -1</clus>
<clus scale="  135.129">  2  7  1 -1</clus>
<clus scale="   28.475">  1  5  2 -1</clus>
</clustering>
</event>
<event>
 9    1  0.2075077E-005  0.2050464E+03  0.7546771E-02  0.1161881E+00
         -1   -1    0    0    0  501 -0.00000000000E+00  0.00000000000E+00  0.73187386741E+02  0.73187386741E+02  0.00000000000E+00 0.  1.
          1   -1    0    0  502    0  0.00000000000E+00 -0.00000000000E+00 -0.11771902686E+04  0.11771902686E+04  0.00000000000E+00 0. -1.
         23    2    1    2    0    0  0.46557017060E+02  0.93994131914E+02 -0.22370194856E+03  0.26368825834E+03  0.92122109872E+02 0.  0.
         23    2    1    2    0    0 -0.21662415441E+03 -0.46945039510E+02 -0.32419703099E+03  0.40326159644E+03  0.91576958053E+02 0.  0.
        -11    1    4    4    0    0 -0.15918312158E+03 -0.44837572431E+02 -0.29639610108E+03  0.33941173055E+03  0.00000000000E+00 0. -1.
         11    1    4    4    0    0 -0.57441032828E+02 -0.21074670795E+01 -0.27800929914E+02  0.63849865887E+02  0.00000000000E+00 0.  1.
        -13    1    3    3    0    0  0.19164418452E+02  0.58669672271E+02 -0.37552184194E+02  0.72246604881E+02  0.00000000000E+00 0.  1.
         13    1    3    3    0    0  0.27392598608E+02  0.35324459643E+02 -0.18614976436E+03  0.19144165346E+03  0.00000000000E+00 0. -1.
         21    1    1    2  502  501  0.17006713735E+03 -0.47049092404E+02 -0.55610390226E+03  0.58342780051E+03  0.00000000000E+00 0. -1.
<scales pt_clust_5="13000.00000" pt_clust_6="13000.00000" pt_clust_7="13000.00000" pt_clust_8="13000.00000" pt_clust_9="183.46033"></scales>
<clustering>
<clus scale="   91.577">  5  6 -1 -1</clus>
<clus scale="   92.122">  7  8 -1 -1</clus>
<clus scale="  139.603">  1  7  2 -1</clus>
<clus scale="  183.460">  2  9  1 -1</clus>
<clus scale="  183.460">  2  5  1 -1</clus>
</clustering>
</event>
<event>
 9    1  0.2075077E-005  0.1159638E+03  0.7546771E-02  0.1251223E+00
         -2   -1    0    0    0  501 -0.00000000000E+00  0.00000000000E+00  0.50992821175E+03  0.50992821175E+03  0.00000000000E+00 0.  1.
          2   -1    0    0  502    0  0.00000000000E+00 -0.00000000000E+00 -0.91498072426E+02  0.91498072426E+02  0.00000000000E+00 0. -1.
         23    2    1    2    0    0  0.60483319470E+02 -0.27498696881E+02  0.35242745892E+03  0.37027602358E+03  0.92113026057E+02 0.  0.
         23    2    1    2    0    0 -0.66811801687E+02  0.52853059733E+00  0.12187277707E+03  0.16878915686E+03  0.95774263214E+02 0.  0.
        -11    1    3    3    0    0  0.38039985151E+02 -0.61191937552E+02  0.20074485558E+03  0.21328382670E+03  0.00000000000E+00 0.  1.
         11    1    3    3    0    0  0.22443334319E+02  0.33693240672E+02  0.15168260334E+03  0.15699219687E+03  0.00000000000E+00 0. -1.
        -11    1    4    4    0    0 -0.86610137059E+02  0.18631171849E+02  0.10368458660E+03  0.13637789375E+03  0.00000000000E+00 0. -1.
         11    1    4    4    0    0  0.19798335372E+02 -0.18102641251E+02  0.18188190468E+02  0.32411263108E+02  0.00000000000E+00 0.  1.
         21    1    1    2  502  501  0.63284822172E+01  0.26970166283E+02 -0.55870096673E+02  0.62361103733E+02  0.00000000000E+00 0. -1.
<scales pt_clust_5="13000.00000" pt_clust_6="13000.00000" pt_clust_7="13000.00000" pt_clust_8="13000.00000" pt_clust_9="27.70270"></scales>
<clustering>
<clus scale="   27.703">  2  9  1 -1</clus>
<clus scale="   92.113">  5  6 -1 -1</clus>
<clus scale="   95.774">  7  8 -1 -1</clus>
<clus scale="  112.959">  1  5  2 -1</clus>
<clus scale="   27.703">  2  5  1 -1</clus>
</clustering>
</event>
<event>
 9    1  0.2075077E-005  0.9777218E+02  0.7546771E-02  0.1287096E+00
         -2   -1    0    0    0  501 -0.00000000000E+00  0.00000000000E+00  0.49507237951E+02  0.49507237951E+02  0.00000000000E+00 0.  1.
          2   -1    0    0  502    0  0.00000000000E+00 -0.00000000000E+00 -0.45746183714E+03  0.45746183714E+03  0.00000000000E+00 0. -1.
         23    2    1    2    0    0 -0.14760012980E+02  0.28452119069E+02 -0.11323004234E+03  0.14640715677E+03  0.87101274396E+02 0.  0.
         23    2    1    2    0    0  0.46546518202E+02  0.41407552012E+02 -0.24609269557E+03  0.26970041113E+03  0.91079817920E+02 0.  0.
        -13    1    4    4    0    0  0.48125306594E+02 -0.16837984255E+02 -0.96097245226E+02  0.10878530870E+03  0.00000000000E+00 0.  1.
         13    1    4    4    0    0 -0.15787883922E+01  0.58245536267E+02 -0.14999545034E+03  0.16091510243E+03  0.00000000000E+00 0. -1.
        -13    1    3    3    0    0  0.88604876042E+01 -0.29195206606E+02 -0.37754834225E+02  0.48541691737E+02  0.00000000000E+00 0.  1.
         13    1    3    3    0    0 -0.23620500584E+02  0.57647325675E+02 -0.75475208114E+02  0.97865465029E+02  0.00000000000E+00 0. -1.
         21    1    1    2  502  501 -0.31786505222E+02 -0.69859671081E+02 -0.48631861284E+02  0.90861507195E+02  0.00000000000E+00 0.  1.
<scales pt_clust_5="13000.00000" pt_clust_6="13000.00000" pt_clust_7="13000.00000" pt_clust_8="13000.00000" pt_clust_9="76.75126"></scales>
<clustering>
<clus scale="   76.751">  1  9  2 -1</clus>
<clus scale="   87.101">  7  8 -1 -1</clus>
<clus scale="   91.080">  5  6 -1 -1</clus>
<clus scale="   94.077">  1  7  2 -1</clus>
<clus scale="   97.772">  2  5  1 -1</clus>
</clustering>
</event>
<event>
 9    1  0.2075077E-005  0.1262991E+03  0.7546771E-02  0.1233331E+00
         -1   -1    0    0    0  501 -0.00000000000E+00  0.00000000000E+00  0.31609302923E+02  0.31609302923E+02  0.00000000000E+00 0.  1.
          1   -1    0    0  502    0  0.00000000000E+00 -0.00000000000E+00 -0.63084744571E+03  0.63084744571E+03  0.00000000000E+00 0. -1.
         23    2    1    2    0    0 -0.22631288037E+01  0.93621598872E+02 -0.28235737535E+03  0.31095301995E+03  0.90531583857E+02 0.  0.
         23    2    1    2    0    0  0.27310677790E+02 -0.80258441997E+02 -0.26740169554E+03  0.29445872691E+03  0.89526445476E+02 0.  0.
        -11    1    3    3    0    0  0.35846133285E+02  0.49969145704E+02 -0.20669893792E+03  0.21565322101E+03  0.00000000000E+00 0.  1.
         11    1    3    3    0    0 -0.38109262088E+02  0.43652453169E+02 -0.75658437431E+02  0.95299798946E+02  0.00000000000E+00 0. -1.
        -13    1    4    4    0    0 -0.10605352654E+02 -0.33252381209E+02 -0.20932421777E+02  0.40698410810E+02  0.00000000000E+00 0.  1.
         13    1    4    4    0    0  0.37916030444E+02 -0.47006060788E+02 -0.24646927377E+03  0.25376031610E+03  0.00000000000E+00 0. -1.
         21    1    1    2  502  501 -0.25047548986E+02 -0.13363156875E+02 -0.49479071898E+02  0.57045001777E+02  0.00000000000E+00 0.  1.
<scales pt_clust_5="13000.00000" pt_clust_6="13000.00000" pt_clust_7="13000.00000" pt_clust_8="13000.00000" pt_clust_9="28.38932"></scales>
<clustering>
<clus scale="   28.389">  1  9  2 -1</clus>
<clus scale="   89.526">  7  8 -1 -1</clus>
<clus scale="   90.532">  5  6 -1 -1</clus>
<clus scale="  125.581">  2  7  1 -1</clus>
<clus scale="  125.581">  2  5  1 -1</clus>
</clustering>
</event>
<event>
 9    1  0.2075077E-005  0.1000250E+03  0.7546771E-02  0.1281356E+00
          2   -1    0    0  502    0  0.00000000000E+00  0.00000000000E+00  0.70860988738E+02  0.70860988738E+02  0.00000000000E+00 0. -1.
         -2   -1    0    0    0  501 -0.00000000000E+00 -0.00000000000E+00 -0.43284104533E+03  0.43284104533E+03  0.00000000000E+00 0.  1.
         23    2    1    2    0    0  0.21898261465E+02 -0.26221307394E+02 -0.34709938091E+03  0.36101341172E+03  0.93196632975E+02 0.  0.
         23    2    1    2    0    0 -0.50705968173E+02  0.26850699753E+02  0.50528312439E+01  0.10765114528E+03  0.90946042751E+02 0.  0.
        -11    1    3    3    0    0  0.10153909937E+02 -0.55677434679E+02 -0.29205372267E+03  0.29748689979E+03  0.00000000000E+00 0.  1.
         11    1    3    3    0    0  0.11744351528E+02  0.29456127284E+02 -0.55045658234E+02  0.63526511928E+02  0.00000000000E+00 0. -1.
        -13    1    4    4    0    0 -0.75463834541E+02  0.11450627398E+02  0.13009219578E+02  0.77428334513E+02  0.00000000000E+00 0. -1.
         13    1    4    4    0    0  0.24757866368E+02  0.15400072355E+02 -0.79563883344E+01  0.30222810772E+02  0.00000000000E+00 0.  1.
         21    1    1    2  502  501  0.28807706707E+02 -0.62939235808E+00 -0.19933506928E+02  0.35037477063E+02  0.00000000000E+00 0.  1.
<scales pt_clust_5="13000.00000" pt_clust_6="13000.00000" pt_clust_7="13000.00000" pt_clust_8="13000.00000" pt_clust_9="28.81458"></scales>
<clustering>
<clus scale="   28.815">  1  9  2 -1</clus>
<clus scale="   90.946">  7  8 -1 -1</clus>
<clus scale="   93.197">  5  6 -1 -1</clus>
<clus scale="   97.931">  1  7  2 -1</clus>
<clus scale="   28.815">  1  5  2 -1</clus>
</clustering>
</event>
<event>
 9    1  0.2075077E-005  0.1155284E+03  0.7546771E-02  0.1251538E+00
          2   -1    0    0  502    0  0.00000000000E+00  0.00000000000E+00  0.20781494198E+03  0.20781494198E+03  0.00000000000E+00 0. -1.
         -2   -1    0    0    0  501 -0.00000000000E+00 -0.00000000000E+00 -0.81077085183E+02  0.81077085183E+02  0.00000000000E+00 0.  1.
         23    2    1    2    0    0 -0.53850707915E+02  0.45729381551E+02  0.29915027555E+02  0.11810399100E+03  0.89791807742E+02 0.  0.
         23    2    1    2    0    0  0.37351076001E+02 -0.58850997577E+02  0.65195674374E+02  0.13277893744E+03  0.92310494940E+02 0.  0.
        -11    1    3    3    0    0 -0.22357431814E+02 -0.26743393554E+02  0.13603769672E+02  0.37418262993E+02  0.00000000000E+00 0.  1.
         11    1    3    3    0    0 -0.31493276102E+02  0.72472775106E+02  0.16311257883E+02  0.80685728012E+02  0.00000000000E+00 0. -1.
        -13    1    4    4    0    0  0.64117799317E+02 -0.39932433290E+02  0.22232298278E+02  0.78739866043E+02  0.00000000000E+00 0.  1.
         13    1    4    4    0    0 -0.26766723316E+02 -0.18918564287E+02  0.42963376097E+02  0.54039071396E+02  0.00000000000E+00 0. -1.
         21    1    1    2  502  501  0.16499631914E+02  0.13121616026E+02  0.31627154865E+02  0.38009098717E+02  0.00000000000E+00 0. -1.
<scales pt_clust_5="13000.00000" pt_clust_6="13000.00000" pt_clust_7="13000.00000" pt_clust_8="13000.00000" pt_clust_9="21.08114"></scales>
<clustering>
<clus scale="   21.081">  1  9  2 -1</clus>
<clus scale="   89.792">  5  6 -1 -1</clus>
<clus scale="   92.310">  7  8 -1 -1</clus>
<clus scale="  113.526">  2  5  1 -1</clus>
<clus scale="   21.081">  1  5  2 -1</clus>
</clustering>
</event>
<event>
 9    1  0.2075077E-005  0.1083156E+03  0.7546771E-02  0.1263857E+00
         -3   -1    0    0    0  501 -0.00000000000E+00  0.00000000000E+00  0.23953893060E+03  0.23953893060E+03  0.00000000000E+00 0.  1.
          3   -1    0    0  502    0  0.00000000000E+00 -0.00000000000E+00 -0.11318383254E+03  0.11318383254E+03  0.00000000000E+00 0. -1.
         23    2    1    2    0    0  0.14255144666E+02  0.59757957542E+02  0.18590995045E+03  0.21603728441E+03  0.91298280052E+02 0.  0.
         23    2    1    2    0    0 -0.17958517434E+02 -0.37601177431E+02 -0.53335676560E+02  0.11337633840E+03  0.90956818454E+02 0.  0.
        -11    1    4    4    0    0 -0.47026821365E+02 -0.30638916267E+02 -0.47440414085E+01  0.56327356112E+02  0.00000000000E+00 0.  1.
         11    1    4    4    0    0  0.29068303931E+02 -0.69622611642E+01 -0.48591635151E+02  0.57048982293E+02  0.00000000000E+00 0. -1.
        -11    1    3    3    0    0 -0.18575780153E+02  0.60034529960E+02  0.63650052308E+02  0.89445701711E+02  0.00000000000E+00 0.  1.
         11    1    3    3    0    0  0.32830924819E+02 -0.27657241761E+00  0.12225989814E+03  0.12659158270E+03  0.00000000000E+00 0. -1.
         21    1    1    2  502  501  0.37033727677E+01 -0.22156780112E+02 -0.62191758302E+01  0.23309140327E+02  0.00000000000E+00 0.  1.
<scales pt_clust_5="13000.00000" pt_clust_6="13000.00000" pt_clust_7="13000.00000" pt_clust_8="13000.00000" pt_clust_9="22.46415"></scales>
<clustering>
<clus scale="   22.464">  2  9  1 -1</clus>
<clus scale="   90.957">  5  6 -1 -1</clus>
<clus scale="   91.298">  7  8 -1 -1</clus>
<clus scale="  108.028">  2  5  1 -1</clus>
<clus scale="   22.464">  2  5  1 -1</clus>
</clustering>
</event>
<event>
 9    1  0.2075077E-005  0.9709400E+02  0.7546771E-02  0.1287626E+00
         -2   -1    0    0    0  501 -0.00000000000E+00  0.00000000000E+00  0.11906107010E+03  0.11906107010E+03  0.00000000000E+00 0.  1.
          2   -1    0    0  502    0  0.00000000000E+00 -0.00000000000E+00 -0.33250670228E+03  0.33250670228E+03  0.00000000000E+00 0. -1.
         23    2    1    2    0    0  0.64413780257E+00 -0.60168065910E+02  0.27988739537E+02  0.11128682940E+03  0.89335199039E+02 0.  0.
         23    2    1    2    0    0  0.28534934347E+02 -0.76774317164E+01 -0.91462538506E+01  0.96534764553E+02  0.91444635555E+02 0.  0.
        -11    1    4    4    0    0  0.14879655396E+02  0.37840862609E+02  0.14861920682E+02  0.43292166890E+02  0.00000000000E+00 0. -1.
         11    1    4    4    0    0  0.13655278950E+02 -0.45518294325E+02 -0.24008174533E+02  0.53242597663E+02  0.00000000000E+00 0.  1.
        -13    1    3    3    0    0 -0.22704420804E+02 -0.27330294229E+02 -0.25922772119E+02  0.43982107965E+02  0.00000000000E+00 0. -1.
         13    1    3    3    0    0  0.23348558607E+02 -0.32837771681E+02  0.53911511655E+02  0.67304721432E+02  0.00000000000E+00 0.  1.
         21    1    1    2  502  501 -0.29179072149E+02  0.67845497627E+02 -0.23228811786E+03  0.24374617843E+03  0.00000000000E+00 0. -1.
<scales pt_clust_5="13000.00000" pt_clust_6="13000.00000" pt_clust_7="13000.00000" pt_clust_8="13000.00000" pt_clust_9="73.85411"></scales>
<clustering>
<clus scale="   73.854">  2  9  1 -1</clus>
<clus scale="   89.335">  7  8 -1 -1</clus>
<clus scale="   91.445">  5  6 -1 -1</clus>
<clus scale="   95.110">  1  7  2 -1</clus>
<clus scale="   73.854">  2  5  1 -1</clus>
</clustering>
</event>
<event>
 9    1  0.2075077E-005  0.1126340E+03  0.7546771E-02  0.1255857E+00
          1   -1    0    0  502    0  0.00000000000E+00  0.00000000000E+00  0.17065553219E+03  0.17065553219E+03  0.00000000000E+00 0. -1.
         -1   -1    0    0    0  501 -0.00000000000E+00 -0.00000000000E+00 -0.10062374330E+03  0.10062374330E+03  0.00000000000E+00 0.  1.
         23    2    1    2    0    0  0.54303388517E+02 -0.16611548852E+02  0.27079499736E+01  0.10754368908E+03  0.91288063339E+02 0.  0.
         23    2    1    2    0    0 -0.75586888882E+02  0.25845418922E+02  0.39262270014E+02  0.12732537639E+03  0.91043188523E+02 0.  0.
        -11    1    3    3    0    0  0.13799715414E+02  0.27010329249E+02  0.29458781348E+02  0.42282500283E+02  0.00000000000E+00 0. -1.
         11    1    3    3    0    0  0.40503673104E+02 -0.43621878101E+02 -0.26750831375E+02  0.65261188797E+02  0.00000000000E+00 0.  1.
        -13    1    4    4    0    0 -0.72649049080E+02  0.55381987460E+02  0.27540950332E+02  0.95412540121E+02  0.00000000000E+00 0. -1.
         13    1    4    4    0    0 -0.29378398018E+01 -0.29536568538E+02  0.11721319681E+02  0.31912836270E+02  0.00000000000E+00 0.  1.
         21    1    1    2  502  501  0.21283500365E+02 -0.92338700701E+01  0.28061568902E+02  0.36410210017E+02  0.00000000000E+00 0. -1.
<scales pt_clust_5="13000.00000" pt_clust_6="13000.00000" pt_clust_7="13000.00000" pt_clust_8="13000.00000" pt_clust_9="23.20025"></scales>
<clustering>
<clus scale="   23.200">  1  9  2 -1</clus>
<clus scale="   91.043">  7  8 -1 -1</clus>
<clus scale="   91.288">  5  6 -1 -1</clus>
<clus scale="  112.436">  1  7  2 -1</clus>
<clus scale="   23.200">  1  5  2 -1</clus>
</clustering>
</event>
<event>
 9    1  0.2075077E-005  0.1014917E+03  0.7546771E-02  0.1277627E+00
          1   -1    0    0  502    0  0.00000000000E+00  0.00000000000E+00  0.12411005541E+03  0.12411005541E+03  0.00000000000E+00 0. -1.
         -1   -1    0    0    0  501 -0.00000000000E+00 -0.00000000000E+00 -0.12742324960E+03  0.12742324960E+03  0.00000000000E+00 0.  1.
         23    2    1    2    0    0 -0.41423412251E+02 -0.28945406348E+02 -0.51294453437E+02  0.11673758376E+03  0.91884747797E+02 0.  0.
         23    2    1    2    0    0  0.21845744564E+02  0.57213703584E+01  0.34395466147E+02  0.10152088551E+03  0.92808789822E+02 0.  0.
        -11    1    3    3    0    0  0.25711586447E+02 -0.14290037039E+02 -0.35730013952E+02  0.46280932717E+02  0.00000000000E+00 0. -1.
         11    1    3    3    0    0 -0.67134998698E+02 -0.14655369309E+02 -0.15564439486E+02  0.70456651044E+02  0.00000000000E+00 0.  1.
        -13    1    4    4    0    0  0.56633723765E+02 -0.95301157299E+01  0.22995558734E+02  0.61862731064E+02  0.00000000000E+00 0. -1.
         13    1    4    4    0    0 -0.34787979200E+02  0.15251486088E+02  0.11399907413E+02  0.39658154442E+02  0.00000000000E+00 0.  1.
         21    1    1    2  502  501  0.19577667687E+02  0.23224035990E+02  0.13585793095E+02  0.33274835743E+02  0.00000000000E+00 0.  1.
<scales pt_clust_5="13000.00000" pt_clust_6="13000.00000" pt_clust_7="13000.00000" pt_clust_8="13000.00000" pt_clust_9="30.37500"></scales>
<clustering>
<clus scale="   30.375">  1  9  2 -1</clus>
<clus scale="   91.885">  5  6 -1 -1</clus>
<clus scale="   92.809">  7  8 -1 -1</clus>
<clus scale="  100.647">  2  5  1 -1</clus>
<clus scale="   30.375">  1  5  2 -1</clus>
</clustering>
</event>
<event>
 9    1  0.2075077E-005  0.1162450E+03  0.7546771E-02  0.1250069E+00
         -1   -1    0    0    0  501 -0.00000000000E+00  0.00000000000E+00  0.12836981682E+03  0.12836981682E+03  0.00000000000E+00 0.  1.
          1   -1    0    0  502    0  0.00000000000E+00 -0.00000000000E+00 -0.21389153859E+03  0.21389153859E+03  0.00000000000E+00 0. -1.
         23    2    1    2    0    0 -0.37989489997E+02 -0.64699711328E+02  0.67695096276E+02  0.13606692312E+03  0.91117108781E+02 0.  0.
         23    2    1    2    0    0  0.38732623392E+02  0.34784922208E+02 -0.10611350178E+03  0.15038969002E+03  0.92988045877E+02 0.  0.
        -13    1    4    4    0    0  0.58980279912E+02 -0.47102772635E+01 -0.77806545003E+02  0.97748240781E+02  0.00000000000E+00 0.  1.
         13    1    4    4    0    0 -0.20247656520E+02  0.39495199471E+02 -0.28306956775E+02  0.52641449236E+02  0.00000000000E+00 0. -1.
        -13    1    3    3    0    0 -0.66019552360E+02 -0.60648639982E+02  0.53314847641E+02  0.10430393954E+03  0.00000000000E+00 0.  1.
         13    1    3    3    0    0  0.28030062363E+02 -0.40510713455E+01  0.14380248635E+02  0.31762983580E+02  0.00000000000E+00 0. -1.
         21    1    1    2  502  501 -0.74313339490E+00  0.29914789120E+02 -0.47103316269E+02  0.55804742262E+02  0.00000000000E+00 0.  1.
<scales pt_clust_5="13000.00000" pt_clust_6="13000.00000" pt_clust_7="13000.00000" pt_clust_8="13000.00000" pt_clust_9="29.92402"></scales>
<clustering>
<clus scale="   29.924">  2  9  1 -1</clus>
<clus scale="   91.117">  7  8 -1 -1</clus>
<clus scale="   92.988">  5  6 -1 -1</clus>
<clus scale="  114.754">  1  7  2 -1</clus>
<clus scale="   29.924">  2  5  1 -1</clus>
</clustering>
</event>
<event>
 9    1  0.2075077E-005  0.1219833E+03  0.7546771E-02  0.1250943E+00
          2   -1    0    0  502    0  0.00000000000E+00  0.00000000000E+00  0.19316067456E+03  0.19316067456E+03  0.00000000000E+00 0. -1.
         -2   -1    0    0    0  501 -0.00000000000E+00 -0.00000000000E+00 -0.11657385793E+03  0.11657385793E+03  0.00000000000E+00 0.  1.
         23    2    1    2    0    0  0.10966159747E+02 -0.11465271620E+02 -0.31396958485E+02  0.10065653246E+03  0.94309381354E+02 0.  0.
         23    2    1    2    0    0 -0.16277310214E+02  0.50883647310E+02  0.52764353856E+02  0.14102507103E+03  0.11937293341E+03 0.  0.
        -13    1    4    4    0    0  0.11625271105E+02 -0.32967354104E+02  0.37639407273E+02  0.51368456710E+02  0.00000000000E+00 0. -1.
         13    1    4    4    0    0 -0.27902581318E+02  0.83851001413E+02  0.15124946582E+02  0.89656614320E+02  0.00000000000E+00 0.  1.
        -13    1    3    3    0    0  0.22844088695E+02 -0.39295036582E+02  0.12684223335E+02  0.47189424768E+02  0.00000000000E+00 0. -1.
         13    1    3    3    0    0 -0.11877928948E+02  0.27829764962E+02 -0.44081181821E+02  0.53467107689E+02  0.00000000000E+00 0.  1.
         21    1    1    2  502  501  0.53111504667E+01 -0.39418375690E+02  0.55219421257E+02  0.68052928999E+02  0.00000000000E+00 0. -1.
<scales pt_clust_5="13000.00000" pt_clust_6="13000.00000" pt_clust_7="13000.00000" pt_clust_8="13000.00000" pt_clust_9="39.77457"></scales>
<clustering>
<clus scale="   39.775">  1  9  2 -1</clus>
<clus scale="   94.309">  7  8 -1 -1</clus>
<clus scale="   97.593">  2  7  1 -1</clus>
<clus scale="  119.373">  5  6 -1 -1</clus>
<clus scale="   39.775">  1  5  2 -1</clus>
</clustering>
</event>
<event>
 9    1  0.2075077E-005  0.1032487E+03  0.7546771E-02  0.1274334E+00
          2   -1    0    0  502    0  0.00000000000E+00  0.00000000000E+00  0.78951773615E+03  0.78951773615E+03  0.00000000000E+00 0. -1.
         -2   -1    0    0    0  501 -0.00000000000E+00 -0.00000000000E+00 -0.33138987088E+02  0.33138987088E+02  0.00000000000E+00 0.  1.
         23    2    1    2    0    0  0.21801758337E+02  0.58939559709E+02  0.12715663206E+03  0.16911902604E+03  0.92104546724E+02 0.  0.
         23    2    1    2    0    0 -0.23398434720E+02 -0.39515422202E+01  0.21553267111E+03  0.23620666662E+03  0.93681137932E+02 0.  0.
        -11    1    3    3    0    0 -0.24703257674E+02 -0.98676864111E+01  0.45156275707E+02  0.52409077559E+02  0.00000000000E+00 0. -1.
         11    1    3    3    0    0  0.46505016011E+02  0.68807246120E+02  0.82000356351E+02  0.11670994848E+03  0.00000000000E+00 0.  1.
        -11    1    4    4    0    0  0.18651653027E+02 -0.17940874569E+02  0.13150289116E+02  0.29029110300E+02  0.00000000000E+00 0.  1.
         11    1    4    4    0    0 -0.42050087748E+02  0.13989332349E+02  0.20238238199E+03  0.20717755632E+03  0.00000000000E+00 0. -1.
         21    1    1    2  502  501  0.15966763830E+01 -0.54988017489E+02  0.41368944590E+03  0.41733103059E+03  0.00000000000E+00 0. -1.
<scales pt_clust_5="13000.00000" pt_clust_6="13000.00000" pt_clust_7="13000.00000" pt_clust_8="13000.00000" pt_clust_9="55.01119"></scales>
<clustering>
<clus scale="   55.011">  1  9  2 -1</clus>
<clus scale="   92.105">  5  6 -1 -1</clus>
<clus scale="   93.681">  7  8 -1 -1</clus>
<clus scale="  101.820">  2  5  1 -1</clus>
<clus scale="   55.011">  1  5  2 -1</clus>
</clustering>
</event>
<event>
 9    1  0.2075077E-005  0.1361858E+03  0.7546771E-02  0.1219738E+00
          1   -1    0    0  502    0  0.00000000000E+00  0.00000000000E+00  0.42767328575E+03  0.42767328575E+03  0.00000000000E+00 0. -1.
         -1   -1    0    0    0  501 -0.00000000000E+00 -0.00000000000E+00 -0.90140194082E+02  0.90140194082E+02  0.00000000000E+00 0.  1.
         23    2    1    2    0    0 -0.10301247929E+03 -0.13907674468E+02  0.25044686870E+02  0.14082193132E+03  0.91643797946E+02 0.  0.
         23    2    1    2    0    0  0.93256725834E+02 -0.51545013973E+02  0.25371152676E+03  0.28848194145E+03  0.86594378295E+02 0.  0.
        -11    1    4    4    0    0 -0.12526252123E+02 -0.25234472779E+02  0.47260615737E+02  0.55020463543E+02  0.00000000000E+00 0.  1.
         11    1    4    4    0    0  0.10578297796E+03 -0.26310541193E+02  0.20645091103E+03  0.23346147791E+03  0.00000000000E+00 0. -1.
        -13    1    3    3    0    0 -0.58542020247E+02 -0.21010595374E+01 -0.32620667705E+02  0.67049910867E+02  0.00000000000E+00 0.  1.
         13    1    3    3    0    0 -0.44470459046E+02 -0.11806614931E+02  0.57665354576E+02  0.73772020456E+02  0.00000000000E+00 0. -1.
         21    1    1    2  502  501  0.97557534585E+01  0.65452688441E+02  0.58776878032E+02  0.88509607054E+02  0.00000000000E+00 0. -1.
<scales pt_clust_5="13000.00000" pt_clust_6="13000.00000" pt_clust_7="13000.00000" pt_clust_8="13000.00000" pt_clust_9="66.17574"></scales>
<clustering>
<clus scale="   66.176">  1  9  2 -1</clus>
<clus scale="   86.594">  5  6 -1 -1</clus>
<clus scale="   91.644">  7  8 -1 -1</clus>
<clus scale="  132.840">  1  5  2 -1</clus>
<clus scale="   66.176">  1  5  2 -1</clus>
</clustering>
</event>
<event>
 9    1  0.2075077E-005  0.1140655E+03  0.7546771E-02  0.1255470E+00
          1   -1    0    0  502    0  0.00000000000E+00  0.00000000000E+00  0.67161569612E+03  0.67161569612E+03  0.00000000000E+00 0. -1.
         -1   -1    0    0    0  501 -0.00000000000E+00 -0.00000000000E+00 -0.26430605803E+02  0.26430605803E+02  0.00000000000E+00 0.  1.
         23    2    1    2    0    0  0.46624715558E+02  0.54747498770E+02  0.17806843170E+03  0.21336774013E+03  0.92985339899E+02 0.  0.
         23    2    1    2    0    0 -0.46808427835E+02 -0.30026007373E+02  0.40252940861E+03  0.41552150322E+03  0.86807861450E+02 0.  0.
        -11    1    4    4    0    0 -0.59000320498E+01  0.28508531149E+02  0.78718092519E+02  0.83929046321E+02  0.00000000000E+00 0.  1.
         11    1    4    4    0    0 -0.40908395785E+02 -0.58534538522E+02  0.32381131609E+03  0.33159245690E+03  0.00000000000E+00 0. -1.
        -11    1    3    3    0    0  0.34988752113E+02 -0.20276405081E+02  0.48011885789E+02  0.62773294915E+02  0.00000000000E+00 0.  1.
         11    1    3    3    0    0  0.11635963446E+02  0.75023903851E+02  0.13005654591E+03  0.15059444521E+03  0.00000000000E+00 0. -1.
         21    1    1    2  502  501  0.18371227667E+00 -0.24721491397E+02  0.64587250003E+02  0.69157058569E+02  0.00000000000E+00 0. -1.
<scales pt_clust_5="13000.00000" pt_clust_6="13000.00000" pt_clust_7="13000.00000" pt_clust_8="13000.00000" pt_clust_9="24.72217"></scales>
<clustering>
<clus scale="   24.722">  1  9  2 -1</clus>
<clus scale="   86.808">  5  6 -1 -1</clus>
<clus scale="   92.985">  7  8 -1 -1</clus>
<clus scale="  109.088">  1  5  2 -1</clus>
<clus scale="   24.722">  1  5  2 -1</clus>
</clustering>
</event>
<event>
 9    1  0.2075077E-005  0.1023242E+03  0.7546771E-02  0.1275622E+00
         -2   -1    0    0    0  501 -0.00000000000E+00  0.00000000000E+00  0.11529114151E+03  0.11529114151E+03  0.00000000000E+00 0.  1.
          2   -1    0    0  502    0  0.00000000000E+00 -0.00000000000E+00 -0.23547966525E+03  0.23547966525E+03  0.00000000000E+00 0. -1.
         23    2    1    2    0    0 -0.63873061671E+02 -0.12886354420E+02  0.25456463837E+02  0.11701735499E+03  0.93804070705E+02 0.  0.
         23    2    1    2    0    0 -0.20081917717E+02  0.22684311768E+02 -0.76747942224E+02  0.12470648303E+03  0.93507212848E+02 0.  0.
        -11    1    3    3    0    0 -0.42019077946E+02 -0.52662989471E+02  0.24291845383E+02  0.71617645337E+02  0.00000000000E+00 0.  1.
         11    1    3    3    0    0 -0.21853983725E+02  0.39776635052E+02  0.11646184537E+01  0.45399709656E+02  0.00000000000E+00 0. -1.
        -13    1    4    4    0    0 -0.33722611740E+01 -0.36536851453E+02 -0.26452262877E+02  0.45233128024E+02  0.00000000000E+00 0.  1.
         13    1    4    4    0    0 -0.16709656543E+02  0.59221163221E+02 -0.50295679347E+02  0.79473355007E+02  0.00000000000E+00 0. -1.
         21    1    1    2  502  501  0.83954979389E+02 -0.97979573489E+01 -0.68897045351E+02  0.10904696874E+03  0.00000000000E+00 0.  1.
<scales pt_clust_5="13000.00000" pt_clust_6="13000.00000" pt_clust_7="13000.00000" pt_clust_8="13000.00000" pt_clust_9="84.52478"></scales>
<clustering>
<clus scale="   84.525">  2  9  1 -1</clus>
<clus scale="   93.507">  7  8 -1 -1</clus>
<clus scale="   93.804">  5  6 -1 -1</clus>
<clus scale="  102.052">  2  7  1 -1</clus>
<clus scale="   84.525">  2  5  1 -1</clus>
</clustering>
</event>
<event>
 9    1  0.2075077E-005  0.1193550E+03  0.7546771E-02  0.1251822E+00
         -1   -1    0    0    0  501 -0.00000000000E+00  0.00000000000E+00  0.15373547265E+03  0.15373547265E+03  0.00000000000E+00 0.  1.
          1   -1    0    0  502    0  0.00000000000E+00 -0.00000000000E+00 -0.11884254647E+03  0.11884254647E+03  0.00000000000E+00 0. -1.
         23    2    1    2    0    0 -0.52810367644E+02 -0.16141930873E+02  0.30133653976E+02  0.12534190597E+03  0.10841152811E+03 0.  0.
         23    2    1    2    0    0  0.24224663013E+02  0.47402336552E+02  0.10215956456E+02  0.10452626796E+03  0.89373145403E+02 0.  0.
        -11    1    3    3    0    0 -0.36624726689E+02 -0.50230753958E+02  0.52592843366E+02  0.81427921633E+02  0.00000000000E+00 0.  1.
         11    1    3    3    0    0 -0.16185640954E+02  0.34088823085E+02 -0.22459189389E+02  0.43913984339E+02  0.00000000000E+00 0. -1.
        -13    1    4    4    0    0  0.52183258130E+02  0.59692499379E+01  0.14125313863E+02  0.54389786409E+02  0.00000000000E+00 0.  1.
         13    1    4    4    0    0 -0.27958595117E+02  0.41433086614E+02 -0.39093574068E+01  0.50136481554E+02  0.00000000000E+00 0. -1.
         21    1    1    2  502  501  0.28585704631E+02 -0.31260405680E+02 -0.54566842604E+01  0.42709845184E+02  0.00000000000E+00 0. -1.
<scales pt_clust_5="13000.00000" pt_clust_6="13000.00000" pt_clust_7="13000.00000" pt_clust_8="13000.00000" pt_clust_9="42.35983"></scales>
<clustering>
<clus scale="   42.360">  2  9  1 -1</clus>
<clus scale="   89.373">  7  8 -1 -1</clus>
<clus scale="  102.372">  2  7  1 -1</clus>
<clus scale="  108.412">  5  6 -1 -1</clus>
<clus scale="   42.360">  2  5  1 -1</clus>
</clustering>
</event>
<event>
 9    1  0.2075077E-005  0.1118180E+03  0.7546771E-02  0.1257967E+00
          1   -1    0    0  502    0  0.00000000000E+00  0.00000000000E+00  0.20395319586E+03  0.20395319586E+03  0.00000000000E+00 0. -1.
         -1   -1    0    0    0  501 -0.00000000000E+00 -0.00000000000E+00 -0.23249702912E+03  0.23249702912E+03  0.00000000000E+00 0.  1.
         23    2    1    2    0    0  0.50200975679E+02 -0.24470543168E+02 -0.18058528810E+03  0.21182896345E+03  0.95611286137E+02 0.  0.
         23    2    1    2    0    0 -0.28588290444E+02  0.49502458828E+02  0.62373101772E+02  0.12904867913E+03  0.97444209582E+02 0.  0.
        -13    1    4    4    0    0 -0.56921783168E+02  0.53248266049E+02  0.24707664651E+02  0.81767572599E+02  0.00000000000E+00 0. -1.
         13    1    4    4    0    0  0.28333492724E+02 -0.37458072211E+01  0.37665437120E+02  0.47281106535E+02  0.00000000000E+00 0.  1.
        -13    1    3    3    0    0  0.39585990283E+02 -0.59157983613E+02 -0.93665701465E+02  0.11764344981E+03  0.00000000000E+00 0. -1.
         13    1    3    3    0    0  0.10614985396E+02  0.34687440445E+02 -0.86919586633E+02  0.94185513642E+02  0.00000000000E+00 0.  1.
         21    1    1    2  502  501 -0.21612685236E+02 -0.25031915660E+02  0.89668353061E+02  0.95572582394E+02  0.00000000000E+00 0. -1.
<scales pt_clust_5="13000.00000" pt_clust_6="13000.00000" pt_clust_7="13000.00000" pt_clust_8="13000.00000" pt_clust_9="33.07121"></scales>
<clustering>
<clus scale="   33.071">  1  9  2 -1</clus>
<clus scale="   95.611">  7  8 -1 -1</clus>
<clus scale="   97.444">  5  6 -1 -1</clus>
<clus scale="  110.224">  2  7  1 -1</clus>
<clus scale="   33.071">  1  5  2 -1</clus>
</clustering>
</event>
<event>
 9    1  0.2075077E-005  0.1417848E+03  0.7546771E-02  0.1213810E+00
         -1   -1    0    0    0  501 -0.00000000000E+00  0.00000000000E+00  0.15481719437E+03  0.15481719437E+03  0.00000000000E+00 0.  1.
          1   -1    0    0  502    0  0.00000000000E+00 -0.00000000000E+00 -0.20507931818E+03  0.20507931818E+03  0.00000000000E+00 0. -1.
         23    2    1    2    0    0 -0.91128104326E+01  0.72510581386E+02 -0.16454470601E+02  0.11786187869E+03  0.90993654281E+02 0.  0.
         23    2    1    2    0    0 -0.21363234184E+02 -0.12500085105E+03  0.15226707716E+02  0.16400652189E+03  0.10288190345E+03 0.  0.
        -11    1    4    4    0    0 -0.59608673678E+02 -0.10343513748E+03  0.10340440043E+02  0.11982882100E+03  0.00000000000E+00 0.  1.
         11    1    4    4    0    0  0.38245439494E+02 -0.21565713575E+02  0.48862676732E+01  0.44177700889E+02  0.00000000000E+00 0. -1.
        -13    1    3    3    0    0 -0.18058627522E+02  0.36495206052E+02 -0.52289852296E+02  0.66273997509E+02  0.00000000000E+00 0. -1.
         13    1    3    3    0    0  0.89458170898E+01  0.36015375334E+02  0.35835381694E+02  0.51587881184E+02  0.00000000000E+00 0.  1.
         21    1    1    2  502  501  0.30476044617E+02  0.52490269669E+02 -0.49034360919E+02  0.78028111961E+02  0.00000000000E+00 0. -1.
<scales pt_clust_5="13000.00000" pt_clust_6="13000.00000" pt_clust_7="13000.00000" pt_clust_8="13000.00000" pt_clust_9="60.69611"></scales>
<clustering>
<clus scale="   60.696">  2  9  1 -1</clus>
<clus scale="   90.994">  7  8 -1 -1</clus>
<clus scale="  102.882">  5  6 -1 -1</clus>
<clus scale="  133.409">  1  7  2 -1</clus>
<clus scale="   60.696">  2  5  1 -1</clus>
</clustering>
</event>
<event>
 9    1  0.2075077E-005  0.1656489E+03  0.7546771E-02  0.1182790E+00
         -3   -1    0    0    0  501 -0.00000000000E+00  0.00000000000E+00  0.79763380890E+03  0.79763380890E+03  0.00000000000E+00 0.  1.
          3   -1    0    0  502    0  0.00000000000E+00 -0.00000000000E+00 -0.51080462585E+02  0.51080462585E+02  0.00000000000E+00 0. -1.
         23    2    1    2    0    0  0.14783511539E+03  0.10030001945E+01  0.44092514646E+03  0.47341714930E+03  0.88614813189E+02 0.  0.
         23    2    1    2    0    0 -0.12762793325E+03 -0.11282074798E+02  0.31403214113E+03  0.35111829232E+03  0.90838840711E+02 0.  0.
        -11    1    3    3    0    0  0.32382397497E+02 -0.32565631243E+02  0.72054468298E+02  0.85445809772E+02  0.00000000000E+00 0.  1.
         11    1    3    3    0    0  0.11545271789E+03  0.33568631437E+02  0.36887067817E+03  0.38797133953E+03  0.00000000000E+00 0. -1.
        -13    1    4    4    0    0 -0.41035942500E+02  0.29748452646E+02  0.17552620627E+03  0.18269747699E+03  0.00000000000E+00 0.  1.
         13    1    4    4    0    0 -0.86591990749E+02 -0.41030527444E+02  0.13850593486E+03  0.16842081533E+03  0.00000000000E+00 0. -1.
         21    1    1    2  502  501 -0.20207182140E+02  0.10279074604E+02 -0.84039412772E+01  0.24178829867E+02  0.00000000000E+00 0. -1.
<scales pt_clust_5="13000.00000" pt_clust_6="13000.00000" pt_clust_7="13000.00000" pt_clust_8="13000.00000" pt_clust_9="22.67134"></scales>
<clustering>
<clus scale="   22.671">  2  9  1 -1</clus>
<clus scale="   88.615">  5  6 -1 -1</clus>
<clus scale="   90.839">  7  8 -1 -1</clus>
<clus scale="  164.440">  1  5  2 -1</clus>
<clus scale="   22.671">  2  5  1 -1</clus>
</clustering>
</event>
<event>
 9    1  0.2075077E-005  0.1354608E+03  0.7546771E-02  0.1219576E+00
         -1   -1    0    0    0  501 -0.00000000000E+00  0.00000000000E+00  0.76704512950E+02  0.76704512950E+02  0.00000000000E+00 0.  1.
          1   -1    0    0  502    0  0.00000000000E+00 -0.00000000000E+00 -0.77039560904E+03  0.77039560904E+03  0.00000000000E+00 0. -1.
         23    2    1    2    0    0 -0.11216480001E+03 -0.17805900813E+02 -0.24780168494E+02  0.14963495509E+03  0.94226167116E+02 0.  0.
         23    2    1    2    0    0  0.48920164777E+02  0.21009224471E+02 -0.23207303023E+03  0.25606116404E+03  0.94206466515E+02 0.  0.
        -11    1    3    3    0    0 -0.44041392640E+02 -0.15236717506E+02  0.35539961364E+02  0.58607940416E+02  0.00000000000E+00 0.  1.
         11    1    3    3    0    0 -0.68123407369E+02 -0.25691833069E+01 -0.60320129858E+02  0.91027014675E+02  0.00000000000E+00 0. -1.
        -13    1    4    4    0    0  0.34289259375E+02 -0.29842810854E+02 -0.55553876277E+02  0.71781472801E+02  0.00000000000E+00 0.  1.
         13    1    4    4    0    0  0.14630905402E+02  0.50852035325E+02 -0.17651915396E+03  0.18427969124E+03  0.00000000000E+00 0. -1.
         21    1    1    2  502  501  0.63244635232E+02 -0.32033236584E+01 -0.43683789737E+03  0.44140400286E+03  0.00000000000E+00 0. -1.
<scales pt_clust_5="13000.00000" pt_clust_6="13000.00000" pt_clust_7="13000.00000" pt_clust_8="13000.00000" pt_clust_9="63.32571"></scales>
<clustering>
<clus scale="   63.326">  2  9  1 -1</clus>
<clus scale="   94.206">  7  8 -1 -1</clus>
<clus scale="   94.226">  5  6 -1 -1</clus>
<clus scale="  135.447">  2  7  1 -1</clus>
<clus scale="   63.326">  2  5  1 -1</clus>
</clustering>
</event>
<event>
 9    1  0.2875397E-005  0.9175411E+02  0.7546771E-02  0.1300384E+00
         -1   -1    0    0    0  501 -0.00000000000E+00  0.00000000000E+00  0.10158079982E+03  0.10158079982E+03  0.00000000000E+00 0.  1.
          1   -1    0    0  502    0  0.00000000000E+00 -0.00000000000E+00 -0.26227791498E+03  0.26227791498E+03  0.00000000000E+00 0. -1.
         23    2    1    2    0    0 -0.74310382608E+01  0.89928202031E+00  0.60008227519E+02  0.10935762322E+03  0.91115714059E+02 0.  0.
         23    2    1    2    0    0  0.36483240160E+02 -0.67015015170E+01 -0.18335336311E+03  0.20682650124E+03  0.88220229630E+02 0.  0.
        -11    1    3    3    0    0 -0.91926771387E+01  0.42959901022E+02  0.49068741130E+02  0.65861975106E+02  0.00000000000E+00 0.  1.
         11    1    3    3    0    0  0.17616388780E+01 -0.42060619002E+02  0.10939486390E+02  0.43495648114E+02  0.00000000000E+00 0. -1.
        -13    1    4    4    0    0 -0.30493804528E+01  0.35020074931E+02 -0.45701965326E+02  0.57657384645E+02  0.00000000000E+00 0.  1.
         13    1    4    4    0    0  0.39532620613E+02 -0.41721576448E+02 -0.13765139779E+03  0.14916911660E+03  0.00000000000E+00 0. -1.
         21    1    1    2  502  501 -0.29052201900E+02  0.58022194967E+01 -0.37351979573E+02  0.47674590342E+02  0.00000000000E+00 0.  1.
<scales pt_clust_5="13000.00000" pt_clust_6="13000.00000" pt_clust_7="13000.00000" pt_clust_8="13000.00000" pt_clust_9="29.62594"></scales>
<clustering>
<clus scale="   29.626">  2  9  1 -1</clus>
<clus scale="   88.220">  7  8 -1 -1</clus>
<clus scale="   88.879">  2  7  1 -1</clus>
<clus scale="   91.116">  5  6 -1 -1</clus>
<clus scale="   29.626">  2  5  1 -1</clus>
</clustering>
</event>
<event>
 9    1  0.2075077E-005  0.1275760E+03  0.7546771E-02  0.1231402E+00
         -1   -1    0    0    0  501 -0.00000000000E+00  0.00000000000E+00  0.23537269510E+03  0.23537269510E+03  0.00000000000E+00 0.  1.
          1   -1    0    0  502    0  0.00000000000E+00 -0.00000000000E+00 -0.11940336338E+03  0.11940336338E+03  0.00000000000E+00 0. -1.
         23    2    1    2    0    0  0.78505503440E+02 -0.71825501948E+02  0.12195921229E+03  0.18665926909E+03  0.92981807220E+02 0.  0.
         23    2    1    2    0    0 -0.49339235385E+02  0.20002225615E+02 -0.17270340671E+02  0.10758934155E+03  0.91884452274E+02 0.  0.
        -11    1    4    4    0    0 -0.53084310768E+02  0.50559150265E+02 -0.22703503139E+01  0.73343890105E+02  0.00000000000E+00 0. -1.
         11    1    4    4    0    0  0.37450753823E+01 -0.30556924651E+02 -0.14999990357E+02  0.34245451442E+02  0.00000000000E+00 0.  1.
        -11    1    3    3    0    0 -0.51584322642E+01 -0.46770570171E+02  0.16800739105E+02  0.49963591665E+02  0.00000000000E+00 0. -1.
         11    1    3    3    0    0  0.83663935704E+02 -0.25054931776E+02  0.10515847318E+03  0.13669567742E+03  0.00000000000E+00 0.  1.
         21    1    1    2  502  501 -0.29166268055E+02  0.51823276333E+02  0.11280460104E+02  0.60527447842E+02  0.00000000000E+00 0. -1.
<scales pt_clust_5="13000.00000" pt_clust_6="13000.00000" pt_clust_7="13000.00000" pt_clust_8="13000.00000" pt_clust_9="59.46699"></scales>
<clustering>
<clus scale="   59.467">  2  9  1 -1</clus>
<clus scale="   91.884">  5  6 -1 -1</clus>
<clus scale="   92.982">  7  8 -1 -1</clus>
<clus scale="  126.778">  2  5  1 -1</clus>
<clus scale="   59.467">  2  5  1 -1</clus>
</clustering>
</event>
<event>
 9    1  0.2075077E-005  0.1342151E+03  0.7546771E-02  0.1232128E+00
         -2   -1    0    0    0  501 -0.00000000000E+00  0.00000000000E+00  0.34832299922E+02  0.34832299922E+02  0.00000000000E+00 0.  1.
          2   -1    0    0  502    0  0.00000000000E+00 -0.00000000000E+00 -0.54807856224E+03  0.54807856224E+03  0.00000000000E+00 0. -1.
         23    2    1    2    0    0  0.46670629442E+02 -0.12494480883E+02 -0.14807227275E+03  0.18233805781E+03  0.94802477092E+02 0.  0.
         23    2    1    2    0    0 -0.56093569621E+02 -0.11580616694E+02 -0.28301436229E+03  0.31444147161E+03  0.12448176804E+03 0.  0.
        -11    1    4    4    0    0 -0.89493500406E+02 -0.12318268987E+02 -0.13317936468E+03  0.16092721815E+03  0.00000000000E+00 0.  1.
         11    1    4    4    0    0  0.33399930785E+02  0.73765229315E+00 -0.14983499761E+03  0.15351425346E+03  0.00000000000E+00 0. -1.
        -13    1    3    3    0    0  0.36485541435E+02  0.39033005314E+02 -0.66294492298E+02  0.85145346007E+02  0.00000000000E+00 0. -1.
         13    1    3    3    0    0  0.10185088007E+02 -0.51527486197E+02 -0.81777780454E+02  0.97192711802E+02  0.00000000000E+00 0.  1.
         21    1    1    2  502  501  0.94229401790E+01  0.24075097576E+02 -0.82159627283E+02  0.86131332743E+02  0.00000000000E+00 0. -1.
<scales pt_clust_5="13000.00000" pt_clust_6="13000.00000" pt_clust_7="13000.00000" pt_clust_8="13000.00000" pt_clust_9="25.85347"></scales>
<clustering>
<clus scale="   25.853">  2  9  1 -1</clus>
<clus scale="   94.802">  7  8 -1 -1</clus>
<clus scale="  107.264">  1  7  2 -1</clus>
<clus scale="  124.482">  5  6 -1 -1</clus>
<clus scale="   25.853">  2  5  1 -1</clus>
</clustering>
</event>
<event>
 9    1  0.2075077E-005  0.9624875E+02  0.7546771E-02  0.1290732E+00
          2   -1    0    0  502    0  0.00000000000E+00  0.00000000000E+00  0.10630269734E+03  0.10630269734E+03  0.00000000000E+00 0. -1.
         -2   -1    0    0    0  501 -0.00000000000E+00 -0.00000000000E+00 -0.20172228750E+03  0.20172228750E+03  0.00000000000E+00 0.  1.
         23    2    1    2    0    0 -0.22445206434E+01 -0.26627374795E+01 -0.10928420784E+03  0.14259642585E+03  0.91534553798E+02 0.  0.
         23    2    1    2    0    0  0.64660334936E+01  0.23402083273E+02 -0.40786744783E+02  0.10682213396E+03  0.95697140311E+02 0.  0.
        -11    1    4    4    0    0  0.74560663730E+01  0.57972155877E+02 -0.76908579686E+01  0.58953482332E+02  0.00000000000E+00 0.  1.
         11    1    4    4    0    0 -0.99003287948E+00 -0.34570072604E+02 -0.33095886814E+02  0.47868651631E+02  0.00000000000E+00 0. -1.
        -11    1    3    3    0    0  0.75215921561E+01  0.35093599403E+02 -0.94158675078E+02  0.10076701425E+03  0.00000000000E+00 0.  1.
         11    1    3    3    0    0 -0.97661127995E+01 -0.37756336883E+02 -0.15125532762E+02  0.41829411607E+02  0.00000000000E+00 0. -1.
         21    1    1    2  502  501 -0.42215128502E+01 -0.20739345794E+02  0.54651362460E+02  0.58606425018E+02  0.00000000000E+00 0. -1.
<scales pt_clust_5="13000.00000" pt_clust_6="13000.00000" pt_clust_7="13000.00000" pt_clust_8="13000.00000" pt_clust_9="21.16463"></scales>
<clustering>
<clus scale="   21.165">  1  9  2 -1</clus>
<clus scale="   91.535">  7  8 -1 -1</clus>
<clus scale="   92.111">  2  7  1 -1</clus>
<clus scale="   95.697">  5  6 -1 -1</clus>
<clus scale="   21.165">  1  5  2 -1</clus>
</clustering>
</event>
<event>
 9    1  0.2075077E-005  0.1331075E+03  0.7546771E-02  0.1227126E+00
          1   -1    0    0  502    0  0.00000000000E+00  0.00000000000E+00  0.10217190148E+03  0.10217190148E+03  0.00000000000E+00 0. -1.
         -1   -1    0    0    0  501 -0.00000000000E+00 -0.00000000000E+00 -0.30151421378E+03  0.30151421378E+03  0.00000000000E+00 0.  1.
         23    2    1    2    0    0 -0.38855769969E+02  0.71666638371E+02 -0.10289337873E+03  0.16790767077E+03  0.10469030805E+03 0.  0.
         23    2    1    2    0    0 -0.40027862685E+02 -0.88741933316E+02 -0.44926611204E+02  0.14002489156E+03  0.90062252590E+02 0.  0.
        -11    1    3    3    0    0 -0.21116332762E+02  0.43037065016E+01 -0.95448868059E+02  0.97851457897E+02  0.00000000000E+00 0.  1.
         11    1    3    3    0    0 -0.17739437208E+02  0.67362931869E+02 -0.74445106742E+01  0.70056212870E+02  0.00000000000E+00 0. -1.
        -13    1    4    4    0    0 -0.45940089100E+02 -0.41617889806E+01 -0.26710853691E+02  0.53303676974E+02  0.00000000000E+00 0.  1.
         13    1    4    4    0    0  0.59122264152E+01 -0.84580144335E+02 -0.18215757513E+02  0.86721214583E+02  0.00000000000E+00 0. -1.
         21    1    1    2  502  501  0.78883632655E+02  0.17075294945E+02 -0.51522322363E+02  0.95753552936E+02  0.00000000000E+00 0. -1.
<scales pt_clust_5="13000.00000" pt_clust_6="13000.00000" pt_clust_7="13000.00000" pt_clust_8="13000.00000" pt_clust_9="80.71055"></scales>
<clustering>
<clus scale="   80.711">  2  9  1 -1</clus>
<clus scale="   90.062">  7  8 -1 -1</clus>
<clus scale="  104.690">  5  6 -1 -1</clus>
<clus scale="  121.937">  1  7  2 -1</clus>
<clus scale="  121.937">  1  5  2 -1</clus>
</clustering>
</event>
<event>
 9    1  0.2075077E-005  0.9774009E+02  0.7546771E-02  0.1285555E+00
          3   -1    0    0  502    0  0.00000000000E+00  0.00000000000E+00  0.19062219874E+03  0.19062219874E+03  0.00000000000E+00 0. -1.
         -3   -1    0    0    0  501 -0.00000000000E+00 -0.00000000000E+00 -0.13677805334E+03  0.13677805334E+03  0.00000000000E+00 0.  1.
         23    2    1    2    0    0  0.25569054028E+02  0.68380184931E+01 -0.67901184403E+02  0.11689719787E+03  0.91399392806E+02 0.  0.
         23    2    1    2    0    0 -0.42315586361E+02 -0.22784666023E+02  0.19688859766E+02  0.10585954038E+03  0.92243380443E+02 0.  0.
        -11    1    3    3    0    0  0.52121241043E+02  0.20497136238E+02 -0.18151718806E+02  0.58874793057E+02  0.00000000000E+00 0.  1.
         11    1    3    3    0    0 -0.26552187016E+02 -0.13659117745E+02 -0.49749465597E+02  0.58022404811E+02  0.00000000000E+00 0. -1.
        -13    1    4    4    0    0  0.48812573007E+01  0.29332938079E+02  0.19476967534E+02  0.35547154506E+02  0.00000000000E+00 0.  1.
         13    1    4    4    0    0 -0.47196843662E+02 -0.52117604101E+02  0.21189223195E+00  0.70312385873E+02  0.00000000000E+00 0. -1.
         21    1    1    2  502  501  0.16746532333E+02  0.15946647529E+02  0.10205647003E+03  0.10464351384E+03  0.00000000000E+00 0. -1.
<scales pt_clust_5="13000.00000" pt_clust_6="13000.00000" pt_clust_7="13000.00000" pt_clust_8="13000.00000" pt_clust_9="23.12449"></scales>
<clustering>
<clus scale="   23.124">  1  9  2 -1</clus>
<clus scale="   91.399">  5  6 -1 -1</clus>
<clus scale="   92.243">  7  8 -1 -1</clus>
<clus scale="   96.944">  2  5  1 -1</clus>
<clus scale="   23.124">  1  5  2 -1</clus>
</clustering>
</event>
<event>
 9    1  0.2075077E-005  0.1060589E+03  0.7546771E-02  0.1268446E+00
          1   -1    0    0  502    0  0.00000000000E+00  0.00000000000E+00  0.85590013745E+02  0.85590013745E+02  0.00000000000E+00 0. -1.
         -1   -1    0    0    0  501 -0.00000000000E+00 -0.00000000000E+00 -0.28214623301E+03  0.28214623301E+03  0.00000000000E+00 0.  1.
         23    2    1    2    0    0  0.30927585516E+02 -0.33675933724E+02 -0.17198005589E+03  0.20007167884E+03  0.91438246874E+02 0.  0.
         23    2    1    2    0    0 -0.66114419976E+02  0.54678133348E+02 -0.15122315596E+02  0.12561006821E+03  0.90489723232E+02 0.  0.
        -11    1    4    4    0    0 -0.39357790131E+02 -0.29572081549E+01  0.28370823423E+02  0.48607451546E+02  0.00000000000E+00 0.  1.
         11    1    4    4    0    0 -0.26756629845E+02  0.57635341503E+02 -0.43493139019E+02  0.77002616661E+02  0.00000000000E+00 0. -1.
        -13    1    3    3    0    0  0.62971020277E+02 -0.29980809763E+02 -0.12373215688E+03  0.14203466125E+03  0.00000000000E+00 0.  1.
         13    1    3    3    0    0 -0.32043434760E+02 -0.36951239613E+01 -0.48247899006E+02  0.58037017591E+02  0.00000000000E+00 0. -1.
         21    1    1    2  502  501  0.35186834459E+02 -0.21002199624E+02 -0.94538477838E+01  0.42054499715E+02  0.00000000000E+00 0.  1.
<scales pt_clust_5="13000.00000" pt_clust_6="13000.00000" pt_clust_7="13000.00000" pt_clust_8="13000.00000" pt_clust_9="40.97811"></scales>
<clustering>
<clus scale="   40.978">  1  9  2 -1</clus>
<clus scale="   90.490">  5  6 -1 -1</clus>
<clus scale="   91.438">  7  8 -1 -1</clus>
<clus scale="  105.242">  1  5  2 -1</clus>
<clus scale="   40.978">  1  5  2 -1</clus>
</clustering>
</event>
<event>
 9    1  0.2075077E-005  0.1000449E+03  0.7546771E-02  0.1280835E+00
          1   -1    0    0  502    0  0.00000000000E+00  0.00000000000E+00  0.96102793456E+02  0.96102793456E+02  0.00000000000E+00 0. -1.
         -1   -1    0    0    0  501 -0.00000000000E+00 -0.00000000000E+00 -0.18523347824E+03  0.18523347824E+03  0.00000000000E+00 0.  1.
         23    2    1    2    0    0  0.28345097088E+02  0.15466472070E+02 -0.10099759152E+03  0.13952351770E+03  0.90684299703E+02 0.  0.
         23    2    1    2    0    0 -0.52421352119E+02 -0.33439003583E+02  0.12707205118E+02  0.11175640613E+03  0.91988347799E+02 0.  0.
        -11    1    4    4    0    0 -0.21624947185E+02 -0.25723215078E+02  0.51582979518E+02  0.61563998495E+02  0.00000000000E+00 0. -1.
         11    1    4    4    0    0 -0.30796404933E+02 -0.77157885055E+01 -0.38875774400E+02  0.50192407636E+02  0.00000000000E+00 0.  1.
        -11    1    3    3    0    0  0.15321784255E+01  0.45440615125E+02 -0.84696900225E+02  0.96128882139E+02  0.00000000000E+00 0.  1.
         11    1    3    3    0    0  0.26812918663E+02 -0.29974143056E+02 -0.16300691295E+02  0.43394635565E+02  0.00000000000E+00 0. -1.
         21    1    1    2  502  501  0.24076255030E+02  0.17972531514E+02 -0.84029838168E+00  0.30056347860E+02  0.00000000000E+00 0.  1.
<scales pt_clust_5="13000.00000" pt_clust_6="13000.00000" pt_clust_7="13000.00000" pt_clust_8="13000.00000" pt_clust_9="30.04460"></scales>
<clustering>
<clus scale="   30.045">  1  9  2 -1</clus>
<clus scale="   90.684">  7  8 -1 -1</clus>
<clus scale="   91.988">  5  6 -1 -1</clus>
<clus scale="   98.847">  2  7  1 -1</clus>
<clus scale="   30.045">  1  5  2 -1</clus>
</clustering>
</event>
<event>
 9    1  0.2075077E-005  0.9490993E+02  0.7546771E-02  0.1292803E+00
          1   -1    0    0  502    0  0.00000000000E+00  0.00000000000E+00  0.23539148273E+03  0.23539148273E+03  0.00000000000E+00 0. -1.
         -1   -1    0    0    0  501 -0.00000000000E+00 -0.00000000000E+00 -0.89361608772E+02  0.89361608772E+02  0.00000000000E+00 0.  1.
         23    2    1    2    0    0  0.35507505374E+02 -0.83909723911E+01 -0.27817920649E+02  0.98910920744E+02  0.87626150078E+02 0.  0.
         23    2    1    2    0    0 -0.96058819412E+01  0.11306204913E+02  0.60789597620E+02  0.10981825692E+03  0.90247277722E+02 0.  0.
        -11    1    4    4    0    0  0.37598353152E+02 -0.94441066791E+01  0.17679461611E+02  0.42607401629E+02  0.00000000000E+00 0.  1.
         11    1    4    4    0    0 -0.47204235094E+02  0.20750311592E+02  0.43110136009E+02  0.67210855289E+02  0.00000000000E+00 0. -1.
        -11    1    3    3    0    0  0.29671991595E+02 -0.46096562839E+02 -0.26102536770E+02  0.60717893710E+02  0.00000000000E+00 0.  1.
         11    1    3    3    0    0  0.58355137789E+01  0.37705590448E+02 -0.17153838790E+01  0.38193027033E+02  0.00000000000E+00 0. -1.
         21    1    1    2  502  501 -0.25901623433E+02 -0.29152325221E+01  0.11305819698E+03  0.11602391384E+03  0.00000000000E+00 0. -1.
<scales pt_clust_5="13000.00000" pt_clust_6="13000.00000" pt_clust_7="13000.00000" pt_clust_8="13000.00000" pt_clust_9="26.06516"></scales>
<clustering>
<clus scale="   26.065">  1  9  2 -1</clus>
<clus scale="   87.626">  7  8 -1 -1</clus>
<clus scale="   90.247">  5  6 -1 -1</clus>
<clus scale="   92.421">  2  7  1 -1</clus>
<clus scale="   26.065">  1  5  2 -1</clus>
</clustering>
</event>
<event>
 9    1  0.2075077E-005  0.1348533E+03  0.7546771E-02  0.1223211E+00
         -1   -1    0    0    0  501 -0.00000000000E+00  0.00000000000E+00  0.31497399397E+03  0.31497399397E+03  0.00000000000E+00 0.  1.
          1   -1    0    0  502    0  0.00000000000E+00 -0.00000000000E+00 -0.11654863763E+03  0.11654863763E+03  0.00000000000E+00 0. -1.
         23    2    1    2    0    0 -0.12691704457E+01 -0.95765424706E+02  0.22902749793E+03  0.26378061282E+03  0.89185141881E+02 0.  0.
         23    2    1    2    0    0 -0.25787853071E+02  0.66678192996E+02 -0.35354087116E+02  0.12773288787E+03  0.99773665760E+02 0.  0.
        -13    1    4    4    0    0  0.34246936494E+02  0.18121872769E+01 -0.11737245164E+02  0.36247753117E+02  0.00000000000E+00 0.  1.
         13    1    4    4    0    0 -0.60034789566E+02  0.64866005719E+02 -0.23616841952E+02  0.91485134749E+02  0.00000000000E+00 0. -1.
        -13    1    3    3    0    0 -0.15257033242E+02 -0.70189275897E+02  0.64019904715E+02  0.96217772340E+02  0.00000000000E+00 0. -1.
         13    1    3    3    0    0  0.13987862796E+02 -0.25576148809E+02  0.16500759321E+03  0.16756284048E+03  0.00000000000E+00 0.  1.
         21    1    1    2  502  501  0.27057023517E+02  0.29087231709E+02  0.47519455237E+01  0.40009130913E+02  0.00000000000E+00 0.  1.
<scales pt_clust_5="13000.00000" pt_clust_6="13000.00000" pt_clust_7="13000.00000" pt_clust_8="13000.00000" pt_clust_9="39.72593"></scales>
<clustering>
<clus scale="   39.726">  2  9  1 -1</clus>
<clus scale="   89.185">  7  8 -1 -1</clus>
<clus scale="   99.774">  5  6 -1 -1</clus>
<clus scale="  127.219">  1  7  2 -1</clus>
<clus scale="   39.726">  2  5  1 -1</clus>
</clustering>
</event>
<event>
 9    1  0.2075077E-005  0.1415992E+03  0.7546771E-02  0.1211582E+00
         -1   -1    0    0    0  501 -0.00000000000E+00  0.00000000000E+00  0.11064219971E+03  0.11064219971E+03  0.00000000000E+00 0.  1.
          1   -1    0    0  502    0  0.00000000000E+00 -0.00000000000E+00 -0.31411169936E+03  0.31411169936E+03  0.00000000000E+00 0. -1.
         23    2    1    2    0    0 -0.12160585806E+03  0.43122241848E+02 -0.19593352550E+02  0.15934986840E+03  0.91438332430E+02 0.  0.
         23    2    1    2    0    0  0.76647994531E+02 -0.34584945336E+02 -0.67180276583E+02  0.14005642950E+03  0.89619084875E+02 0.  0.
        -11    1    3    3    0    0 -0.75389734320E+02  0.92308280887E+01 -0.53367494061E+02  0.92827310908E+02  0.00000000000E+00 0. -1.
         11    1    3    3    0    0 -0.46216123739E+02  0.33891413759E+02  0.33774141511E+02  0.66522557489E+02  0.00000000000E+00 0.  1.
        -11    1    4    4    0    0  0.26930220399E+02 -0.60924250065E+02 -0.35221360413E+02  0.75349487364E+02  0.00000000000E+00 0.  1.
         11    1    4    4    0    0  0.49717774132E+02  0.26339304728E+02 -0.31958916170E+02  0.64706942139E+02  0.00000000000E+00 0. -1.
         21    1    1    2  502  501  0.44957863528E+02 -0.85372965116E+01 -0.11669587052E+03  0.12534760118E+03  0.00000000000E+00 0. -1.
<scales pt_clust_5="13000.00000" pt_clust_6="13000.00000" pt_clust_7="13000.00000" pt_clust_8="13000.00000" pt_clust_9="45.76128"></scales>
<clustering>
<clus scale="   45.761">  2  9  1 -1</clus>
<clus scale="   89.619">  7  8 -1 -1</clus>
<clus scale="   91.438">  5  6 -1 -1</clus>
<clus scale="  140.431">  2  7  1 -1</clus>
<clus scale="   45.761">  2  5  1 -1</clus>
</clustering>
</event>
<event>
 9    1  0.2075077E-005  0.1514417E+03  0.7546771E-02  0.1220535E+00
          1   -1    0    0  502    0  0.00000000000E+00  0.00000000000E+00  0.14011901966E+03  0.14011901966E+03  0.00000000000E+00 0. -1.
         -1   -1    0    0    0  501 -0.00000000000E+00 -0.00000000000E+00 -0.27739920693E+03  0.27739920693E+03  0.00000000000E+00 0.  1.
         23    2    1    2    0    0 -0.41277198646E+01 -0.23924958005E+02 -0.10368911326E+03  0.14062902195E+03  0.91845783347E+02 0.  0.
         23    2    1    2    0    0  0.11080060762E+03 -0.13947811881E+02 -0.56722391107E+02  0.16135345470E+03  0.10171623068E+03 0.  0.
        -13    1    4    4    0    0  0.94483559832E+02  0.25369966083E+02 -0.65704804151E+02  0.11784693270E+03  0.00000000000E+00 0.  1.
         13    1    4    4    0    0  0.16317047792E+02 -0.39317777964E+02  0.89824130442E+01  0.43506522002E+02  0.00000000000E+00 0. -1.
        -13    1    3    3    0    0  0.24736923991E+02 -0.13649789210E+02 -0.10619372296E+03  0.10988784715E+03  0.00000000000E+00 0.  1.
         13    1    3    3    0    0 -0.28864643856E+02 -0.10275168794E+02  0.25046096972E+01  0.30741174805E+02  0.00000000000E+00 0. -1.
         21    1    1    2  502  501 -0.10667288776E+03  0.37872769886E+02  0.23131317101E+02  0.11553574993E+03  0.00000000000E+00 0. -1.
<scales pt_clust_5="13000.00000" pt_clust_6="13000.00000" pt_clust_7="13000.00000" pt_clust_8="13000.00000" pt_clust_9="112.19808"></scales>
<clustering>
<clus scale="   91.846">  7  8 -1 -1</clus>
<clus scale="   95.000">  2  7  1 -1</clus>
<clus scale="  101.716">  5  6 -1 -1</clus>
<clus scale="  112.198">  1  9  2 -1</clus>
<clus scale="  112.198">  1  5  2 -1</clus>
</clustering>
</event>
<event>
 9    1  0.2075077E-005  0.1017198E+03  0.7546771E-02  0.1277236E+00
          1   -1    0    0  502    0  0.00000000000E+00  0.00000000000E+00  0.30177574452E+03  0.30177574452E+03  0.00000000000E+00 0. -1.
         -1   -1    0    0    0  501 -0.00000000000E+00 -0.00000000000E+00 -0.18856894572E+03  0.18856894572E+03  0.00000000000E+00 0.  1.
         23    2    1    2    0    0 -0.20582738644E+02  0.51906301668E+02 -0.10973220600E+03  0.15318355862E+03  0.91137985033E+02 0.  0.
         23    2    1    2    0    0 -0.16575066330E+02 -0.30079013338E+02 -0.13084983103E+02  0.97235193345E+02  0.90022142691E+02 0.  0.
        -11    1    4    4    0    0  0.26001233771E+02  0.14267910156E+02 -0.19392137294E+02  0.35435750404E+02  0.00000000000E+00 0. -1.
         11    1    4    4    0    0 -0.42576300102E+02 -0.44346923495E+02  0.63071541907E+01  0.61799442941E+02  0.00000000000E+00 0.  1.
        -13    1    3    3    0    0 -0.16473855619E+02  0.78259779307E+02 -0.86582052497E+02  0.11786616474E+03  0.00000000000E+00 0.  1.
         13    1    3    3    0    0 -0.41088830251E+01 -0.26353477639E+02 -0.23150153502E+02  0.35317393881E+02  0.00000000000E+00 0. -1.
         21    1    1    2  502  501  0.37157804974E+02 -0.21827288330E+02  0.23602398791E+03  0.23992593827E+03  0.00000000000E+00 0. -1.
<scales pt_clust_5="13000.00000" pt_clust_6="13000.00000" pt_clust_7="13000.00000" pt_clust_8="13000.00000" pt_clust_9="43.09447"></scales>
<clustering>
<clus scale="   43.094">  1  9  2 -1</clus>
<clus scale="   90.022">  5  6 -1 -1</clus>
<clus scale="   91.138">  7  8 -1 -1</clus>
<clus scale="  100.721">  1  5  2 -1</clus>
<clus scale="   43.094">  1  5  2 -1</clus>
</clustering>
</event>
<event>
 9    1  0.2075077E-005  0.1514998E+03  0.7546771E-02  0.1199295E+00
          3   -1    0    0  502    0  0.00000000000E+00  0.00000000000E+00  0.20212320328E+03  0.20212320328E+03  0.00000000000E+00 0. -1.
         -3   -1    0    0    0  501 -0.00000000000E+00 -0.00000000000E+00 -0.15905644949E+03  0.15905644949E+03  0.00000000000E+00 0.  1.
         23    2    1    2    0    0  0.10372178049E+03 -0.46949946896E+02  0.95184640684E+01  0.14365514333E+03  0.87084406092E+02 0.  0.
         23    2    1    2    0    0 -0.13355246025E+03  0.83973384056E+01  0.65273696786E+01  0.16179029018E+03  0.90701248673E+02 0.  0.
        -11    1    3    3    0    0  0.13911630968E+02 -0.41936452071E+02 -0.20663103391E+02  0.48776667888E+02  0.00000000000E+00 0.  1.
         11    1    3    3    0    0  0.89810149520E+02 -0.50134948249E+01  0.30181567459E+02  0.94878475438E+02  0.00000000000E+00 0. -1.
        -11    1    4    4    0    0 -0.79745737606E+02  0.49575106379E+02  0.43568183271E+01  0.94000296302E+02  0.00000000000E+00 0.  1.
         11    1    4    4    0    0 -0.53806722648E+02 -0.41177767974E+02  0.21705513514E+01  0.67789993882E+02  0.00000000000E+00 0. -1.
         21    1    1    2  502  501  0.29830679766E+02  0.38552608490E+02  0.27020920047E+02  0.55734219263E+02  0.00000000000E+00 0. -1.
<scales pt_clust_5="13000.00000" pt_clust_6="13000.00000" pt_clust_7="13000.00000" pt_clust_8="13000.00000" pt_clust_9="48.74601"></scales>
<clustering>
<clus scale="   48.746">  1  9  2 -1</clus>
<clus scale="   87.084">  5  6 -1 -1</clus>
<clus scale="   90.701">  7  8 -1 -1</clus>
<clus scale="  149.363">  2  5  1 -1</clus>
<clus scale="   48.746">  1  5  2 -1</clus>
</clustering>
</event>
<event>
 9    1  0.2075077E-005  0.1142859E+03  0.7546771E-02  0.1254039E+00
         -4   -1    0    0    0  501 -0.00000000000E+00  0.00000000000E+00  0.14101372014E+03  0.14101372014E+03  0.00000000000E+00 0.  1.
          4   -1    0    0  502    0  0.00000000000E+00 -0.00000000000E+00 -0.20362157024E+03  0.20362157024E+03  0.00000000000E+00 0. -1.
         23    2    1    2    0    0  0.18203536139E+02 -0.18105946270E+02  0.43093362138E+02  0.10606465325E+03  0.93453083370E+02 0.  0.
         23    2    1    2    0    0 -0.78494788439E+02  0.15553004197E+02 -0.12651784356E+03  0.17473581311E+03  0.90124979292E+02 0.  0.
        -11    1    3    3    0    0  0.37934155021E+02  0.19526185454E+02 -0.37400313875E+01  0.42828260183E+02  0.00000000000E+00 0. -1.
         11    1    3    3    0    0 -0.19730618882E+02 -0.37632131724E+02  0.46833393526E+02  0.63236393071E+02  0.00000000000E+00 0.  1.
        -13    1    4    4    0    0 -0.68503688966E+02 -0.11104442264E+02 -0.32741900694E+02  0.76733930572E+02  0.00000000000E+00 0.  1.
         13    1    4    4    0    0 -0.99910994736E+01  0.26657446461E+02 -0.93775942867E+02  0.98001882539E+02  0.00000000000E+00 0. -1.
         21    1    1    2  502  501  0.60291252300E+02  0.25529420726E+01  0.20816631322E+02  0.63834824013E+02  0.00000000000E+00 0.  1.
<scales pt_clust_5="13000.00000" pt_clust_6="13000.00000" pt_clust_7="13000.00000" pt_clust_8="13000.00000" pt_clust_9="60.34528"></scales>
<clustering>
<clus scale="   60.345">  1  9  2 -1</clus>
<clus scale="   90.125">  7  8 -1 -1</clus>
<clus scale="   93.453">  5  6 -1 -1</clus>
<clus scale="  111.581">  2  7  1 -1</clus>
<clus scale="  111.581">  2  5  1 -1</clus>
</clustering>
</event>
<event>
 9    1  0.2075077E-005  0.2061551E+03  0.7546771E-02  0.1144937E+00
         -1   -1    0    0    0  501 -0.00000000000E+00  0.00000000000E+00  0.79438464244E+02  0.79438464244E+02  0.00000000000E+00 0.  1.
          1   -1    0    0  502    0  0.00000000000E+00 -0.00000000000E+00 -0.77721242035E+03  0.77721242035E+03  0.00000000000E+00 0. -1.
         23    2    1    2    0    0 -0.12276327852E+03  0.14645125416E+03 -0.21777336533E+03  0.30461224167E+03  0.94045662976E+02 0.  0.
         23    2    1    2    0    0  0.15368813250E+03 -0.92674686559E+02 -0.29622593616E+03  0.35807630253E+03  0.90885607100E+02 0.  0.
        -11    1    3    3    0    0 -0.58059494865E+02  0.11182097490E+03 -0.18596272001E+03  0.22462628654E+03  0.00000000000E+00 0. -1.
         11    1    3    3    0    0 -0.64703783659E+02  0.34630279258E+02 -0.31810645327E+02  0.79985955126E+02  0.00000000000E+00 0.  1.
        -13    1    4    4    0    0  0.88004393624E+02 -0.91943092892E+02 -0.23979600909E+03  0.27147823412E+03  0.00000000000E+00 0.  1.
         13    1    4    4    0    0  0.65683738878E+02 -0.73159366679E+00 -0.56429927069E+02  0.86598068404E+02  0.00000000000E+00 0. -1.
         21    1    1    2  502  501 -0.30924853977E+02 -0.53776567599E+02 -0.18377465462E+03  0.19396234041E+03  0.00000000000E+00 0. -1.
<scales pt_clust_5="13000.00000" pt_clust_6="13000.00000" pt_clust_7="13000.00000" pt_clust_8="13000.00000" pt_clust_9="62.03439"></scales>
<clustering>
<clus scale="   62.034">  2  9  1 -1</clus>
<clus scale="   90.886">  7  8 -1 -1</clus>
<clus scale="   94.046">  5  6 -1 -1</clus>
<clus scale="  204.733">  2  7  1 -1</clus>
<clus scale="   62.034">  2  5  1 -1</clus>
</clustering>
</event>
<event>
 9    1  0.2075077E-005  0.2507589E+03  0.7546771E-02  0.1115218E+00
         -2   -1    0    0    0  501 -0.00000000000E+00  0.00000000000E+00  0.26469945838E+03  0.26469945838E+03  0.00000000000E+00 0.  1.
          2   -1    0    0  502    0  0.00000000000E+00 -0.00000000000E+00 -0.25803974832E+03  0.25803974832E+03  0.00000000000E+00 0. -1.
         23    2    1    2    0    0 -0.21022975906E+03  0.46472129319E+02  0.52901018082E+02  0.25443973217E+03  0.12483929346E+03 0.  0.
         23    2    1    2    0    0  0.21995848067E+03 -0.23963995736E+02 -0.38655986626E+02  0.24263235155E+03  0.91761464715E+02 0.  0.
        -11    1    4    4    0    0  0.36086884466E+02 -0.11514598876E+02  0.27517516552E+02  0.46819471750E+02  0.00000000000E+00 0.  1.
         11    1    4    4    0    0  0.18387159621E+03 -0.12449396860E+02 -0.66173503179E+02  0.19581287980E+03  0.00000000000E+00 0. -1.
        -13    1    3    3    0    0 -0.23751851935E+02 -0.24460894328E+02 -0.22834645445E+02  0.41035434130E+02  0.00000000000E+00 0. -1.
         13    1    3    3    0    0 -0.18647790713E+03  0.70933023647E+02  0.75735663527E+02  0.21340429804E+03  0.00000000000E+00 0.  1.
         21    1    1    2  502  501 -0.97287216107E+01 -0.22508133583E+02 -0.75853213898E+01  0.25667122982E+02  0.00000000000E+00 0. -1.
<scales pt_clust_5="13000.00000" pt_clust_6="13000.00000" pt_clust_7="13000.00000" pt_clust_8="13000.00000" pt_clust_9="24.52069"></scales>
<clustering>
<clus scale="   24.521">  2  9  1 -1</clus>
<clus scale="   91.761">  5  6 -1 -1</clus>
<clus scale="  124.839">  7  8 -1 -1</clus>
<clus scale="  236.041">  2  5  1 -1</clus>
<clus scale="   24.521">  2  5  1 -1</clus>
</clustering>
</event>
<event>
 9    1  0.2075077E-005  0.1251769E+03  0.7546771E-02  0.1235595E+00
          2   -1    0    0  502    0  0.00000000000E+00  0.00000000000E+00  0.82350674290E+03  0.82350674290E+03  0.00000000000E+00 0. -1.
         -2   -1    0    0    0  501 -0.00000000000E+00 -0.00000000000E+00 -0.26409709744E+02  0.26409709744E+02  0.00000000000E+00 0.  1.
         23    2    1    2    0    0 -0.66654346349E+02  0.34917583294E+02  0.21744503958E+03  0.24744637561E+03  0.91023755418E+02 0.  0.
         23    2    1    2    0    0  0.85095260082E+02 -0.46608884303E+02  0.41515490387E+03  0.43653018931E+03  0.93762575627E+02 0.  0.
        -11    1    4    4    0    0  0.21826525764E+02 -0.34344420127E+02  0.44445509249E+02  0.60260598347E+02  0.00000000000E+00 0. -1.
         11    1    4    4    0    0  0.63268734319E+02 -0.12264464176E+02  0.37070939462E+03  0.37626959096E+03  0.00000000000E+00 0.  1.
        -11    1    3    3    0    0 -0.18499426546E+01  0.36730216824E+02  0.25246273110E+02  0.44608355963E+02  0.00000000000E+00 0.  1.
         11    1    3    3    0    0 -0.64804403695E+02 -0.18126335302E+01  0.19219876647E+03  0.20283801964E+03  0.00000000000E+00 0. -1.
         21    1    1    2  502  501 -0.18440913733E+02  0.11691301009E+02  0.16449708970E+03  0.16593988773E+03  0.00000000000E+00 0. -1.
<scales pt_clust_5="13000.00000" pt_clust_6="13000.00000" pt_clust_7="13000.00000" pt_clust_8="13000.00000" pt_clust_9="21.83469"></scales>
<clustering>
<clus scale="   21.835">  1  9  2 -1</clus>
<clus scale="   91.024">  7  8 -1 -1</clus>
<clus scale="   93.763">  5  6 -1 -1</clus>
<clus scale="  123.139">  2  7  1 -1</clus>
<clus scale="   21.835">  1  5  2 -1</clus>
</clustering>
</event>
<event>
 9    1  0.2075077E-005  0.1093300E+03  0.7546771E-02  0.1267258E+00
         -4   -1    0    0    0  501 -0.00000000000E+00  0.00000000000E+00  0.23440004826E+03  0.23440004826E+03  0.00000000000E+00 0.  1.
          4   -1    0    0  502    0  0.00000000000E+00 -0.00000000000E+00 -0.60628913323E+02  0.60628913323E+02  0.00000000000E+00 0. -1.
         23    2    1    2    0    0 -0.15319210882E+02 -0.32833821992E+02  0.10488370214E+03  0.15089681978E+03  0.10225713254E+03 0.  0.
         23    2    1    2    0    0  0.38323825885E+02  0.24221731939E+02  0.62033601196E+02  0.11863007494E+03  0.90385391936E+02 0.  0.
        -11    1    3    3    0    0  0.24587557916E+02 -0.49208788530E+02  0.89589355392E+02  0.10512994565E+03  0.00000000000E+00 0.  1.
         11    1    3    3    0    0 -0.39906768797E+02  0.16374966538E+02  0.15294346747E+02  0.45766874127E+02  0.00000000000E+00 0. -1.
        -11    1    4    4    0    0  0.51626123119E+02  0.40035876315E+02  0.70662704356E+02  0.96235886069E+02  0.00000000000E+00 0.  1.
         11    1    4    4    0    0 -0.13302297234E+02 -0.15814144376E+02 -0.86291031600E+01  0.22394188876E+02  0.00000000000E+00 0. -1.
         21    1    1    2  502  501 -0.23004615004E+02  0.86120900532E+01  0.68538316007E+01  0.25502066860E+02  0.00000000000E+00 0. -1.
<scales pt_clust_5="13000.00000" pt_clust_6="13000.00000" pt_clust_7="13000.00000" pt_clust_8="13000.00000" pt_clust_9="24.56380"></scales>
<clustering>
<clus scale="   24.564">  2  9  1 -1</clus>
<clus scale="   90.385">  7  8 -1 -1</clus>
<clus scale="   98.316">  2  7  1 -1</clus>
<clus scale="  102.257">  5  6 -1 -1</clus>
<clus scale="   24.564">  2  5  1 -1</clus>
</clustering>
</event>
<event>
 9    1  0.2075077E-005  0.1009830E+03  0.7546771E-02  0.1283211E+00
          2   -1    0    0  502    0  0.00000000000E+00  0.00000000000E+00  0.67395165095E+03  0.67395165095E+03  0.00000000000E+00 0. -1.
         -2   -1    0    0    0  501 -0.00000000000E+00 -0.00000000000E+00 -0.21302102123E+02  0.21302102123E+02  0.00000000000E+00 0.  1.
         23    2    1    2    0    0  0.27338511614E+02 -0.21056546452E+02  0.21799097849E+03  0.23859983793E+03  0.90658941053E+02 0.  0.
         23    2    1    2    0    0 -0.58870225538E+02  0.78853407303E+01  0.25731806077E+03  0.27605107469E+03  0.80397322022E+02 0.  0.
        -11    1    3    3    0    0  0.52109514315E+02 -0.19497665700E+02  0.74525860466E+02  0.93003571588E+02  0.00000000000E+00 0.  1.
         11    1    3    3    0    0 -0.24771002702E+02 -0.15588807527E+01  0.14346511802E+03  0.14559626634E+03  0.00000000000E+00 0. -1.
        -13    1    4    4    0    0 -0.18390417711E+02 -0.35208128906E+02  0.83821876670E+02  0.92757354496E+02  0.00000000000E+00 0.  1.
         13    1    4    4    0    0 -0.40479807827E+02  0.43093469636E+02  0.17349618410E+03  0.18329372020E+03  0.00000000000E+00 0. -1.
         21    1    1    2  502  501  0.31531713924E+02  0.13171205722E+02  0.17734050957E+03  0.18060284045E+03  0.00000000000E+00 0. -1.
<scales pt_clust_5="13000.00000" pt_clust_6="13000.00000" pt_clust_7="13000.00000" pt_clust_8="13000.00000" pt_clust_9="34.17206"></scales>
<clustering>
<clus scale="   34.172">  1  9  2 -1</clus>
<clus scale="   80.397">  7  8 -1 -1</clus>
<clus scale="   90.659">  5  6 -1 -1</clus>
<clus scale="   91.882">  1  7  2 -1</clus>
<clus scale="   34.172">  1  5  2 -1</clus>
</clustering>
</event>
<event>
 9    1  0.2075077E-005  0.1241368E+03  0.7546771E-02  0.1238583E+00
          1   -1    0    0  502    0  0.00000000000E+00  0.00000000000E+00  0.83450016262E+02  0.83450016262E+02  0.00000000000E+00 0. -1.
         -1   -1    0    0    0  501 -0.00000000000E+00 -0.00000000000E+00 -0.42370470660E+03  0.42370470660E+03  0.00000000000E+00 0.  1.
         23    2    1    2    0    0  0.53767809209E+02  0.37414918506E+02 -0.20784955101E+03  0.23799692731E+03  0.95656929267E+02 0.  0.
         23    2    1    2    0    0 -0.12845305553E+03 -0.17554090467E+02 -0.86962670842E+02  0.17950649077E+03  0.88610047641E+02 0.  0.
        -11    1    4    4    0    0 -0.94582188192E+02 -0.48497996543E+02 -0.39226766696E+02  0.11329865497E+03  0.00000000000E+00 0. -1.
         11    1    4    4    0    0 -0.33870867334E+02  0.30943906076E+02 -0.47735904146E+02  0.66207835804E+02  0.00000000000E+00 0.  1.
        -11    1    3    3    0    0  0.67498055670E+02 -0.81785607216E+01 -0.11333203839E+03  0.13216288170E+03  0.00000000000E+00 0.  1.
         11    1    3    3    0    0 -0.13730246461E+02  0.45593479228E+02 -0.94517512623E+02  0.10583404560E+03  0.00000000000E+00 0. -1.
         21    1    1    2  502  501  0.74685246316E+02 -0.19860828039E+02 -0.45442468481E+02  0.89651304784E+02  0.00000000000E+00 0.  1.
<scales pt_clust_5="13000.00000" pt_clust_6="13000.00000" pt_clust_7="13000.00000" pt_clust_8="13000.00000" pt_clust_9="77.28091"></scales>
<clustering>
<clus scale="   77.281">  1  9  2 -1</clus>
<clus scale="   88.610">  5  6 -1 -1</clus>
<clus scale="   95.657">  7  8 -1 -1</clus>
<clus scale="  118.792">  1  5  2 -1</clus>
<clus scale="   77.281">  1  5  2 -1</clus>
</clustering>
</event>
<event>
 9    1  0.2075077E-005  0.1123167E+03  0.7546771E-02  0.1258279E+00
          3   -1    0    0  502    0  0.00000000000E+00  0.00000000000E+00  0.27376829632E+02  0.27376829632E+02  0.00000000000E+00 0. -1.
         -3   -1    0    0    0  501 -0.00000000000E+00 -0.00000000000E+00 -0.66354408658E+03  0.66354408658E+03  0.00000000000E+00 0.  1.
         23    2    1    2    0    0 -0.60397102860E+02 -0.53400485932E+02 -0.37716888717E+03  0.39550720325E+03  0.87579429300E+02 0.  0.
         23    2    1    2    0    0  0.31765641964E+02  0.24175076049E+02 -0.19143095668E+03  0.21642485015E+03  0.92738418564E+02 0.  0.
        -11    1    4    4    0    0 -0.27192124311E+02  0.11599001750E+02 -0.22773487263E+02  0.37317290742E+02  0.00000000000E+00 0.  1.
         11    1    4    4    0    0  0.58957766275E+02  0.12576074299E+02 -0.16865746941E+03  0.17910755941E+03  0.00000000000E+00 0. -1.
        -13    1    3    3    0    0 -0.55470748273E+02  0.80241297274E+01 -0.20969640245E+03  0.21705753102E+03  0.00000000000E+00 0.  1.
         13    1    3    3    0    0 -0.49263545874E+01 -0.61424615659E+02 -0.16747248472E+03  0.17844967222E+03  0.00000000000E+00 0. -1.
         21    1    1    2  502  501  0.28631460896E+02  0.29225409883E+02 -0.67567413100E+02  0.78988862815E+02  0.00000000000E+00 0.  1.
<scales pt_clust_5="13000.00000" pt_clust_6="13000.00000" pt_clust_7="13000.00000" pt_clust_8="13000.00000" pt_clust_9="40.91314"></scales>
<clustering>
<clus scale="   40.913">  1  9  2 -1</clus>
<clus scale="   87.579">  7  8 -1 -1</clus>
<clus scale="   92.738">  5  6 -1 -1</clus>
<clus scale="  108.096">  2  7  1 -1</clus>
<clus scale="   40.913">  1  5  2 -1</clus>
</clustering>
</event>
<event>
 9    1  0.2075077E-005  0.9167648E+02  0.7546771E-02  0.1299570E+00
          2   -1    0    0  502    0  0.00000000000E+00  0.00000000000E+00  0.12806173194E+03  0.12806173194E+03  0.00000000000E+00 0. -1.
         -2   -1    0    0    0  501 -0.00000000000E+00 -0.00000000000E+00 -0.10362160301E+03  0.10362160301E+03  0.00000000000E+00 0.  1.
         23    2    1    2    0    0 -0.28803783150E+01  0.19738601735E+01 -0.16714826831E+02  0.91748463235E+02  0.90145451171E+02 0.  0.
         23    2    1    2    0    0 -0.63342992157E+01  0.19076651889E+02  0.87664229084E+00  0.93562715449E+02  0.91373799454E+02 0.  0.
        -11    1    3    3    0    0  0.82560507037E+01  0.39747406177E+02  0.12765388140E+02  0.42555537894E+02  0.00000000000E+00 0. -1.
         11    1    3    3    0    0 -0.11136429019E+02 -0.37773546004E+02 -0.29480214970E+02  0.49192925342E+02  0.00000000000E+00 0.  1.
        -13    1    4    4    0    0 -0.48065970450E+02  0.59056047212E+01 -0.75077928417E+01  0.49005924497E+02  0.00000000000E+00 0. -1.
         13    1    4    4    0    0  0.41731671234E+02  0.13171047168E+02  0.83844351326E+01  0.44556790953E+02  0.00000000000E+00 0.  1.
         21    1    1    2  502  501  0.92146775307E+01 -0.21050512063E+02  0.40278313475E+02  0.46372156263E+02  0.00000000000E+00 0.  1.
<scales pt_clust_5="13000.00000" pt_clust_6="13000.00000" pt_clust_7="13000.00000" pt_clust_8="13000.00000" pt_clust_9="22.97900"></scales>
<clustering>
<clus scale="   22.979">  1  9  2 -1</clus>
<clus scale="   90.145">  5  6 -1 -1</clus>
<clus scale="   90.452">  2  5  1 -1</clus>
<clus scale="   91.374">  7  8 -1 -1</clus>
<clus scale="   22.979">  1  5  2 -1</clus>
</clustering>
</event>
<event>
 9    1  0.2075077E-005  0.9435098E+02  0.7546771E-02  0.1294555E+00
          1   -1    0    0  502    0  0.00000000000E+00  0.00000000000E+00  0.85652827854E+02  0.85652827854E+02  0.00000000000E+00 0. -1.
         -1   -1    0    0    0  501 -0.00000000000E+00 -0.00000000000E+00 -0.21956120054E+03  0.21956120054E+03  0.00000000000E+00 0.  1.
         23    2    1    2    0    0  0.73229155673E+01 -0.77451634318E+00 -0.15371984037E+03  0.17860550907E+03  0.90641676830E+02 0.  0.
         23    2    1    2    0    0 -0.91947846825E+01 -0.26220642427E+02  0.16239665430E+02  0.99313826392E+02  0.93954474213E+02 0.  0.
        -11    1    3    3    0    0 -0.36021514361E+02  0.21658604974E+02 -0.66898704760E+02  0.79006843785E+02  0.00000000000E+00 0.  1.
         11    1    3    3    0    0  0.43344429928E+02 -0.22433121317E+02 -0.86821135614E+02  0.99598665288E+02  0.00000000000E+00 0. -1.
        -13    1    4    4    0    0  0.24627598036E+02 -0.48391373360E+02  0.21763729517E+02  0.58497038585E+02  0.00000000000E+00 0. -1.
         13    1    4    4    0    0 -0.33822382719E+02  0.22170730933E+02 -0.55240640866E+01  0.40816787807E+02  0.00000000000E+00 0.  1.
         21    1    1    2  502  501  0.18718691152E+01  0.26995158771E+02  0.35718022526E+01  0.27294692934E+02  0.00000000000E+00 0. -1.
<scales pt_clust_5="13000.00000" pt_clust_6="13000.00000" pt_clust_7="13000.00000" pt_clust_8="13000.00000" pt_clust_9="27.05998"></scales>
<clustering>
<clus scale="   27.060">  1  9  2 -1</clus>
<clus scale="   90.642">  5  6 -1 -1</clus>
<clus scale="   91.053">  2  5  1 -1</clus>
<clus scale="   93.954">  7  8 -1 -1</clus>
<clus scale="   27.060">  1  5  2 -1</clus>
</clustering>
</event>
<event>
 9    1  0.2075077E-005  0.9704583E+02  0.7546771E-02  0.1289099E+00
          1   -1    0    0  502    0  0.00000000000E+00  0.00000000000E+00  0.33498194502E+03  0.33498194502E+03  0.00000000000E+00 0. -1.
         -1   -1    0    0    0  501 -0.00000000000E+00 -0.00000000000E+00 -0.45952233131E+02  0.45952233131E+02  0.00000000000E+00 0.  1.
         23    2    1    2    0    0 -0.10531917323E+01 -0.34655385518E+02  0.47960143147E+02  0.10622423867E+03  0.88211725939E+02 0.  0.
         23    2    1    2    0    0 -0.21863179372E+02  0.12735222333E+02  0.14925425324E+03  0.17757237836E+03  0.92816663085E+02 0.  0.
        -11    1    4    4    0    0 -0.15066489575E+02  0.36080138179E+02  0.16213250061E+02  0.42327827214E+02  0.00000000000E+00 0.  1.
         11    1    4    4    0    0 -0.67966897970E+01 -0.23344915845E+02  0.13304100318E+03  0.13524455115E+03  0.00000000000E+00 0. -1.
        -13    1    3    3    0    0  0.43079827159E+02 -0.23568220567E+02  0.28077738922E+02  0.56565819641E+02  0.00000000000E+00 0. -1.
         13    1    3    3    0    0 -0.44133018891E+02 -0.11087164951E+02  0.19882404225E+02  0.49658419033E+02  0.00000000000E+00 0.  1.
         21    1    1    2  502  501  0.22916371104E+02  0.21920163184E+02  0.91815315504E+02  0.97137561117E+02  0.00000000000E+00 0.  1.
<scales pt_clust_5="13000.00000" pt_clust_6="13000.00000" pt_clust_7="13000.00000" pt_clust_8="13000.00000" pt_clust_9="31.71204"></scales>
<clustering>
<clus scale="   31.712">  1  9  2 -1</clus>
<clus scale="   88.212">  7  8 -1 -1</clus>
<clus scale="   92.651">  2  7  1 -1</clus>
<clus scale="   92.817">  5  6 -1 -1</clus>
<clus scale="   31.712">  1  5  2 -1</clus>
</clustering>
</event>
<event>
 9    1  0.2075077E-005  0.9262532E+02  0.7546771E-02  0.1300318E+00
          4   -1    0    0  502    0  0.00000000000E+00  0.00000000000E+00  0.40085055634E+03  0.40085055634E+03  0.00000000000E+00 0. -1.
         -4   -1    0    0    0  501 -0.00000000000E+00 -0.00000000000E+00 -0.47891509819E+02  0.47891509819E+02  0.00000000000E+00 0.  1.
         23    2    1    2    0    0 -0.96656540498E-01 -0.21845454604E+02  0.20458155348E+02  0.89783240287E+02  0.84647864042E+02 0.  0.
         23    2    1    2    0    0 -0.21615616166E+02  0.12991449622E+01  0.17243514262E+03  0.19612572885E+03  0.90898297383E+02 0.  0.
        -11    1    3    3    0    0  0.38140906494E+02 -0.22740247820E+01  0.26367356415E+02  0.46423457661E+02  0.00000000000E+00 0. -1.
         11    1    3    3    0    0 -0.38237563035E+02 -0.19571429822E+02 -0.59092010666E+01  0.43359782626E+02  0.00000000000E+00 0.  1.
        -13    1    4    4    0    0  0.26059364780E+02  0.28209679289E+02  0.63554947946E+02  0.74257039443E+02  0.00000000000E+00 0. -1.
         13    1    4    4    0    0 -0.47674980946E+02 -0.26910534327E+02  0.10888019467E+03  0.12186868941E+03  0.00000000000E+00 0.  1.
         21    1    1    2  502  501  0.21712272707E+02  0.20546309642E+02  0.16006574855E+03  0.16283309702E+03  0.00000000000E+00 0. -1.
<scales pt_clust_5="13000.00000" pt_clust_6="13000.00000" pt_clust_7="13000.00000" pt_clust_8="13000.00000" pt_clust_9="29.89270"></scales>
<clustering>
<clus scale="   29.893">  1  9  2 -1</clus>
<clus scale="   84.648">  5  6 -1 -1</clus>
<clus scale="   86.500">  2  5  1 -1</clus>
<clus scale="   90.898">  7  8 -1 -1</clus>
<clus scale="   29.893">  1  5  2 -1</clus>
</clustering>
</event>
<event>
 9    1  0.2075077E-005  0.9960711E+02  0.7546771E-02  0.1281193E+00
          3   -1    0    0  502    0  0.00000000000E+00  0.00000000000E+00  0.84031881241E+03  0.84031881241E+03  0.00000000000E+00 0. -1.
         -3   -1    0    0    0  501 -0.00000000000E+00 -0.00000000000E+00 -0.17188404774E+02  0.17188404774E+02  0.00000000000E+00 0.  1.
         23    2    1    2    0    0 -0.14753715961E+02  0.29465770987E+02  0.22469033063E+03  0.24464717149E+03  0.90997747477E+02 0.  0.
         23    2    1    2    0    0  0.12070861694E+02 -0.54326633411E+02  0.46585595967E+03  0.47793855609E+03  0.91139450487E+02 0.  0.
        -11    1    4    4    0    0  0.49824506489E+02 -0.24780914953E+02  0.19132483084E+03  0.19925302028E+03  0.00000000000E+00 0. -1.
         11    1    4    4    0    0 -0.37753644795E+02 -0.29545718458E+02  0.27453112882E+03  0.27868553581E+03  0.00000000000E+00 0.  1.
        -13    1    3    3    0    0  0.20229954993E+02 -0.22208520461E+02  0.42339215098E+02  0.51914146388E+02  0.00000000000E+00 0.  1.
         13    1    3    3    0    0 -0.34983670954E+02  0.51674291448E+02  0.18235111553E+03  0.19273302510E+03  0.00000000000E+00 0. -1.
         21    1    1    2  502  501  0.26828542668E+01  0.24860862424E+02  0.13258411733E+03  0.13492148960E+03  0.00000000000E+00 0.  1.
<scales pt_clust_5="13000.00000" pt_clust_6="13000.00000" pt_clust_7="13000.00000" pt_clust_8="13000.00000" pt_clust_9="25.00520"></scales>
<clustering>
<clus scale="   25.005">  1  9  2 -1</clus>
<clus scale="   90.998">  7  8 -1 -1</clus>
<clus scale="   91.139">  5  6 -1 -1</clus>
<clus scale="   99.477">  2  7  1 -1</clus>
<clus scale="   25.005">  1  5  2 -1</clus>
</clustering>
</event>
<event>
 9    1  0.2075077E-005  0.1378699E+03  0.7546771E-02  0.1216428E+00
          1   -1    0    0  502    0  0.00000000000E+00  0.00000000000E+00  0.32639052995E+03  0.32639052995E+03  0.00000000000E+00 0. -1.
         -1   -1    0    0    0  501 -0.00000000000E+00 -0.00000000000E+00 -0.13976184154E+03  0.13976184154E+03  0.00000000000E+00 0.  1.
         23    2    1    2    0    0  0.68902581323E+02 -0.74657366598E+02 -0.63673451606E+02  0.15038810129E+03  0.90779868192E+02 0.  0.
         23    2    1    2    0    0 -0.90339840179E+02  0.68546873166E+02  0.13357088997E+03  0.19692370921E+03  0.89876604630E+02 0.  0.
        -11    1    3    3    0    0  0.29446333119E+02  0.13997644219E+02  0.28626794724E+01  0.32729428831E+02  0.00000000000E+00 0. -1.
         11    1    3    3    0    0  0.39456248204E+02 -0.88655010817E+02 -0.66536131078E+02  0.11765867246E+03  0.00000000000E+00 0.  1.
        -11    1    4    4    0    0 -0.24857743586E+02  0.68874036572E+02  0.98213776398E+02  0.12250504563E+03  0.00000000000E+00 0. -1.
         11    1    4    4    0    0 -0.65482096593E+02 -0.32716340577E+00  0.35357113568E+02  0.74418663587E+02  0.00000000000E+00 0.  1.
         21    1    1    2  502  501  0.21437258857E+02  0.61104934326E+01  0.11673125005E+03  0.11884056098E+03  0.00000000000E+00 0.  1.
<scales pt_clust_5="13000.00000" pt_clust_6="13000.00000" pt_clust_7="13000.00000" pt_clust_8="13000.00000" pt_clust_9="22.29112"></scales>
<clustering>
<clus scale="   22.291">  1  9  2 -1</clus>
<clus scale="   89.877">  7  8 -1 -1</clus>
<clus scale="   90.780">  5  6 -1 -1</clus>
<clus scale="  137.277">  1  7  2 -1</clus>
<clus scale="   22.291">  1  5  2 -1</clus>
</clustering>
</event>
<event>
 9    1  0.2075077E-005  0.9203131E+02  0.7546771E-02  0.1298136E+00
         -2   -1    0    0    0  501 -0.00000000000E+00  0.00000000000E+00  0.45263936166E+03  0.45263936166E+03  0.00000000000E+00 0.  1.
          2   -1    0    0  502    0  0.00000000000E+00 -0.00000000000E+00 -0.15446885769E+03  0.15446885769E+03  0.00000000000E+00 0. -1.
         23    2    1    2    0    0 -0.22325562954E+02  0.82420651992E+01  0.23866977577E+03  0.25650728414E+03  0.90919538877E+02 0.  0.
         23    2    1    2    0    0 -0.43480351464E+02  0.56254117566E+02  0.17097122585E+03  0.20597781186E+03  0.90225452068E+02 0.  0.
        -11    1    4    4    0    0 -0.42996353021E+02  0.47834845785E+00  0.25059666168E+02  0.49768484594E+02  0.00000000000E+00 0. -1.
         11    1    4    4    0    0 -0.48399844354E+00  0.55775769108E+02  0.14591155968E+03  0.15620932726E+03  0.00000000000E+00 0.  1.
        -13    1    3    3    0    0  0.28459662878E+02  0.22700465735E+02  0.13931227589E+03  0.14399018636E+03  0.00000000000E+00 0.  1.
         13    1    3    3    0    0 -0.50785225832E+02 -0.14458400536E+02  0.99357499884E+02  0.11251709778E+03  0.00000000000E+00 0. -1.
         21    1    1    2  502  501  0.65805914418E+02 -0.64496182765E+02 -0.11147049765E+03  0.14462312336E+03  0.00000000000E+00 0. -1.
<scales pt_clust_5="13000.00000" pt_clust_6="13000.00000" pt_clust_7="13000.00000" pt_clust_8="13000.00000" pt_clust_9="92.14215"></scales>
<clustering>
<clus scale="   90.225">  5  6 -1 -1</clus>
<clus scale="   90.920">  7  8 -1 -1</clus>
<clus scale="   92.142">  2  9  1 -1</clus>
<clus scale="   92.142">  2  5  1 -1</clus>
<clus scale="   92.031">  2  5  1 -1</clus>
</clustering>
</event>
<event>
 9    1  0.2075077E-005  0.9661153E+02  0.7546771E-02  0.1290361E+00
         -1   -1    0    0    0  501 -0.00000000000E+00  0.00000000000E+00  0.18202251882E+03  0.18202251882E+03  0.00000000000E+00 0.  1.
          1   -1    0    0  502    0  0.00000000000E+00 -0.00000000000E+00 -0.69984197996E+02  0.69984197996E+02  0.00000000000E+00 0. -1.
         23    2    1    2    0    0  0.22574931232E+02  0.27278268599E+02  0.66038128373E+02  0.11437629329E+03  0.86412791928E+02 0.  0.
         23    2    1    2    0    0  0.50878122863E+00 -0.29645857009E+02  0.57072105000E+02  0.11191952111E+03  0.91594859787E+02 0.  0.
        -11    1    4    4    0    0  0.50050905195E+00  0.30940715096E+02  0.36688170889E+02  0.47995835686E+02  0.00000000000E+00 0.  1.
         11    1    4    4    0    0  0.82721766746E-02 -0.60586572105E+02  0.20383934111E+02  0.63923685421E+02  0.00000000000E+00 0. -1.
        -11    1    3    3    0    0  0.50173298569E+02  0.14979814515E+01  0.56193550267E+02  0.75347985569E+02  0.00000000000E+00 0.  1.
         11    1    3    3    0    0 -0.27598367337E+02  0.25780287147E+02  0.98445781067E+01  0.39028307716E+02  0.00000000000E+00 0. -1.
         21    1    1    2  502  501 -0.23083712460E+02  0.23675884105E+01 -0.11071912552E+02  0.25710902423E+02  0.00000000000E+00 0. -1.
<scales pt_clust_5="13000.00000" pt_clust_6="13000.00000" pt_clust_7="13000.00000" pt_clust_8="13000.00000" pt_clust_9="23.20481"></scales>
<clustering>
<clus scale="   23.205">  2  9  1 -1</clus>
<clus scale="   86.413">  7  8 -1 -1</clus>
<clus scale="   91.595">  5  6 -1 -1</clus>
<clus scale="   91.713">  1  7  2 -1</clus>
<clus scale="   23.205">  2  5  1 -1</clus>
</clustering>
</event>
<event>
 9    1  0.2075077E-005  0.9649832E+02  0.7546771E-02  0.1288287E+00
          1   -1    0    0  502    0  0.00000000000E+00  0.00000000000E+00  0.45876046242E+03  0.45876046242E+03  0.00000000000E+00 0. -1.
         -1   -1    0    0    0  501 -0.00000000000E+00 -0.00000000000E+00 -0.50416808152E+02  0.50416808152E+02  0.00000000000E+00 0.  1.
         23    2    1    2    0    0  0.75154902331E+02  0.15762553389E+02  0.74189493593E+02  0.13938976755E+03  0.89603063028E+02 0.  0.
         23    2    1    2    0    0 -0.23391329588E+02  0.38504008254E+01  0.26613703860E+03  0.28209221049E+03  0.90471608922E+02 0.  0.
        -11    1    4    4    0    0  0.34891805439E+02  0.23173379239E+01  0.11001610861E+03  0.11543982110E+03  0.00000000000E+00 0. -1.
         11    1    4    4    0    0 -0.58283135026E+02  0.15330629015E+01  0.15612092999E+03  0.16665238939E+03  0.00000000000E+00 0.  1.
        -13    1    3    3    0    0 -0.68369758286E+01  0.20909541251E+02 -0.77831237471E+01  0.23335170217E+02  0.00000000000E+00 0. -1.
         13    1    3    3    0    0  0.81991878160E+02 -0.51469878619E+01  0.81972617340E+02  0.11605459733E+03  0.00000000000E+00 0.  1.
         21    1    1    2  502  501 -0.51763572743E+02 -0.19612954214E+02  0.68017122076E+02  0.87695292529E+02  0.00000000000E+00 0.  1.
<scales pt_clust_5="13000.00000" pt_clust_6="13000.00000" pt_clust_7="13000.00000" pt_clust_8="13000.00000" pt_clust_9="55.35463"></scales>
<clustering>
<clus scale="   55.355">  2  9  1 -1</clus>
<clus scale="   89.603">  7  8 -1 -1</clus>
<clus scale="   90.472">  5  6 -1 -1</clus>
<clus scale="   95.684">  2  7  1 -1</clus>
<clus scale="   96.498">  1  5  2 -1</clus>
</clustering>
</event>
<event>
 9    1  0.2075077E-005  0.1075582E+03  0.7546771E-02  0.1265684E+00
         -2   -1    0    0    0  501 -0.00000000000E+00  0.00000000000E+00  0.68650611567E+02  0.68650611567E+02  0.00000000000E+00 0.  1.
          2   -1    0    0  502    0  0.00000000000E+00 -0.00000000000E+00 -0.29340899344E+03  0.29340899344E+03  0.00000000000E+00 0. -1.
         23    2    1    2    0    0  0.44025276569E+01 -0.42262337264E+02 -0.31794706328E+02  0.10403501535E+03  0.89481247575E+02 0.  0.
         23    2    1    2    0    0 -0.56700416823E+02  0.43131109893E+02 -0.15571044873E+03  0.19380911734E+03  0.90779954898E+02 0.  0.
        -11    1    4    4    0    0 -0.46531190897E+02 -0.20563916889E+02 -0.66799112666E+02  0.83965158591E+02  0.00000000000E+00 0.  1.
         11    1    4    4    0    0 -0.10169225925E+02  0.63695026783E+02 -0.88911336063E+02  0.10984395875E+03  0.00000000000E+00 0. -1.
        -11    1    3    3    0    0 -0.36106242337E+02 -0.53857262197E+01  0.66558611021E+01  0.37107509612E+02  0.00000000000E+00 0.  1.
         11    1    3    3    0    0  0.40508769994E+02 -0.36876611045E+02 -0.38450567430E+02  0.66927505738E+02  0.00000000000E+00 0. -1.
         21    1    1    2  502  501  0.52297889166E+02 -0.86877262927E+00 -0.37253226816E+02  0.64215472320E+02  0.00000000000E+00 0. -1.
<scales pt_clust_5="13000.00000" pt_clust_6="13000.00000" pt_clust_7="13000.00000" pt_clust_8="13000.00000" pt_clust_9="52.30510"></scales>
<clustering>
<clus scale="   52.305">  1  9  2 -1</clus>
<clus scale="   89.481">  7  8 -1 -1</clus>
<clus scale="   90.780">  5  6 -1 -1</clus>
<clus scale="  106.464">  1  7  2 -1</clus>
<clus scale="  107.558">  2  5  1 -1</clus>
</clustering>
</event>
<event>
 9    1  0.2075077E-005  0.1114569E+03  0.7546771E-02  0.1258436E+00
         -2   -1    0    0    0  501 -0.00000000000E+00  0.00000000000E+00  0.14865703709E+03  0.14865703709E+03  0.00000000000E+00 0.  1.
          2   -1    0    0  502    0  0.00000000000E+00 -0.00000000000E+00 -0.14540110575E+03  0.14540110575E+03  0.00000000000E+00 0. -1.
         23    2    1    2    0    0  0.24818264201E+02  0.88389517565E+02  0.40731015680E+02  0.13627637187E+03  0.92106356119E+02 0.  0.
         23    2    1    2    0    0 -0.20325792465E+02 -0.47889004942E+02 -0.48974112765E+02  0.11544146535E+03  0.90673996095E+02 0.  0.
        -11    1    3    3    0    0  0.55943361849E+02  0.44662228664E+02  0.41212841522E+02  0.82600682264E+02  0.00000000000E+00 0.  1.
         11    1    3    3    0    0 -0.31125097648E+02  0.43727288901E+02 -0.48182584252E+00  0.53675689603E+02  0.00000000000E+00 0. -1.
        -11    1    4    4    0    0  0.15961898325E+02 -0.62795338715E+02 -0.35999601553E+02  0.74121576308E+02  0.00000000000E+00 0.  1.
         11    1    4    4    0    0 -0.36287690790E+02  0.14906333773E+02 -0.12974511213E+02  0.41319889044E+02  0.00000000000E+00 0. -1.
         21    1    1    2  502  501 -0.44924717355E+01 -0.40500512623E+02  0.11499028433E+02  0.42340305619E+02  0.00000000000E+00 0.  1.
<scales pt_clust_5="13000.00000" pt_clust_6="13000.00000" pt_clust_7="13000.00000" pt_clust_8="13000.00000" pt_clust_9="40.74891"></scales>
<clustering>
<clus scale="   40.749">  1  9  2 -1</clus>
<clus scale="   90.674">  7  8 -1 -1</clus>
<clus scale="   92.106">  5  6 -1 -1</clus>
<clus scale="  110.276">  2  7  1 -1</clus>
<clus scale="  110.276">  2  5  1 -1</clus>
</clustering>
</event>
<event>
 9    1  0.2075077E-005  0.1025477E+03  0.7546771E-02  0.1275890E+00
          2   -1    0    0  502    0  0.00000000000E+00  0.00000000000E+00  0.47466125747E+03  0.47466125747E+03  0.00000000000E+00 0. -1.
         -2   -1    0    0    0  501 -0.00000000000E+00 -0.00000000000E+00 -0.50754804909E+02  0.50754804909E+02  0.00000000000E+00 0.  1.
         23    2    1    2    0    0  0.23946590060E+02 -0.48022701804E+02  0.71560212760E+02  0.12762097941E+03  0.91030935792E+02 0.  0.
         23    2    1    2    0    0  0.97953029503E+01  0.36291096738E+02  0.95330451477E+02  0.13830854893E+03  0.92889009388E+02 0.  0.
        -11    1    3    3    0    0  0.56617886410E+02 -0.43881661997E+02  0.57313146421E+02  0.91738661827E+02  0.00000000000E+00 0.  1.
         11    1    3    3    0    0 -0.32671296350E+02 -0.41410398076E+01  0.14247066339E+02  0.35882317583E+02  0.00000000000E+00 0. -1.
        -13    1    4    4    0    0 -0.57253086607E+01 -0.30051218056E+02  0.41055167885E+02  0.51199430426E+02  0.00000000000E+00 0.  1.
         13    1    4    4    0    0  0.15520611611E+02  0.66342314794E+02  0.54275283591E+02  0.87109118500E+02  0.00000000000E+00 0. -1.
         21    1    1    2  502  501 -0.33741893010E+02  0.11731605067E+02  0.25701578832E+03  0.25948653404E+03  0.00000000000E+00 0. -1.
<scales pt_clust_5="13000.00000" pt_clust_6="13000.00000" pt_clust_7="13000.00000" pt_clust_8="13000.00000" pt_clust_9="35.72318"></scales>
<clustering>
<clus scale="   35.723">  1  9  2 -1</clus>
<clus scale="   91.031">  5  6 -1 -1</clus>
<clus scale="   92.889">  7  8 -1 -1</clus>
<clus scale="  100.868">  2  5  1 -1</clus>
<clus scale="   35.723">  1  5  2 -1</clus>
</clustering>
</event>
<event>
 9    1  0.2075077E-005  0.1170485E+03  0.7546771E-02  0.1248920E+00
         -2   -1    0    0    0  501 -0.00000000000E+00  0.00000000000E+00  0.43097754303E+03  0.43097754303E+03  0.00000000000E+00 0.  1.
          2   -1    0    0  502    0  0.00000000000E+00 -0.00000000000E+00 -0.62757013133E+02  0.62757013133E+02  0.00000000000E+00 0. -1.
         23    2    1    2    0    0  0.60910586128E+02  0.32014978604E+01  0.17482927500E+03  0.20550799804E+03  0.89151067131E+02 0.  0.
         23    2    1    2    0    0 -0.83975990981E+02 -0.18818499476E+02  0.21758472452E+03  0.25133173989E+03  0.91751992601E+02 0.  0.
        -13    1    3    3    0    0  0.61772987406E+02  0.31986252693E+02  0.15678482185E+03  0.17152405865E+03  0.00000000000E+00 0.  1.
         13    1    3    3    0    0 -0.86240127819E+00 -0.28784754833E+02  0.18044453150E+02  0.33983939387E+02  0.00000000000E+00 0. -1.
        -13    1    4    4    0    0 -0.44197620624E+02 -0.47482984562E+02  0.68276975805E+02  0.94179662968E+02  0.00000000000E+00 0. -1.
         13    1    4    4    0    0 -0.39778370357E+02  0.28664485086E+02  0.14930774871E+03  0.15715207692E+03  0.00000000000E+00 0.  1.
         21    1    1    2  502  501  0.23065404853E+02  0.15617001616E+02 -0.24193469621E+02  0.36894818238E+02  0.00000000000E+00 0.  1.
<scales pt_clust_5="13000.00000" pt_clust_6="13000.00000" pt_clust_7="13000.00000" pt_clust_8="13000.00000" pt_clust_9="27.85505"></scales>
<clustering>
<clus scale="   27.855">  2  9  1 -1</clus>
<clus scale="   89.151">  5  6 -1 -1</clus>
<clus scale="   91.752">  7  8 -1 -1</clus>
<clus scale="  115.021">  1  5  2 -1</clus>
<clus scale="   27.855">  2  5  1 -1</clus>
</clustering>
</event>
<event>
 9    1  0.2075077E-005  0.1052796E+03  0.7546771E-02  0.1270818E+00
         -2   -1    0    0    0  501 -0.00000000000E+00  0.00000000000E+00  0.25669011498E+02  0.25669011498E+02  0.00000000000E+00 0. -1.
          2   -1    0    0  502    0  0.00000000000E+00 -0.00000000000E+00 -0.72216895471E+03  0.72216895471E+03  0.00000000000E+00 0.  1.
         23    2    1    2    0    0 -0.49569859343E+01  0.40524886717E+02 -0.20155055458E+03  0.22690477753E+03  0.95897413206E+02 0.  0.
         23    2    1    2    0    0 -0.31663800707E+02 -0.43124420769E+02 -0.23473178152E+03  0.25813851095E+03  0.93135222336E+02 0.  0.
        -11    1    4    4    0    0  0.35214182306E+01 -0.65559794564E+02 -0.14082758724E+03  0.15537984547E+03  0.00000000000E+00 0.  1.
         11    1    4    4    0    0 -0.35185218937E+02  0.22435373795E+02 -0.93904194279E+02  0.10275866548E+03  0.00000000000E+00 0. -1.
        -11    1    3    3    0    0  0.24076188887E+02 -0.23565374346E+02 -0.71568673984E+02  0.79101610826E+02  0.00000000000E+00 0.  1.
         11    1    3    3    0    0 -0.29033174821E+02  0.64090261063E+02 -0.12998188060E+03  0.14780316670E+03  0.00000000000E+00 0. -1.
         21    1    1    2  502  501  0.36620786641E+02  0.25995340522E+01 -0.26021760711E+03  0.26279467772E+03  0.00000000000E+00 0. -1.
<scales pt_clust_5="13000.00000" pt_clust_6="13000.00000" pt_clust_7="13000.00000" pt_clust_8="13000.00000" pt_clust_9="36.71293"></scales>
<clustering>
<clus scale="   36.713">  2  9  1 -1</clus>
<clus scale="   93.135">  5  6 -1 -1</clus>
<clus scale="   95.897">  7  8 -1 -1</clus>
<clus scale="  102.770">  2  5  1 -1</clus>
<clus scale="   36.713">  2  5  1 -1</clus>
</clustering>
</event>
<event>
 9    1  0.2075077E-005  0.1006150E+03  0.7546771E-02  0.1280714E+00
          1   -1    0    0  502    0  0.00000000000E+00  0.00000000000E+00  0.37091209727E+03  0.37091209727E+03  0.00000000000E+00 0. -1.
         -1   -1    0    0    0  501 -0.00000000000E+00 -0.00000000000E+00 -0.44827813313E+02  0.44827813313E+02  0.00000000000E+00 0.  1.
         23    2    1    2    0    0 -0.50951780925E+01 -0.36695128208E+02  0.64494250426E+02  0.11720111928E+03  0.90576491153E+02 0.  0.
         23    2    1    2    0    0 -0.29222395070E+02  0.27606345778E+02  0.22701700877E+03  0.24898482239E+03  0.94024788259E+02 0.  0.
        -13    1    4    4    0    0  0.28500851831E+02  0.31569442910E+02  0.73389407327E+02  0.84822953194E+02  0.00000000000E+00 0.  1.
         13    1    4    4    0    0 -0.57723246901E+02 -0.39630971329E+01  0.15362760145E+03  0.16416186920E+03  0.00000000000E+00 0. -1.
        -13    1    3    3    0    0 -0.19130227515E+02  0.18966095489E+02 -0.46471172981E+01  0.27336314347E+02  0.00000000000E+00 0.  1.
         13    1    3    3    0    0  0.14035049423E+02 -0.55661223697E+02  0.69141367724E+02  0.89864804937E+02  0.00000000000E+00 0. -1.
         21    1    1    2  502  501  0.34317573163E+02  0.90887824300E+01  0.34573024759E+02  0.49553968911E+02  0.00000000000E+00 0.  1.
<scales pt_clust_5="13000.00000" pt_clust_6="13000.00000" pt_clust_7="13000.00000" pt_clust_8="13000.00000" pt_clust_9="35.50073"></scales>
<clustering>
<clus scale="   35.501">  2  9  1 -1</clus>
<clus scale="   90.576">  7  8 -1 -1</clus>
<clus scale="   94.025">  5  6 -1 -1</clus>
<clus scale="   97.400">  2  7  1 -1</clus>
<clus scale="  100.615">  1  5  2 -1</clus>
</clustering>
</event>
<event>
 9    1  0.2075077E-005  0.1093076E+03  0.7546771E-02  0.1263459E+00
          2   -1    0    0  502    0  0.00000000000E+00  0.00000000000E+00  0.13550813607E+03  0.13550813607E+03  0.00000000000E+00 0. -1.
         -2   -1    0    0    0  501 -0.00000000000E+00 -0.00000000000E+00 -0.24437175848E+03  0.24437175848E+03  0.00000000000E+00 0.  1.
         23    2    1    2    0    0  0.58169556972E+02  0.99811666926E+01 -0.18883435133E+03  0.21776728449E+03  0.90999213752E+02 0.  0.
         23    2    1    2    0    0 -0.74013108273E+02  0.74502760908E+01  0.78022452880E+02  0.13847642816E+03  0.86918186770E+02 0.  0.
        -11    1    3    3    0    0  0.82242931446E+02 -0.15956760998E+00 -0.14717962414E+03  0.16859942763E+03  0.00000000000E+00 0.  1.
         11    1    3    3    0    0 -0.24073374474E+02  0.10140734303E+02 -0.41654727196E+02  0.49167856864E+02  0.00000000000E+00 0. -1.
        -13    1    4    4    0    0 -0.63711058940E+01  0.38084219822E+02  0.37761218677E+02  0.54008410694E+02  0.00000000000E+00 0.  1.
         13    1    4    4    0    0 -0.67642002379E+02 -0.30633943731E+02  0.40261234203E+02  0.84468017462E+02  0.00000000000E+00 0. -1.
         21    1    1    2  502  501  0.15843551301E+02 -0.17431442783E+02  0.19482760406E+01  0.23636181901E+02  0.00000000000E+00 0. -1.
<scales pt_clust_5="13000.00000" pt_clust_6="13000.00000" pt_clust_7="13000.00000" pt_clust_8="13000.00000" pt_clust_9="23.55575"></scales>
<clustering>
<clus scale="   23.556">  1  9  2 -1</clus>
<clus scale="   86.918">  7  8 -1 -1</clus>
<clus scale="   90.999">  5  6 -1 -1</clus>
<clus scale="  105.934">  1  7  2 -1</clus>
<clus scale="   23.556">  1  5  2 -1</clus>
</clustering>
</event>
<event>
 9    1  0.2075077E-005  0.1078455E+03  0.7546771E-02  0.1265774E+00
         -1   -1    0    0    0  501 -0.00000000000E+00  0.00000000000E+00  0.17718710945E+03  0.17718710945E+03  0.00000000000E+00 0.  1.
          1   -1    0    0  502    0  0.00000000000E+00 -0.00000000000E+00 -0.23978928430E+03  0.23978928430E+03  0.00000000000E+00 0. -1.
         23    2    1    2    0    0 -0.29891808334E+02 -0.43781627116E+02  0.12825007773E+03  0.16656266421E+03  0.92112363950E+02 0.  0.
         23    2    1    2    0    0  0.56786862241E+02  0.53524456972E+02 -0.99828474657E+02  0.15500096937E+03  0.89274637689E+02 0.  0.
        -13    1    4    4    0    0  0.50078859088E+02 -0.11167720565E+02 -0.29399924886E+02  0.59135147700E+02  0.00000000000E+00 0.  1.
         13    1    4    4    0    0  0.67080031537E+01  0.64692177537E+02 -0.70428549771E+02  0.95865821666E+02  0.00000000000E+00 0. -1.
        -13    1    3    3    0    0  0.29511023914E+02 -0.30599845535E+02  0.72457779761E+02  0.84008219402E+02  0.00000000000E+00 0.  1.
         13    1    3    3    0    0 -0.59402832248E+02 -0.13181781581E+02  0.55792297965E+02  0.82554444804E+02  0.00000000000E+00 0. -1.
         21    1    1    2  502  501 -0.26895053908E+02 -0.97428298563E+01 -0.91023777918E+02  0.95412760178E+02  0.00000000000E+00 0.  1.
<scales pt_clust_5="13000.00000" pt_clust_6="13000.00000" pt_clust_7="13000.00000" pt_clust_8="13000.00000" pt_clust_9="28.60536"></scales>
<clustering>
<clus scale="   28.605">  2  9  1 -1</clus>
<clus scale="   89.275">  5  6 -1 -1</clus>
<clus scale="   92.112">  7  8 -1 -1</clus>
<clus scale="  105.432">  2  5  1 -1</clus>
<clus scale="   28.605">  2  5  1 -1</clus>
</clustering>
</event>
<event>
 9    1  0.2075077E-005  0.2529810E+03  0.7546771E-02  0.1111756E+00
          2   -1    0    0  502    0  0.00000000000E+00  0.00000000000E+00  0.11194187456E+04  0.11194187456E+04  0.00000000000E+00 0. -1.
         -2   -1    0    0    0  501 -0.00000000000E+00 -0.00000000000E+00 -0.10025731588E+03  0.10025731588E+03  0.00000000000E+00 0.  1.
         23    2    1    2    0    0  0.25113272178E+03  0.23676933987E+02  0.46461784964E+03  0.53729146521E+03  0.95833873067E+02 0.  0.
         23    2    1    2    0    0 -0.20247846850E+03 -0.10546070775E+03  0.53001707545E+03  0.58411267025E+03  0.90277462312E+02 0.  0.
        -11    1    3    3    0    0  0.20472656344E+03  0.43847895339E+02  0.30579202565E+03  0.37060000898E+03  0.00000000000E+00 0.  1.
         11    1    3    3    0    0  0.46406158347E+02 -0.20170961352E+02  0.15882582399E+03  0.16669145623E+03  0.00000000000E+00 0. -1.
        -13    1    4    4    0    0 -0.16452253151E+02  0.15683160295E+02  0.64124056837E+02  0.68033321364E+02  0.00000000000E+00 0.  1.
         13    1    4    4    0    0 -0.18602621535E+03 -0.12114386804E+03  0.46589301861E+03  0.51607934889E+03  0.00000000000E+00 0. -1.
         21    1    1    2  502  501 -0.48654253283E+02  0.81783773763E+02  0.24526504641E+02  0.98271926018E+02  0.00000000000E+00 0. -1.
<scales pt_clust_5="13000.00000" pt_clust_6="13000.00000" pt_clust_7="13000.00000" pt_clust_8="13000.00000" pt_clust_9="95.16208"></scales>
<clustering>
<clus scale="   90.277">  7  8 -1 -1</clus>
<clus scale="   95.162">  2  9  1 -1</clus>
<clus scale="   95.834">  5  6 -1 -1</clus>
<clus scale="  250.929">  1  7  2 -1</clus>
<clus scale="  250.929">  1  5  2 -1</clus>
</clustering>
</event>
<event>
 9    1  0.2075077E-005  0.1026398E+03  0.7546771E-02  0.1280236E+00
          1   -1    0    0  502    0  0.00000000000E+00  0.00000000000E+00  0.60877386177E+03  0.60877386177E+03  0.00000000000E+00 0. -1.
         -1   -1    0    0    0  501 -0.00000000000E+00 -0.00000000000E+00 -0.23904312516E+02  0.23904312516E+02  0.00000000000E+00 0.  1.
         23    2    1    2    0    0 -0.94864028084E+01  0.66963215945E+01  0.17053022300E+03  0.19382602287E+03  0.91395501113E+02 0.  0.
         23    2    1    2    0    0 -0.13223109525E+01  0.29809445819E+02  0.32267436108E+03  0.33959508523E+03  0.10156636770E+03 0.  0.
        -13    1    3    3    0    0 -0.43758965204E+02 -0.95435252404E+01  0.13353208414E+03  0.14084297429E+03  0.00000000000E+00 0.  1.
         13    1    3    3    0    0  0.34272562396E+02  0.16239846835E+02  0.36998138856E+02  0.52983048583E+02  0.00000000000E+00 0. -1.
        -13    1    4    4    0    0 -0.91956083248E+01  0.66237044932E+02  0.23497204703E+03  0.24430261607E+03  0.00000000000E+00 0. -1.
         13    1    4    4    0    0  0.78732973723E+01 -0.36427599112E+02  0.87702314042E+02  0.95292469152E+02  0.00000000000E+00 0.  1.
         21    1    1    2  502  501  0.10808713761E+02 -0.36505767414E+02  0.91664965181E+02  0.99257066193E+02  0.00000000000E+00 0.  1.
<scales pt_clust_5="13000.00000" pt_clust_6="13000.00000" pt_clust_7="13000.00000" pt_clust_8="13000.00000" pt_clust_9="38.07229"></scales>
<clustering>
<clus scale="   38.072">  2  9  1 -1</clus>
<clus scale="   91.396">  5  6 -1 -1</clus>
<clus scale="   92.587">  2  5  1 -1</clus>
<clus scale="  101.566">  7  8 -1 -1</clus>
<clus scale="  102.640">  1  5  2 -1</clus>
</clustering>
</event>
<event>
 9    1  0.2075077E-005  0.1089457E+03  0.7546771E-02  0.1265793E+00
          2   -1    0    0  502    0  0.00000000000E+00  0.00000000000E+00  0.17314939113E+03  0.17314939113E+03  0.00000000000E+00 0. -1.
         -2   -1    0    0    0  501 -0.00000000000E+00 -0.00000000000E+00 -0.17139038049E+03  0.17139038049E+03  0.00000000000E+00 0.  1.
         23    2    1    2    0    0 -0.36140724315E+02 -0.23786533616E+02 -0.11215404113E+03  0.15521545833E+03  0.98190419217E+02 0.  0.
         23    2    1    2    0    0  0.47442272593E+02  0.41609955842E+02  0.48619282944E+02  0.12070452298E+03  0.90684009290E+02 0.  0.
        -11    1    3    3    0    0 -0.20889049098E+02 -0.61239842914E+02 -0.53425267281E+02  0.83910249174E+02  0.00000000000E+00 0.  1.
         11    1    3    3    0    0 -0.15251675216E+02  0.37453309298E+02 -0.58728773850E+02  0.71305209152E+02  0.00000000000E+00 0. -1.
        -13    1    4    4    0    0  0.10558145982E+02 -0.28633442267E+02  0.78852273862E+01  0.31520235938E+02  0.00000000000E+00 0.  1.
         13    1    4    4    0    0  0.36884126611E+02  0.70243398109E+02  0.40734055558E+02  0.89184287046E+02  0.00000000000E+00 0. -1.
         21    1    1    2  502  501 -0.11301548278E+02 -0.17823422226E+02  0.65293768829E+02  0.68619790303E+02  0.00000000000E+00 0. -1.
<scales pt_clust_5="13000.00000" pt_clust_6="13000.00000" pt_clust_7="13000.00000" pt_clust_8="13000.00000" pt_clust_9="21.10449"></scales>
<clustering>
<clus scale="   21.104">  1  9  2 -1</clus>
<clus scale="   90.684">  7  8 -1 -1</clus>
<clus scale="   98.190">  5  6 -1 -1</clus>
<clus scale="  102.232">  1  7  2 -1</clus>
<clus scale="   21.104">  1  5  2 -1</clus>
</clustering>
</event>
<event>
 9    1  0.2075077E-005  0.1002590E+03  0.7546771E-02  0.1280557E+00
          3   -1    0    0  502    0  0.00000000000E+00  0.00000000000E+00  0.60130909635E+03  0.60130909635E+03  0.00000000000E+00 0. -1.
         -3   -1    0    0    0  501 -0.00000000000E+00 -0.00000000000E+00 -0.83460470254E+02  0.83460470254E+02  0.00000000000E+00 0.  1.
         23    2    1    2    0    0  0.23858810508E+02  0.31786420105E+02 -0.36552849377E+02  0.10565025503E+03  0.90808844544E+02 0.  0.
         23    2    1    2    0    0  0.26901811617E+02 -0.49926726611E+02  0.43133900172E+03  0.44476871081E+03  0.92463431798E+02 0.  0.
        -11    1    4    4    0    0  0.22040307703E+02 -0.77385490444E+02  0.32930657506E+03  0.33899426201E+03  0.00000000000E+00 0. -1.
         11    1    4    4    0    0  0.48615039145E+01  0.27458763833E+02  0.10203242665E+03  0.10577444881E+03  0.00000000000E+00 0.  1.
        -11    1    3    3    0    0  0.11329495714E+02 -0.31023537625E+02 -0.25231999747E+01  0.33123766363E+02  0.00000000000E+00 0. -1.
         11    1    3    3    0    0  0.12529314794E+02  0.62809957731E+02 -0.34029649402E+02  0.72526488663E+02  0.00000000000E+00 0.  1.
         21    1    1    2  502  501 -0.50760622126E+02  0.18140306505E+02  0.12306247375E+03  0.13435060076E+03  0.00000000000E+00 0. -1.
<scales pt_clust_5="13000.00000" pt_clust_6="13000.00000" pt_clust_7="13000.00000" pt_clust_8="13000.00000" pt_clust_9="53.90465"></scales>
<clustering>
<clus scale="   53.905">  1  9  2 -1</clus>
<clus scale="   90.809">  7  8 -1 -1</clus>
<clus scale="   92.463">  5  6 -1 -1</clus>
<clus scale="   98.735">  2  7  1 -1</clus>
<clus scale="   53.905">  1  5  2 -1</clus>
</clustering>
</event>
<event>
 9    1  0.2075077E-005  0.9360851E+02  0.7546771E-02  0.1296404E+00
          1   -1    0    0  502    0  0.00000000000E+00  0.00000000000E+00  0.38079556254E+03  0.38079556254E+03  0.00000000000E+00 0. -1.
         -1   -1    0    0    0  501 -0.00000000000E+00 -0.00000000000E+00 -0.69471294884E+02  0.69471294884E+02  0.00000000000E+00 0.  1.
         23    2    1    2    0    0 -0.15704038092E+01 -0.15422009184E+02 -0.20562757245E+02  0.95618996204E+02  0.92086160274E+02 0.  0.
         23    2    1    2    0    0  0.25199516288E+02  0.19529918732E+02  0.20555098047E+03  0.22605545865E+03  0.88506674689E+02 0.  0.
        -11    1    4    4    0    0  0.48729390242E+02  0.11054455844E+02  0.19032623595E+03  0.19677609245E+03  0.00000000000E+00 0. -1.
         11    1    4    4    0    0 -0.23529873954E+02  0.84754628881E+01  0.15224744524E+02  0.29279366204E+02  0.00000000000E+00 0.  1.
        -11    1    3    3    0    0  0.27859774958E+02  0.70601226545E+01 -0.43440783899E+02  0.52087561839E+02  0.00000000000E+00 0.  1.
         11    1    3    3    0    0 -0.29430178767E+02 -0.22482131839E+02  0.22878026653E+02  0.43531434365E+02  0.00000000000E+00 0. -1.
         21    1    1    2  502  501 -0.23629112479E+02 -0.41079095481E+01  0.12633604443E+03  0.12859240257E+03  0.00000000000E+00 0.  1.
<scales pt_clust_5="13000.00000" pt_clust_6="13000.00000" pt_clust_7="13000.00000" pt_clust_8="13000.00000" pt_clust_9="23.98353"></scales>
<clustering>
<clus scale="   23.984">  1  9  2 -1</clus>
<clus scale="   88.507">  5  6 -1 -1</clus>
<clus scale="   90.090">  1  5  2 -1</clus>
<clus scale="   92.086">  7  8 -1 -1</clus>
<clus scale="   23.984">  1  5  2 -1</clus>
</clustering>
</event>
<event>
 9    1  0.2075077E-005  0.1746651E+03  0.7546771E-02  0.1173422E+00
          2   -1    0    0  502    0  0.00000000000E+00  0.00000000000E+00  0.63492805422E+02  0.63492805422E+02  0.00000000000E+00 0. -1.
         -2   -1    0    0    0  501 -0.00000000000E+00 -0.00000000000E+00 -0.77166974090E+03  0.77166974090E+03  0.00000000000E+00 0.  1.
         23    2    1    2    0    0 -0.10238558022E+03  0.89030293677E+02 -0.41831581064E+03  0.44848892264E+03  0.88005659312E+02 0.  0.
         23    2    1    2    0    0  0.12660712109E+03 -0.12691950844E+03 -0.27228555756E+03  0.33839136812E+03  0.90726889221E+02 0.  0.
        -11    1    3    3    0    0 -0.42745282635E+02  0.92401966548E+02 -0.25338549850E+03  0.27307415377E+03  0.00000000000E+00 0.  1.
         11    1    3    3    0    0 -0.59640297584E+02 -0.33716728708E+01 -0.16493031214E+03  0.17541476886E+03  0.00000000000E+00 0. -1.
        -11    1    4    4    0    0  0.36734462543E+02 -0.25931182647E+02 -0.14826492370E+03  0.15493332298E+03  0.00000000000E+00 0.  1.
         11    1    4    4    0    0  0.89872658543E+02 -0.10098832580E+03 -0.12402063386E+03  0.18345804513E+03  0.00000000000E+00 0. -1.
         21    1    1    2  502  501 -0.24221540867E+02  0.37889214766E+02 -0.17575567285E+02  0.48282255570E+02  0.00000000000E+00 0. -1.
<scales pt_clust_5="13000.00000" pt_clust_6="13000.00000" pt_clust_7="13000.00000" pt_clust_8="13000.00000" pt_clust_9="44.96972"></scales>
<clustering>
<clus scale="   44.970">  1  9  2 -1</clus>
<clus scale="   88.006">  5  6 -1 -1</clus>
<clus scale="   90.727">  7  8 -1 -1</clus>
<clus scale="  173.267">  2  5  1 -1</clus>
<clus scale="   44.970">  1  5  2 -1</clus>
</clustering>
</event>
<event>
 9    1  0.2075077E-005  0.2116607E+03  0.7546771E-02  0.1141905E+00
          1   -1    0    0  502    0  0.00000000000E+00  0.00000000000E+00  0.21401498699E+03  0.21401498699E+03  0.00000000000E+00 0. -1.
         -1   -1    0    0    0  501 -0.00000000000E+00 -0.00000000000E+00 -0.26098372644E+03  0.26098372644E+03  0.00000000000E+00 0.  1.
         23    2    1    2    0    0 -0.85040412127E+02 -0.16549010145E+03 -0.24014624909E+02  0.20631132517E+03  0.85841803990E+02 0.  0.
         23    2    1    2    0    0  0.12935558598E+03  0.13467138115E+03 -0.16050483278E+02  0.21426966799E+03  0.10384904468E+03 0.  0.
        -13    1    3    3    0    0 -0.99847965657E+02 -0.11855941043E+03 -0.10917942570E+02  0.15538710216E+03  0.00000000000E+00 0. -1.
         13    1    3    3    0    0  0.14807553531E+02 -0.46930691020E+02 -0.13096682339E+02  0.50924223013E+02  0.00000000000E+00 0.  1.
        -13    1    4    4    0    0  0.96814767728E+02  0.75581781019E+02  0.37192877626E+02  0.12833166023E+03  0.00000000000E+00 0. -1.
         13    1    4    4    0    0  0.32540818255E+02  0.59089600128E+02 -0.53243360904E+02  0.85938007752E+02  0.00000000000E+00 0.  1.
         21    1    1    2  502  501 -0.44315173856E+02  0.30818720300E+02 -0.69036312590E+01  0.54417720269E+02  0.00000000000E+00 0.  1.
<scales pt_clust_5="13000.00000" pt_clust_6="13000.00000" pt_clust_7="13000.00000" pt_clust_8="13000.00000" pt_clust_9="53.97803"></scales>
<clustering>
<clus scale="   53.978">  2  9  1 -1</clus>
<clus scale="   85.842">  5  6 -1 -1</clus>
<clus scale="  103.849">  7  8 -1 -1</clus>
<clus scale="  203.432">  2  5  1 -1</clus>
<clus scale="  211.661">  1  5  2 -1</clus>
</clustering>
</event>
<event>
 9    1  0.2075077E-005  0.1092210E+03  0.7546771E-02  0.1262157E+00
          2   -1    0    0  502    0  0.00000000000E+00  0.00000000000E+00  0.30155788030E+03  0.30155788030E+03  0.00000000000E+00 0. -1.
         -2   -1    0    0    0  501 -0.00000000000E+00 -0.00000000000E+00 -0.28458420003E+03  0.28458420003E+03  0.00000000000E+00 0.  1.
         23    2    1    2    0    0 -0.45306575812E+01  0.48664652404E+02 -0.18059528902E+03  0.21044873146E+03  0.96359923754E+02 0.  0.
         23    2    1    2    0    0  0.10547084476E+03 -0.35495353811E+02 -0.70467175244E+01  0.14715466265E+03  0.96025097121E+02 0.  0.
        -13    1    4    4    0    0  0.20845074891E+01  0.22492777401E+02 -0.16894245238E+02  0.28207901886E+02  0.00000000000E+00 0. -1.
         13    1    4    4    0    0  0.10338633727E+03 -0.57988131211E+02  0.98475277134E+01  0.11894676077E+03  0.00000000000E+00 0.  1.
        -13    1    3    3    0    0  0.29392479246E+02 -0.13692644031E+02 -0.87928864773E+02  0.93717082738E+02  0.00000000000E+00 0.  1.
         13    1    3    3    0    0 -0.33923136827E+02  0.62357296435E+02 -0.92666424243E+02  0.11673164872E+03  0.00000000000E+00 0. -1.
         21    1    1    2  502  501 -0.10094018718E+03 -0.13169298593E+02  0.20461568680E+03  0.22853868622E+03  0.00000000000E+00 0. -1.
<scales pt_clust_5="13000.00000" pt_clust_6="13000.00000" pt_clust_7="13000.00000" pt_clust_8="13000.00000" pt_clust_9="101.79564"></scales>
<clustering>
<clus scale="   96.025">  5  6 -1 -1</clus>
<clus scale="   96.360">  7  8 -1 -1</clus>
<clus scale="  101.796">  1  9  2 -1</clus>
<clus scale="  108.926">  1  5  2 -1</clus>
<clus scale="  101.796">  1  5  2 -1</clus>
</clustering>
</event>
<event>
 9    1  0.2075077E-005  0.9851549E+02  0.7546771E-02  0.1286621E+00
         -2   -1    0    0    0  501 -0.00000000000E+00  0.00000000000E+00  0.49692087707E+02  0.49692087707E+02  0.00000000000E+00 0.  1.
          2   -1    0    0  502    0  0.00000000000E+00 -0.00000000000E+00 -0.31265207680E+03  0.31265207680E+03  0.00000000000E+00 0. -1.
         23    2    1    2    0    0  0.18259106002E+02  0.77214878551E+01 -0.50351014445E+02  0.11064607353E+03  0.96510686476E+02 0.  0.
         23    2    1    2    0    0 -0.37230134435E+01 -0.26911622457E+02 -0.10469515926E+03  0.14113159151E+03  0.90658444165E+02 0.  0.
        -11    1    4    4    0    0 -0.17793160365E+02 -0.56711460568E+02 -0.51963061258E+02  0.78949009182E+02  0.00000000000E+00 0.  1.
         11    1    4    4    0    0  0.14070146921E+02  0.29799838111E+02 -0.52732098003E+02  0.62182582333E+02  0.00000000000E+00 0. -1.
        -13    1    3    3    0    0  0.37769134546E+02 -0.34812614830E+02 -0.21586739482E+02  0.55717259419E+02  0.00000000000E+00 0.  1.
         13    1    3    3    0    0 -0.19510028544E+02  0.42534102685E+02 -0.28764274963E+02  0.54928814106E+02  0.00000000000E+00 0. -1.
         21    1    1    2  502  501 -0.14536092559E+02  0.19190134602E+02 -0.10791381539E+03  0.11056649947E+03  0.00000000000E+00 0. -1.
<scales pt_clust_5="13000.00000" pt_clust_6="13000.00000" pt_clust_7="13000.00000" pt_clust_8="13000.00000" pt_clust_9="24.07404"></scales>
<clustering>
<clus scale="   24.074">  2  9  1 -1</clus>
<clus scale="   90.658">  5  6 -1 -1</clus>
<clus scale="   92.790">  2  5  1 -1</clus>
<clus scale="   96.511">  7  8 -1 -1</clus>
<clus scale="   24.074">  2  5  1 -1</clus>
</clustering>
</event>
<event>
 9    1  0.2075077E-005  0.1172025E+03  0.7546771E-02  0.1249874E+00
         -2   -1    0    0    0  501 -0.00000000000E+00  0.00000000000E+00  0.17411167596E+03  0.17411167596E+03  0.00000000000E+00 0.  1.
          2   -1    0    0  502    0  0.00000000000E+00 -0.00000000000E+00 -0.34142198295E+03  0.34142198295E+03  0.00000000000E+00 0. -1.
         23    2    1    2    0    0 -0.69653583056E+02  0.23991944046E+02  0.13172355638E+03  0.17708489944E+03  0.92632236791E+02 0.  0.
         23    2    1    2    0    0  0.51296144929E+02  0.34140741955E+01 -0.28565381897E+03  0.30285225742E+03  0.86477946022E+02 0.  0.
        -13    1    4    4    0    0 -0.16576309324E+02  0.22902537371E+02 -0.58461689631E+02  0.64938966756E+02  0.00000000000E+00 0.  1.
         13    1    4    4    0    0  0.67872454253E+02 -0.19488463176E+02 -0.22719212934E+03  0.23791329067E+03  0.00000000000E+00 0. -1.
        -13    1    3    3    0    0 -0.18885336688E+02  0.40333973898E+02  0.12161812621E+02  0.46167034542E+02  0.00000000000E+00 0. -1.
         13    1    3    3    0    0 -0.50768246367E+02 -0.16342029851E+02  0.11956174376E+03  0.13091786490E+03  0.00000000000E+00 0.  1.
         21    1    1    2  502  501  0.18357438126E+02 -0.27406018242E+02 -0.13380044393E+02  0.35596502053E+02  0.00000000000E+00 0. -1.
<scales pt_clust_5="13000.00000" pt_clust_6="13000.00000" pt_clust_7="13000.00000" pt_clust_8="13000.00000" pt_clust_9="32.98614"></scales>
<clustering>
<clus scale="   32.986">  2  9  1 -1</clus>
<clus scale="   86.478">  5  6 -1 -1</clus>
<clus scale="   92.632">  7  8 -1 -1</clus>
<clus scale="  112.402">  2  5  1 -1</clus>
<clus scale="   32.986">  2  5  1 -1</clus>
</clustering>
</event>
<event>
 9    1  0.2075077E-005  0.9506260E+02  0.7546771E-02  0.1291727E+00
          2   -1    0    0  502    0  0.00000000000E+00  0.00000000000E+00  0.42338092291E+02  0.42338092291E+02  0.00000000000E+00 0.  1.
         -2   -1    0    0    0  501 -0.00000000000E+00 -0.00000000000E+00 -0.32510210248E+03  0.32510210248E+03  0.00000000000E+00 0. -1.
         23    2    1    2    0    0  0.17872181263E+02 -0.32396476015E+02 -0.17864107269E+03  0.20412868548E+03  0.91580242748E+02 0.  0.
         23    2    1    2    0    0 -0.13867767836E+02  0.35807903742E+00 -0.89374964146E+02  0.12781507390E+03  0.90312599862E+02 0.  0.
        -11    1    4    4    0    0 -0.30885863093E+02  0.38193539324E+02 -0.40159289683E+02  0.63446446181E+02  0.00000000000E+00 0.  1.
         11    1    4    4    0    0  0.17018095257E+02 -0.37835460286E+02 -0.49215674463E+02  0.64368627717E+02  0.00000000000E+00 0. -1.
        -11    1    3    3    0    0 -0.21968204682E+02 -0.46868103222E+02 -0.12812235070E+03  0.13818305926E+03  0.00000000000E+00 0. -1.
         11    1    3    3    0    0  0.39840385945E+02  0.14471627206E+02 -0.50518721991E+02  0.65945626222E+02  0.00000000000E+00 0.  1.
         21    1    1    2  502  501 -0.40044134272E+01  0.32038396978E+02 -0.14747973352E+02  0.35496435396E+02  0.00000000000E+00 0.  1.
<scales pt_clust_5="13000.00000" pt_clust_6="13000.00000" pt_clust_7="13000.00000" pt_clust_8="13000.00000" pt_clust_9="32.28768"></scales>
<clustering>
<clus scale="   32.288">  1  9  2 -1</clus>
<clus scale="   90.313">  5  6 -1 -1</clus>
<clus scale="   91.580">  7  8 -1 -1</clus>
<clus scale="   93.842">  1  5  2 -1</clus>
<clus scale="   32.288">  1  5  2 -1</clus>
</clustering>
</event>
<event>
 9    1  0.2075077E-005  0.1149798E+03  0.7546771E-02  0.1252562E+00
         -1   -1    0    0    0  501 -0.00000000000E+00  0.00000000000E+00  0.45416773375E+02  0.45416773375E+02  0.00000000000E+00 0.  1.
          1   -1    0    0  502    0  0.00000000000E+00 -0.00000000000E+00 -0.40534366475E+03  0.40534366475E+03  0.00000000000E+00 0. -1.
         23    2    1    2    0    0 -0.19528539405E+02  0.49032943216E+02 -0.11881282375E+03  0.16057643761E+03  0.94248139801E+02 0.  0.
         23    2    1    2    0    0  0.15226139884E+02 -0.84600706829E+02 -0.18666099031E+03  0.22500183977E+03  0.91620890991E+02 0.  0.
        -11    1    3    3    0    0 -0.67971147234E+01  0.76988632770E+02 -0.86164116725E+02  0.11574845725E+03  0.00000000000E+00 0. -1.
         11    1    3    3    0    0 -0.12731424681E+02 -0.27955689553E+02 -0.32648707025E+02  0.44827980361E+02  0.00000000000E+00 0.  1.
        -13    1    4    4    0    0 -0.13631847588E+02  0.15669968789E+02 -0.23854629752E+02  0.31629393784E+02  0.00000000000E+00 0. -1.
         13    1    4    4    0    0  0.28857987472E+02 -0.10027067562E+03 -0.16280636056E+03  0.19337244599E+03  0.00000000000E+00 0.  1.
         21    1    1    2  502  501  0.43023995203E+01  0.35567763612E+02 -0.54453077312E+02  0.65182160740E+02  0.00000000000E+00 0. -1.
<scales pt_clust_5="13000.00000" pt_clust_6="13000.00000" pt_clust_7="13000.00000" pt_clust_8="13000.00000" pt_clust_9="35.82704"></scales>
<clustering>
<clus scale="   35.827">  2  9  1 -1</clus>
<clus scale="   91.621">  7  8 -1 -1</clus>
<clus scale="   94.248">  5  6 -1 -1</clus>
<clus scale="  112.836">  2  7  1 -1</clus>
<clus scale="   35.827">  2  5  1 -1</clus>
</clustering>
</event>
<event>
 9    1  0.2075077E-005  0.2163974E+03  0.7546771E-02  0.1145516E+00
          1   -1    0    0  502    0  0.00000000000E+00  0.00000000000E+00  0.30118839192E+03  0.30118839192E+03  0.00000000000E+00 0. -1.
         -1   -1    0    0    0  501 -0.00000000000E+00 -0.00000000000E+00 -0.43755684623E+03  0.43755684623E+03  0.00000000000E+00 0.  1.
         23    2    1    2    0    0 -0.80398462528E+02 -0.12451676277E+03 -0.15812033485E+03  0.23554632537E+03  0.92258843015E+02 0.  0.
         23    2    1    2    0    0 -0.11866624896E+03  0.17210542838E+03 -0.11649850214E+03  0.25620780207E+03  0.91479941616E+02 0.  0.
        -11    1    4    4    0    0  0.45140629759E+01  0.60942960017E+02 -0.20186926026E+02  0.64357852066E+02  0.00000000000E+00 0.  1.
         11    1    4    4    0    0 -0.12318031193E+03  0.11116246837E+03 -0.96311576119E+02  0.19184995000E+03  0.00000000000E+00 0. -1.
        -13    1    3    3    0    0 -0.82344316573E+02 -0.49233491176E+02 -0.11097959714E+03  0.14670035483E+03  0.00000000000E+00 0.  1.
         13    1    3    3    0    0  0.19458540447E+01 -0.75283271594E+02 -0.47140737714E+02  0.88845970545E+02  0.00000000000E+00 0. -1.
         21    1    1    2  502  501  0.19906471149E+03 -0.47588665615E+02  0.13825038269E+03  0.24699111071E+03  0.00000000000E+00 0. -1.
<scales pt_clust_5="13000.00000" pt_clust_6="13000.00000" pt_clust_7="13000.00000" pt_clust_8="13000.00000" pt_clust_9="196.11027"></scales>
<clustering>
<clus scale="   91.480">  5  6 -1 -1</clus>
<clus scale="   92.259">  7  8 -1 -1</clus>
<clus scale="  174.585">  2  7  1 -1</clus>
<clus scale="  196.110">  1  9  2 -1</clus>
<clus scale="  196.110">  1  5  2 -1</clus>
</clustering>
</event>
<event>
 9    1  0.2075077E-005  0.1166425E+03  0.7546771E-02  0.1257920E+00
         -1   -1    0    0    0  501 -0.00000000000E+00  0.00000000000E+00  0.22149690342E+03  0.22149690342E+03  0.00000000000E+00 0.  1.
          1   -1    0    0  502    0  0.00000000000E+00 -0.00000000000E+00 -0.73179470577E+02  0.73179470577E+02  0.00000000000E+00 0. -1.
         23    2    1    2    0    0 -0.11269680006E+02 -0.21356356003E+02  0.10642375861E+03  0.15689294962E+03  0.11272214341E+03 0.  0.
         23    2    1    2    0    0 -0.77415497258E+01  0.42735187111E+02  0.27640665502E+02  0.10582048438E+03  0.92453992423E+02 0.  0.
        -11    1    3    3    0    0  0.49617580828E+02 -0.13666247288E+02  0.32730363629E+02  0.60991371074E+02  0.00000000000E+00 0.  1.
         11    1    3    3    0    0 -0.60887260834E+02 -0.76901087154E+01  0.73693394978E+02  0.95901578544E+02  0.00000000000E+00 0. -1.
        -11    1    4    4    0    0  0.23433776986E+02 -0.19221723027E+02  0.19373064543E+02  0.35971268670E+02  0.00000000000E+00 0.  1.
         11    1    4    4    0    0 -0.31175326711E+02  0.61956910137E+02  0.82676009590E+01  0.69849215708E+02  0.00000000000E+00 0. -1.
         21    1    1    2  502  501  0.19011229731E+02 -0.21378831107E+02  0.14253008729E+02  0.31962939997E+02  0.00000000000E+00 0.  1.
<scales pt_clust_5="13000.00000" pt_clust_6="13000.00000" pt_clust_7="13000.00000" pt_clust_8="13000.00000" pt_clust_9="28.60911"></scales>
<clustering>
<clus scale="   28.609">  2  9  1 -1</clus>
<clus scale="   92.454">  7  8 -1 -1</clus>
<clus scale="   97.195">  2  7  1 -1</clus>
<clus scale="  112.722">  5  6 -1 -1</clus>
<clus scale="   28.609">  2  5  1 -1</clus>
</clustering>
</event>
<event>
 9    1  0.2075077E-005  0.1058445E+03  0.7546771E-02  0.1269280E+00
          1   -1    0    0  502    0  0.00000000000E+00  0.00000000000E+00  0.19717407547E+03  0.19717407547E+03  0.00000000000E+00 0. -1.
         -1   -1    0    0    0  501 -0.00000000000E+00 -0.00000000000E+00 -0.95901158385E+02  0.95901158385E+02  0.00000000000E+00 0.  1.
         23    2    1    2    0    0 -0.73449634344E+02 -0.10771860813E+02  0.31363473182E+00  0.11705632222E+03  0.90505261921E+02 0.  0.
         23    2    1    2    0    0  0.24038343312E+02  0.18260139668E+02  0.57719991959E+02  0.10993422176E+03  0.88558799629E+02 0.  0.
        -13    1    4    4    0    0  0.45415018648E+02 -0.16602912034E+02  0.14611277534E+02  0.50514057825E+02  0.00000000000E+00 0. -1.
         13    1    4    4    0    0 -0.21376675335E+02  0.34863051702E+02  0.43108714424E+02  0.59420163932E+02  0.00000000000E+00 0.  1.
        -13    1    3    3    0    0 -0.24523837615E+02 -0.11944178954E+02  0.43791955356E+02  0.51592803531E+02  0.00000000000E+00 0. -1.
         13    1    3    3    0    0 -0.48925796730E+02  0.11723181414E+01 -0.43478320625E+02  0.65463518694E+02  0.00000000000E+00 0.  1.
         21    1    1    2  502  501  0.49411291032E+02 -0.74882788551E+01  0.43239290391E+02  0.66084689869E+02  0.00000000000E+00 0. -1.
<scales pt_clust_5="13000.00000" pt_clust_6="13000.00000" pt_clust_7="13000.00000" pt_clust_8="13000.00000" pt_clust_9="49.97549"></scales>
<clustering>
<clus scale="   49.975">  1  9  2 -1</clus>
<clus scale="   88.559">  5  6 -1 -1</clus>
<clus scale="   90.505">  7  8 -1 -1</clus>
<clus scale="  104.185">  1  5  2 -1</clus>
<clus scale="   49.975">  1  5  2 -1</clus>
</clustering>
</event>
<event>
 9    1  0.2075077E-005  0.1037941E+03  0.7546771E-02  0.1272897E+00
          2   -1    0    0  502    0  0.00000000000E+00  0.00000000000E+00  0.10471642732E+03  0.10471642732E+03  0.00000000000E+00 0. -1.
         -2   -1    0    0    0  501 -0.00000000000E+00 -0.00000000000E+00 -0.19536573916E+03  0.19536573916E+03  0.00000000000E+00 0.  1.
         23    2    1    2    0    0 -0.31953944247E+02  0.16298975970E+02 -0.87943456906E+02  0.13248906057E+03  0.92372010845E+02 0.  0.
         23    2    1    2    0    0  0.55892255882E+02 -0.42006511961E+02 -0.34489984389E+02  0.12022063440E+03  0.91514756180E+02 0.  0.
        -13    1    3    3    0    0 -0.31020213345E+02 -0.20068138992E+02  0.40065490212E+00  0.36947860058E+02  0.00000000000E+00 0. -1.
         13    1    3    3    0    0 -0.93373090239E+00  0.36367114962E+02 -0.88344111808E+02  0.95541200512E+02  0.00000000000E+00 0.  1.
        -13    1    4    4    0    0 -0.21482152202E+02 -0.64383814415E+01  0.95192394542E+01  0.24362913180E+02  0.00000000000E+00 0.  1.
         13    1    4    4    0    0  0.77374408084E+02 -0.35568130519E+02 -0.44009223843E+02  0.95857721224E+02  0.00000000000E+00 0. -1.
         21    1    1    2  502  501 -0.23938311635E+02  0.25707535991E+02  0.31784129457E+02  0.47372471500E+02  0.00000000000E+00 0.  1.
<scales pt_clust_5="13000.00000" pt_clust_6="13000.00000" pt_clust_7="13000.00000" pt_clust_8="13000.00000" pt_clust_9="35.12720"></scales>
<clustering>
<clus scale="   35.127">  1  9  2 -1</clus>
<clus scale="   91.515">  7  8 -1 -1</clus>
<clus scale="   92.372">  5  6 -1 -1</clus>
<clus scale="  103.032">  1  7  2 -1</clus>
<clus scale="   35.127">  1  5  2 -1</clus>
</clustering>
</event>
<event>
 9    1  0.2075077E-005  0.1423524E+03  0.7546771E-02  0.1211807E+00
         -2   -1    0    0    0  501 -0.00000000000E+00  0.00000000000E+00  0.60695115496E+03  0.60695115496E+03  0.00000000000E+00 0.  1.
          2   -1    0    0  502    0  0.00000000000E+00 -0.00000000000E+00 -0.53087627786E+02  0.53087627786E+02  0.00000000000E+00 0. -1.
         23    2    1    2    0    0 -0.88453300837E+02  0.42375109829E+02  0.41920205588E+03  0.44155968892E+03  0.98106874721E+02 0.  0.
         23    2    1    2    0    0  0.10679153335E+03 -0.52169684472E+02  0.12704638769E+03  0.19633831782E+03  0.91004630906E+02 0.  0.
        -11    1    4    4    0    0  0.25656912546E+02  0.19220202144E+02  0.63071910857E+02  0.70751390594E+02  0.00000000000E+00 0.  1.
         11    1    4    4    0    0  0.81134620800E+02 -0.71389886616E+02  0.63974476829E+02  0.12558692722E+03  0.00000000000E+00 0. -1.
        -11    1    3    3    0    0 -0.10013206720E+03  0.13055522178E+02  0.36625225443E+03  0.37991787457E+03  0.00000000000E+00 0.  1.
         11    1    3    3    0    0  0.11678766359E+02  0.29319587650E+02  0.52949801443E+02  0.61641814352E+02  0.00000000000E+00 0. -1.
         21    1    1    2  502  501 -0.18338232508E+02  0.97945746437E+01  0.76150836158E+01  0.22140776013E+02  0.00000000000E+00 0.  1.
<scales pt_clust_5="13000.00000" pt_clust_6="13000.00000" pt_clust_7="13000.00000" pt_clust_8="13000.00000" pt_clust_9="20.79001"></scales>
<clustering>
<clus scale="   20.790">  2  9  1 -1</clus>
<clus scale="   91.005">  5  6 -1 -1</clus>
<clus scale="   98.107">  7  8 -1 -1</clus>
<clus scale="  137.554">  2  5  1 -1</clus>
<clus scale="   20.790">  2  5  1 -1</clus>
</clustering>
</event>
<event>
 9    1  0.2075077E-005  0.3190081E+03  0.7546771E-02  0.1076244E+00
         -2   -1    0    0    0  501 -0.00000000000E+00  0.00000000000E+00  0.20159036037E+04  0.20159036037E+04  0.00000000000E+00 0.  1.
          2   -1    0    0  502    0  0.00000000000E+00 -0.00000000000E+00 -0.85394813809E+02  0.85394813809E+02  0.00000000000E+00 0. -1.
         23    2    1    2    0    0 -0.33451272832E+02 -0.24570534962E+03  0.53185082288E+03  0.59338798658E+03  0.88056222580E+02 0.  0.
         23    2    1    2    0    0  0.17419876265E+03  0.33453691995E+03  0.10922910071E+04  0.11592535538E+04  0.92244231780E+02 0.  0.
        -11    1    3    3    0    0 -0.41192620395E+02 -0.70421530013E+02  0.23261338739E+03  0.24650560208E+03  0.00000000000E+00 0.  1.
         11    1    3    3    0    0  0.77413475627E+01 -0.17528381961E+03  0.29923743549E+03  0.34688238450E+03  0.00000000000E+00 0. -1.
        -13    1    4    4    0    0  0.10786415467E+03  0.11023421329E+03  0.45020829384E+03  0.47589259868E+03  0.00000000000E+00 0. -1.
         13    1    4    4    0    0  0.66334607988E+02  0.22430270665E+03  0.64208271322E+03  0.68336095516E+03  0.00000000000E+00 0.  1.
         21    1    1    2  502  501 -0.14074748982E+03 -0.88831570329E+02  0.30636695991E+03  0.34865687703E+03  0.00000000000E+00 0.  1.
<scales pt_clust_5="13000.00000" pt_clust_6="13000.00000" pt_clust_7="13000.00000" pt_clust_8="13000.00000" pt_clust_9="166.43588"></scales>
<clustering>
<clus scale="   88.056">  5  6 -1 -1</clus>
<clus scale="   92.244">  7  8 -1 -1</clus>
<clus scale="  166.436">  2  9  1 -1</clus>
<clus scale="  317.822">  1  5  2 -1</clus>
<clus scale="  166.436">  2  5  1 -1</clus>
</clustering>
</event>
<event>
 9    1  0.2075077E-005  0.1032378E+03  0.7546771E-02  0.1274506E+00
          1   -1    0    0  502    0  0.00000000000E+00  0.00000000000E+00  0.32333544892E+02  0.32333544892E+02  0.00000000000E+00 0. -1.
         -1   -1    0    0    0  501 -0.00000000000E+00 -0.00000000000E+00 -0.47970749734E+03  0.47970749734E+03  0.00000000000E+00 0.  1.
         23    2    1    2    0    0  0.61834967862E+02 -0.22452137521E+02 -0.22806367216E+03  0.25474077209E+03  0.92477892905E+02 0.  0.
         23    2    1    2    0    0 -0.25903267442E+02  0.42588317788E+01 -0.15266721369E+03  0.17943255029E+03  0.90551891513E+02 0.  0.
        -11    1    4    4    0    0 -0.19175479964E+02  0.32594036378E+02 -0.18422016300E+02  0.42064723032E+02  0.00000000000E+00 0.  1.
         11    1    4    4    0    0 -0.67277874784E+01 -0.28335204599E+02 -0.13424519739E+03  0.13736782726E+03  0.00000000000E+00 0. -1.
        -11    1    3    3    0    0 -0.17946274556E+01  0.21739845887E+02 -0.11888109252E+03  0.12086585848E+03  0.00000000000E+00 0.  1.
         11    1    3    3    0    0  0.63629595317E+02 -0.44191983408E+02 -0.10918257964E+03  0.13387491361E+03  0.00000000000E+00 0. -1.
         21    1    1    2  502  501 -0.35931700419E+02  0.18193305742E+02 -0.66643066600E+02  0.77867719850E+02  0.00000000000E+00 0.  1.
<scales pt_clust_5="13000.00000" pt_clust_6="13000.00000" pt_clust_7="13000.00000" pt_clust_8="13000.00000" pt_clust_9="40.27510"></scales>
<clustering>
<clus scale="   40.275">  1  9  2 -1</clus>
<clus scale="   90.552">  5  6 -1 -1</clus>
<clus scale="   92.478">  7  8 -1 -1</clus>
<clus scale="  101.516">  1  5  2 -1</clus>
<clus scale="   40.275">  1  5  2 -1</clus>
</clustering>
</event>
<event>
 9    1  0.2075077E-005  0.1000625E+03  0.7546771E-02  0.1280208E+00
          1   -1    0    0  502    0  0.00000000000E+00  0.00000000000E+00  0.17581340739E+03  0.17581340739E+03  0.00000000000E+00 0. -1.
         -1   -1    0    0    0  501 -0.00000000000E+00 -0.00000000000E+00 -0.88581459819E+02  0.88581459819E+02  0.00000000000E+00 0.  1.
         23    2    1    2    0    0 -0.69155189306E+01 -0.26262184384E+02  0.14696602548E+02  0.96741247675E+02  0.91680707592E+02 0.  0.
         23    2    1    2    0    0 -0.11845379633E+02  0.58848666440E+02  0.36127359820E+02  0.11531442281E+03  0.91590127302E+02 0.  0.
        -11    1    4    4    0    0  0.33861974535E+02  0.38516303844E+02  0.40143405754E+02  0.65127812851E+02  0.00000000000E+00 0.  1.
         11    1    4    4    0    0 -0.45707354169E+02  0.20332362596E+02 -0.40160459344E+01  0.50186609955E+02  0.00000000000E+00 0. -1.
        -13    1    3    3    0    0  0.40926986910E+01  0.32995476045E+02 -0.43504431568E+01  0.33531745819E+02  0.00000000000E+00 0.  1.
         13    1    3    3    0    0 -0.11008217622E+02 -0.59257660429E+02  0.19047045705E+02  0.63209501856E+02  0.00000000000E+00 0. -1.
         21    1    1    2  502  501  0.18760898564E+02 -0.32586482055E+02  0.36407985208E+02  0.52339196732E+02  0.00000000000E+00 0.  1.
<scales pt_clust_5="13000.00000" pt_clust_6="13000.00000" pt_clust_7="13000.00000" pt_clust_8="13000.00000" pt_clust_9="37.60120"></scales>
<clustering>
<clus scale="   37.601">  1  9  2 -1</clus>
<clus scale="   91.590">  5  6 -1 -1</clus>
<clus scale="   91.681">  7  8 -1 -1</clus>
<clus scale="   99.980">  1  5  2 -1</clus>
<clus scale="   37.601">  1  5  2 -1</clus>
</clustering>
</event>
<event>
 9    1  0.2075077E-005  0.1084780E+03  0.7546771E-02  0.1265383E+00
          2   -1    0    0  502    0  0.00000000000E+00  0.00000000000E+00  0.53508336998E+03  0.53508336998E+03  0.00000000000E+00 0. -1.
         -2   -1    0    0    0  501 -0.00000000000E+00 -0.00000000000E+00 -0.19456389688E+03  0.19456389688E+03  0.00000000000E+00 0.  1.
         23    2    1    2    0    0 -0.51136065445E+02 -0.49794934796E+02 -0.13733402523E+03  0.17818957741E+03  0.88297555420E+02 0.  0.
         23    2    1    2    0    0 -0.49868296576E+01  0.13289193016E+02  0.30300481401E+02  0.98924650324E+02  0.93094017786E+02 0.  0.
        -11    1    4    4    0    0 -0.14435634799E+02 -0.33234594210E+02 -0.89535544068E+01  0.37324146888E+02  0.00000000000E+00 0.  1.
         11    1    4    4    0    0  0.94488051415E+01  0.46523787226E+02  0.39254035808E+02  0.61600503437E+02  0.00000000000E+00 0. -1.
        -13    1    3    3    0    0  0.24801056189E+02 -0.18358596731E+02 -0.30348874554E+02  0.43280303242E+02  0.00000000000E+00 0. -1.
         13    1    3    3    0    0 -0.75937121633E+02 -0.31436338064E+02 -0.10698515067E+03  0.13490927417E+03  0.00000000000E+00 0.  1.
         21    1    1    2  502  501  0.56122895102E+02  0.36505741780E+02  0.44755301693E+03  0.45253303912E+03  0.00000000000E+00 0. -1.
<scales pt_clust_5="13000.00000" pt_clust_6="13000.00000" pt_clust_7="13000.00000" pt_clust_8="13000.00000" pt_clust_9="66.95109"></scales>
<clustering>
<clus scale="   66.951">  1  9  2 -1</clus>
<clus scale="   88.298">  7  8 -1 -1</clus>
<clus scale="   93.094">  5  6 -1 -1</clus>
<clus scale="  104.391">  2  7  1 -1</clus>
<clus scale="   66.951">  1  5  2 -1</clus>
</clustering>
</event>
<event>
 9    1  0.2075077E-005  0.9202253E+02  0.7546771E-02  0.1299865E+00
          1   -1    0    0  502    0  0.00000000000E+00  0.00000000000E+00  0.92598418711E+02  0.92598418711E+02  0.00000000000E+00 0. -1.
         -1   -1    0    0    0  501 -0.00000000000E+00 -0.00000000000E+00 -0.19676641721E+03  0.19676641721E+03  0.00000000000E+00 0.  1.
         23    2    1    2    0    0  0.94496086688E+01 -0.30206307682E+01 -0.12410237445E+03  0.15295942469E+03  0.88863754948E+02 0.  0.
         23    2    1    2    0    0  0.11834803589E+02 -0.11127385433E+02 -0.13486434765E+02  0.94332341969E+02  0.91939249160E+02 0.  0.
        -11    1    3    3    0    0  0.36627631167E+02 -0.31604660283E+02 -0.82452775631E+02  0.95597584309E+02  0.00000000000E+00 0.  1.
         11    1    3    3    0    0 -0.27178022498E+02  0.28584029515E+02 -0.41649598821E+02  0.57361840383E+02  0.00000000000E+00 0. -1.
        -13    1    4    4    0    0  0.49283165910E+02  0.88488029925E+01 -0.13613530993E+02  0.51888919652E+02  0.00000000000E+00 0.  1.
         13    1    4    4    0    0 -0.37448362321E+02 -0.19976188425E+02  0.12709622849E+00  0.42443422317E+02  0.00000000000E+00 0. -1.
         21    1    1    2  502  501 -0.21284412258E+02  0.14148016201E+02  0.33420810720E+02  0.42073069258E+02  0.00000000000E+00 0. -1.
<scales pt_clust_5="13000.00000" pt_clust_6="13000.00000" pt_clust_7="13000.00000" pt_clust_8="13000.00000" pt_clust_9="25.55763"></scales>
<clustering>
<clus scale="   25.558">  1  9  2 -1</clus>
<clus scale="   88.864">  5  6 -1 -1</clus>
<clus scale="   88.950">  2  5  1 -1</clus>
<clus scale="   91.939">  7  8 -1 -1</clus>
<clus scale="   25.558">  1  5  2 -1</clus>
</clustering>
</event>
<event>
 9    1  0.2075077E-005  0.1163078E+03  0.7546771E-02  0.1249707E+00
         -3   -1    0    0    0  501 -0.00000000000E+00  0.00000000000E+00  0.34593607127E+03  0.34593607127E+03  0.00000000000E+00 0.  1.
          3   -1    0    0  502    0  0.00000000000E+00 -0.00000000000E+00 -0.77353329549E+02  0.77353329549E+02  0.00000000000E+00 0. -1.
         23    2    1    2    0    0  0.44289350696E+02 -0.66207216119E+02  0.25317705453E+03  0.28117453651E+03  0.92820024705E+02 0.  0.
         23    2    1    2    0    0 -0.21735512482E+02  0.36984934832E+02  0.24404223035E+02  0.10412024642E+03  0.91679559910E+02 0.  0.
        -11    1    4    4    0    0 -0.15450746647E+02 -0.23172511632E+02 -0.15291252495E+02  0.31772838559E+02  0.00000000000E+00 0.  1.
         11    1    4    4    0    0 -0.62847658354E+01  0.60157446464E+02  0.39695475530E+02  0.72347407861E+02  0.00000000000E+00 0. -1.
        -13    1    3    3    0    0 -0.61044047365E+01 -0.59741160665E+02  0.19449152753E+03  0.20355152742E+03  0.00000000000E+00 0.  1.
         13    1    3    3    0    0  0.50393755433E+02 -0.64660554539E+01  0.58685527003E+02  0.77623009085E+02  0.00000000000E+00 0. -1.
         21    1    1    2  502  501 -0.22553838214E+02  0.29222281287E+02 -0.89985358431E+01  0.37994617897E+02  0.00000000000E+00 0. -1.
<scales pt_clust_5="13000.00000" pt_clust_6="13000.00000" pt_clust_7="13000.00000" pt_clust_8="13000.00000" pt_clust_9="36.91365"></scales>
<clustering>
<clus scale="   36.914">  2  9  1 -1</clus>
<clus scale="   91.680">  5  6 -1 -1</clus>
<clus scale="   92.820">  7  8 -1 -1</clus>
<clus scale="  115.400">  2  5  1 -1</clus>
<clus scale="   36.914">  2  5  1 -1</clus>
</clustering>
</event>
<event>
 9    1  0.2075077E-005  0.9577503E+02  0.7546771E-02  0.1289846E+00
         -1   -1    0    0    0  501 -0.00000000000E+00  0.00000000000E+00  0.32883750258E+03  0.32883750258E+03  0.00000000000E+00 0.  1.
          1   -1    0    0  502    0  0.00000000000E+00 -0.00000000000E+00 -0.10575694761E+03  0.10575694761E+03  0.00000000000E+00 0. -1.
         23    2    1    2    0    0  0.32301163502E+02  0.21591781477E+02  0.21145941669E+03  0.23370364109E+03  0.91611881108E+02 0.  0.
         23    2    1    2    0    0  0.97367484906E+01 -0.20548389496E+02  0.78290454020E+02  0.12206776443E+03  0.90852095955E+02 0.  0.
        -11    1    4    4    0    0  0.46791142562E+02  0.38732758041E+01  0.53703265408E+02  0.71333400334E+02  0.00000000000E+00 0.  1.
         11    1    4    4    0    0 -0.37054394071E+02 -0.24421665300E+02  0.24587188612E+02  0.50734364093E+02  0.00000000000E+00 0. -1.
        -13    1    3    3    0    0  0.12786131555E+02  0.56669807234E+02  0.10622147974E+03  0.12107004159E+03  0.00000000000E+00 0.  1.
         13    1    3    3    0    0  0.19515031947E+02 -0.35078025756E+02  0.10523793695E+03  0.11263359950E+03  0.00000000000E+00 0. -1.
         21    1    1    2  502  501 -0.42037911992E+02 -0.10433919809E+01 -0.66669315739E+02  0.78823044680E+02  0.00000000000E+00 0. -1.
<scales pt_clust_5="13000.00000" pt_clust_6="13000.00000" pt_clust_7="13000.00000" pt_clust_8="13000.00000" pt_clust_9="42.05086"></scales>
<clustering>
<clus scale="   42.051">  2  9  1 -1</clus>
<clus scale="   90.852">  5  6 -1 -1</clus>
<clus scale="   91.612">  7  8 -1 -1</clus>
<clus scale="   95.049">  2  5  1 -1</clus>
<clus scale="   42.051">  2  5  1 -1</clus>
</clustering>
</event>
<event>
 9    1  0.2075077E-005  0.9980378E+02  0.7546771E-02  0.1280835E+00
          1   -1    0    0  502    0  0.00000000000E+00  0.00000000000E+00  0.23070981766E+03  0.23070981766E+03  0.00000000000E+00 0. -1.
         -1   -1    0    0    0  501 -0.00000000000E+00 -0.00000000000E+00 -0.11796542517E+03  0.11796542517E+03  0.00000000000E+00 0.  1.
         23    2    1    2    0    0  0.34324485179E+02  0.23461419315E+02 -0.70718297287E+02  0.12217147778E+03  0.90532778224E+02 0.  0.
         23    2    1    2    0    0 -0.49780370311E+02 -0.57177524323E+01  0.17131894834E+03  0.20002372433E+03  0.90269210014E+02 0.  0.
        -11    1    4    4    0    0 -0.27698570794E+02  0.37032309955E+02  0.12481809409E+03  0.13310957673E+03  0.00000000000E+00 0.  1.
         11    1    4    4    0    0 -0.22081799517E+02 -0.42750062388E+02  0.46500854242E+02  0.66914147602E+02  0.00000000000E+00 0. -1.
        -11    1    3    3    0    0  0.18736955897E+02 -0.34662878762E+02 -0.29728081655E+02  0.49359371140E+02  0.00000000000E+00 0. -1.
         11    1    3    3    0    0  0.15587529282E+02  0.58124298077E+02 -0.40990215632E+02  0.72812106642E+02  0.00000000000E+00 0.  1.
         21    1    1    2  502  501  0.15455885132E+02 -0.17743666883E+02  0.12143741442E+02  0.26480040708E+02  0.00000000000E+00 0. -1.
<scales pt_clust_5="13000.00000" pt_clust_6="13000.00000" pt_clust_7="13000.00000" pt_clust_8="13000.00000" pt_clust_9="23.53130"></scales>
<clustering>
<clus scale="   23.531">  1  9  2 -1</clus>
<clus scale="   90.269">  5  6 -1 -1</clus>
<clus scale="   90.533">  7  8 -1 -1</clus>
<clus scale="   99.565">  1  5  2 -1</clus>
<clus scale="   23.531">  1  5  2 -1</clus>
</clustering>
</event>
<event>
 9    1  0.2075077E-005  0.9384994E+02  0.7546771E-02  0.1295132E+00
          4   -1    0    0  502    0  0.00000000000E+00  0.00000000000E+00  0.42362251723E+03  0.42362251723E+03  0.00000000000E+00 0. -1.
         -4   -1    0    0    0  501 -0.00000000000E+00 -0.00000000000E+00 -0.34869815003E+02  0.34869815003E+02  0.00000000000E+00 0.  1.
         23    2    1    2    0    0 -0.16427206952E+02 -0.12660276968E+02  0.84940932486E+02  0.12763971967E+03  0.92988172816E+02 0.  0.
         23    2    1    2    0    0  0.22789247541E+01 -0.23052473358E+01  0.14727466836E+03  0.17296656215E+03  0.90648199203E+02 0.  0.
        -11    1    4    4    0    0  0.20355365524E+02 -0.37096790877E+02  0.38006237759E+02  0.56876945309E+02  0.00000000000E+00 0.  1.
         11    1    4    4    0    0 -0.18076440770E+02  0.34791543542E+02  0.10926843060E+03  0.11608961684E+03  0.00000000000E+00 0. -1.
        -13    1    3    3    0    0 -0.52733604198E+02 -0.19447839824E+02  0.37719880933E+02  0.67689296813E+02  0.00000000000E+00 0. -1.
         13    1    3    3    0    0  0.36306397245E+02  0.67875628555E+01  0.47221051553E+02  0.59950422853E+02  0.00000000000E+00 0.  1.
         21    1    1    2  502  501  0.14148282198E+02  0.14965524304E+02  0.15653710138E+03  0.15788605042E+03  0.00000000000E+00 0.  1.
<scales pt_clust_5="13000.00000" pt_clust_6="13000.00000" pt_clust_7="13000.00000" pt_clust_8="13000.00000" pt_clust_9="20.59468"></scales>
<clustering>
<clus scale="   20.595">  1  9  2 -1</clus>
<clus scale="   90.648">  5  6 -1 -1</clus>
<clus scale="   91.532">  1  5  2 -1</clus>
<clus scale="   92.988">  7  8 -1 -1</clus>
<clus scale="   20.595">  1  5  2 -1</clus>
</clustering>
</event>
<event>
 9    1  0.2075077E-005  0.1028132E+03  0.7546771E-02  0.1274524E+00
          1   -1    0    0  502    0  0.00000000000E+00  0.00000000000E+00  0.10121303240E+03  0.10121303240E+03  0.00000000000E+00 0. -1.
         -1   -1    0    0    0  501 -0.00000000000E+00 -0.00000000000E+00 -0.22021346566E+03  0.22021346566E+03  0.00000000000E+00 0.  1.
         23    2    1    2    0    0  0.50328579862E+02  0.67276158113E+01 -0.15777748736E+03  0.18911072253E+03  0.91054396328E+02 0.  0.
         23    2    1    2    0    0 -0.36390438740E+02  0.16551960465E+02  0.30259549186E+02  0.10387709872E+03  0.90975710459E+02 0.  0.
        -11    1    4    4    0    0  0.23775138558E+02  0.16673464244E+00  0.33908718589E+02  0.41413599339E+02  0.00000000000E+00 0. -1.
         11    1    4    4    0    0 -0.60165577299E+02  0.16385225823E+02 -0.36491694024E+01  0.62463499376E+02  0.00000000000E+00 0.  1.
        -11    1    3    3    0    0  0.37140011960E+01  0.38693926648E+02 -0.10426486122E+03  0.11127522208E+03  0.00000000000E+00 0.  1.
         11    1    3    3    0    0  0.46614578666E+02 -0.31966310837E+02 -0.53512626142E+02  0.77835500444E+02  0.00000000000E+00 0. -1.
         21    1    1    2  502  501 -0.13938141122E+02 -0.23279576276E+02  0.85175049110E+01  0.28438676823E+02  0.00000000000E+00 0.  1.
<scales pt_clust_5="13000.00000" pt_clust_6="13000.00000" pt_clust_7="13000.00000" pt_clust_8="13000.00000" pt_clust_9="27.13320"></scales>
<clustering>
<clus scale="   27.133">  1  9  2 -1</clus>
<clus scale="   90.976">  5  6 -1 -1</clus>
<clus scale="   91.054">  7  8 -1 -1</clus>
<clus scale="  102.743">  1  5  2 -1</clus>
<clus scale="   27.133">  1  5  2 -1</clus>
</clustering>
</event>
<event>
 9    1  0.2075077E-005  0.1083709E+03  0.7546771E-02  0.1264161E+00
         -2   -1    0    0    0  501 -0.00000000000E+00  0.00000000000E+00  0.78978622154E+02  0.78978622154E+02  0.00000000000E+00 0.  1.
          2   -1    0    0  502    0  0.00000000000E+00 -0.00000000000E+00 -0.21011568558E+03  0.21011568558E+03  0.00000000000E+00 0. -1.
         23    2    1    2    0    0 -0.53211441630E+02  0.26104195348E+02 -0.16123743245E+02  0.11044483646E+03  0.91788889686E+02 0.  0.
         23    2    1    2    0    0  0.51276114197E+02 -0.56881948803E+01 -0.65348934446E+02  0.12491763920E+03  0.93125388063E+02 0.  0.
        -11    1    3    3    0    0 -0.34726041253E+02  0.57710684871E+02  0.60741583280E+01  0.67626300274E+02  0.00000000000E+00 0.  1.
         11    1    3    3    0    0 -0.18485400377E+02 -0.31606489523E+02 -0.22197901573E+02  0.42818536188E+02  0.00000000000E+00 0. -1.
        -11    1    4    4    0    0  0.74616540646E+02 -0.57782510433E+01 -0.68387837421E+02  0.10138004059E+03  0.00000000000E+00 0. -1.
         11    1    4    4    0    0 -0.23340426450E+02  0.90056163082E-01  0.30389029752E+01  0.23537598609E+02  0.00000000000E+00 0.  1.
         21    1    1    2  502  501  0.19353274335E+01 -0.20416000468E+02 -0.49664385738E+02  0.53731832075E+02  0.00000000000E+00 0. -1.
<scales pt_clust_5="13000.00000" pt_clust_6="13000.00000" pt_clust_7="13000.00000" pt_clust_8="13000.00000" pt_clust_9="20.50752"></scales>
<clustering>
<clus scale="   20.508">  2  9  1 -1</clus>
<clus scale="   91.789">  5  6 -1 -1</clus>
<clus scale="   93.125">  7  8 -1 -1</clus>
<clus scale="  107.225">  1  5  2 -1</clus>
<clus scale="   20.508">  2  5  1 -1</clus>
</clustering>
</event>
<event>
 9    1  0.2075077E-005  0.1509130E+03  0.7546771E-02  0.1199941E+00
         -4   -1    0    0    0  501 -0.00000000000E+00  0.00000000000E+00  0.19040938706E+03  0.19040938706E+03  0.00000000000E+00 0.  1.
          4   -1    0    0  502    0  0.00000000000E+00 -0.00000000000E+00 -0.35725182818E+03  0.35725182818E+03  0.00000000000E+00 0. -1.
         23    2    1    2    0    0 -0.97501713615E+02  0.35775263456E+02  0.19191676029E+02  0.14074456685E+03  0.93028270096E+02 0.  0.
         23    2    1    2    0    0  0.14870727289E+03  0.55347046060E+02  0.12236479955E+02  0.18278161259E+03  0.89901267738E+02 0.  0.
        -13    1    3    3    0    0 -0.93469627104E+02 -0.72335235734E+01  0.68974945006E+00  0.93751644297E+02  0.00000000000E+00 0. -1.
         13    1    3    3    0    0 -0.40320865120E+01  0.43008787029E+02  0.18501926579E+02  0.46992922558E+02  0.00000000000E+00 0.  1.
        -13    1    4    4    0    0  0.10300939488E+03  0.78466205590E+02  0.19857147661E+02  0.13100453109E+03  0.00000000000E+00 0.  1.
         13    1    4    4    0    0  0.45697878016E+02 -0.23119159530E+02 -0.76206677063E+01  0.51777081502E+02  0.00000000000E+00 0. -1.
         21    1    1    2  502  501 -0.51205559277E+02 -0.91122309516E+02 -0.19827059711E+03  0.22413503579E+03  0.00000000000E+00 0. -1.
<scales pt_clust_5="13000.00000" pt_clust_6="13000.00000" pt_clust_7="13000.00000" pt_clust_8="13000.00000" pt_clust_9="104.52409"></scales>
<clustering>
<clus scale="   89.901">  7  8 -1 -1</clus>
<clus scale="   93.028">  5  6 -1 -1</clus>
<clus scale="  104.524">  2  9  1 -1</clus>
<clus scale="  149.006">  2  7  1 -1</clus>
<clus scale="  104.524">  2  5  1 -1</clus>
</clustering>
</event>
<event>
 9    1  0.2075077E-005  0.9098994E+02  0.7546771E-02  0.1301042E+00
          2   -1    0    0  502    0  0.00000000000E+00  0.00000000000E+00  0.27739979513E+03  0.27739979513E+03  0.00000000000E+00 0. -1.
         -2   -1    0    0    0  501 -0.00000000000E+00 -0.00000000000E+00 -0.44696708392E+02  0.44696708392E+02  0.00000000000E+00 0.  1.
         23    2    1    2    0    0 -0.88421210880E+01  0.84508819279E+01  0.45817510590E+02  0.10089407782E+03  0.89054871581E+02 0.  0.
         23    2    1    2    0    0 -0.11064110705E+02 -0.23133944551E+02  0.14886252992E+03  0.17584162284E+03  0.90014607541E+02 0.  0.
        -13    1    3    3    0    0 -0.14474936674E+02 -0.30645606658E+02 -0.73296153618E+01  0.34675643621E+02  0.00000000000E+00 0.  1.
         13    1    3    3    0    0  0.56328155857E+01  0.39096488586E+02  0.53147125952E+02  0.66218434202E+02  0.00000000000E+00 0. -1.
        -13    1    4    4    0    0 -0.26329216430E+01 -0.57754093223E+02  0.87209403782E+02  0.10463244080E+03  0.00000000000E+00 0.  1.
         13    1    4    4    0    0 -0.84311890621E+01  0.34620148671E+02  0.61653126141E+02  0.71209182034E+02  0.00000000000E+00 0. -1.
         21    1    1    2  502  501  0.19906231793E+02  0.14683062623E+02  0.38023046228E+02  0.45360802866E+02  0.00000000000E+00 0. -1.
<scales pt_clust_5="13000.00000" pt_clust_6="13000.00000" pt_clust_7="13000.00000" pt_clust_8="13000.00000" pt_clust_9="24.73561"></scales>
<clustering>
<clus scale="   24.736">  1  9  2 -1</clus>
<clus scale="   89.055">  5  6 -1 -1</clus>
<clus scale="   90.015">  7  8 -1 -1</clus>
<clus scale="   90.041">  2  5  1 -1</clus>
<clus scale="   24.736">  1  5  2 -1</clus>
</clustering>
</event>
<event>
 9    1  0.2075077E-005  0.1880152E+03  0.7546771E-02  0.1162795E+00
          2   -1    0    0  502    0  0.00000000000E+00  0.00000000000E+00  0.13433173199E+03  0.13433173199E+03  0.00000000000E+00 0. -1.
         -2   -1    0    0    0  501 -0.00000000000E+00 -0.00000000000E+00 -0.45934329773E+03  0.45934329773E+03  0.00000000000E+00 0.  1.
         23    2    1    2    0    0 -0.13683221616E+03 -0.73603090739E+02 -0.22174455816E+03  0.28667298536E+03  0.94182169854E+02 0.  0.
         23    2    1    2    0    0  0.16004339214E+03  0.65646598938E+02 -0.15953898273E+03  0.24561312321E+03  0.70354502060E+02 0.  0.
        -11    1    3    3    0    0 -0.30399635547E+02 -0.58066818623E+01  0.66658422292E+00  0.30956416624E+02  0.00000000000E+00 0. -1.
         11    1    3    3    0    0 -0.10643258061E+03 -0.67796408877E+02 -0.22241114238E+03  0.25571656874E+03  0.00000000000E+00 0.  1.
        -13    1    4    4    0    0  0.14418838755E+03  0.48401459148E+02 -0.10104035019E+03  0.18259831521E+03  0.00000000000E+00 0. -1.
         13    1    4    4    0    0  0.15855004589E+02  0.17245139789E+02 -0.58498632547E+02  0.63014807996E+02  0.00000000000E+00 0.  1.
         21    1    1    2  502  501 -0.23211175978E+02  0.79564918015E+01  0.56271975152E+02  0.61388921147E+02  0.00000000000E+00 0. -1.
<scales pt_clust_5="13000.00000" pt_clust_6="13000.00000" pt_clust_7="13000.00000" pt_clust_8="13000.00000" pt_clust_9="24.53700"></scales>
<clustering>
<clus scale="   24.537">  1  9  2 -1</clus>
<clus scale="   70.355">  7  8 -1 -1</clus>
<clus scale="   94.182">  5  6 -1 -1</clus>
<clus scale="  177.283">  1  7  2 -1</clus>
<clus scale="   24.537">  1  5  2 -1</clus>
</clustering>
</event>
<event>
 9    1  0.2075077E-005  0.1096854E+03  0.7546771E-02  0.1262846E+00
          2   -1    0    0  502    0  0.00000000000E+00  0.00000000000E+00  0.20725606115E+03  0.20725606115E+03  0.00000000000E+00 0. -1.
         -2   -1    0    0    0  501 -0.00000000000E+00 -0.00000000000E+00 -0.12430783477E+03  0.12430783477E+03  0.00000000000E+00 0.  1.
         23    2    1    2    0    0 -0.25976836255E+02 -0.29514126487E+02 -0.30222124024E+02  0.10740498959E+03  0.95271062361E+02 0.  0.
         23    2    1    2    0    0  0.42734073281E+02  0.76342876133E+02  0.34279015370E+02  0.13089809178E+03  0.91130805892E+02 0.  0.
        -11    1    4    4    0    0  0.59151682580E+02  0.52723312695E+02 -0.81300686883E+01  0.79654047420E+02  0.00000000000E+00 0.  1.
         11    1    4    4    0    0 -0.16417609299E+02  0.23619563438E+02  0.42409084058E+02  0.51244044363E+02  0.00000000000E+00 0. -1.
        -11    1    3    3    0    0  0.31352860885E+02  0.14207460092E+01 -0.28258130352E+02  0.42232006061E+02  0.00000000000E+00 0. -1.
         11    1    3    3    0    0 -0.57329697140E+02 -0.30934872497E+02 -0.19639936713E+01  0.65172983526E+02  0.00000000000E+00 0.  1.
         21    1    1    2  502  501 -0.16757237026E+02 -0.46828749645E+02  0.78891335036E+02  0.93260814546E+02  0.00000000000E+00 0.  1.
<scales pt_clust_5="13000.00000" pt_clust_6="13000.00000" pt_clust_7="13000.00000" pt_clust_8="13000.00000" pt_clust_9="49.73667"></scales>
<clustering>
<clus scale="   49.737">  1  9  2 -1</clus>
<clus scale="   91.131">  5  6 -1 -1</clus>
<clus scale="   95.271">  7  8 -1 -1</clus>
<clus scale="  106.109">  1  5  2 -1</clus>
<clus scale="   49.737">  1  5  2 -1</clus>
</clustering>
</event>
<event>
 9    1  0.2075077E-005  0.1127531E+03  0.7546771E-02  0.1257220E+00
         -1   -1    0    0    0  501 -0.00000000000E+00  0.00000000000E+00  0.40827266211E+02  0.40827266211E+02  0.00000000000E+00 0.  1.
          1   -1    0    0  502    0  0.00000000000E+00 -0.00000000000E+00 -0.48325424653E+03  0.48325424653E+03  0.00000000000E+00 0. -1.
         23    2    1    2    0    0  0.18427754523E+02 -0.65834496674E+02 -0.92687513743E+02  0.14513742089E+03  0.88318359635E+02 0.  0.
         23    2    1    2    0    0 -0.34045615190E+02  0.47525950776E+02 -0.20766830990E+03  0.23484921345E+03  0.92791196823E+02 0.  0.
        -13    1    4    4    0    0 -0.53706928537E+02 -0.29430421071E+01 -0.82761105529E+02  0.98704084303E+02  0.00000000000E+00 0.  1.
         13    1    4    4    0    0  0.19661313347E+02  0.50468992883E+02 -0.12490720437E+03  0.13614512914E+03  0.00000000000E+00 0. -1.
        -13    1    3    3    0    0 -0.51810893125E+01 -0.54298929239E+02 -0.63785704072E+01  0.54917242861E+02  0.00000000000E+00 0.  1.
         13    1    3    3    0    0  0.23608843835E+02 -0.11535567435E+02 -0.86308943335E+02  0.90220178025E+02  0.00000000000E+00 0. -1.
         21    1    1    2  502  501  0.15617860667E+02  0.18308545898E+02 -0.14207115667E+03  0.14409487841E+03  0.00000000000E+00 0.  1.
<scales pt_clust_5="13000.00000" pt_clust_6="13000.00000" pt_clust_7="13000.00000" pt_clust_8="13000.00000" pt_clust_9="24.06492"></scales>
<clustering>
<clus scale="   24.065">  2  9  1 -1</clus>
<clus scale="   88.318">  7  8 -1 -1</clus>
<clus scale="   92.791">  5  6 -1 -1</clus>
<clus scale="  109.102">  1  7  2 -1</clus>
<clus scale="   24.065">  2  5  1 -1</clus>
</clustering>
</event>
<event>
 9    1  0.2075077E-005  0.1251192E+03  0.7546771E-02  0.1236208E+00
         -1   -1    0    0    0  501 -0.00000000000E+00  0.00000000000E+00  0.69562516722E+03  0.69562516722E+03  0.00000000000E+00 0.  1.
          1   -1    0    0  502    0  0.00000000000E+00 -0.00000000000E+00 -0.43228368448E+02  0.43228368448E+02  0.00000000000E+00 0. -1.
         23    2    1    2    0    0  0.21978411710E+02  0.60044372546E+02  0.31760795791E+03  0.33817667894E+03  0.96955010188E+02 0.  0.
         23    2    1    2    0    0  0.18809272437E+02 -0.11216983215E+03  0.27413189936E+03  0.31089955854E+03  0.92597933458E+02 0.  0.
        -11    1    3    3    0    0 -0.29285836130E+02 -0.24042185351E+01  0.14006722369E+03  0.14311627306E+03  0.00000000000E+00 0.  1.
         11    1    3    3    0    0  0.51264247841E+02  0.62448591081E+02  0.17754073422E+03  0.19506040588E+03  0.00000000000E+00 0. -1.
        -11    1    4    4    0    0  0.46890448310E+02 -0.10035330980E+03  0.24440105832E+03  0.26833072548E+03  0.00000000000E+00 0.  1.
         11    1    4    4    0    0 -0.28081175873E+02 -0.11816522344E+02  0.29730841035E+02  0.42568833052E+02  0.00000000000E+00 0. -1.
         21    1    1    2  502  501 -0.40787684147E+02  0.52125459600E+02  0.60656941514E+02  0.89777298191E+02  0.00000000000E+00 0. -1.
<scales pt_clust_5="13000.00000" pt_clust_6="13000.00000" pt_clust_7="13000.00000" pt_clust_8="13000.00000" pt_clust_9="66.18685"></scales>
<clustering>
<clus scale="   66.187">  2  9  1 -1</clus>
<clus scale="   92.598">  7  8 -1 -1</clus>
<clus scale="   96.955">  5  6 -1 -1</clus>
<clus scale="  121.774">  2  7  1 -1</clus>
<clus scale="   66.187">  2  5  1 -1</clus>
</clustering>
</event>
<event>
 9    1  0.2075077E-005  0.2929377E+03  0.7546771E-02  0.1088871E+00
          2   -1    0    0  502    0  0.00000000000E+00  0.00000000000E+00  0.14161688399E+04  0.14161688399E+04  0.00000000000E+00 0. -1.
         -2   -1    0    0    0  501 -0.00000000000E+00 -0.00000000000E+00 -0.74887365777E+02  0.74887365777E+02  0.00000000000E+00 0.  1.
         23    2    1    2    0    0  0.25950321251E+03 -0.70391944710E+02  0.40084867966E+03  0.49151412910E+03  0.92787563498E+02 0.  0.
         23    2    1    2    0    0 -0.28240868201E+03  0.88064981340E+02  0.85970870409E+03  0.91379025139E+03  0.91670404280E+02 0.  0.
        -11    1    3    3    0    0  0.18271642202E+03 -0.91626720173E+02  0.29943897736E+03  0.36255268291E+03  0.00000000000E+00 0. -1.
         11    1    3    3    0    0  0.76786790492E+02  0.21234775463E+02  0.10140970230E+03  0.12896144619E+03  0.00000000000E+00 0.  1.
        -13    1    4    4    0    0 -0.11621672613E+03  0.81333135676E+02  0.35096145232E+03  0.37854371928E+03  0.00000000000E+00 0.  1.
         13    1    4    4    0    0 -0.16619195588E+03  0.67318456643E+01  0.50874725177E+03  0.53524653210E+03  0.00000000000E+00 0. -1.
         21    1    1    2  502  501  0.22905469493E+02 -0.17673036630E+02  0.80724090330E+02  0.85751825147E+02  0.00000000000E+00 0. -1.
<scales pt_clust_5="13000.00000" pt_clust_6="13000.00000" pt_clust_7="13000.00000" pt_clust_8="13000.00000" pt_clust_9="28.93090"></scales>
<clustering>
<clus scale="   28.931">  1  9  2 -1</clus>
<clus scale="   91.670">  7  8 -1 -1</clus>
<clus scale="   92.788">  5  6 -1 -1</clus>
<clus scale="  292.586">  1  7  2 -1</clus>
<clus scale="   28.931">  1  5  2 -1</clus>
</clustering>
</event>
<event>
 9    1  0.2075077E-005  0.9469524E+02  0.7546771E-02  0.1292274E+00
          1   -1    0    0  502    0  0.00000000000E+00  0.00000000000E+00  0.10471085684E+03  0.10471085684E+03  0.00000000000E+00 0. -1.
         -1   -1    0    0    0  501 -0.00000000000E+00 -0.00000000000E+00 -0.22081067838E+03  0.22081067838E+03  0.00000000000E+00 0.  1.
         23    2    1    2    0    0 -0.21172043859E+02  0.95755051891E+01 -0.16446763201E+03  0.18922793570E+03  0.90651331644E+02 0.  0.
         23    2    1    2    0    0  0.37092078438E+02  0.73492989502E+01  0.22341793373E+02  0.10140448858E+03  0.91399562880E+02 0.  0.
        -11    1    4    4    0    0  0.47537904903E+01  0.28153520328E+02  0.47523076201E+02  0.55440616902E+02  0.00000000000E+00 0. -1.
         11    1    4    4    0    0  0.32338287948E+02 -0.20804221378E+02 -0.25181282828E+02  0.45963871675E+02  0.00000000000E+00 0.  1.
        -13    1    3    3    0    0 -0.99833799642E+01 -0.36427309730E+02 -0.35460975128E+02  0.51808276624E+02  0.00000000000E+00 0.  1.
         13    1    3    3    0    0 -0.11188663895E+02  0.46002814919E+02 -0.12900665688E+03  0.13741965908E+03  0.00000000000E+00 0. -1.
         21    1    1    2  502  501 -0.15920034579E+02 -0.16924804139E+02  0.26026017095E+02  0.34889110937E+02  0.00000000000E+00 0.  1.
<scales pt_clust_5="13000.00000" pt_clust_6="13000.00000" pt_clust_7="13000.00000" pt_clust_8="13000.00000" pt_clust_9="23.23567"></scales>
<clustering>
<clus scale="   23.236">  1  9  2 -1</clus>
<clus scale="   90.651">  7  8 -1 -1</clus>
<clus scale="   91.400">  5  6 -1 -1</clus>
<clus scale="   93.973">  2  7  1 -1</clus>
<clus scale="   23.236">  1  5  2 -1</clus>
</clustering>
</event>
<event>
 9    1  0.2075077E-005  0.3187927E+03  0.7546771E-02  0.1076228E+00
         -4   -1    0    0    0  501 -0.00000000000E+00  0.00000000000E+00  0.71191455886E+03  0.71191455886E+03  0.00000000000E+00 0.  1.
          4   -1    0    0  502    0  0.00000000000E+00 -0.00000000000E+00 -0.25721946299E+03  0.25721946299E+03  0.00000000000E+00 0. -1.
         23    2    1    2    0    0  0.20909885316E+02  0.30857318670E+03  0.51545626279E+03  0.60799717594E+03  0.91163437021E+02 0.  0.
         23    2    1    2    0    0 -0.61079399218E+02 -0.28722141548E+03 -0.36094857668E+02  0.30938827304E+03  0.90506520359E+02 0.  0.
        -13    1    4    4    0    0 -0.83121683035E+02 -0.21431389892E+03 -0.15016529396E+02  0.23035875850E+03  0.00000000000E+00 0. -1.
         13    1    4    4    0    0  0.22042283817E+02 -0.72907516556E+02 -0.21078328272E+02  0.79029514544E+02  0.00000000000E+00 0.  1.
        -13    1    3    3    0    0  0.25210755694E+01  0.25366755363E+03  0.34680503200E+03  0.42968280604E+03  0.00000000000E+00 0.  1.
         13    1    3    3    0    0  0.18388809747E+02  0.54905633074E+02  0.16865123078E+03  0.17831436990E+03  0.00000000000E+00 0. -1.
         21    1    1    2  502  501  0.40169513902E+02 -0.21351771226E+02 -0.24666309250E+02  0.51748572866E+02  0.00000000000E+00 0. -1.
<scales pt_clust_5="13000.00000" pt_clust_6="13000.00000" pt_clust_7="13000.00000" pt_clust_8="13000.00000" pt_clust_9="45.49163"></scales>
<clustering>
<clus scale="   45.492">  2  9  1 -1</clus>
<clus scale="   90.507">  5  6 -1 -1</clus>
<clus scale="   91.163">  7  8 -1 -1</clus>
<clus scale="  318.605">  2  5  1 -1</clus>
<clus scale="   45.492">  2  5  1 -1</clus>
</clustering>
</event>
<event>
 9    1  0.2075077E-005  0.1040237E+03  0.7546771E-02  0.1274210E+00
          1   -1    0    0  502    0  0.00000000000E+00  0.00000000000E+00  0.26225983912E+03  0.26225983912E+03  0.00000000000E+00 0. -1.
         -1   -1    0    0    0  501 -0.00000000000E+00 -0.00000000000E+00 -0.10049050159E+03  0.10049050159E+03  0.00000000000E+00 0.  1.
         23    2    1    2    0    0  0.29812399827E+02 -0.47360822459E+02 -0.34595962469E+02  0.10896289120E+03  0.86857379378E+02 0.  0.
         23    2    1    2    0    0 -0.34192239160E+02  0.15192227663E+02  0.64950033201E+02  0.11842137610E+03  0.91679891501E+02 0.  0.
        -13    1    3    3    0    0  0.45521607610E+02 -0.30594695539E+00 -0.37915092997E+02  0.59244110592E+02  0.00000000000E+00 0.  1.
         13    1    3    3    0    0 -0.15709207783E+02 -0.47054875503E+02  0.33191305282E+01  0.49718780609E+02  0.00000000000E+00 0. -1.
        -13    1    4    4    0    0 -0.11779018471E+02  0.23295026245E+02  0.83967106514E+02  0.87931100870E+02  0.00000000000E+00 0. -1.
         13    1    4    4    0    0 -0.22413220689E+02 -0.81027985814E+01 -0.19017073313E+02  0.30490275235E+02  0.00000000000E+00 0.  1.
         21    1    1    2  502  501  0.43798393333E+01  0.32168594795E+02  0.13141526680E+03  0.13536607341E+03  0.00000000000E+00 0. -1.
<scales pt_clust_5="13000.00000" pt_clust_6="13000.00000" pt_clust_7="13000.00000" pt_clust_8="13000.00000" pt_clust_9="32.46539"></scales>
<clustering>
<clus scale="   32.465">  1  9  2 -1</clus>
<clus scale="   86.857">  5  6 -1 -1</clus>
<clus scale="   91.680">  7  8 -1 -1</clus>
<clus scale="   99.800">  2  5  1 -1</clus>
<clus scale="   32.465">  1  5  2 -1</clus>
</clustering>
</event>
<event>
 9    1  0.2075077E-005  0.1126023E+03  0.7546771E-02  0.1256030E+00
         -2   -1    0    0    0  501 -0.00000000000E+00  0.00000000000E+00  0.35023852016E+02  0.35023852016E+02  0.00000000000E+00 0.  1.
          2   -1    0    0  502    0  0.00000000000E+00 -0.00000000000E+00 -0.53625319270E+03  0.53625319270E+03  0.00000000000E+00 0. -1.
         23    2    1    2    0    0  0.72544325867E+02 -0.84040275411E+01 -0.12847988699E+03  0.17376100016E+03  0.91391995922E+02 0.  0.
         23    2    1    2    0    0 -0.47276416713E+02  0.27968061654E+02 -0.28894646669E+03  0.30782680723E+03  0.90829568882E+02 0.  0.
        -13    1    4    4    0    0 -0.55426084903E+02 -0.10785554179E+02 -0.22988107396E+03  0.23671435789E+03  0.00000000000E+00 0. -1.
         13    1    4    4    0    0  0.81496681909E+01  0.38753615833E+02 -0.59065392729E+02  0.71112449332E+02  0.00000000000E+00 0.  1.
        -13    1    3    3    0    0  0.36264063917E+02 -0.96034344238E+01  0.27387262846E+01  0.37613945635E+02  0.00000000000E+00 0.  1.
         13    1    3    3    0    0  0.36280261950E+02  0.11994068827E+01 -0.13121861328E+03  0.13614705452E+03  0.00000000000E+00 0. -1.
         21    1    1    2  502  501 -0.25267909155E+02 -0.19564034113E+02 -0.83802987000E+02  0.89689237337E+02  0.00000000000E+00 0.  1.
<scales pt_clust_5="13000.00000" pt_clust_6="13000.00000" pt_clust_7="13000.00000" pt_clust_8="13000.00000" pt_clust_9="31.95651"></scales>
<clustering>
<clus scale="   31.957">  2  9  1 -1</clus>
<clus scale="   90.830">  5  6 -1 -1</clus>
<clus scale="   91.392">  7  8 -1 -1</clus>
<clus scale="  112.146">  2  5  1 -1</clus>
<clus scale="   31.957">  2  5  1 -1</clus>
</clustering>
</event>
<event>
 9    1  0.2075077E-005  0.1155139E+03  0.7546771E-02  0.1250970E+00
          2   -1    0    0  502    0  0.00000000000E+00  0.00000000000E+00  0.10682737036E+03  0.10682737036E+03  0.00000000000E+00 0. -1.
         -2   -1    0    0    0  501 -0.00000000000E+00 -0.00000000000E+00 -0.26546106988E+03  0.26546106988E+03  0.00000000000E+00 0.  1.
         23    2    1    2    0    0 -0.21865691559E+02  0.87800231613E+02 -0.16965264829E+03  0.21279707722E+03  0.91178867418E+02 0.  0.
         23    2    1    2    0    0  0.12831974105E+02 -0.30071311385E+02 -0.11706851191E+02  0.96796081966E+02  0.90352021512E+02 0.  0.
        -11    1    4    4    0    0 -0.11432042478E+02 -0.43528884171E+02 -0.37750857666E+02  0.58741659893E+02  0.00000000000E+00 0. -1.
         11    1    4    4    0    0  0.24264016583E+02  0.13457572786E+02  0.26044006476E+02  0.38054422073E+02  0.00000000000E+00 0.  1.
        -13    1    3    3    0    0  0.23427157682E+02  0.29541270092E+02 -0.11484722555E+03  0.12087763885E+03  0.00000000000E+00 0.  1.
         13    1    3    3    0    0 -0.45292849241E+02  0.58258961521E+02 -0.54805422735E+02  0.91919438374E+02  0.00000000000E+00 0. -1.
         21    1    1    2  502  501  0.90337174538E+01 -0.57728920228E+02  0.22725799958E+02  0.62695281046E+02  0.00000000000E+00 0.  1.
<scales pt_clust_5="13000.00000" pt_clust_6="13000.00000" pt_clust_7="13000.00000" pt_clust_8="13000.00000" pt_clust_9="58.43147"></scales>
<clustering>
<clus scale="   58.431">  1  9  2 -1</clus>
<clus scale="   90.352">  5  6 -1 -1</clus>
<clus scale="   91.179">  7  8 -1 -1</clus>
<clus scale="  114.862">  1  5  2 -1</clus>
<clus scale="   58.431">  1  5  2 -1</clus>
</clustering>
</event>
<event>
 9    1  0.2075077E-005  0.1306920E+03  0.7546771E-02  0.1227538E+00
          2   -1    0    0  502    0  0.00000000000E+00  0.00000000000E+00  0.38883297178E+03  0.38883297178E+03  0.00000000000E+00 0. -1.
         -2   -1    0    0    0  501 -0.00000000000E+00 -0.00000000000E+00 -0.70298460812E+02  0.70298460812E+02  0.00000000000E+00 0.  1.
         23    2    1    2    0    0  0.81286435669E+02 -0.35204691793E+02  0.56020721049E+02  0.13780114430E+03  0.89464960937E+02 0.  0.
         23    2    1    2    0    0 -0.11378568659E+03  0.81847109887E+01  0.18981136848E+03  0.23723556339E+03  0.85077523288E+02 0.  0.
        -13    1    4    4    0    0 -0.79480269431E+01  0.31142322572E+02  0.60980381178E+02  0.68932011983E+02  0.00000000000E+00 0. -1.
         13    1    4    4    0    0 -0.10583765964E+03 -0.22957611583E+02  0.12883098730E+03  0.16830355141E+03  0.00000000000E+00 0.  1.
        -13    1    3    3    0    0  0.35138744136E+02 -0.74371668461E+00  0.70182096779E+02  0.78490834894E+02  0.00000000000E+00 0.  1.
         13    1    3    3    0    0  0.46147691532E+02 -0.34460975109E+02 -0.14161375730E+02  0.59310309406E+02  0.00000000000E+00 0. -1.
         21    1    1    2  502  501  0.32499250916E+02  0.27019980805E+02  0.72702421444E+02  0.84094724903E+02  0.00000000000E+00 0. -1.
<scales pt_clust_5="13000.00000" pt_clust_6="13000.00000" pt_clust_7="13000.00000" pt_clust_8="13000.00000" pt_clust_9="42.26441"></scales>
<clustering>
<clus scale="   42.264">  1  9  2 -1</clus>
<clus scale="   85.078">  5  6 -1 -1</clus>
<clus scale="   89.465">  7  8 -1 -1</clus>
<clus scale="  127.729">  1  5  2 -1</clus>
<clus scale="   42.264">  1  5  2 -1</clus>
</clustering>
</event>
<event>
 9    1  0.2075077E-005  0.9312813E+02  0.7546771E-02  0.1296599E+00
         -1   -1    0    0    0  501 -0.00000000000E+00  0.00000000000E+00  0.51644104096E+02  0.51644104096E+02  0.00000000000E+00 0.  1.
          1   -1    0    0  502    0  0.00000000000E+00 -0.00000000000E+00 -0.52943962550E+03  0.52943962550E+03  0.00000000000E+00 0. -1.
         23    2    1    2    0    0  0.13635968172E+00  0.56764216532E+01 -0.39529674279E+01  0.91138758332E+02  0.90875777643E+02 0.  0.
         23    2    1    2    0    0 -0.21753169021E+02 -0.12615198015E+02 -0.31127003354E+03  0.32579486476E+03  0.92848890903E+02 0.  0.
        -13    1    4    4    0    0  0.91069569050E+01  0.35423158562E+02 -0.87099037127E+02  0.94466814781E+02  0.00000000000E+00 0.  1.
         13    1    4    4    0    0 -0.30860125926E+02 -0.48038356577E+02 -0.22417099642E+03  0.23132804998E+03  0.00000000000E+00 0. -1.
        -13    1    3    3    0    0  0.27316736762E+02 -0.24187755608E+02 -0.26308761627E+02  0.44982247243E+02  0.00000000000E+00 0.  1.
         13    1    3    3    0    0 -0.27180377080E+02  0.29864177261E+02  0.22355794199E+02  0.46156511090E+02  0.00000000000E+00 0. -1.
         21    1    1    2  502  501  0.21616809340E+02  0.69387763616E+01 -0.16257252044E+03  0.16415010650E+03  0.00000000000E+00 0.  1.
<scales pt_clust_5="13000.00000" pt_clust_6="13000.00000" pt_clust_7="13000.00000" pt_clust_8="13000.00000" pt_clust_9="22.70315"></scales>
<clustering>
<clus scale="   22.703">  2  9  1 -1</clus>
<clus scale="   90.876">  7  8 -1 -1</clus>
<clus scale="   91.161">  1  7  2 -1</clus>
<clus scale="   92.849">  5  6 -1 -1</clus>
<clus scale="   22.703">  2  5  1 -1</clus>
</clustering>
</event>
<event>
 9    1  0.2075077E-005  0.1979440E+03  0.7546771E-02  0.1151677E+00
          1   -1    0    0  502    0  0.00000000000E+00  0.00000000000E+00  0.27309267526E+03  0.27309267526E+03  0.00000000000E+00 0. -1.
         -1   -1    0    0    0  501 -0.00000000000E+00 -0.00000000000E+00 -0.18964108771E+03  0.18964108771E+03  0.00000000000E+00 0.  1.
         23    2    1    2    0    0  0.27109845980E+02 -0.18503836624E+03 -0.25367359106E+02  0.21059655739E+03  0.93451946731E+02 0.  0.
         23    2    1    2    0    0 -0.19516331839E+02  0.15673347894E+03  0.54667144333E+02  0.19056411246E+03  0.91541868345E+02 0.  0.
        -11    1    3    3    0    0  0.40516636238E+02 -0.48834124130E+02 -0.36636791405E+02  0.73270894467E+02  0.00000000000E+00 0. -1.
         11    1    3    3    0    0 -0.13406790258E+02 -0.13620424211E+03  0.11269432299E+02  0.13732566292E+03  0.00000000000E+00 0.  1.
        -13    1    4    4    0    0  0.31374853187E+02  0.23560641167E+02  0.47996960137E+01  0.39528752909E+02  0.00000000000E+00 0.  1.
         13    1    4    4    0    0 -0.50891185026E+02  0.13317283777E+03  0.49867448319E+02  0.15103535955E+03  0.00000000000E+00 0. -1.
         21    1    1    2  502  501 -0.75935141404E+01  0.28304887299E+02  0.54151802326E+02  0.61573093127E+02  0.00000000000E+00 0. -1.
<scales pt_clust_5="13000.00000" pt_clust_6="13000.00000" pt_clust_7="13000.00000" pt_clust_8="13000.00000" pt_clust_9="29.30577"></scales>
<clustering>
<clus scale="   29.306">  1  9  2 -1</clus>
<clus scale="   91.542">  7  8 -1 -1</clus>
<clus scale="   93.452">  5  6 -1 -1</clus>
<clus scale="  197.049">  1  7  2 -1</clus>
<clus scale="   29.306">  1  5  2 -1</clus>
</clustering>
</event>
<event>
 9    1  0.2075077E-005  0.1093060E+03  0.7546771E-02  0.1262101E+00
          1   -1    0    0  502    0  0.00000000000E+00  0.00000000000E+00  0.65876721434E+02  0.65876721434E+02  0.00000000000E+00 0. -1.
         -1   -1    0    0    0  501 -0.00000000000E+00 -0.00000000000E+00 -0.43014435372E+03  0.43014435372E+03  0.00000000000E+00 0.  1.
         23    2    1    2    0    0 -0.45073849850E+02  0.41322656122E+02 -0.33768263750E+03  0.35520265305E+03  0.91652317018E+02 0.  0.
         23    2    1    2    0    0  0.51822982030E+02 -0.10719359440E+02 -0.25917404665E+02  0.10947263722E+03  0.92260610783E+02 0.  0.
        -13    1    4    4    0    0 -0.50161836685E+01 -0.20233238230E+02 -0.44318533757E+02  0.48976305110E+02  0.00000000000E+00 0.  1.
         13    1    4    4    0    0  0.56839165698E+02  0.95138787903E+01  0.18401129092E+02  0.60496332110E+02  0.00000000000E+00 0. -1.
        -13    1    3    3    0    0  0.33445198594E+01  0.56423466866E+02 -0.21817990876E+03  0.22538248825E+03  0.00000000000E+00 0.  1.
         13    1    3    3    0    0 -0.48418369710E+02 -0.15100810743E+02 -0.11950272875E+03  0.12982016480E+03  0.00000000000E+00 0. -1.
         21    1    1    2  502  501 -0.67491321794E+01 -0.30603296682E+02 -0.66759011266E+00  0.31345784877E+02  0.00000000000E+00 0.  1.
<scales pt_clust_5="13000.00000" pt_clust_6="13000.00000" pt_clust_7="13000.00000" pt_clust_8="13000.00000" pt_clust_9="31.33868"></scales>
<clustering>
<clus scale="   31.339">  1  9  2 -1</clus>
<clus scale="   91.652">  7  8 -1 -1</clus>
<clus scale="   92.261">  5  6 -1 -1</clus>
<clus scale="  108.793">  2  7  1 -1</clus>
<clus scale="   31.339">  1  5  2 -1</clus>
</clustering>
</event>
<event>
 9    1  0.2075077E-005  0.9208607E+02  0.7546771E-02  0.1298642E+00
          3   -1    0    0  502    0  0.00000000000E+00  0.00000000000E+00  0.10878108182E+03  0.10878108182E+03  0.00000000000E+00 0. -1.
         -3   -1    0    0    0  501 -0.00000000000E+00 -0.00000000000E+00 -0.15330687390E+03  0.15330687390E+03  0.00000000000E+00 0.  1.
         23    2    1    2    0    0 -0.24655787348E+02  0.25728121315E+02 -0.23715642419E+02  0.99914271028E+02  0.90280594722E+02 0.  0.
         23    2    1    2    0    0 -0.23719433142E+01  0.24879323809E+02  0.12630342325E+02  0.95766770661E+02  0.91581340607E+02 0.  0.
        -11    1    3    3    0    0 -0.55433175163E+02  0.13304541272E+02  0.33233514549E+01  0.57104223942E+02  0.00000000000E+00 0. -1.
         11    1    3    3    0    0  0.30777387814E+02  0.12423580043E+02 -0.27038993874E+02  0.42810047086E+02  0.00000000000E+00 0.  1.
        -13    1    4    4    0    0  0.13399704688E+02  0.51489126168E+02 -0.13928015883E+02  0.54997016517E+02  0.00000000000E+00 0.  1.
         13    1    4    4    0    0 -0.15771648002E+02 -0.26609802360E+02  0.26558358207E+02  0.40769754145E+02  0.00000000000E+00 0. -1.
         21    1    1    2  502  501  0.27027730663E+02 -0.50607445124E+02 -0.33440491990E+02  0.66406914032E+02  0.00000000000E+00 0.  1.
<scales pt_clust_5="13000.00000" pt_clust_6="13000.00000" pt_clust_7="13000.00000" pt_clust_8="13000.00000" pt_clust_9="57.37257"></scales>
<clustering>
<clus scale="   57.373">  2  9  1 -1</clus>
<clus scale="   90.281">  5  6 -1 -1</clus>
<clus scale="   90.793">  2  5  1 -1</clus>
<clus scale="   91.581">  7  8 -1 -1</clus>
<clus scale="   92.086">  1  5  2 -1</clus>
</clustering>
</event>
<event>
 9    1  0.2075077E-005  0.1247810E+03  0.7546771E-02  0.1236017E+00
          1   -1    0    0  502    0  0.00000000000E+00  0.00000000000E+00  0.66006538106E+03  0.66006538106E+03  0.00000000000E+00 0. -1.
         -1   -1    0    0    0  501 -0.00000000000E+00 -0.00000000000E+00 -0.35571537613E+02  0.35571537613E+02  0.00000000000E+00 0.  1.
         23    2    1    2    0    0 -0.71644905081E+02 -0.23342516239E+02  0.14631579159E+03  0.18774299528E+03  0.90339669683E+02 0.  0.
         23    2    1    2    0    0  0.66097357630E+02  0.61738257951E+02  0.40388898547E+03  0.42408536984E+03  0.92420858844E+02 0.  0.
        -11    1    4    4    0    0  0.57305875651E+02  0.85037719611E+02  0.29273792696E+03  0.31017877268E+03  0.00000000000E+00 0.  1.
         11    1    4    4    0    0  0.87914819797E+01 -0.23299461660E+02  0.11115105851E+03  0.11390659716E+03  0.00000000000E+00 0. -1.
        -13    1    3    3    0    0 -0.39521633345E+02  0.11923989183E+02  0.88280813240E+01  0.42214642486E+02  0.00000000000E+00 0.  1.
         13    1    3    3    0    0 -0.32123271736E+02 -0.35266505422E+02  0.13748771027E+03  0.14552835279E+03  0.00000000000E+00 0. -1.
         21    1    1    2  502  501  0.55475474508E+01 -0.38395741713E+02  0.74289066382E+02  0.83808553551E+02  0.00000000000E+00 0. -1.
<scales pt_clust_5="13000.00000" pt_clust_6="13000.00000" pt_clust_7="13000.00000" pt_clust_8="13000.00000" pt_clust_9="38.79444"></scales>
<clustering>
<clus scale="   38.794">  2  9  1 -1</clus>
<clus scale="   90.340">  7  8 -1 -1</clus>
<clus scale="   92.421">  5  6 -1 -1</clus>
<clus scale="  123.247">  2  7  1 -1</clus>
<clus scale="  124.781">  1  5  2 -1</clus>
</clustering>
</event>
<event>
 9    1  0.2075077E-005  0.1421063E+03  0.7546771E-02  0.1211170E+00
          1   -1    0    0  502    0  0.00000000000E+00  0.00000000000E+00  0.53562354104E+03  0.53562354104E+03  0.00000000000E+00 0. -1.
         -1   -1    0    0    0  501 -0.00000000000E+00 -0.00000000000E+00 -0.19723765259E+03  0.19723765259E+03  0.00000000000E+00 0.  1.
         23    2    1    2    0    0 -0.10530842472E+03 -0.27403989624E+02 -0.15500452136E+03  0.21016846138E+03  0.91123748567E+02 0.  0.
         23    2    1    2    0    0  0.63382689921E+02  0.50662085678E+02  0.37066866558E+03  0.39093791156E+03  0.94091331920E+02 0.  0.
        -13    1    4    4    0    0  0.83956272751E+02  0.36488994492E+02  0.22117398941E+03  0.23937008177E+03  0.00000000000E+00 0. -1.
         13    1    4    4    0    0 -0.20573582830E+02  0.14173091186E+02  0.14949467617E+03  0.15156782979E+03  0.00000000000E+00 0.  1.
        -13    1    3    3    0    0 -0.52654500026E+02  0.10598414275E+02 -0.14886987454E+02  0.55735492764E+02  0.00000000000E+00 0. -1.
         13    1    3    3    0    0 -0.52653924689E+02 -0.38002403899E+02 -0.14011753391E+03  0.15443296862E+03  0.00000000000E+00 0.  1.
         21    1    1    2  502  501  0.41925734795E+02 -0.23258096054E+02  0.12272174422E+03  0.13175482069E+03  0.00000000000E+00 0. -1.
<scales pt_clust_5="13000.00000" pt_clust_6="13000.00000" pt_clust_7="13000.00000" pt_clust_8="13000.00000" pt_clust_9="47.94483"></scales>
<clustering>
<clus scale="   47.945">  1  9  2 -1</clus>
<clus scale="   91.124">  7  8 -1 -1</clus>
<clus scale="   94.091">  5  6 -1 -1</clus>
<clus scale="  140.159">  2  7  1 -1</clus>
<clus scale="   47.945">  1  5  2 -1</clus>
</clustering>
</event>
<event>
 9    1  0.2075077E-005  0.2885619E+03  0.7546771E-02  0.1091180E+00
          1   -1    0    0  502    0  0.00000000000E+00  0.00000000000E+00  0.23899094696E+03  0.23899094696E+03  0.00000000000E+00 0. -1.
         -1   -1    0    0    0  501 -0.00000000000E+00 -0.00000000000E+00 -0.41146902812E+03  0.41146902812E+03  0.00000000000E+00 0.  1.
         23    2    1    2    0    0  0.15034216014E+03  0.21901497424E+03 -0.12564949980E+03  0.30745222104E+03  0.90381122808E+02 0.  0.
         23    2    1    2    0    0 -0.13575971120E+03 -0.25025959819E+03 -0.61498791809E+02  0.30553657289E+03  0.92249283513E+02 0.  0.
        -11    1    3    3    0    0  0.10076138613E+03  0.73238363415E+02 -0.37792136890E+02  0.13017280984E+03  0.00000000000E+00 0. -1.
         11    1    3    3    0    0  0.49580774011E+02  0.14577661083E+03 -0.87857362909E+02  0.17727941120E+03  0.00000000000E+00 0.  1.
        -13    1    4    4    0    0  0.12169490124E+02 -0.41190843580E+02 -0.47401104535E+01  0.43211696701E+02  0.00000000000E+00 0. -1.
         13    1    4    4    0    0 -0.14792920133E+03 -0.20906875461E+03 -0.56758681355E+02  0.26232487619E+03  0.00000000000E+00 0.  1.
         21    1    1    2  502  501 -0.14582448941E+02  0.31244623947E+02  0.14670210439E+02  0.37471181153E+02  0.00000000000E+00 0.  1.
<scales pt_clust_5="13000.00000" pt_clust_6="13000.00000" pt_clust_7="13000.00000" pt_clust_8="13000.00000" pt_clust_9="34.48006"></scales>
<clustering>
<clus scale="   34.480">  1  9  2 -1</clus>
<clus scale="   90.381">  5  6 -1 -1</clus>
<clus scale="   92.249">  7  8 -1 -1</clus>
<clus scale="  287.970">  2  5  1 -1</clus>
<clus scale="   34.480">  1  5  2 -1</clus>
</clustering>
</event>
<event>
 9    1  0.2075077E-005  0.9657380E+02  0.7546771E-02  0.1287745E+00
         -3   -1    0    0    0  501 -0.00000000000E+00  0.00000000000E+00  0.27825656738E+03  0.27825656738E+03  0.00000000000E+00 0.  1.
          3   -1    0    0  502    0  0.00000000000E+00 -0.00000000000E+00 -0.63125831189E+02  0.63125831189E+02  0.00000000000E+00 0. -1.
         23    2    1    2    0    0  0.24369177379E+00 -0.58776504908E+02  0.12228561211E+03  0.16320388100E+03  0.90702805522E+02 0.  0.
         23    2    1    2    0    0  0.17815379608E+02  0.18722306015E+02  0.25149659695E+02  0.97474460628E+02  0.90558558949E+02 0.  0.
        -11    1    4    4    0    0 -0.92236116772E+01  0.24311411131E+02  0.52515214445E+02  0.58600063752E+02  0.00000000000E+00 0.  1.
         11    1    4    4    0    0  0.27038991286E+02 -0.55891051158E+01 -0.27365554750E+02  0.38874396876E+02  0.00000000000E+00 0. -1.
        -11    1    3    3    0    0 -0.12017383565E+02 -0.79243470906E+02  0.11073222901E+03  0.13669517815E+03  0.00000000000E+00 0. -1.
         11    1    3    3    0    0  0.12261075339E+02  0.20466965998E+02  0.11553383104E+02  0.26508702850E+02  0.00000000000E+00 0.  1.
         21    1    1    2  502  501 -0.18059071382E+02  0.40054198893E+02  0.67695464380E+02  0.80704056935E+02  0.00000000000E+00 0.  1.
<scales pt_clust_5="13000.00000" pt_clust_6="13000.00000" pt_clust_7="13000.00000" pt_clust_8="13000.00000" pt_clust_9="43.93710"></scales>
<clustering>
<clus scale="   43.937">  1  9  2 -1</clus>
<clus scale="   90.559">  5  6 -1 -1</clus>
<clus scale="   90.703">  7  8 -1 -1</clus>
<clus scale="   96.438">  2  5  1 -1</clus>
<clus scale="   96.438">  2  5  1 -1</clus>
</clustering>
</event>
<event>
 9    1  0.2075077E-005  0.1487346E+03  0.7546771E-02  0.1203303E+00
         -2   -1    0    0    0  501 -0.00000000000E+00  0.00000000000E+00  0.54560169613E+02  0.54560169613E+02  0.00000000000E+00 0.  1.
          2   -1    0    0  502    0  0.00000000000E+00 -0.00000000000E+00 -0.56110428749E+03  0.56110428749E+03  0.00000000000E+00 0. -1.
         23    2    1    2    0    0 -0.36473202735E+02  0.11420663854E+03 -0.12506162942E+03  0.19523109372E+03  0.90007321902E+02 0.  0.
         23    2    1    2    0    0  0.54614974462E+02 -0.10348117614E+03 -0.25883771539E+03  0.29599100812E+03  0.83201951448E+02 0.  0.
        -13    1    4    4    0    0  0.31380300457E+02 -0.75920434133E+02 -0.84065476770E+02  0.11753995049E+03  0.00000000000E+00 0.  1.
         13    1    4    4    0    0  0.23234674005E+02 -0.27560742011E+02 -0.17477223862E+03  0.17845105763E+03  0.00000000000E+00 0. -1.
        -13    1    3    3    0    0  0.22789078972E+02  0.38055402979E+02 -0.10756566355E+02  0.45642738043E+02  0.00000000000E+00 0.  1.
         13    1    3    3    0    0 -0.59262281707E+02  0.76151235564E+02 -0.11430506307E+03  0.14958835568E+03  0.00000000000E+00 0. -1.
         21    1    1    2  502  501 -0.18141771727E+02 -0.10725462400E+02 -0.12264477306E+03  0.12444235526E+03  0.00000000000E+00 0.  1.
<scales pt_clust_5="13000.00000" pt_clust_6="13000.00000" pt_clust_7="13000.00000" pt_clust_8="13000.00000" pt_clust_9="21.07509"></scales>
<clustering>
<clus scale="   21.075">  2  9  1 -1</clus>
<clus scale="   83.202">  5  6 -1 -1</clus>
<clus scale="   90.007">  7  8 -1 -1</clus>
<clus scale="  144.718">  2  5  1 -1</clus>
<clus scale="   21.075">  2  5  1 -1</clus>
</clustering>
</event>
<event>
 9    1  0.2075077E-005  0.1150203E+03  0.7546771E-02  0.1252125E+00
          1   -1    0    0  502    0  0.00000000000E+00  0.00000000000E+00  0.84366392711E+03  0.84366392711E+03  0.00000000000E+00 0. -1.
         -1   -1    0    0    0  501 -0.00000000000E+00 -0.00000000000E+00 -0.32452193820E+02  0.32452193820E+02  0.00000000000E+00 0.  1.
         23    2    1    2    0    0 -0.66235852646E+02  0.14189877852E+02  0.10748197843E+03  0.15625993508E+03  0.90973901826E+02 0.  0.
         23    2    1    2    0    0  0.74963280151E+02 -0.40356350771E+02  0.59734516956E+03  0.60995380970E+03  0.89298767895E+02 0.  0.
        -11    1    3    3    0    0 -0.84398906164E+02  0.29757274637E+02  0.85666594474E+02  0.12388476970E+03  0.00000000000E+00 0.  1.
         11    1    3    3    0    0  0.18163053519E+02 -0.15567396784E+02  0.21815383959E+02  0.32375165374E+02  0.00000000000E+00 0. -1.
        -11    1    4    4    0    0 -0.60167150197E+01 -0.38051016283E+02  0.12811934534E+03  0.13378582642E+03  0.00000000000E+00 0.  1.
         11    1    4    4    0    0  0.80979995170E+02 -0.23053344881E+01  0.46922582422E+03  0.47616798328E+03  0.00000000000E+00 0. -1.
         21    1    1    2  502  501 -0.87274275051E+01  0.26166472919E+02  0.10638458529E+03  0.10990237615E+03  0.00000000000E+00 0.  1.
<scales pt_clust_5="13000.00000" pt_clust_6="13000.00000" pt_clust_7="13000.00000" pt_clust_8="13000.00000" pt_clust_9="27.58355"></scales>
<clustering>
<clus scale="   27.584">  1  9  2 -1</clus>
<clus scale="   89.299">  7  8 -1 -1</clus>
<clus scale="   90.974">  5  6 -1 -1</clus>
<clus scale="  113.700">  1  7  2 -1</clus>
<clus scale="   27.584">  1  5  2 -1</clus>
</clustering>
</event>
<event>
 9    1  0.2075077E-005  0.1909918E+03  0.7546771E-02  0.1157745E+00
         -1   -1    0    0    0  501 -0.00000000000E+00  0.00000000000E+00  0.27244429737E+03  0.27244429737E+03  0.00000000000E+00 0.  1.
          1   -1    0    0  502    0  0.00000000000E+00 -0.00000000000E+00 -0.18055364663E+03  0.18055364663E+03  0.00000000000E+00 0. -1.
         23    2    1    2    0    0 -0.89343519045E+02 -0.14518423894E+03  0.13024349905E+03  0.23417346486E+03  0.93878192176E+02 0.  0.
         23    2    1    2    0    0  0.10616081203E+03  0.11885724883E+03 -0.31237818842E+02  0.18678457595E+03  0.92279536618E+02 0.  0.
        -13    1    3    3    0    0 -0.10840551945E+03 -0.12142362904E+03  0.11927554870E+03  0.20179720230E+03  0.00000000000E+00 0.  1.
         13    1    3    3    0    0  0.19062000409E+02 -0.23760609906E+02  0.10967950352E+02  0.32376262564E+02  0.00000000000E+00 0. -1.
        -13    1    4    4    0    0 -0.15161960436E+01  0.30730451140E+02  0.21979618883E+02  0.37812208663E+02  0.00000000000E+00 0.  1.
         13    1    4    4    0    0  0.10767700807E+03  0.88126797688E+02 -0.53217437725E+02  0.14897236729E+03  0.00000000000E+00 0. -1.
         21    1    1    2  502  501 -0.16817292981E+02  0.26326990115E+02 -0.71150294699E+01  0.32039903185E+02  0.00000000000E+00 0.  1.
<scales pt_clust_5="13000.00000" pt_clust_6="13000.00000" pt_clust_7="13000.00000" pt_clust_8="13000.00000" pt_clust_9="31.23991"></scales>
<clustering>
<clus scale="   31.240">  2  9  1 -1</clus>
<clus scale="   92.280">  7  8 -1 -1</clus>
<clus scale="   93.878">  5  6 -1 -1</clus>
<clus scale="  190.211">  2  7  1 -1</clus>
<clus scale="   31.240">  2  5  1 -1</clus>
</clustering>
</event>
<event>
 9    1  0.2075077E-005  0.1513919E+03  0.7546771E-02  0.1198857E+00
         -2   -1    0    0    0  501 -0.00000000000E+00  0.00000000000E+00  0.62840991207E+02  0.62840991207E+02  0.00000000000E+00 0.  1.
          2   -1    0    0  502    0  0.00000000000E+00 -0.00000000000E+00 -0.55352862312E+03  0.55352862312E+03  0.00000000000E+00 0. -1.
         23    2    1    2    0    0 -0.10702679145E+02  0.10127286477E+03 -0.76483514237E+02  0.15660591376E+03  0.91131464352E+02 0.  0.
         23    2    1    2    0    0  0.37336093536E+02 -0.12289923065E+03 -0.37941066066E+03  0.41090039005E+03  0.91588625639E+02 0.  0.
        -11    1    4    4    0    0 -0.15889391368E+02 -0.82025091039E+02 -0.14799303476E+03  0.16994860004E+03  0.00000000000E+00 0.  1.
         11    1    4    4    0    0  0.53225484904E+02 -0.40874139614E+02 -0.23141762591E+03  0.24095179002E+03  0.00000000000E+00 0. -1.
        -11    1    3    3    0    0  0.29373830684E+02  0.19031442368E+01 -0.14350795715E+02  0.32747354468E+02  0.00000000000E+00 0. -1.
         11    1    3    3    0    0 -0.40076509828E+02  0.99369720534E+02 -0.62132718522E+02  0.12385855929E+03  0.00000000000E+00 0.  1.
         21    1    1    2  502  501 -0.26633414391E+02  0.21626365882E+02 -0.34793457018E+02  0.48863310516E+02  0.00000000000E+00 0.  1.
<scales pt_clust_5="13000.00000" pt_clust_6="13000.00000" pt_clust_7="13000.00000" pt_clust_8="13000.00000" pt_clust_9="34.30799"></scales>
<clustering>
<clus scale="   34.308">  1  9  2 -1</clus>
<clus scale="   91.131">  7  8 -1 -1</clus>
<clus scale="   91.589">  5  6 -1 -1</clus>
<clus scale="  151.116">  1  7  2 -1</clus>
<clus scale="  151.392">  2  5  1 -1</clus>
</clustering>
</event>
<event>
 9    1  0.2075077E-005  0.1498232E+03  0.7546771E-02  0.1201148E+00
          4   -1    0    0  502    0  0.00000000000E+00  0.00000000000E+00  0.33368976896E+03  0.33368976896E+03  0.00000000000E+00 0. -1.
         -4   -1    0    0    0  501 -0.00000000000E+00 -0.00000000000E+00 -0.80383950850E+02  0.80383950850E+02  0.00000000000E+00 0.  1.
         23    2    1    2    0    0  0.10588854581E+03  0.35401858468E+02  0.10249441381E+03  0.17694688226E+03  0.91320417006E+02 0.  0.
         23    2    1    2    0    0 -0.12109143039E+03 -0.21718034438E+02  0.10490227123E+03  0.18686727886E+03  0.93702112394E+02 0.  0.
        -11    1    4    4    0    0 -0.36783818288E+02 -0.39473977468E+02  0.38807692708E+01  0.54095328404E+02  0.00000000000E+00 0.  1.
         11    1    4    4    0    0 -0.84307612105E+02  0.17755943030E+02  0.10102150195E+03  0.13277195046E+03  0.00000000000E+00 0. -1.
        -11    1    3    3    0    0  0.46069012890E+02  0.36029810497E+02  0.10146661887E+03  0.11711522504E+03  0.00000000000E+00 0. -1.
         11    1    3    3    0    0  0.59819532920E+02 -0.62795202942E+00  0.10277949432E+01  0.59831657214E+02  0.00000000000E+00 0.  1.
         21    1    1    2  502  501  0.15202884583E+02 -0.13683824030E+02  0.45909133072E+02  0.50259558685E+02  0.00000000000E+00 0.  1.
<scales pt_clust_5="13000.00000" pt_clust_6="13000.00000" pt_clust_7="13000.00000" pt_clust_8="13000.00000" pt_clust_9="20.45421"></scales>
<clustering>
<clus scale="   20.454">  1  9  2 -1</clus>
<clus scale="   91.320">  7  8 -1 -1</clus>
<clus scale="   93.702">  5  6 -1 -1</clus>
<clus scale="  148.345">  2  7  1 -1</clus>
<clus scale="   20.454">  1  5  2 -1</clus>
</clustering>
</event>
<event>
 9    1  0.2075077E-005  0.1043669E+03  0.7546771E-02  0.1271475E+00
         -3   -1    0    0    0  501 -0.00000000000E+00  0.00000000000E+00  0.69969237075E+02  0.69969237075E+02  0.00000000000E+00 0.  1.
          3   -1    0    0  502    0  0.00000000000E+00 -0.00000000000E+00 -0.33269051242E+03  0.33269051242E+03  0.00000000000E+00 0. -1.
         23    2    1    2    0    0  0.57752550881E+02 -0.37882283587E+02 -0.14029423311E+02  0.11599266062E+03  0.92125176024E+02 0.  0.
         23    2    1    2    0    0 -0.38571284654E+02  0.21983357282E+02 -0.23880415539E+03  0.25986292172E+03  0.92359631089E+02 0.  0.
        -13    1    4    4    0    0 -0.62681253694E+02  0.71932993277E+01 -0.10025226801E+03  0.11845336788E+03  0.00000000000E+00 0. -1.
         13    1    4    4    0    0  0.24109969040E+02  0.14790057954E+02 -0.13855188738E+03  0.14140955384E+03  0.00000000000E+00 0.  1.
        -13    1    3    3    0    0 -0.12452076662E+02 -0.21354684951E+02 -0.33173806943E+02  0.41371224899E+02  0.00000000000E+00 0. -1.
         13    1    3    3    0    0  0.70204627543E+02 -0.16527598636E+02  0.19144383632E+02  0.74621435725E+02  0.00000000000E+00 0.  1.
         21    1    1    2  502  501 -0.19181266227E+02  0.15898926305E+02 -0.98876966412E+01  0.26804167150E+02  0.00000000000E+00 0. -1.
<scales pt_clust_5="13000.00000" pt_clust_6="13000.00000" pt_clust_7="13000.00000" pt_clust_8="13000.00000" pt_clust_9="24.91379"></scales>
<clustering>
<clus scale="   24.914">  1  9  2 -1</clus>
<clus scale="   92.125">  7  8 -1 -1</clus>
<clus scale="   92.360">  5  6 -1 -1</clus>
<clus scale="  104.159">  1  7  2 -1</clus>
<clus scale="  104.367">  2  5  1 -1</clus>
</clustering>
</event>
<event>
 9    1  0.2075077E-005  0.1069571E+03  0.7546771E-02  0.1266311E+00
         -3   -1    0    0    0  501 -0.00000000000E+00  0.00000000000E+00  0.12899803736E+03  0.12899803736E+03  0.00000000000E+00 0.  1.
          3   -1    0    0  502    0  0.00000000000E+00 -0.00000000000E+00 -0.16728490549E+03  0.16728490549E+03  0.00000000000E+00 0. -1.
         23    2    1    2    0    0  0.29833604486E+02 -0.53135418126E+02  0.68868907249E+02  0.12972728365E+03  0.91503142681E+02 0.  0.
         23    2    1    2    0    0 -0.67952034051E+01  0.36345513139E+02 -0.87840715920E+02  0.13212107840E+03  0.91503097592E+02 0.  0.
        -11    1    4    4    0    0  0.78433888097E+01 -0.27610127269E+02 -0.10176393872E+02  0.30453191427E+02  0.00000000000E+00 0.  1.
         11    1    4    4    0    0 -0.14638592215E+02  0.63955640408E+02 -0.77664322048E+02  0.10166788697E+03  0.00000000000E+00 0. -1.
        -13    1    3    3    0    0 -0.97679402032E+01 -0.39302737102E+02  0.76998072079E+02  0.86998970703E+02  0.00000000000E+00 0.  1.
         13    1    3    3    0    0  0.39601544689E+02 -0.13832681024E+02 -0.81291648303E+01  0.42728312943E+02  0.00000000000E+00 0. -1.
         21    1    1    2  502  501 -0.23038401081E+02  0.16789904987E+02 -0.19315059455E+02  0.34434580810E+02  0.00000000000E+00 0. -1.
<scales pt_clust_5="13000.00000" pt_clust_6="13000.00000" pt_clust_7="13000.00000" pt_clust_8="13000.00000" pt_clust_9="28.50735"></scales>
<clustering>
<clus scale="   28.507">  2  9  1 -1</clus>
<clus scale="   91.503">  5  6 -1 -1</clus>
<clus scale="   91.503">  7  8 -1 -1</clus>
<clus scale="  106.957">  2  5  1 -1</clus>
<clus scale="   28.507">  2  5  1 -1</clus>
</clustering>
</event>
<event>
 9    1  0.2075077E-005  0.1375043E+03  0.7546771E-02  0.1217881E+00
          2   -1    0    0  502    0  0.00000000000E+00  0.00000000000E+00  0.28323671715E+03  0.28323671715E+03  0.00000000000E+00 0. -1.
         -2   -1    0    0    0  501 -0.00000000000E+00 -0.00000000000E+00 -0.83822295263E+02  0.83822295263E+02  0.00000000000E+00 0.  1.
         23    2    1    2    0    0  0.13706446818E+02  0.10280775970E+03  0.66518508508E+02  0.15396205138E+03  0.92316299499E+02 0.  0.
         23    2    1    2    0    0 -0.42898355090E+02 -0.92835529386E+02  0.97223944958E+02  0.16593657281E+03  0.87314067237E+02 0.  0.
        -11    1    3    3    0    0 -0.21458990677E+02  0.89361304559E+02  0.19885874721E+02  0.94028607597E+02  0.00000000000E+00 0.  1.
         11    1    3    3    0    0  0.35165437495E+02  0.13446455140E+02  0.46632633787E+02  0.59933443785E+02  0.00000000000E+00 0. -1.
        -13    1    4    4    0    0 -0.55582487593E+02 -0.76759707491E+02  0.35998174901E+02  0.10137718785E+03  0.00000000000E+00 0.  1.
         13    1    4    4    0    0  0.12684132503E+02 -0.16075821895E+02  0.61225770057E+02  0.64559384957E+02  0.00000000000E+00 0. -1.
         21    1    1    2  502  501  0.29191908272E+02 -0.99722303133E+01  0.35671968426E+02  0.47160388223E+02  0.00000000000E+00 0. -1.
<scales pt_clust_5="13000.00000" pt_clust_6="13000.00000" pt_clust_7="13000.00000" pt_clust_8="13000.00000" pt_clust_9="30.84822"></scales>
<clustering>
<clus scale="   30.848">  1  9  2 -1</clus>
<clus scale="   87.314">  7  8 -1 -1</clus>
<clus scale="   92.316">  5  6 -1 -1</clus>
<clus scale="  134.197">  1  7  2 -1</clus>
<clus scale="   30.848">  1  5  2 -1</clus>
</clustering>
</event>
<event>
 9    1  0.2075077E-005  0.4276356E+03  0.7546771E-02  0.1066410E+00
         -1   -1    0    0    0  501 -0.00000000000E+00  0.00000000000E+00  0.32503124087E+03  0.32503124087E+03  0.00000000000E+00 0.  1.
          1   -1    0    0  502    0  0.00000000000E+00 -0.00000000000E+00 -0.13578125774E+04  0.13578125774E+04  0.00000000000E+00 0. -1.
         23    2    1    2    0    0  0.15966757895E+03  0.41355141370E+03  0.87909432656E+02  0.46081456593E+03  0.90019377265E+02 0.  0.
         23    2    1    2    0    0 -0.10184312308E+01 -0.14672115430E+03 -0.32743241743E+03  0.37019197209E+03  0.91115168297E+02 0.  0.
        -11    1    4    4    0    0 -0.35172871495E+02 -0.12437191548E+03 -0.21852647005E+03  0.25388840533E+03  0.00000000000E+00 0. -1.
         11    1    4    4    0    0  0.34154440264E+02 -0.22349238817E+02 -0.10890594738E+03  0.11630356675E+03  0.00000000000E+00 0.  1.
        -13    1    3    3    0    0  0.13067745070E+03  0.29432669059E+03  0.25192339869E+02  0.32301617746E+03  0.00000000000E+00 0. -1.
         13    1    3    3    0    0  0.28990128250E+02  0.11922472311E+03  0.62717092787E+02  0.13779838847E+03  0.00000000000E+00 0.  1.
         21    1    1    2  502  501 -0.15864914772E+03 -0.26683025940E+03 -0.79325835178E+03  0.85183728027E+03  0.00000000000E+00 0. -1.
<scales pt_clust_5="13000.00000" pt_clust_6="13000.00000" pt_clust_7="13000.00000" pt_clust_8="13000.00000" pt_clust_9="418.05346"></scales>
<clustering>
<clus scale="   90.019">  7  8 -1 -1</clus>
<clus scale="   91.115">  5  6 -1 -1</clus>
<clus scale="  172.714">  2  5  1 -1</clus>
<clus scale="  418.053">  2  9  1 -1</clus>
<clus scale="  172.714">  2  5  1 -1</clus>
</clustering>
</event>
<event>
 9    1  0.2075077E-005  0.1146096E+03  0.7546771E-02  0.1252470E+00
         -1   -1    0    0    0  501 -0.00000000000E+00  0.00000000000E+00  0.15092442396E+03  0.15092442396E+03  0.00000000000E+00 0.  1.
          1   -1    0    0  502    0  0.00000000000E+00 -0.00000000000E+00 -0.18261920113E+03  0.18261920113E+03  0.00000000000E+00 0. -1.
         23    2    1    2    0    0  0.26213414394E-01 -0.59250487796E+02  0.65673192875E+02  0.12794048376E+03  0.92440132684E+02 0.  0.
         23    2    1    2    0    0 -0.54299720331E+01  0.86238384613E+02 -0.26663682156E+02  0.12973059354E+03  0.93018983964E+02 0.  0.
        -11    1    3    3    0    0 -0.11568593408E+02 -0.20167785559E+02  0.81089264756E+02  0.84356628586E+02  0.00000000000E+00 0.  1.
         11    1    3    3    0    0  0.11594806823E+02 -0.39082702237E+02 -0.15416071881E+02  0.43583855172E+02  0.00000000000E+00 0. -1.
        -13    1    4    4    0    0  0.19515182325E+02 -0.49041343262E+01  0.16330476082E+02  0.25914808966E+02  0.00000000000E+00 0. -1.
         13    1    4    4    0    0 -0.24945154358E+02  0.91142518939E+02 -0.42994158238E+02  0.10381578458E+03  0.00000000000E+00 0.  1.
         21    1    1    2  502  501  0.54037586187E+01 -0.26987896817E+02 -0.70704287887E+02  0.75872547785E+02  0.00000000000E+00 0.  1.
<scales pt_clust_5="13000.00000" pt_clust_6="13000.00000" pt_clust_7="13000.00000" pt_clust_8="13000.00000" pt_clust_9="27.52358"></scales>
<clustering>
<clus scale="   27.524">  2  9  1 -1</clus>
<clus scale="   92.440">  5  6 -1 -1</clus>
<clus scale="   93.019">  7  8 -1 -1</clus>
<clus scale="  114.140">  1  5  2 -1</clus>
<clus scale="   27.524">  2  5  1 -1</clus>
</clustering>
</event>
<event>
 9    1  0.2075077E-005  0.9221103E+02  0.7546771E-02  0.1298299E+00
          1   -1    0    0  502    0  0.00000000000E+00  0.00000000000E+00  0.11469812607E+03  0.11469812607E+03  0.00000000000E+00 0. -1.
         -1   -1    0    0    0  501 -0.00000000000E+00 -0.00000000000E+00 -0.11759856689E+03  0.11759856689E+03  0.00000000000E+00 0.  1.
         23    2    1    2    0    0 -0.14651205757E+02  0.39386263762E+01 -0.23532193155E+02  0.94897520964E+02  0.90673065254E+02 0.  0.
         23    2    1    2    0    0 -0.12396161642E+01  0.10862852839E+02 -0.16871177586E+02  0.94062446674E+02  0.91888894983E+02 0.  0.
        -11    1    3    3    0    0 -0.33187391371E+02 -0.31136076713E+02 -0.30274571143E+02  0.54657185045E+02  0.00000000000E+00 0.  1.
         11    1    3    3    0    0  0.18536185614E+02  0.35074703089E+02  0.67423779881E+01  0.40240335919E+02  0.00000000000E+00 0. -1.
        -13    1    4    4    0    0  0.46459335883E+01 -0.30475261332E+02  0.21315376883E+02  0.37478948008E+02  0.00000000000E+00 0.  1.
         13    1    4    4    0    0 -0.58855497525E+01  0.41338114171E+02 -0.38186554469E+02  0.56583498666E+02  0.00000000000E+00 0. -1.
         21    1    1    2  502  501  0.15890821921E+02 -0.14801479216E+02  0.37502929922E+02  0.43336725315E+02  0.00000000000E+00 0.  1.
<scales pt_clust_5="13000.00000" pt_clust_6="13000.00000" pt_clust_7="13000.00000" pt_clust_8="13000.00000" pt_clust_9="21.71640"></scales>
<clustering>
<clus scale="   21.716">  1  9  2 -1</clus>
<clus scale="   90.673">  5  6 -1 -1</clus>
<clus scale="   91.000">  2  5  1 -1</clus>
<clus scale="   91.889">  7  8 -1 -1</clus>
<clus scale="   21.716">  1  5  2 -1</clus>
</clustering>
</event>
<event>
 9    1  0.2075077E-005  0.1856303E+03  0.7546771E-02  0.1180192E+00
         -1   -1    0    0    0  501 -0.00000000000E+00  0.00000000000E+00  0.12789288109E+03  0.12789288109E+03  0.00000000000E+00 0.  1.
          1   -1    0    0  502    0  0.00000000000E+00 -0.00000000000E+00 -0.13059121787E+04  0.13059121787E+04  0.00000000000E+00 0. -1.
         23    2    1    2    0    0 -0.85685312526E+01 -0.83233295900E+02 -0.15100100791E+03  0.19530020030E+03  0.91321753024E+02 0.  0.
         23    2    1    2    0    0 -0.14655383278E+03  0.26333341665E+02  0.23637204999E+02  0.17493656306E+03  0.88727745667E+02 0.  0.
        -11    1    3    3    0    0  0.27328862314E+02 -0.17381293917E+02 -0.72941761301E+01  0.33199112925E+02  0.00000000000E+00 0. -1.
         11    1    3    3    0    0 -0.35897393566E+02 -0.65852001983E+02 -0.14370683178E+03  0.16210108738E+03  0.00000000000E+00 0.  1.
        -13    1    4    4    0    0 -0.12823464196E+03 -0.13807091144E+02  0.13639777484E+02  0.12969503728E+03  0.00000000000E+00 0.  1.
         13    1    4    4    0    0 -0.18319190812E+02  0.40140432809E+02  0.99974275150E+01  0.45241525781E+02  0.00000000000E+00 0. -1.
         21    1    1    2  502  501  0.15512236403E+03  0.56899954236E+02 -0.10506554947E+04  0.10635682965E+04  0.00000000000E+00 0. -1.
<scales pt_clust_5="13000.00000" pt_clust_6="13000.00000" pt_clust_7="13000.00000" pt_clust_8="13000.00000" pt_clust_9="163.05217"></scales>
<clustering>
<clus scale="   88.728">  7  8 -1 -1</clus>
<clus scale="   91.322">  5  6 -1 -1</clus>
<clus scale="  123.858">  1  5  2 -1</clus>
<clus scale="  163.052">  2  9  1 -1</clus>
<clus scale="  163.052">  2  5  1 -1</clus>
</clustering>
</event>
<event>
 9    1  0.2075077E-005  0.1480868E+03  0.7546771E-02  0.1203127E+00
          1   -1    0    0  502    0  0.00000000000E+00  0.00000000000E+00  0.13330501112E+04  0.13330501112E+04  0.00000000000E+00 0. -1.
         -1   -1    0    0    0  501 -0.00000000000E+00 -0.00000000000E+00 -0.23466503136E+02  0.23466503136E+02  0.00000000000E+00 0.  1.
         23    2    1    2    0    0  0.10561743375E+03 -0.68238153386E+00  0.35449525826E+03  0.38104572540E+03  0.91506550400E+02 0.  0.
         23    2    1    2    0    0 -0.13700842268E+03  0.76794769074E+01  0.82302195492E+03  0.83954485688E+03  0.92952386682E+02 0.  0.
        -11    1    4    4    0    0 -0.11653784118E+02 -0.24447551954E+02  0.62849295897E+02  0.68436302322E+02  0.00000000000E+00 0. -1.
         11    1    4    4    0    0 -0.12535463856E+03  0.32127028862E+02  0.76017265902E+03  0.77110855456E+03  0.00000000000E+00 0.  1.
        -13    1    3    3    0    0  0.87345122145E+02 -0.12674573015E+02  0.34683085770E+03  0.35788470073E+03  0.00000000000E+00 0. -1.
         13    1    3    3    0    0  0.18272311604E+02  0.11992191481E+02  0.76644005506E+01  0.23161024669E+02  0.00000000000E+00 0.  1.
         21    1    1    2  502  501  0.31390988928E+02 -0.69970953735E+01  0.13206639489E+03  0.13592603205E+03  0.00000000000E+00 0. -1.
<scales pt_clust_5="13000.00000" pt_clust_6="13000.00000" pt_clust_7="13000.00000" pt_clust_8="13000.00000" pt_clust_9="32.16137"></scales>
<clustering>
<clus scale="   32.161">  1  9  2 -1</clus>
<clus scale="   91.507">  7  8 -1 -1</clus>
<clus scale="   92.952">  5  6 -1 -1</clus>
<clus scale="  147.184">  2  7  1 -1</clus>
<clus scale="   32.161">  1  5  2 -1</clus>
</clustering>
</event>
<event>
 9    1  0.2075077E-005  0.1182516E+03  0.7546771E-02  0.1247244E+00
         -1   -1    0    0    0  501 -0.00000000000E+00  0.00000000000E+00  0.26249166154E+03  0.26249166154E+03  0.00000000000E+00 0.  1.
          1   -1    0    0  502    0  0.00000000000E+00 -0.00000000000E+00 -0.25457614989E+03  0.25457614989E+03  0.00000000000E+00 0. -1.
         23    2    1    2    0    0  0.34490194898E+02  0.68713729770E+02  0.22170895758E+03  0.25086476135E+03  0.88696766649E+02 0.  0.
         23    2    1    2    0    0 -0.32129241019E+02 -0.39021406261E+02 -0.89025167540E+02  0.13792861197E+03  0.92433020446E+02 0.  0.
        -11    1    4    4    0    0  0.42260523980E+01  0.20351632442E+02 -0.58181033220E+02  0.61782530609E+02  0.00000000000E+00 0.  1.
         11    1    4    4    0    0 -0.36355293417E+02 -0.59373038704E+02 -0.30844134321E+02  0.76146081359E+02  0.00000000000E+00 0. -1.
        -11    1    3    3    0    0  0.54415124621E+02  0.56583822016E+02  0.10099102819E+03  0.12791373060E+03  0.00000000000E+00 0.  1.
         11    1    3    3    0    0 -0.19924929723E+02  0.12129907754E+02  0.12071792939E+03  0.12295103075E+03  0.00000000000E+00 0. -1.
         21    1    1    2  502  501 -0.23609538787E+01 -0.29692323508E+02 -0.12476827840E+03  0.12827443811E+03  0.00000000000E+00 0. -1.
<scales pt_clust_5="13000.00000" pt_clust_6="13000.00000" pt_clust_7="13000.00000" pt_clust_8="13000.00000" pt_clust_9="29.78604"></scales>
<clustering>
<clus scale="   29.786">  2  9  1 -1</clus>
<clus scale="   88.697">  7  8 -1 -1</clus>
<clus scale="   92.433">  5  6 -1 -1</clus>
<clus scale="  115.355">  1  7  2 -1</clus>
<clus scale="   29.786">  2  5  1 -1</clus>
</clustering>
</event>
<event>
 9    1  0.2075077E-005  0.1089308E+03  0.7546771E-02  0.1266712E+00
         -2   -1    0    0    0  501 -0.00000000000E+00  0.00000000000E+00  0.95963328761E+02  0.95963328761E+02  0.00000000000E+00 0.  1.
          2   -1    0    0  502    0  0.00000000000E+00 -0.00000000000E+00 -0.18029121995E+03  0.18029121995E+03  0.00000000000E+00 0. -1.
         23    2    1    2    0    0  0.25062160331E+02 -0.25447942641E+02  0.17600630708E+02  0.10890613304E+03  0.10136594077E+03 0.  0.
         23    2    1    2    0    0 -0.49524512826E+02  0.19624865645E+02 -0.90410987765E+02  0.13969035160E+03  0.92203226085E+02 0.  0.
        -11    1    3    3    0    0 -0.63836730112E+01 -0.44882987355E+02  0.44237666652E+02  0.63341968598E+02  0.00000000000E+00 0.  1.
         11    1    3    3    0    0  0.31445833343E+02  0.19435044715E+02 -0.26637035944E+02  0.45564164445E+02  0.00000000000E+00 0. -1.
        -13    1    4    4    0    0 -0.71185799986E+02  0.34505323894E+02 -0.76087571372E+02  0.10976043920E+03  0.00000000000E+00 0.  1.
         13    1    4    4    0    0  0.21661287161E+02 -0.14880458249E+02 -0.14323416392E+02  0.29929912401E+02  0.00000000000E+00 0. -1.
         21    1    1    2  502  501  0.24462352494E+02  0.58230769954E+01 -0.11517534130E+02  0.27658064062E+02  0.00000000000E+00 0. -1.
<scales pt_clust_5="13000.00000" pt_clust_6="13000.00000" pt_clust_7="13000.00000" pt_clust_8="13000.00000" pt_clust_9="25.14587"></scales>
<clustering>
<clus scale="   25.146">  2  9  1 -1</clus>
<clus scale="   92.203">  7  8 -1 -1</clus>
<clus scale="  100.460">  2  7  1 -1</clus>
<clus scale="  101.366">  5  6 -1 -1</clus>
<clus scale="   25.146">  2  5  1 -1</clus>
</clustering>
</event>
<event>
 9    1  0.2075077E-005  0.9254328E+02  0.7546771E-02  0.1296848E+00
         -3   -1    0    0    0  501 -0.00000000000E+00  0.00000000000E+00  0.35065787240E+03  0.35065787240E+03  0.00000000000E+00 0.  1.
          3   -1    0    0  502    0  0.00000000000E+00 -0.00000000000E+00 -0.47923497879E+02  0.47923497879E+02  0.00000000000E+00 0. -1.
         23    2    1    2    0    0 -0.13124395635E+02  0.10778018777E+02  0.25253481611E+03  0.26915103497E+03  0.91542508305E+02 0.  0.
         23    2    1    2    0    0  0.97903643472E+01  0.10590893664E+02  0.54400788427E+02  0.10739861914E+03  0.91471303424E+02 0.  0.
        -11    1    3    3    0    0 -0.45311114083E+02  0.16491573209E+02  0.78914970422E+02  0.92480493095E+02  0.00000000000E+00 0.  1.
         11    1    3    3    0    0  0.32186718449E+02 -0.57135544325E+01  0.17361984569E+03  0.17667054187E+03  0.00000000000E+00 0. -1.
        -11    1    4    4    0    0 -0.30942557764E+02  0.29861616361E+02  0.43225481421E+02  0.60972126884E+02  0.00000000000E+00 0.  1.
         11    1    4    4    0    0  0.40732922111E+02 -0.19270722697E+02  0.11175307006E+02  0.46426492261E+02  0.00000000000E+00 0. -1.
         21    1    1    2  502  501  0.33340312874E+01 -0.21368912441E+02 -0.42012300183E+01  0.22031716166E+02  0.00000000000E+00 0. -1.
<scales pt_clust_5="13000.00000" pt_clust_6="13000.00000" pt_clust_7="13000.00000" pt_clust_8="13000.00000" pt_clust_9="21.62744"></scales>
<clustering>
<clus scale="   21.627">  2  9  1 -1</clus>
<clus scale="   91.471">  7  8 -1 -1</clus>
<clus scale="   91.543">  5  6 -1 -1</clus>
<clus scale="   92.473">  2  7  1 -1</clus>
<clus scale="   21.627">  2  5  1 -1</clus>
</clustering>
</event>
<event>
 9    1  0.2075077E-005  0.1296623E+03  0.7546771E-02  0.1228397E+00
          1   -1    0    0  502    0  0.00000000000E+00  0.00000000000E+00  0.61062515808E+03  0.61062515808E+03  0.00000000000E+00 0. -1.
         -1   -1    0    0    0  501 -0.00000000000E+00 -0.00000000000E+00 -0.44691238829E+02  0.44691238829E+02  0.00000000000E+00 0.  1.
         23    2    1    2    0    0  0.53941417370E+02 -0.67441679692E+02  0.12967037350E+03  0.18042172223E+03  0.90991952513E+02 0.  0.
         23    2    1    2    0    0 -0.30212584423E+02  0.98427153794E+02  0.26246658894E+03  0.29676960817E+03  0.92643322297E+02 0.  0.
        -11    1    4    4    0    0  0.22182707700E+02 -0.24884585751E+01  0.25205131308E+02  0.33668436127E+02  0.00000000000E+00 0.  1.
         11    1    4    4    0    0 -0.52395292123E+02  0.10091561237E+03  0.23726145763E+03  0.26310117205E+03  0.00000000000E+00 0. -1.
        -13    1    3    3    0    0  0.33488824774E+01 -0.60944989509E+02  0.29020715934E+02  0.67584826059E+02  0.00000000000E+00 0.  1.
         13    1    3    3    0    0  0.50592534892E+02 -0.64966901834E+01  0.10064965756E+03  0.11283689617E+03  0.00000000000E+00 0. -1.
         21    1    1    2  502  501 -0.23728832947E+02 -0.30985474102E+02  0.17379695682E+03  0.17812506651E+03  0.00000000000E+00 0. -1.
<scales pt_clust_5="13000.00000" pt_clust_6="13000.00000" pt_clust_7="13000.00000" pt_clust_8="13000.00000" pt_clust_9="39.02765"></scales>
<clustering>
<clus scale="   39.028">  1  9  2 -1</clus>
<clus scale="   90.992">  7  8 -1 -1</clus>
<clus scale="   92.643">  5  6 -1 -1</clus>
<clus scale="  128.488">  2  7  1 -1</clus>
<clus scale="   39.028">  1  5  2 -1</clus>
</clustering>
</event>
<event>
 9    1  0.2075077E-005  0.1227078E+03  0.7546771E-02  0.1243825E+00
          1   -1    0    0  502    0  0.00000000000E+00  0.00000000000E+00  0.74388460564E+02  0.74388460564E+02  0.00000000000E+00 0. -1.
         -1   -1    0    0    0  501 -0.00000000000E+00 -0.00000000000E+00 -0.29466968289E+03  0.29466968289E+03  0.00000000000E+00 0.  1.
         23    2    1    2    0    0 -0.26257242228E+02  0.67743314014E+02 -0.13199802546E+03  0.17669022146E+03  0.92289524163E+02 0.  0.
         23    2    1    2    0    0  0.43225827898E+02 -0.28773637187E+02 -0.91548695406E+02  0.14973891671E+03  0.10650908483E+03 0.  0.
        -13    1    4    4    0    0  0.30055156901E+02  0.36645410858E+02 -0.58448353126E+02  0.75248977246E+02  0.00000000000E+00 0.  1.
         13    1    4    4    0    0  0.13170670996E+02 -0.65419048046E+02 -0.33100342280E+02  0.74489939460E+02  0.00000000000E+00 0. -1.
        -13    1    3    3    0    0  0.30286089541E+02  0.36046476052E+02 -0.29964821998E+02  0.55807582037E+02  0.00000000000E+00 0. -1.
         13    1    3    3    0    0 -0.56543331769E+02  0.31696837962E+02 -0.10203320346E+03  0.12088263942E+03  0.00000000000E+00 0.  1.
         21    1    1    2  502  501 -0.16968585670E+02 -0.38969676827E+02  0.32654985391E+01  0.42629005293E+02  0.00000000000E+00 0. -1.
<scales pt_clust_5="13000.00000" pt_clust_6="13000.00000" pt_clust_7="13000.00000" pt_clust_8="13000.00000" pt_clust_9="42.50375"></scales>
<clustering>
<clus scale="   42.504">  1  9  2 -1</clus>
<clus scale="   92.290">  7  8 -1 -1</clus>
<clus scale="  106.509">  5  6 -1 -1</clus>
<clus scale="  110.591">  2  7  1 -1</clus>
<clus scale="   42.504">  1  5  2 -1</clus>
</clustering>
</event>
<event>
 9    1  0.2075077E-005  0.1455039E+03  0.7546771E-02  0.1214945E+00
         -1   -1    0    0    0  501 -0.00000000000E+00  0.00000000000E+00  0.18130401922E+03  0.18130401922E+03  0.00000000000E+00 0.  1.
          1   -1    0    0  502    0  0.00000000000E+00 -0.00000000000E+00 -0.32309913438E+03  0.32309913438E+03  0.00000000000E+00 0. -1.
         23    2    1    2    0    0 -0.59696224120E+02  0.44097969451E+02  0.85430402406E+02  0.14526315090E+03  0.91075569005E+02 0.  0.
         23    2    1    2    0    0  0.32829440148E+02 -0.10972613815E+03 -0.60756176320E+02  0.17819547478E+03  0.12224858583E+03 0.  0.
        -11    1    4    4    0    0  0.76645096570E+02 -0.86744857269E+02 -0.28758931534E+02  0.11927370722E+03  0.00000000000E+00 0.  1.
         11    1    4    4    0    0 -0.43815656422E+02 -0.22981280883E+02 -0.31997244786E+02  0.58921767562E+02  0.00000000000E+00 0. -1.
        -13    1    3    3    0    0 -0.56229770227E+02  0.69205218091E+02  0.78961374378E+02  0.11910519684E+03  0.00000000000E+00 0. -1.
         13    1    3    3    0    0 -0.34664538929E+01 -0.25107248639E+02  0.64690280283E+01  0.26157954057E+02  0.00000000000E+00 0.  1.
         21    1    1    2  502  501  0.26866783972E+02  0.65628168701E+02 -0.16646934125E+03  0.18094452792E+03  0.00000000000E+00 0. -1.
<scales pt_clust_5="13000.00000" pt_clust_6="13000.00000" pt_clust_7="13000.00000" pt_clust_8="13000.00000" pt_clust_9="70.91460"></scales>
<clustering>
<clus scale="   70.915">  2  9  1 -1</clus>
<clus scale="   91.076">  7  8 -1 -1</clus>
<clus scale="  120.505">  1  7  2 -1</clus>
<clus scale="  122.249">  5  6 -1 -1</clus>
<clus scale="   70.915">  2  5  1 -1</clus>
</clustering>
</event>
<event>
 9    1  0.2075077E-005  0.9378535E+02  0.7546771E-02  0.1294942E+00
          2   -1    0    0  502    0  0.00000000000E+00  0.00000000000E+00  0.57165396363E+03  0.57165396363E+03  0.00000000000E+00 0. -1.
         -2   -1    0    0    0  501 -0.00000000000E+00 -0.00000000000E+00 -0.30713693065E+02  0.30713693065E+02  0.00000000000E+00 0.  1.
         23    2    1    2    0    0 -0.12760212445E+02  0.10773076819E+01  0.66230857483E+02  0.11374031628E+03  0.91577013765E+02 0.  0.
         23    2    1    2    0    0 -0.70217679757E+01  0.41585236697E+01  0.41711993421E+03  0.42751033169E+03  0.93324410748E+02 0.  0.
        -11    1    4    4    0    0 -0.42903147163E+02 -0.20811643511E+02  0.26402593493E+03  0.26829740748E+03  0.00000000000E+00 0.  1.
         11    1    4    4    0    0  0.35881379188E+02  0.24970167180E+02  0.15309399927E+03  0.15921292421E+03  0.00000000000E+00 0. -1.
        -13    1    3    3    0    0  0.39127140312E+02  0.66772346086E+01  0.35005382164E+02  0.52923485821E+02  0.00000000000E+00 0. -1.
         13    1    3    3    0    0 -0.51887352757E+02 -0.55999269267E+01  0.31225475318E+02  0.60816830454E+02  0.00000000000E+00 0.  1.
         21    1    1    2  502  501  0.19781980421E+02 -0.52358313516E+01  0.57589478881E+02  0.61117008738E+02  0.00000000000E+00 0.  1.
<scales pt_clust_5="13000.00000" pt_clust_6="13000.00000" pt_clust_7="13000.00000" pt_clust_8="13000.00000" pt_clust_9="20.46315"></scales>
<clustering>
<clus scale="   20.463">  1  9  2 -1</clus>
<clus scale="   91.577">  7  8 -1 -1</clus>
<clus scale="   92.047">  2  7  1 -1</clus>
<clus scale="   93.324">  5  6 -1 -1</clus>
<clus scale="   20.463">  1  5  2 -1</clus>
</clustering>
</event>
<event>
 9    1  0.2075077E-005  0.1431256E+03  0.7546771E-02  0.1210800E+00
          1   -1    0    0  502    0  0.00000000000E+00  0.00000000000E+00  0.11312558421E+04  0.11312558421E+04  0.00000000000E+00 0. -1.
         -1   -1    0    0    0  501 -0.00000000000E+00 -0.00000000000E+00 -0.22111911035E+02  0.22111911035E+02  0.00000000000E+00 0.  1.
         23    2    1    2    0    0 -0.41723285141E+02  0.86984892055E+02  0.35145732660E+03  0.37568606628E+03  0.91162294870E+02 0.  0.
         23    2    1    2    0    0  0.51897940982E+02 -0.10493674158E+03  0.62704049245E+03  0.64541604844E+03  0.98371644260E+02 0.  0.
        -11    1    3    3    0    0  0.25740062758E+02  0.48613920635E+02  0.13822476659E+03  0.14876810884E+03  0.00000000000E+00 0.  1.
         11    1    3    3    0    0 -0.67463347899E+02  0.38370971420E+02  0.21323256001E+03  0.22691795744E+03  0.00000000000E+00 0. -1.
        -13    1    4    4    0    0  0.34261661581E+02 -0.12270725666E+03  0.50387134480E+03  0.51972806774E+03  0.00000000000E+00 0. -1.
         13    1    4    4    0    0  0.17636279400E+02  0.17770515080E+02  0.12316914765E+03  0.12568798069E+03  0.00000000000E+00 0.  1.
         21    1    1    2  502  501 -0.10174655841E+02  0.17951849521E+02  0.13064611199E+03  0.13226563840E+03  0.00000000000E+00 0.  1.
<scales pt_clust_5="13000.00000" pt_clust_6="13000.00000" pt_clust_7="13000.00000" pt_clust_8="13000.00000" pt_clust_9="20.63474"></scales>
<clustering>
<clus scale="   20.635">  1  9  2 -1</clus>
<clus scale="   91.162">  5  6 -1 -1</clus>
<clus scale="   98.372">  7  8 -1 -1</clus>
<clus scale="  138.270">  2  5  1 -1</clus>
<clus scale="   20.635">  1  5  2 -1</clus>
</clustering>
</event>
<event>
 9    1  0.2075077E-005  0.9946627E+02  0.7546771E-02  0.1287232E+00
          1   -1    0    0  502    0  0.00000000000E+00  0.00000000000E+00  0.21954848423E+02  0.21954848423E+02  0.00000000000E+00 0. -1.
         -1   -1    0    0    0  501 -0.00000000000E+00 -0.00000000000E+00 -0.52616930477E+03  0.52616930477E+03  0.00000000000E+00 0.  1.
         23    2    1    2    0    0 -0.10973783390E+02  0.28528326793E+02 -0.20192443511E+03  0.21931758451E+03  0.79952711210E+02 0.  0.
         23    2    1    2    0    0  0.33955267454E+01 -0.50054208822E+02 -0.26867225952E+03  0.28817471574E+03  0.91339642710E+02 0.  0.
        -11    1    4    4    0    0 -0.10260843854E+02  0.24712019676E+02 -0.92847098734E+02  0.96625838037E+02  0.00000000000E+00 0.  1.
         11    1    4    4    0    0  0.13656370599E+02 -0.74766228498E+02 -0.17582516079E+03  0.19154887770E+03  0.00000000000E+00 0. -1.
        -13    1    3    3    0    0  0.30991109767E+02 -0.30090771443E+01 -0.53725802803E+02  0.62096419516E+02  0.00000000000E+00 0. -1.
         13    1    3    3    0    0 -0.41964893157E+02  0.31537403937E+02 -0.14819863231E+03  0.15722116500E+03  0.00000000000E+00 0.  1.
         21    1    1    2  502  501  0.75782566446E+01  0.21525882029E+02 -0.33617761707E+02  0.40631852937E+02  0.00000000000E+00 0. -1.
<scales pt_clust_5="13000.00000" pt_clust_6="13000.00000" pt_clust_7="13000.00000" pt_clust_8="13000.00000" pt_clust_9="22.82090"></scales>
<clustering>
<clus scale="   22.821">  1  9  2 -1</clus>
<clus scale="   79.953">  7  8 -1 -1</clus>
<clus scale="   89.124">  2  7  1 -1</clus>
<clus scale="   91.340">  5  6 -1 -1</clus>
<clus scale="   22.821">  1  5  2 -1</clus>
</clustering>
</event>
<event>
 9    1  0.2075077E-005  0.2520808E+03  0.7546771E-02  0.1112405E+00
         -1   -1    0    0    0  501 -0.00000000000E+00  0.00000000000E+00  0.14688019229E+04  0.14688019229E+04  0.00000000000E+00 0.  1.
          1   -1    0    0  502    0  0.00000000000E+00 -0.00000000000E+00 -0.83208544777E+02  0.83208544777E+02  0.00000000000E+00 0. -1.
         23    2    1    2    0    0  0.20574537155E+03  0.12616065804E+03  0.11652512469E+04  0.11940801301E+04  0.98839360165E+02 0.  0.
         23    2    1    2    0    0 -0.18495876636E+03 -0.68592696907E+02  0.14825440412E+03  0.26336399312E+03  0.92013701211E+02 0.  0.
        -11    1    4    4    0    0 -0.28627009946E+02 -0.45278387669E+02  0.12501379116E+02  0.55008386344E+02  0.00000000000E+00 0.  1.
         11    1    4    4    0    0 -0.15633175642E+03 -0.23314309238E+02  0.13575302500E+03  0.20835560678E+03  0.00000000000E+00 0. -1.
        -11    1    3    3    0    0  0.60082218650E+02  0.88638947482E+02  0.39368705644E+03  0.40799048324E+03  0.00000000000E+00 0. -1.
         11    1    3    3    0    0  0.14566315290E+03  0.37521710556E+02  0.77156419050E+03  0.78608964688E+03  0.00000000000E+00 0.  1.
         21    1    1    2  502  501 -0.20786605190E+02 -0.57567961131E+02  0.72087727048E+02  0.94566344410E+02  0.00000000000E+00 0. -1.
<scales pt_clust_5="13000.00000" pt_clust_6="13000.00000" pt_clust_7="13000.00000" pt_clust_8="13000.00000" pt_clust_9="61.20583"></scales>
<clustering>
<clus scale="   61.206">  2  9  1 -1</clus>
<clus scale="   92.014">  5  6 -1 -1</clus>
<clus scale="   98.839">  7  8 -1 -1</clus>
<clus scale="  249.484">  2  5  1 -1</clus>
<clus scale="   61.206">  2  5  1 -1</clus>
</clustering>
</event>
<event>
 9    1  0.2075077E-005  0.1249634E+03  0.7546771E-02  0.1235291E+00
          2   -1    0    0  502    0  0.00000000000E+00  0.00000000000E+00  0.46737087734E+03  0.46737087734E+03  0.00000000000E+00 0. -1.
         -2   -1    0    0    0  501 -0.00000000000E+00 -0.00000000000E+00 -0.13292799101E+03  0.13292799101E+03  0.00000000000E+00 0.  1.
         23    2    1    2    0    0 -0.95988303014E+02 -0.41371085325E+02 -0.35148145968E+02  0.14416703496E+03  0.92862375517E+02 0.  0.
         23    2    1    2    0    0  0.38680551285E+02  0.45407026877E+02  0.33096175434E+02  0.11476801585E+03  0.92294948384E+02 0.  0.
        -11    1    3    3    0    0 -0.53844754111E+02  0.25964403079E+02 -0.21731497029E+02  0.63605547994E+02  0.00000000000E+00 0.  1.
         11    1    3    3    0    0 -0.42143548903E+02 -0.67335488404E+02 -0.13416648938E+02  0.80561486962E+02  0.00000000000E+00 0. -1.
        -13    1    4    4    0    0 -0.11124366664E+01  0.65237968872E+02  0.16410817414E+02  0.67279603343E+02  0.00000000000E+00 0.  1.
         13    1    4    4    0    0  0.39792987951E+02 -0.19830941995E+02  0.16685358020E+02  0.47488412511E+02  0.00000000000E+00 0. -1.
         21    1    1    2  502  501  0.57307751729E+02 -0.40359415515E+01  0.33649485686E+03  0.34136381754E+03  0.00000000000E+00 0. -1.
<scales pt_clust_5="13000.00000" pt_clust_6="13000.00000" pt_clust_7="13000.00000" pt_clust_8="13000.00000" pt_clust_9="57.44969"></scales>
<clustering>
<clus scale="   57.450">  1  9  2 -1</clus>
<clus scale="   92.295">  7  8 -1 -1</clus>
<clus scale="   92.862">  5  6 -1 -1</clus>
<clus scale="  124.542">  1  7  2 -1</clus>
<clus scale="   57.450">  1  5  2 -1</clus>
</clustering>
</event>
<event>
 9    1  0.2075077E-005  0.1529432E+03  0.7546771E-02  0.1196930E+00
         -4   -1    0    0    0  501 -0.00000000000E+00  0.00000000000E+00  0.34883522490E+03  0.34883522490E+03  0.00000000000E+00 0.  1.
          4   -1    0    0  502    0  0.00000000000E+00 -0.00000000000E+00 -0.14131955728E+03  0.14131955728E+03  0.00000000000E+00 0. -1.
         23    2    1    2    0    0 -0.97651275483E+02  0.23163041010E+02  0.10866481068E+03  0.17330766946E+03  0.90306196578E+02 0.  0.
         23    2    1    2    0    0  0.15108694254E+03 -0.16524065344E+02  0.15778139177E+03  0.23702071078E+03  0.90462925043E+02 0.  0.
        -13    1    3    3    0    0 -0.14849996810E+02  0.37258734176E+02  0.70368164051E+02  0.80996383805E+02  0.00000000000E+00 0.  1.
         13    1    3    3    0    0 -0.82801278673E+02 -0.14095693166E+02  0.38296646628E+02  0.92311285652E+02  0.00000000000E+00 0. -1.
        -13    1    4    4    0    0  0.42524726828E+02  0.13580029444E+02  0.18878253811E+01  0.44680347762E+02  0.00000000000E+00 0. -1.
         13    1    4    4    0    0  0.10856221571E+03 -0.30104094788E+02  0.15589356639E+03  0.19234036302E+03  0.00000000000E+00 0.  1.
         21    1    1    2  502  501 -0.53435667056E+02 -0.66389756657E+01 -0.58930534831E+02  0.79826401943E+02  0.00000000000E+00 0. -1.
<scales pt_clust_5="13000.00000" pt_clust_6="13000.00000" pt_clust_7="13000.00000" pt_clust_8="13000.00000" pt_clust_9="53.84651"></scales>
<clustering>
<clus scale="   53.847">  2  9  1 -1</clus>
<clus scale="   90.306">  5  6 -1 -1</clus>
<clus scale="   90.463">  7  8 -1 -1</clus>
<clus scale="  152.851">  1  5  2 -1</clus>
<clus scale="   53.847">  2  5  1 -1</clus>
</clustering>
</event>
<event>
 9    1  0.2075077E-005  0.1005601E+03  0.7546771E-02  0.1279944E+00
          2   -1    0    0  502    0  0.00000000000E+00  0.00000000000E+00  0.57509423508E+02  0.57509423508E+02  0.00000000000E+00 0. -1.
         -2   -1    0    0    0  501 -0.00000000000E+00 -0.00000000000E+00 -0.44592900594E+03  0.44592900594E+03  0.00000000000E+00 0.  1.
         23    2    1    2    0    0  0.35185794606E+02 -0.55435028041E+02 -0.29884608878E+03  0.31885028736E+03  0.89696368352E+02 0.  0.
         23    2    1    2    0    0 -0.97838848272E+00  0.38811956783E+02 -0.14420628131E+02  0.10035972451E+03  0.91415504999E+02 0.  0.
        -11    1    3    3    0    0  0.39535604981E+02  0.94402422777E+01 -0.16656477516E+03  0.17145263649E+03  0.00000000000E+00 0.  1.
         11    1    3    3    0    0 -0.43498103750E+01 -0.64875270319E+02 -0.13228131362E+03  0.14739765087E+03  0.00000000000E+00 0. -1.
        -13    1    4    4    0    0  0.33990934318E+02  0.49890609660E+02 -0.19242453085E+02  0.63361885616E+02  0.00000000000E+00 0.  1.
         13    1    4    4    0    0 -0.34969322801E+02 -0.11078652877E+02  0.48218249538E+01  0.36997838891E+02  0.00000000000E+00 0. -1.
         21    1    1    2  502  501 -0.34207406124E+02  0.16623071259E+02 -0.75152865526E+02  0.84228417583E+02  0.00000000000E+00 0. -1.
<scales pt_clust_5="13000.00000" pt_clust_6="13000.00000" pt_clust_7="13000.00000" pt_clust_8="13000.00000" pt_clust_9="38.03253"></scales>
<clustering>
<clus scale="   38.033">  2  9  1 -1</clus>
<clus scale="   89.696">  5  6 -1 -1</clus>
<clus scale="   91.416">  7  8 -1 -1</clus>
<clus scale="   99.000">  2  5  1 -1</clus>
<clus scale="  100.560">  1  5  2 -1</clus>
</clustering>
</event>
<event>
 9    1  0.2075077E-005  0.1070161E+03  0.7546771E-02  0.1268700E+00
          1   -1    0    0  502    0  0.00000000000E+00  0.00000000000E+00  0.10694227667E+03  0.10694227667E+03  0.00000000000E+00 0. -1.
         -1   -1    0    0    0  501 -0.00000000000E+00 -0.00000000000E+00 -0.44784163712E+03  0.44784163712E+03  0.00000000000E+00 0.  1.
         23    2    1    2    0    0  0.69544570518E+02  0.17440284933E+02 -0.27611696528E+03  0.29785541234E+03  0.85654289552E+02 0.  0.
         23    2    1    2    0    0 -0.31718878878E+02 -0.66867087690E+01 -0.14094498515E+03  0.17121291092E+03  0.91638270808E+02 0.  0.
        -13    1    3    3    0    0  0.42494277714E+02 -0.12661806743E+02 -0.44828735812E+02  0.63053156487E+02  0.00000000000E+00 0. -1.
         13    1    3    3    0    0  0.27050292804E+02  0.30102091677E+02 -0.23128822947E+03  0.23480225586E+03  0.00000000000E+00 0.  1.
        -13    1    4    4    0    0 -0.23948322559E+02 -0.39705620573E+02 -0.12578316245E+03  0.13405768317E+03  0.00000000000E+00 0. -1.
         13    1    4    4    0    0 -0.77705563194E+01  0.33018911804E+02 -0.15161822692E+02  0.37155227756E+02  0.00000000000E+00 0.  1.
         21    1    1    2  502  501 -0.37825691640E+02 -0.10753576164E+02  0.76162589978E+02  0.85715590534E+02  0.00000000000E+00 0. -1.
<scales pt_clust_5="13000.00000" pt_clust_6="13000.00000" pt_clust_7="13000.00000" pt_clust_8="13000.00000" pt_clust_9="39.32458"></scales>
<clustering>
<clus scale="   39.325">  1  9  2 -1</clus>
<clus scale="   85.654">  5  6 -1 -1</clus>
<clus scale="   91.638">  7  8 -1 -1</clus>
<clus scale="  101.939">  2  5  1 -1</clus>
<clus scale="   39.325">  1  5  2 -1</clus>
</clustering>
</event>
<event>
 9    1  0.2075077E-005  0.1053822E+03  0.7546771E-02  0.1273144E+00
         -1   -1    0    0    0  501 -0.00000000000E+00  0.00000000000E+00  0.81371709159E+02  0.81371709159E+02  0.00000000000E+00 0.  1.
          1   -1    0    0  502    0  0.00000000000E+00 -0.00000000000E+00 -0.18325722250E+03  0.18325722250E+03  0.00000000000E+00 0. -1.
         23    2    1    2    0    0 -0.26349081062E+02 -0.67369184357E+01 -0.23912745867E+02  0.10590266059E+03  0.99518309689E+02 0.  0.
         23    2    1    2    0    0  0.43611128236E+02 -0.15175668443E+02 -0.36842502192E+02  0.10902880173E+03  0.91638846671E+02 0.  0.
        -11    1    4    4    0    0  0.30178915475E+02  0.13564109607E+02 -0.60837240631E+02  0.69252594581E+02  0.00000000000E+00 0. -1.
         11    1    4    4    0    0  0.13432212761E+02 -0.28739778050E+02  0.23994738439E+02  0.39776207144E+02  0.00000000000E+00 0.  1.
        -13    1    3    3    0    0 -0.32683213533E+02 -0.46402522296E+02 -0.31665744553E+02  0.64993121947E+02  0.00000000000E+00 0.  1.
         13    1    3    3    0    0  0.63341324715E+01  0.39665603860E+02  0.77529986861E+01  0.40909538648E+02  0.00000000000E+00 0. -1.
         21    1    1    2  502  501 -0.17262047175E+02  0.21912586879E+02 -0.41130265278E+02  0.49697469334E+02  0.00000000000E+00 0.  1.
<scales pt_clust_5="13000.00000" pt_clust_6="13000.00000" pt_clust_7="13000.00000" pt_clust_8="13000.00000" pt_clust_9="27.89516"></scales>
<clustering>
<clus scale="   27.895">  2  9  1 -1</clus>
<clus scale="   91.639">  5  6 -1 -1</clus>
<clus scale="   97.975">  2  5  1 -1</clus>
<clus scale="   99.518">  7  8 -1 -1</clus>
<clus scale="   27.895">  2  5  1 -1</clus>
</clustering>
</event>
<event>
 9    1  0.2075077E-005  0.1165847E+03  0.7546771E-02  0.1258471E+00
         -3   -1    0    0    0  501 -0.00000000000E+00  0.00000000000E+00  0.22277403146E+03  0.22277403146E+03  0.00000000000E+00 0.  1.
          3   -1    0    0  502    0  0.00000000000E+00 -0.00000000000E+00 -0.84059279668E+02  0.84059279668E+02  0.00000000000E+00 0. -1.
         23    2    1    2    0    0  0.24150256315E+01 -0.52007179417E+02  0.76575896271E+02  0.12987022562E+03  0.91059478113E+02 0.  0.
         23    2    1    2    0    0 -0.78178684061E+01 -0.69904594441E+00  0.38915044747E+02  0.11911429737E+03  0.11230417355E+03 0.  0.
        -11    1    4    4    0    0 -0.25634728897E+01  0.49778504375E+02 -0.74199047665E+01  0.50393708713E+02  0.00000000000E+00 0.  1.
         11    1    4    4    0    0 -0.52543955165E+01 -0.50477550320E+02  0.46334949514E+02  0.68720588654E+02  0.00000000000E+00 0. -1.
        -13    1    3    3    0    0 -0.25526733965E+02 -0.34237563401E+01  0.68580659775E+02  0.73257376077E+02  0.00000000000E+00 0.  1.
         13    1    3    3    0    0  0.27941759597E+02 -0.48583423077E+02  0.79952364960E+01  0.56612849548E+02  0.00000000000E+00 0. -1.
         21    1    1    2  502  501  0.54028427746E+01  0.52706225362E+02  0.23223810770E+02  0.57848788135E+02  0.00000000000E+00 0. -1.
<scales pt_clust_5="13000.00000" pt_clust_6="13000.00000" pt_clust_7="13000.00000" pt_clust_8="13000.00000" pt_clust_9="52.98242"></scales>
<clustering>
<clus scale="   52.982">  2  9  1 -1</clus>
<clus scale="   91.059">  7  8 -1 -1</clus>
<clus scale="   96.289">  1  7  2 -1</clus>
<clus scale="  112.304">  5  6 -1 -1</clus>
<clus scale="   52.982">  2  5  1 -1</clus>
</clustering>
</event>
<event>
 9    1  0.2075077E-005  0.1175161E+03  0.7546771E-02  0.1247818E+00
          1   -1    0    0  502    0  0.00000000000E+00  0.00000000000E+00  0.34794374438E+03  0.34794374438E+03  0.00000000000E+00 0. -1.
         -1   -1    0    0    0  501 -0.00000000000E+00 -0.00000000000E+00 -0.62862426009E+02  0.62862426009E+02  0.00000000000E+00 0.  1.
         23    2    1    2    0    0 -0.69645611422E+02  0.39363354205E+02  0.40153168821E+02  0.12919609965E+03  0.93163138387E+02 0.  0.
         23    2    1    2    0    0  0.49703132659E+02 -0.22963953734E+02  0.15557471603E+03  0.18860104495E+03  0.91482879948E+02 0.  0.
        -13    1    3    3    0    0  0.14658089728E+02  0.33538445379E+02  0.25139438210E+01  0.36687965690E+02  0.00000000000E+00 0.  1.
         13    1    3    3    0    0 -0.84303701150E+02  0.58249088255E+01  0.37639225000E+02  0.92508133961E+02  0.00000000000E+00 0. -1.
        -13    1    4    4    0    0  0.34315778203E+02 -0.52719034360E+02  0.13590044117E+03  0.14975245951E+03  0.00000000000E+00 0. -1.
         13    1    4    4    0    0  0.15387354456E+02  0.29755080626E+02  0.19674274855E+02  0.38848585447E+02  0.00000000000E+00 0.  1.
         21    1    1    2  502  501  0.19942478763E+02 -0.16399400471E+02  0.89353433526E+02  0.93009025787E+02  0.00000000000E+00 0. -1.
<scales pt_clust_5="13000.00000" pt_clust_6="13000.00000" pt_clust_7="13000.00000" pt_clust_8="13000.00000" pt_clust_9="25.81943"></scales>
<clustering>
<clus scale="   25.819">  1  9  2 -1</clus>
<clus scale="   91.483">  7  8 -1 -1</clus>
<clus scale="   93.163">  5  6 -1 -1</clus>
<clus scale="  116.189">  1  7  2 -1</clus>
<clus scale="   25.819">  1  5  2 -1</clus>
</clustering>
</event>
<event>
 9    1  0.2075077E-005  0.1243666E+03  0.7546771E-02  0.1236081E+00
          3   -1    0    0  502    0  0.00000000000E+00  0.00000000000E+00  0.19197252859E+02  0.19197252859E+02  0.00000000000E+00 0. -1.
         -3   -1    0    0    0  501 -0.00000000000E+00 -0.00000000000E+00 -0.10123326043E+04  0.10123326043E+04  0.00000000000E+00 0.  1.
         23    2    1    2    0    0  0.80534078654E+02 -0.21001060678E+02 -0.48209177134E+03  0.49757791728E+03  0.90799368925E+02 0.  0.
         23    2    1    2    0    0 -0.77488278009E+02  0.41977897628E+02 -0.47982749124E+03  0.49621934398E+03  0.90733890426E+02 0.  0.
        -13    1    4    4    0    0 -0.82794995652E+02  0.63210515386E+02 -0.37980391192E+03  0.39382939463E+03  0.00000000000E+00 0.  1.
         13    1    4    4    0    0  0.53067176428E+01 -0.21232617759E+02 -0.10002357932E+03  0.10238994936E+03  0.00000000000E+00 0. -1.
        -13    1    3    3    0    0 -0.10598597944E+01 -0.22516940682E+02 -0.26752266909E+02  0.34983134583E+02  0.00000000000E+00 0.  1.
         13    1    3    3    0    0  0.81593938448E+02  0.15158800038E+01 -0.45533950443E+03  0.46259478269E+03  0.00000000000E+00 0. -1.
         21    1    1    2  502  501 -0.30458006446E+01 -0.20976836949E+02 -0.31216088902E+02  0.37732595939E+02  0.00000000000E+00 0. -1.
<scales pt_clust_5="13000.00000" pt_clust_6="13000.00000" pt_clust_7="13000.00000" pt_clust_8="13000.00000" pt_clust_9="21.19681"></scales>
<clustering>
<clus scale="   21.197">  1  9  2 -1</clus>
<clus scale="   90.734">  5  6 -1 -1</clus>
<clus scale="   90.799">  7  8 -1 -1</clus>
<clus scale="  124.319">  1  5  2 -1</clus>
<clus scale="   21.197">  1  5  2 -1</clus>
</clustering>
</event>
<event>
 9    1  0.2075077E-005  0.1774290E+03  0.7546771E-02  0.1172077E+00
         -1   -1    0    0    0  501 -0.00000000000E+00  0.00000000000E+00  0.65284579652E+03  0.65284579652E+03  0.00000000000E+00 0.  1.
          1   -1    0    0  502    0  0.00000000000E+00 -0.00000000000E+00 -0.79735523110E+02  0.79735523110E+02  0.00000000000E+00 0. -1.
         23    2    1    2    0    0 -0.10101068337E+03  0.11304069803E+03  0.46721797308E+03  0.49981256416E+03  0.92404585127E+02 0.  0.
         23    2    1    2    0    0  0.77428699687E+02 -0.13242411174E+03  0.70495261236E+02  0.18602715667E+03  0.78135601729E+02 0.  0.
        -11    1    3    3    0    0 -0.11864263795E+03  0.93395655675E+02  0.39013452354E+03  0.41833451984E+03  0.00000000000E+00 0.  1.
         11    1    3    3    0    0  0.17631954576E+02  0.19645042351E+02  0.77083449547E+02  0.81478044314E+02  0.00000000000E+00 0. -1.
        -13    1    4    4    0    0  0.95513191336E+01 -0.73447703023E+02  0.60343843731E+02  0.95536235287E+02  0.00000000000E+00 0.  1.
         13    1    4    4    0    0  0.67877380553E+02 -0.58976408720E+02  0.10151417505E+02  0.90490921388E+02  0.00000000000E+00 0. -1.
         21    1    1    2  502  501  0.23581983684E+02  0.19383413717E+02  0.35397039088E+02  0.46741598796E+02  0.00000000000E+00 0.  1.
<scales pt_clust_5="13000.00000" pt_clust_6="13000.00000" pt_clust_7="13000.00000" pt_clust_8="13000.00000" pt_clust_9="30.52584"></scales>
<clustering>
<clus scale="   30.526">  2  9  1 -1</clus>
<clus scale="   78.136">  7  8 -1 -1</clus>
<clus scale="   92.405">  5  6 -1 -1</clus>
<clus scale="  170.434">  2  7  1 -1</clus>
<clus scale="   30.526">  2  5  1 -1</clus>
</clustering>
</event>
<event>
 9    1  0.2075077E-005  0.1307240E+03  0.7546771E-02  0.1227128E+00
          2   -1    0    0  502    0  0.00000000000E+00  0.00000000000E+00  0.27857675407E+03  0.27857675407E+03  0.00000000000E+00 0. -1.
         -2   -1    0    0    0  501 -0.00000000000E+00 -0.00000000000E+00 -0.16493438820E+03  0.16493438820E+03  0.00000000000E+00 0.  1.
         23    2    1    2    0    0 -0.27522730134E+02 -0.85063314820E+02 -0.81219031664E+02  0.15161037050E+03  0.91629171869E+02 0.  0.
         23    2    1    2    0    0  0.90746757647E+02  0.82072046921E+02  0.11460807008E+03  0.18969107601E+03  0.88751899590E+02 0.  0.
        -11    1    3    3    0    0  0.65162015040E+01 -0.72404899364E+02 -0.88542256216E+02  0.11456291490E+03  0.00000000000E+00 0.  1.
         11    1    3    3    0    0 -0.34038931638E+02 -0.12658415456E+02  0.73232245530E+01  0.37047455605E+02  0.00000000000E+00 0. -1.
        -13    1    4    4    0    0  0.52894248797E+02 -0.42179386748E+01  0.21591296920E+02  0.57286793113E+02  0.00000000000E+00 0.  1.
         13    1    4    4    0    0  0.37852508850E+02  0.86289985596E+02  0.93016773156E+02  0.13240428289E+03  0.00000000000E+00 0. -1.
         21    1    1    2  502  501 -0.63224027512E+02  0.29912678991E+01  0.80253327457E+02  0.10220969576E+03  0.00000000000E+00 0.  1.
<scales pt_clust_5="13000.00000" pt_clust_6="13000.00000" pt_clust_7="13000.00000" pt_clust_8="13000.00000" pt_clust_9="63.29475"></scales>
<clustering>
<clus scale="   63.295">  1  9  2 -1</clus>
<clus scale="   88.752">  7  8 -1 -1</clus>
<clus scale="   91.629">  5  6 -1 -1</clus>
<clus scale="  128.724">  1  7  2 -1</clus>
<clus scale="   63.295">  1  5  2 -1</clus>
</clustering>
</event>
<event>
 9    1  0.2075077E-005  0.1185310E+03  0.7546771E-02  0.1245834E+00
          1   -1    0    0  502    0  0.00000000000E+00  0.00000000000E+00  0.85205516502E+03  0.85205516502E+03  0.00000000000E+00 0. -1.
         -1   -1    0    0    0  501 -0.00000000000E+00 -0.00000000000E+00 -0.67202708916E+02  0.67202708916E+02  0.00000000000E+00 0.  1.
         23    2    1    2    0    0  0.63929405076E+02 -0.53732339939E+02  0.30194042048E+01  0.12303640865E+03  0.90303421105E+02 0.  0.
         23    2    1    2    0    0 -0.26759214604E+02  0.18268663073E+02  0.41142074620E+03  0.42226348415E+03  0.89384674476E+02 0.  0.
        -13    1    3    3    0    0  0.84407108294E+02 -0.30867176109E+02  0.12890416644E+02  0.90793751617E+02  0.00000000000E+00 0.  1.
         13    1    3    3    0    0 -0.20477703217E+02 -0.22865163829E+02 -0.98710124397E+01  0.32242657034E+02  0.00000000000E+00 0. -1.
        -13    1    4    4    0    0  0.15727958411E+02 -0.27933616345E+02  0.15394464930E+03  0.15724697341E+03  0.00000000000E+00 0.  1.
         13    1    4    4    0    0 -0.42487173015E+02  0.46202279418E+02  0.25747609689E+03  0.26501651074E+03  0.00000000000E+00 0. -1.
         21    1    1    2  502  501 -0.37170190473E+02  0.35463676866E+02  0.37041230570E+03  0.37395798113E+03  0.00000000000E+00 0. -1.
<scales pt_clust_5="13000.00000" pt_clust_6="13000.00000" pt_clust_7="13000.00000" pt_clust_8="13000.00000" pt_clust_9="51.37407"></scales>
<clustering>
<clus scale="   51.374">  1  9  2 -1</clus>
<clus scale="   89.385">  7  8 -1 -1</clus>
<clus scale="   90.303">  5  6 -1 -1</clus>
<clus scale="  117.833">  1  7  2 -1</clus>
<clus scale="   51.374">  1  5  2 -1</clus>
</clustering>
</event>
<event>
 9    1  0.2075077E-005  0.1093762E+03  0.7546771E-02  0.1263231E+00
          1   -1    0    0  502    0  0.00000000000E+00  0.00000000000E+00  0.47113675990E+02  0.47113675990E+02  0.00000000000E+00 0. -1.
         -1   -1    0    0    0  501 -0.00000000000E+00 -0.00000000000E+00 -0.40626587765E+03  0.40626587765E+03  0.00000000000E+00 0.  1.
         23    2    1    2    0    0 -0.38570539803E+02 -0.41343727808E+02 -0.23216676171E+03  0.25548643204E+03  0.90415271617E+02 0.  0.
         23    2    1    2    0    0  0.52699180646E+02  0.22715461125E+02 -0.13397073526E+03  0.17349178634E+03  0.94117194006E+02 0.  0.
        -11    1    3    3    0    0 -0.16733608297E+02 -0.68083300374E+02 -0.13084328493E+03  0.14844296766E+03  0.00000000000E+00 0. -1.
         11    1    3    3    0    0 -0.21836931506E+02  0.26739572566E+02 -0.10132347678E+03  0.10704346438E+03  0.00000000000E+00 0.  1.
        -13    1    4    4    0    0 -0.22744936249E+02  0.13143047181E+00 -0.64990426413E+01  0.23655590337E+02  0.00000000000E+00 0. -1.
         13    1    4    4    0    0  0.75444116895E+02  0.22584030654E+02 -0.12747169262E+03  0.14983619601E+03  0.00000000000E+00 0.  1.
         21    1    1    2  502  501 -0.14128640843E+02  0.18628266682E+02  0.69852953155E+01  0.24401335256E+02  0.00000000000E+00 0. -1.
<scales pt_clust_5="13000.00000" pt_clust_6="13000.00000" pt_clust_7="13000.00000" pt_clust_8="13000.00000" pt_clust_9="23.38014"></scales>
<clustering>
<clus scale="   23.380">  1  9  2 -1</clus>
<clus scale="   90.415">  5  6 -1 -1</clus>
<clus scale="   94.117">  7  8 -1 -1</clus>
<clus scale="  106.208">  2  5  1 -1</clus>
<clus scale="   23.380">  1  5  2 -1</clus>
</clustering>
</event>
<event>
 9    1  0.2075077E-005  0.1202970E+03  0.7546771E-02  0.1242789E+00
          1   -1    0    0  502    0  0.00000000000E+00  0.00000000000E+00  0.47312836583E+03  0.47312836583E+03  0.00000000000E+00 0. -1.
         -1   -1    0    0    0  501 -0.00000000000E+00 -0.00000000000E+00 -0.64183617319E+02  0.64183617319E+02  0.00000000000E+00 0.  1.
         23    2    1    2    0    0  0.17093937547E+02 -0.92888270308E+02  0.45116472016E+02  0.13925432793E+03  0.91846819971E+02 0.  0.
         23    2    1    2    0    0  0.11724294445E+02  0.40503574737E+02  0.20442398291E+03  0.22780967244E+03  0.91269290691E+02 0.  0.
        -11    1    4    4    0    0  0.40047622630E+02  0.50728290997E+02  0.99484869873E+02  0.11863562247E+03  0.00000000000E+00 0.  1.
         11    1    4    4    0    0 -0.28323328185E+02 -0.10224716260E+02  0.10493911304E+03  0.10917404997E+03  0.00000000000E+00 0. -1.
        -11    1    3    3    0    0  0.13297706008E+02 -0.34391444824E+02 -0.27450245289E+02  0.45968646147E+02  0.00000000000E+00 0.  1.
         11    1    3    3    0    0  0.37962315392E+01 -0.58496825484E+02  0.72566717305E+02  0.93285681785E+02  0.00000000000E+00 0. -1.
         21    1    1    2  502  501 -0.28818231992E+02  0.52384695571E+02  0.15940429359E+03  0.17024798277E+03  0.00000000000E+00 0.  1.
<scales pt_clust_5="13000.00000" pt_clust_6="13000.00000" pt_clust_7="13000.00000" pt_clust_8="13000.00000" pt_clust_9="59.78835"></scales>
<clustering>
<clus scale="   59.788">  1  9  2 -1</clus>
<clus scale="   91.269">  5  6 -1 -1</clus>
<clus scale="   91.847">  7  8 -1 -1</clus>
<clus scale="  119.857">  1  5  2 -1</clus>
<clus scale="   59.788">  1  5  2 -1</clus>
</clustering>
</event>
<event>
 9    1  0.2075077E-005  0.9832195E+02  0.7546771E-02  0.1288365E+00
         -3   -1    0    0    0  501 -0.00000000000E+00  0.00000000000E+00  0.45301794637E+03  0.45301794637E+03  0.00000000000E+00 0.  1.
          3   -1    0    0  502    0  0.00000000000E+00 -0.00000000000E+00 -0.40586297042E+02  0.40586297042E+02  0.00000000000E+00 0. -1.
         23    2    1    2    0    0  0.29796867556E+02 -0.20810454414E+02  0.28544564012E+03  0.30063150330E+03  0.87058365411E+02 0.  0.
         23    2    1    2    0    0  0.11557973835E+02  0.59414738799E+01  0.10927012296E+03  0.14558959844E+03  0.95328293446E+02 0.  0.
        -11    1    4    4    0    0 -0.18643494481E+02 -0.31739792687E+02  0.15154013087E+02  0.39807517367E+02  0.00000000000E+00 0.  1.
         11    1    4    4    0    0  0.30201468316E+02  0.37681266567E+02  0.94116109876E+02  0.10578208108E+03  0.00000000000E+00 0. -1.
        -11    1    3    3    0    0 -0.15197361734E+02 -0.35233145641E+02  0.67694838130E+02  0.77813401576E+02  0.00000000000E+00 0. -1.
         11    1    3    3    0    0  0.44994229290E+02  0.14422691227E+02  0.21775080198E+03  0.22281810173E+03  0.00000000000E+00 0.  1.
         21    1    1    2  502  501 -0.41354841391E+02  0.14868980534E+02  0.17715886248E+02  0.47383141666E+02  0.00000000000E+00 0. -1.
<scales pt_clust_5="13000.00000" pt_clust_6="13000.00000" pt_clust_7="13000.00000" pt_clust_8="13000.00000" pt_clust_9="43.94667"></scales>
<clustering>
<clus scale="   43.947">  2  9  1 -1</clus>
<clus scale="   87.058">  7  8 -1 -1</clus>
<clus scale="   90.327">  1  7  2 -1</clus>
<clus scale="   95.328">  5  6 -1 -1</clus>
<clus scale="   43.947">  2  5  1 -1</clus>
</clustering>
</event>
<event>
 9    1  0.2075077E-005  0.1106148E+03  0.7546771E-02  0.1261382E+00
         -1   -1    0    0    0  501 -0.00000000000E+00  0.00000000000E+00  0.18995264509E+03  0.18995264509E+03  0.00000000000E+00 0.  1.
          1   -1    0    0  502    0  0.00000000000E+00 -0.00000000000E+00 -0.19025969798E+03  0.19025969798E+03  0.00000000000E+00 0. -1.
         23    2    1    2    0    0 -0.50070939986E+02  0.13275430249E+01  0.13078046114E+03  0.16995740026E+03  0.96297079317E+02 0.  0.
         23    2    1    2    0    0  0.78235711591E+02  0.20596040522E+02 -0.73631982320E+02  0.14261593040E+03  0.91501974461E+02 0.  0.
        -11    1    4    4    0    0  0.27697731730E+02 -0.27082151991E+02  0.33915851462E+01  0.38885860531E+02  0.00000000000E+00 0.  1.
         11    1    4    4    0    0  0.50537979861E+02  0.47678192514E+02 -0.77023567467E+02  0.10373006987E+03  0.00000000000E+00 0. -1.
        -13    1    3    3    0    0 -0.57881357063E+02 -0.30963046775E+02  0.11665842225E+03  0.13385869132E+03  0.00000000000E+00 0.  1.
         13    1    3    3    0    0  0.78104170767E+01  0.32290589800E+02  0.14122038898E+02  0.36098708941E+02  0.00000000000E+00 0. -1.
         21    1    1    2  502  501 -0.28164771605E+02 -0.21923583547E+02 -0.57455531711E+02  0.67639012406E+02  0.00000000000E+00 0. -1.
<scales pt_clust_5="13000.00000" pt_clust_6="13000.00000" pt_clust_7="13000.00000" pt_clust_8="13000.00000" pt_clust_9="35.69171"></scales>
<clustering>
<clus scale="   35.692">  2  9  1 -1</clus>
<clus scale="   91.502">  5  6 -1 -1</clus>
<clus scale="   96.297">  7  8 -1 -1</clus>
<clus scale="  106.467">  2  5  1 -1</clus>
<clus scale="   35.692">  2  5  1 -1</clus>
</clustering>
</event>
<event>
 9    1  0.2075077E-005  0.9875591E+02  0.7546771E-02  0.1283834E+00
         -1   -1    0    0    0  501 -0.00000000000E+00  0.00000000000E+00  0.97437418713E+02  0.97437418713E+02  0.00000000000E+00 0.  1.
          1   -1    0    0  502    0  0.00000000000E+00 -0.00000000000E+00 -0.16117849412E+03  0.16117849412E+03  0.00000000000E+00 0. -1.
         23    2    1    2    0    0 -0.23735197105E+02  0.44552202448E+02  0.14348611905E+01  0.10200522452E+03  0.88627020021E+02 0.  0.
         23    2    1    2    0    0  0.13975917895E+02 -0.24895568380E+02 -0.77866870184E+01  0.95168416540E+02  0.90450425129E+02 0.  0.
        -11    1    3    3    0    0 -0.30260079477E+02 -0.17679141250E+02 -0.13699566517E+02  0.37628480810E+02  0.00000000000E+00 0.  1.
         11    1    3    3    0    0  0.65248823720E+01  0.62231343698E+02  0.15134427708E+02  0.64376743708E+02  0.00000000000E+00 0. -1.
        -11    1    4    4    0    0  0.34440219013E+02 -0.50177618725E+02 -0.12983699698E+02  0.62229402732E+02  0.00000000000E+00 0.  1.
         11    1    4    4    0    0 -0.20464301118E+02  0.25282050345E+02  0.51970126793E+01  0.32939013808E+02  0.00000000000E+00 0. -1.
         21    1    1    2  502  501  0.97592792098E+01 -0.19656634067E+02 -0.57389249575E+02  0.61442271771E+02  0.00000000000E+00 0.  1.
<scales pt_clust_5="13000.00000" pt_clust_6="13000.00000" pt_clust_7="13000.00000" pt_clust_8="13000.00000" pt_clust_9="21.94600"></scales>
<clustering>
<clus scale="   21.946">  2  9  1 -1</clus>
<clus scale="   88.627">  5  6 -1 -1</clus>
<clus scale="   90.450">  7  8 -1 -1</clus>
<clus scale="   97.089">  1  5  2 -1</clus>
<clus scale="   21.946">  2  5  1 -1</clus>
</clustering>
</event>
<event>
 9    1  0.2075077E-005  0.9990701E+02  0.7546771E-02  0.1282310E+00
         -2   -1    0    0    0  501 -0.00000000000E+00  0.00000000000E+00  0.17221713186E+03  0.17221713186E+03  0.00000000000E+00 0.  1.
          2   -1    0    0  502    0  0.00000000000E+00 -0.00000000000E+00 -0.17243032816E+03  0.17243032816E+03  0.00000000000E+00 0. -1.
         23    2    1    2    0    0  0.27378238613E+02 -0.14919371068E+02  0.13322812430E+03  0.16700916978E+03  0.95761026011E+02 0.  0.
         23    2    1    2    0    0 -0.33655037510E+01  0.11589550435E+02 -0.10674582405E+03  0.14157794254E+03  0.92217127291E+02 0.  0.
        -11    1    4    4    0    0  0.28628666330E+02 -0.46485409763E+01 -0.10119839347E+03  0.10527261899E+03  0.00000000000E+00 0.  1.
         11    1    4    4    0    0 -0.31994170081E+02  0.16238091412E+02 -0.55474305892E+01  0.36305323549E+02  0.00000000000E+00 0. -1.
        -13    1    3    3    0    0  0.54962882092E+02 -0.10821983871E+02  0.12646072003E+03  0.13831249927E+03  0.00000000000E+00 0.  1.
         13    1    3    3    0    0 -0.27584643478E+02 -0.40973871963E+01  0.67674042643E+01  0.28696670506E+02  0.00000000000E+00 0. -1.
         21    1    1    2  502  501 -0.24012734862E+02  0.33298206321E+01 -0.26695496541E+02  0.36060347705E+02  0.00000000000E+00 0. -1.
<scales pt_clust_5="13000.00000" pt_clust_6="13000.00000" pt_clust_7="13000.00000" pt_clust_8="13000.00000" pt_clust_9="24.24251"></scales>
<clustering>
<clus scale="   24.243">  2  9  1 -1</clus>
<clus scale="   92.217">  5  6 -1 -1</clus>
<clus scale="   95.761">  7  8 -1 -1</clus>
<clus scale="   96.515">  2  5  1 -1</clus>
<clus scale="   24.243">  2  5  1 -1</clus>
</clustering>
</event>
<event>
 9    1  0.2075077E-005  0.1168552E+03  0.7546771E-02  0.1250787E+00
         -2   -1    0    0    0  501 -0.00000000000E+00  0.00000000000E+00  0.41022790891E+03  0.41022790891E+03  0.00000000000E+00 0.  1.
          2   -1    0    0  502    0  0.00000000000E+00 -0.00000000000E+00 -0.47054947236E+02  0.47054947236E+02  0.00000000000E+00 0. -1.
         23    2    1    2    0    0 -0.27887939609E+02  0.57186415475E+02  0.25749359285E+03  0.28248430753E+03  0.97192645556E+02 0.  0.
         23    2    1    2    0    0  0.50183683203E+02 -0.49195291975E+02  0.94868378574E+02  0.14876326971E+03  0.90509239033E+02 0.  0.
        -11    1    3    3    0    0  0.17159492398E+02  0.37464057424E+02  0.21039502600E+03  0.21439232902E+03  0.00000000000E+00 0.  1.
         11    1    3    3    0    0 -0.45047432007E+02  0.19722358052E+02  0.47098566853E+02  0.68091978508E+02  0.00000000000E+00 0. -1.
        -13    1    4    4    0    0  0.76834083023E+02 -0.36828442506E+02  0.71078399235E+02  0.11095922372E+03  0.00000000000E+00 0. -1.
         13    1    4    4    0    0 -0.26650399820E+02 -0.12366849469E+02  0.23789979339E+02  0.37804045991E+02  0.00000000000E+00 0.  1.
         21    1    1    2  502  501 -0.22295743594E+02 -0.79911235003E+01  0.10810990242E+02  0.26035278897E+02  0.00000000000E+00 0. -1.
<scales pt_clust_5="13000.00000" pt_clust_6="13000.00000" pt_clust_7="13000.00000" pt_clust_8="13000.00000" pt_clust_9="23.68456"></scales>
<clustering>
<clus scale="   23.685">  2  9  1 -1</clus>
<clus scale="   90.509">  7  8 -1 -1</clus>
<clus scale="   97.193">  5  6 -1 -1</clus>
<clus scale="  111.358">  2  7  1 -1</clus>
<clus scale="   23.685">  2  5  1 -1</clus>
</clustering>
</event>
<event>
 9    1  0.2075077E-005  0.9549311E+02  0.7546771E-02  0.1291595E+00
         -1   -1    0    0    0  501 -0.00000000000E+00  0.00000000000E+00  0.25949022690E+03  0.25949022690E+03  0.00000000000E+00 0.  1.
          1   -1    0    0  502    0  0.00000000000E+00 -0.00000000000E+00 -0.86761398575E+02  0.86761398575E+02  0.00000000000E+00 0. -1.
         23    2    1    2    0    0 -0.25114215010E+01  0.26896003540E+02  0.17706263482E+03  0.20097132706E+03  0.91151497002E+02 0.  0.
         23    2    1    2    0    0 -0.11748656026E+02  0.14963508334E+02  0.15100765854E+02  0.96976352958E+02  0.93885261909E+02 0.  0.
        -13    1    4    4    0    0 -0.23208287658E+00 -0.36413246347E+02 -0.11231942616E+02  0.38106887919E+02  0.00000000000E+00 0.  1.
         13    1    4    4    0    0 -0.11516573150E+02  0.51376754681E+02  0.26332708470E+02  0.58869465039E+02  0.00000000000E+00 0. -1.
        -13    1    3    3    0    0  0.34806256817E+02  0.30283569010E+02  0.14326231747E+03  0.15050801199E+03  0.00000000000E+00 0. -1.
         13    1    3    3    0    0 -0.37317678317E+02 -0.33875654707E+01  0.33800317345E+02  0.50463315066E+02  0.00000000000E+00 0.  1.
         21    1    1    2  502  501  0.14260077527E+02 -0.41859511874E+02 -0.19434572342E+02  0.48303945465E+02  0.00000000000E+00 0. -1.
<scales pt_clust_5="13000.00000" pt_clust_6="13000.00000" pt_clust_7="13000.00000" pt_clust_8="13000.00000" pt_clust_9="44.22181"></scales>
<clustering>
<clus scale="   44.222">  2  9  1 -1</clus>
<clus scale="   91.151">  7  8 -1 -1</clus>
<clus scale="   92.807">  1  7  2 -1</clus>
<clus scale="   93.885">  5  6 -1 -1</clus>
<clus scale="   44.222">  2  5  1 -1</clus>
</clustering>
</event>
<event>
 9    1  0.2075077E-005  0.1429221E+03  0.7546771E-02  0.1224222E+00
         -1   -1    0    0    0  501 -0.00000000000E+00  0.00000000000E+00  0.20446207626E+03  0.20446207626E+03  0.00000000000E+00 0.  1.
          1   -1    0    0  502    0  0.00000000000E+00 -0.00000000000E+00 -0.18517699187E+03  0.18517699187E+03  0.00000000000E+00 0. -1.
         23    2    1    2    0    0  0.40774307678E+02 -0.34117656824E+02  0.26588644559E+02  0.10796091623E+03  0.90122387564E+02 0.  0.
         23    2    1    2    0    0  0.28877876508E+02 -0.48896692671E+02  0.79878186876E+02  0.14259736241E+03  0.10357926782E+03 0.  0.
        -13    1    4    4    0    0  0.43666247733E+02  0.28291316872E+01 -0.29213079576E+01  0.43855207415E+02  0.00000000000E+00 0. -1.
         13    1    4    4    0    0 -0.14788371225E+02 -0.51725824358E+02  0.82799494834E+02  0.98742154998E+02  0.00000000000E+00 0.  1.
        -13    1    3    3    0    0  0.66348225098E+02 -0.39161845514E+02  0.11657172705E+02  0.77920644205E+02  0.00000000000E+00 0.  1.
         13    1    3    3    0    0 -0.25573917420E+02  0.50441886903E+01  0.14931471853E+02  0.30040272027E+02  0.00000000000E+00 0. -1.
         21    1    1    2  502  501 -0.69652184187E+02  0.83014349495E+02 -0.87181747044E+02  0.13908078948E+03  0.00000000000E+00 0. -1.
<scales pt_clust_5="13000.00000" pt_clust_6="13000.00000" pt_clust_7="13000.00000" pt_clust_8="13000.00000" pt_clust_9="98.47880"></scales>
<clustering>
<clus scale="   90.122">  7  8 -1 -1</clus>
<clus scale="  103.579">  5  6 -1 -1</clus>
<clus scale="  104.636">  1  7  2 -1</clus>
<clus scale="   98.479">  2  9  1 -1</clus>
<clus scale="   98.479">  2  5  1 -1</clus>
</clustering>
</event>
<event>
 9    1  0.2075077E-005  0.1523661E+03  0.7546771E-02  0.1197662E+00
          1   -1    0    0  502    0  0.00000000000E+00  0.00000000000E+00  0.19462908367E+03  0.19462908367E+03  0.00000000000E+00 0. -1.
         -1   -1    0    0    0  501 -0.00000000000E+00 -0.00000000000E+00 -0.31809840686E+03  0.31809840686E+03  0.00000000000E+00 0.  1.
         23    2    1    2    0    0  0.98521446774E+02 -0.10657167194E+03 -0.21849695958E+03  0.27758187011E+03  0.90811764270E+02 0.  0.
         23    2    1    2    0    0 -0.59128859930E+02  0.97881525818E+01  0.64767294081E+02  0.12635906871E+03  0.90442146458E+02 0.  0.
        -11    1    3    3    0    0  0.27774018756E+02 -0.33008158393E+01 -0.26920243905E+01  0.28098727701E+02  0.00000000000E+00 0.  1.
         11    1    3    3    0    0  0.70747428018E+02 -0.10327085610E+03 -0.21580493519E+03  0.24948314241E+03  0.00000000000E+00 0. -1.
        -13    1    4    4    0    0 -0.27039194815E+02  0.46084033977E+02  0.12072408338E+02  0.54777726194E+02  0.00000000000E+00 0.  1.
         13    1    4    4    0    0 -0.32089665115E+02 -0.36295881396E+02  0.52694885743E+02  0.71581342520E+02  0.00000000000E+00 0. -1.
         21    1    1    2  502  501 -0.39392586844E+02  0.96783519357E+02  0.30260342311E+02  0.10878655172E+03  0.00000000000E+00 0.  1.
<scales pt_clust_5="13000.00000" pt_clust_6="13000.00000" pt_clust_7="13000.00000" pt_clust_8="13000.00000" pt_clust_9="104.49318"></scales>
<clustering>
<clus scale="   90.442">  7  8 -1 -1</clus>
<clus scale="   90.812">  5  6 -1 -1</clus>
<clus scale="  104.493">  1  9  2 -1</clus>
<clus scale="  152.146">  1  7  2 -1</clus>
<clus scale="  104.493">  1  5  2 -1</clus>
</clustering>
</event>
<event>
 9    1  0.2075077E-005  0.1156232E+03  0.7546771E-02  0.1251471E+00
         -1   -1    0    0    0  501 -0.00000000000E+00  0.00000000000E+00  0.20816971437E+03  0.20816971437E+03  0.00000000000E+00 0.  1.
          1   -1    0    0  502    0  0.00000000000E+00 -0.00000000000E+00 -0.12910360095E+03  0.12910360095E+03  0.00000000000E+00 0. -1.
         23    2    1    2    0    0 -0.73680363979E+00 -0.75968132414E+02  0.12856576780E+03  0.17629419884E+03  0.93695185954E+02 0.  0.
         23    2    1    2    0    0 -0.31452938009E+02  0.43505882566E+02 -0.22789734713E+02  0.10803200192E+03  0.90936748915E+02 0.  0.
        -13    1    4    4    0    0 -0.64117385844E+01  0.35559946959E+02  0.31360935984E+02  0.47844838021E+02  0.00000000000E+00 0.  1.
         13    1    4    4    0    0 -0.25041199424E+02  0.79459356064E+01 -0.54150670697E+02  0.60187163899E+02  0.00000000000E+00 0. -1.
        -13    1    3    3    0    0 -0.22273936002E+02 -0.71293759187E+02  0.13416532140E+03  0.15355540300E+03  0.00000000000E+00 0.  1.
         13    1    3    3    0    0  0.21537132362E+02 -0.46743732268E+01 -0.55995536019E+01  0.22738795834E+02  0.00000000000E+00 0. -1.
         21    1    1    2  502  501  0.32189741649E+02  0.32462249848E+02 -0.26709919663E+02  0.52947114567E+02  0.00000000000E+00 0. -1.
<scales pt_clust_5="13000.00000" pt_clust_6="13000.00000" pt_clust_7="13000.00000" pt_clust_8="13000.00000" pt_clust_9="45.71627"></scales>
<clustering>
<clus scale="   45.716">  2  9  1 -1</clus>
<clus scale="   90.937">  5  6 -1 -1</clus>
<clus scale="   93.695">  7  8 -1 -1</clus>
<clus scale="  113.399">  2  5  1 -1</clus>
<clus scale="   45.716">  2  5  1 -1</clus>
</clustering>
</event>
<event>
 9    1  0.2075077E-005  0.1223992E+03  0.7546771E-02  0.1239718E+00
         -3   -1    0    0    0  501 -0.00000000000E+00  0.00000000000E+00  0.31078601975E+03  0.31078601975E+03  0.00000000000E+00 0.  1.
          3   -1    0    0  502    0  0.00000000000E+00 -0.00000000000E+00 -0.76260557550E+02  0.76260557550E+02  0.00000000000E+00 0. -1.
         23    2    1    2    0    0 -0.28103755049E+02 -0.79576388721E+02  0.18791838437E+03  0.22580130195E+03  0.92469919927E+02 0.  0.
         23    2    1    2    0    0  0.47887277105E+02  0.57882728261E+02  0.55981149495E+02  0.13042521907E+03  0.90737242246E+02 0.  0.
        -11    1    3    3    0    0 -0.22274477271E+02 -0.10055494363E+03  0.14763009838E+03  0.18000581928E+03  0.00000000000E+00 0.  1.
         11    1    3    3    0    0 -0.58292777777E+01  0.20978554912E+02  0.40288285985E+02  0.45795482673E+02  0.00000000000E+00 0. -1.
        -13    1    4    4    0    0  0.32505678316E+02  0.32688238447E+02  0.80025042134E+02  0.92353383393E+02  0.00000000000E+00 0.  1.
         13    1    4    4    0    0  0.15381598789E+02  0.25194489814E+02 -0.24043892640E+02  0.38071835674E+02  0.00000000000E+00 0. -1.
         21    1    1    2  502  501 -0.19783522056E+02  0.21693660460E+02 -0.93740716661E+01  0.30820056274E+02  0.00000000000E+00 0. -1.
<scales pt_clust_5="13000.00000" pt_clust_6="13000.00000" pt_clust_7="13000.00000" pt_clust_8="13000.00000" pt_clust_9="29.35988"></scales>
<clustering>
<clus scale="   29.360">  2  9  1 -1</clus>
<clus scale="   90.737">  7  8 -1 -1</clus>
<clus scale="   92.470">  5  6 -1 -1</clus>
<clus scale="  121.096">  2  7  1 -1</clus>
<clus scale="   29.360">  2  5  1 -1</clus>
</clustering>
</event>
<event>
 9    1  0.2075077E-005  0.9713534E+02  0.7546771E-02  0.1288869E+00
         -2   -1    0    0    0  501 -0.00000000000E+00  0.00000000000E+00  0.66750648926E+02  0.66750648926E+02  0.00000000000E+00 0.  1.
          2   -1    0    0  502    0  0.00000000000E+00 -0.00000000000E+00 -0.24114315872E+03  0.24114315872E+03  0.00000000000E+00 0. -1.
         23    2    1    2    0    0 -0.15538150414E+02 -0.24697344349E+02 -0.44819522196E+01  0.95140823685E+02  0.90444986039E+02 0.  0.
         23    2    1    2    0    0  0.19888602702E+02  0.49311940620E+02 -0.11892559624E+03  0.15597031876E+03  0.85768402624E+02 0.  0.
        -11    1    3    3    0    0 -0.37277053268E+02 -0.45801957936E+02 -0.18322029786E+02  0.61831180052E+02  0.00000000000E+00 0.  1.
         11    1    3    3    0    0  0.21738902854E+02  0.21104613587E+02  0.13840077566E+02  0.33309643633E+02  0.00000000000E+00 0. -1.
        -11    1    4    4    0    0 -0.49593236675E+01 -0.23102764745E+02 -0.36441409619E+02  0.43431658558E+02  0.00000000000E+00 0.  1.
         11    1    4    4    0    0  0.24847926369E+02  0.72414705365E+02 -0.82484186617E+02  0.11253866020E+03  0.00000000000E+00 0. -1.
         21    1    1    2  502  501 -0.43504522876E+01 -0.24614596271E+02 -0.50984961333E+02  0.56782665197E+02  0.00000000000E+00 0.  1.
<scales pt_clust_5="13000.00000" pt_clust_6="13000.00000" pt_clust_7="13000.00000" pt_clust_8="13000.00000" pt_clust_9="24.99610"></scales>
<clustering>
<clus scale="   24.996">  2  9  1 -1</clus>
<clus scale="   85.768">  7  8 -1 -1</clus>
<clus scale="   90.445">  5  6 -1 -1</clus>
<clus scale="   92.797">  2  7  1 -1</clus>
<clus scale="   24.996">  2  5  1 -1</clus>
</clustering>
</event>
<event>
 9    1  0.2075077E-005  0.9764983E+02  0.7546771E-02  0.1290435E+00
         -3   -1    0    0    0  501 -0.00000000000E+00  0.00000000000E+00  0.13135568095E+03  0.13135568095E+03  0.00000000000E+00 0.  1.
          3   -1    0    0  502    0  0.00000000000E+00 -0.00000000000E+00 -0.23777598120E+03  0.23777598120E+03  0.00000000000E+00 0. -1.
         23    2    1    2    0    0 -0.20671049620E+02 -0.71687168572E+01  0.87161013875E+02  0.13116494694E+03  0.95543279048E+02 0.  0.
         23    2    1    2    0    0  0.14485692994E+02 -0.32166469564E+02 -0.16279714669E+03  0.18763600399E+03  0.86370376610E+02 0.  0.
        -13    1    4    4    0    0 -0.29162065644E+02 -0.29084720414E+02 -0.40568835647E+02  0.57811568565E+02  0.00000000000E+00 0.  1.
         13    1    4    4    0    0  0.43647758638E+02 -0.30817491498E+01 -0.12222831104E+03  0.12982443542E+03  0.00000000000E+00 0. -1.
        -13    1    3    3    0    0 -0.23121391108E+02 -0.31410437644E+02  0.97260564311E+02  0.10478946364E+03  0.00000000000E+00 0.  1.
         13    1    3    3    0    0  0.24503414880E+01  0.24241720787E+02 -0.10099550436E+02  0.26375483297E+02  0.00000000000E+00 0. -1.
         21    1    1    2  502  501  0.61853566267E+01  0.39335186421E+02 -0.30784167442E+02  0.50330711226E+02  0.00000000000E+00 0. -1.
<scales pt_clust_5="13000.00000" pt_clust_6="13000.00000" pt_clust_7="13000.00000" pt_clust_8="13000.00000" pt_clust_9="39.81853"></scales>
<clustering>
<clus scale="   39.819">  2  9  1 -1</clus>
<clus scale="   86.370">  5  6 -1 -1</clus>
<clus scale="   88.695">  2  5  1 -1</clus>
<clus scale="   95.543">  7  8 -1 -1</clus>
<clus scale="   39.819">  2  5  1 -1</clus>
</clustering>
</event>
<event>
 9    1  0.2075077E-005  0.9941739E+02  0.7546771E-02  0.1282601E+00
         -1   -1    0    0    0  501 -0.00000000000E+00  0.00000000000E+00  0.78477588728E+03  0.78477588728E+03  0.00000000000E+00 0.  1.
          1   -1    0    0  502    0  0.00000000000E+00 -0.00000000000E+00 -0.42840287714E+02  0.42840287714E+02  0.00000000000E+00 0. -1.
         23    2    1    2    0    0 -0.48651735466E+02  0.46728449019E+02  0.60680102126E+03  0.61773852370E+03  0.94036508595E+02 0.  0.
         23    2    1    2    0    0  0.10480085797E+02 -0.26795032245E+02  0.37835888708E+02  0.10347534427E+03  0.91911840620E+02 0.  0.
        -11    1    3    3    0    0 -0.11033457224E+02 -0.28978515892E+02  0.17871976197E+03  0.18138975958E+03  0.00000000000E+00 0.  1.
         11    1    3    3    0    0 -0.37618278242E+02  0.75706964911E+02  0.42808125929E+03  0.43634876412E+03  0.00000000000E+00 0. -1.
        -13    1    4    4    0    0 -0.61930375611E+01 -0.57639072849E+02  0.36261985130E+02  0.68377978902E+02  0.00000000000E+00 0.  1.
         13    1    4    4    0    0  0.16673123358E+02  0.30844040604E+02  0.15739035786E+01  0.35097365368E+02  0.00000000000E+00 0. -1.
         21    1    1    2  502  501  0.38171649669E+02 -0.19933416774E+02  0.97298689604E+02  0.10640230703E+03  0.00000000000E+00 0. -1.
<scales pt_clust_5="13000.00000" pt_clust_6="13000.00000" pt_clust_7="13000.00000" pt_clust_8="13000.00000" pt_clust_9="43.06293"></scales>
<clustering>
<clus scale="   43.063">  1  9  2 -1</clus>
<clus scale="   91.912">  7  8 -1 -1</clus>
<clus scale="   94.037">  5  6 -1 -1</clus>
<clus scale="   97.410">  2  7  1 -1</clus>
<clus scale="   97.410">  2  5  1 -1</clus>
</clustering>
</event>
<event>
 9    1  0.2075077E-005  0.9144659E+02  0.7546771E-02  0.1301686E+00
         -1   -1    0    0    0  501 -0.00000000000E+00  0.00000000000E+00  0.68338801137E+02  0.68338801137E+02  0.00000000000E+00 0.  1.
          1   -1    0    0  502    0  0.00000000000E+00 -0.00000000000E+00 -0.24067198121E+03  0.24067198121E+03  0.00000000000E+00 0. -1.
         23    2    1    2    0    0  0.94443408579E+01  0.12419444242E+02  0.10139613263E+01  0.91958072620E+02  0.90619097506E+02 0.  0.
         23    2    1    2    0    0 -0.15345126757E+02  0.11717471940E+02 -0.77211933144E+02  0.11775825740E+03  0.86790278844E+02 0.  0.
        -11    1    3    3    0    0 -0.19543361171E+02  0.33392348058E+02  0.27477776720E+02  0.47455453724E+02  0.00000000000E+00 0. -1.
         11    1    3    3    0    0  0.28987702029E+02 -0.20972903816E+02 -0.26463815394E+02  0.44502618896E+02  0.00000000000E+00 0.  1.
        -13    1    4    4    0    0 -0.25341242070E+02 -0.14551555139E+02 -0.83919987918E+02  0.88862200506E+02  0.00000000000E+00 0. -1.
         13    1    4    4    0    0  0.99961153129E+01  0.26269027080E+02  0.67080547745E+01  0.28896056892E+02  0.00000000000E+00 0.  1.
         21    1    1    2  502  501  0.59007858989E+01 -0.24136916182E+02 -0.96135208260E+02  0.99294452333E+02  0.00000000000E+00 0. -1.
<scales pt_clust_5="13000.00000" pt_clust_6="13000.00000" pt_clust_7="13000.00000" pt_clust_8="13000.00000" pt_clust_9="24.84774"></scales>
<clustering>
<clus scale="   24.848">  2  9  1 -1</clus>
<clus scale="   86.790">  7  8 -1 -1</clus>
<clus scale="   87.654">  2  7  1 -1</clus>
<clus scale="   90.619">  5  6 -1 -1</clus>
<clus scale="   24.848">  2  5  1 -1</clus>
</clustering>
</event>
<event>
 9    1  0.2075077E-005  0.1101605E+03  0.7546771E-02  0.1262298E+00
          2   -1    0    0  502    0  0.00000000000E+00  0.00000000000E+00  0.29380320136E+03  0.29380320136E+03  0.00000000000E+00 0. -1.
         -2   -1    0    0    0  501 -0.00000000000E+00 -0.00000000000E+00 -0.10886158964E+03  0.10886158964E+03  0.00000000000E+00 0.  1.
         23    2    1    2    0    0  0.41572841809E+02  0.39871405933E+02 -0.56595227993E+02  0.12594342627E+03  0.96647279328E+02 0.  0.
         23    2    1    2    0    0 -0.31328374607E+02 -0.13209389896E+02  0.13692511563E+03  0.16828048212E+03  0.91727195182E+02 0.  0.
        -11    1    3    3    0    0  0.71981520369E+02  0.16119067979E+02 -0.33933940127E+02  0.81195294935E+02  0.00000000000E+00 0.  1.
         11    1    3    3    0    0 -0.30408678560E+02  0.23752337954E+02 -0.22661287866E+02  0.44748131333E+02  0.00000000000E+00 0. -1.
        -13    1    4    4    0    0 -0.99670199833E+01  0.20207295443E+02 -0.31027307780E+01  0.22744300710E+02  0.00000000000E+00 0.  1.
         13    1    4    4    0    0 -0.21361354624E+02 -0.33416685339E+02  0.14002784641E+03  0.14553618141E+03  0.00000000000E+00 0. -1.
         21    1    1    2  502  501 -0.10244467202E+02 -0.26662016037E+02  0.10461172408E+03  0.10844088261E+03  0.00000000000E+00 0. -1.
<scales pt_clust_5="13000.00000" pt_clust_6="13000.00000" pt_clust_7="13000.00000" pt_clust_8="13000.00000" pt_clust_9="28.56243"></scales>
<clustering>
<clus scale="   28.562">  1  9  2 -1</clus>
<clus scale="   91.727">  7  8 -1 -1</clus>
<clus scale="   96.647">  5  6 -1 -1</clus>
<clus scale="  105.870">  1  7  2 -1</clus>
<clus scale="   28.562">  1  5  2 -1</clus>
</clustering>
</event>
<event>
 9    1  0.2075077E-005  0.9870623E+02  0.7546771E-02  0.1284615E+00
         -2   -1    0    0    0  501 -0.00000000000E+00  0.00000000000E+00  0.76559016106E+02  0.76559016106E+02  0.00000000000E+00 0.  1.
          2   -1    0    0  502    0  0.00000000000E+00 -0.00000000000E+00 -0.53841366112E+03  0.53841366112E+03  0.00000000000E+00 0. -1.
         23    2    1    2    0    0 -0.34607354098E+02 -0.41517007375E+01  0.21294672652E+02  0.97689517654E+02  0.88740482304E+02 0.  0.
         23    2    1    2    0    0  0.32750505361E+02  0.46443875110E+02 -0.17088604867E+03  0.20216345999E+03  0.91860730395E+02 0.  0.
        -13    1    3    3    0    0 -0.56027933148E+02  0.13375503868E+02 -0.70987684046E+01  0.58038141850E+02  0.00000000000E+00 0.  1.
         13    1    3    3    0    0  0.21420579050E+02 -0.17527204605E+02  0.28393441057E+02  0.39651375804E+02  0.00000000000E+00 0. -1.
        -13    1    4    4    0    0 -0.10955538913E+02  0.24509119783E+02 -0.26643240545E+01  0.26978128328E+02  0.00000000000E+00 0.  1.
         13    1    4    4    0    0  0.43706044273E+02  0.21934755327E+02 -0.16822172462E+03  0.17518533166E+03  0.00000000000E+00 0. -1.
         21    1    1    2  502  501  0.18568487373E+01 -0.42292174372E+02 -0.31226326899E+03  0.31511969958E+03  0.00000000000E+00 0. -1.
<scales pt_clust_5="13000.00000" pt_clust_6="13000.00000" pt_clust_7="13000.00000" pt_clust_8="13000.00000" pt_clust_9="42.33292"></scales>
<clustering>
<clus scale="   42.333">  2  9  1 -1</clus>
<clus scale="   88.740">  5  6 -1 -1</clus>
<clus scale="   91.861">  7  8 -1 -1</clus>
<clus scale="   95.809">  1  5  2 -1</clus>
<clus scale="   42.333">  2  5  1 -1</clus>
</clustering>
</event>
<event>
 9    1  0.2075077E-005  0.9754929E+02  0.7546771E-02  0.1286271E+00
         -2   -1    0    0    0  501 -0.00000000000E+00  0.00000000000E+00  0.10022975791E+03  0.10022975791E+03  0.00000000000E+00 0.  1.
          2   -1    0    0  502    0  0.00000000000E+00 -0.00000000000E+00 -0.35369949429E+03  0.35369949429E+03  0.00000000000E+00 0. -1.
         23    2    1    2    0    0 -0.95915835596E+01 -0.37567954583E+02  0.48981928168E+02  0.11104876773E+03  0.91810946192E+02 0.  0.
         23    2    1    2    0    0  0.91216829397E+01  0.10699452215E+02 -0.88593440366E+02  0.12734051770E+03  0.90383219650E+02 0.  0.
        -11    1    4    4    0    0 -0.34487643245E+02  0.15287240439E+02 -0.70391619596E+02  0.79862866003E+02  0.00000000000E+00 0. -1.
         11    1    4    4    0    0  0.43609326185E+02 -0.45877882238E+01 -0.18201820771E+02  0.47477651695E+02  0.00000000000E+00 0.  1.
        -13    1    3    3    0    0 -0.15722880862E+02 -0.67175832029E+02  0.38747593864E+02  0.79127602148E+02  0.00000000000E+00 0.  1.
         13    1    3    3    0    0  0.61312973025E+01  0.29607877446E+02  0.10234334304E+02  0.31921165583E+02  0.00000000000E+00 0. -1.
         21    1    1    2  502  501  0.46990061993E+00  0.26868502368E+02 -0.21385822418E+03  0.21553996677E+03  0.00000000000E+00 0. -1.
<scales pt_clust_5="13000.00000" pt_clust_6="13000.00000" pt_clust_7="13000.00000" pt_clust_8="13000.00000" pt_clust_9="26.87261"></scales>
<clustering>
<clus scale="   26.873">  2  9  1 -1</clus>
<clus scale="   90.383">  5  6 -1 -1</clus>
<clus scale="   91.811">  7  8 -1 -1</clus>
<clus scale="   96.207">  2  5  1 -1</clus>
<clus scale="   26.873">  2  5  1 -1</clus>
</clustering>
</event>
<event>
 9    1  0.2075077E-005  0.1544703E+03  0.7546771E-02  0.1195224E+00
         -1   -1    0    0    0  501 -0.00000000000E+00  0.00000000000E+00  0.33839560109E+03  0.33839560109E+03  0.00000000000E+00 0.  1.
          1   -1    0    0  502    0  0.00000000000E+00 -0.00000000000E+00 -0.87724925329E+02  0.87724925329E+02  0.00000000000E+00 0. -1.
         23    2    1    2    0    0 -0.10141235877E+03 -0.79224540365E+02  0.16948024697E+03  0.23091479800E+03  0.89649849515E+02 0.  0.
         23    2    1    2    0    0  0.83859978427E+02  0.89324900716E+02  0.86440480169E+02  0.17428525102E+03  0.88836694221E+02 0.  0.
        -11    1    3    3    0    0 -0.73269983483E+02 -0.79238583665E+00  0.73007393718E+02  0.10343692712E+03  0.00000000000E+00 0. -1.
         11    1    3    3    0    0 -0.28142375288E+02 -0.78432154528E+02  0.96472853248E+02  0.12747787088E+03  0.00000000000E+00 0.  1.
        -11    1    4    4    0    0  0.45121836292E+02  0.48911096851E+02  0.96686844722E+02  0.11737385334E+03  0.00000000000E+00 0.  1.
         11    1    4    4    0    0  0.38738142134E+02  0.40413803865E+02 -0.10246364553E+02  0.56911397676E+02  0.00000000000E+00 0. -1.
         21    1    1    2  502  501  0.17552380344E+02 -0.10100360351E+02 -0.52500513780E+01  0.20920477395E+02  0.00000000000E+00 0. -1.
<scales pt_clust_5="13000.00000" pt_clust_6="13000.00000" pt_clust_7="13000.00000" pt_clust_8="13000.00000" pt_clust_9="20.25101"></scales>
<clustering>
<clus scale="   20.251">  2  9  1 -1</clus>
<clus scale="   88.837">  7  8 -1 -1</clus>
<clus scale="   89.650">  5  6 -1 -1</clus>
<clus scale="  154.000">  2  7  1 -1</clus>
<clus scale="   20.251">  2  5  1 -1</clus>
</clustering>
</event>
<event>
 9    1  0.2075077E-005  0.2960907E+03  0.7546771E-02  0.1114915E+00
         -1   -1    0    0    0  501 -0.00000000000E+00  0.00000000000E+00  0.83196290678E+03  0.83196290678E+03  0.00000000000E+00 0.  1.
          1   -1    0    0  502    0  0.00000000000E+00 -0.00000000000E+00 -0.38773931112E+03  0.38773931112E+03  0.00000000000E+00 0. -1.
         23    2    1    2    0    0 -0.86568133938E+02  0.71987468826E+02  0.39195052711E+03  0.41773212639E+03  0.90546541811E+02 0.  0.
         23    2    1    2    0    0  0.55596498537E+02 -0.34224106464E+03  0.27384383426E+03  0.45112845706E+03  0.91140124154E+02 0.  0.
        -11    1    4    4    0    0 -0.11686941465E+02 -0.68191919616E+02  0.21180130902E+02  0.72355514280E+02  0.00000000000E+00 0. -1.
         11    1    4    4    0    0  0.67283440003E+02 -0.27404914502E+03  0.25266370336E+03  0.37877294278E+03  0.00000000000E+00 0.  1.
        -13    1    3    3    0    0 -0.65272176512E+02  0.69097856956E+01  0.27009452843E+03  0.27795549365E+03  0.00000000000E+00 0. -1.
         13    1    3    3    0    0 -0.21295957426E+02  0.65077683130E+02  0.12185599869E+03  0.13977663274E+03  0.00000000000E+00 0.  1.
         21    1    1    2  502  501  0.30971635400E+02  0.27025359581E+03 -0.22157076570E+03  0.35084163445E+03  0.00000000000E+00 0. -1.
<scales pt_clust_5="13000.00000" pt_clust_6="13000.00000" pt_clust_7="13000.00000" pt_clust_8="13000.00000" pt_clust_9="281.71475"></scales>
<clustering>
<clus scale="   90.547">  7  8 -1 -1</clus>
<clus scale="   91.140">  5  6 -1 -1</clus>
<clus scale="  144.482">  1  7  2 -1</clus>
<clus scale="  281.715">  2  9  1 -1</clus>
<clus scale="  281.715">  2  5  1 -1</clus>
</clustering>
</event>
<event>
 9    1  0.2075077E-005  0.1173913E+03  0.7546771E-02  0.1248969E+00
         -1   -1    0    0    0  501 -0.00000000000E+00  0.00000000000E+00  0.49186081032E+03  0.49186081032E+03  0.00000000000E+00 0.  1.
          1   -1    0    0  502    0  0.00000000000E+00 -0.00000000000E+00 -0.48020717093E+02  0.48020717093E+02  0.00000000000E+00 0. -1.
         23    2    1    2    0    0  0.92074367007E+02  0.19889364502E+01  0.25924808667E+03  0.28970548365E+03  0.90763714601E+02 0.  0.
         23    2    1    2    0    0 -0.56482866108E+02  0.23633199299E+02  0.85419249267E+02  0.14173949750E+03  0.95104125740E+02 0.  0.
        -11    1    3    3    0    0  0.19902863426E+01 -0.30320373486E+02  0.38065342213E+02  0.48705816551E+02  0.00000000000E+00 0. -1.
         11    1    3    3    0    0  0.90084080665E+02  0.32309309936E+02  0.22118274445E+03  0.24099966710E+03  0.00000000000E+00 0.  1.
        -13    1    4    4    0    0  0.14246904151E+02  0.16549722836E+02  0.63811086638E+02  0.67444216815E+02  0.00000000000E+00 0.  1.
         13    1    4    4    0    0 -0.70729770258E+02  0.70834764632E+01  0.21608162628E+02  0.74295280683E+02  0.00000000000E+00 0. -1.
         21    1    1    2  502  501 -0.35591500900E+02 -0.25622135750E+02  0.99172757293E+02  0.10843654626E+03  0.00000000000E+00 0. -1.
<scales pt_clust_5="13000.00000" pt_clust_6="13000.00000" pt_clust_7="13000.00000" pt_clust_8="13000.00000" pt_clust_9="43.85486"></scales>
<clustering>
<clus scale="   43.855">  1  9  2 -1</clus>
<clus scale="   90.764">  5  6 -1 -1</clus>
<clus scale="   95.104">  7  8 -1 -1</clus>
<clus scale="  113.903">  1  5  2 -1</clus>
<clus scale="  117.391">  2  5  1 -1</clus>
</clustering>
</event>
<event>
 9    1  0.2075077E-005  0.1337904E+03  0.7546771E-02  0.1222109E+00
         -1   -1    0    0    0  501 -0.00000000000E+00  0.00000000000E+00  0.36067809830E+03  0.36067809830E+03  0.00000000000E+00 0.  1.
          1   -1    0    0  502    0  0.00000000000E+00 -0.00000000000E+00 -0.98514521826E+02  0.98514521826E+02  0.00000000000E+00 0. -1.
         23    2    1    2    0    0 -0.11304786028E+03  0.19248035467E+02  0.22901613542E+03  0.27201390634E+03  0.91612604903E+02 0.  0.
         23    2    1    2    0    0  0.50833387313E+02 -0.46420584376E+02  0.31019905073E+02  0.11925585703E+03  0.92308293264E+02 0.  0.
        -13    1    4    4    0    0  0.13499867464E+02 -0.45401221161E+02 -0.23732482898E+02  0.52978750919E+02  0.00000000000E+00 0.  1.
         13    1    4    4    0    0  0.37333519849E+02 -0.10193632151E+01  0.54752387971E+02  0.66277106109E+02  0.00000000000E+00 0. -1.
        -13    1    3    3    0    0 -0.25425972938E+02  0.17844612570E+02  0.15264100135E+03  0.15576965555E+03  0.00000000000E+00 0.  1.
         13    1    3    3    0    0 -0.87621887346E+02  0.14034228969E+01  0.76375134069E+02  0.11624425079E+03  0.00000000000E+00 0. -1.
         21    1    1    2  502  501  0.62214472971E+02  0.27172548910E+02  0.21275359885E+01  0.67922856762E+02  0.00000000000E+00 0. -1.
<scales pt_clust_5="13000.00000" pt_clust_6="13000.00000" pt_clust_7="13000.00000" pt_clust_8="13000.00000" pt_clust_9="67.88953"></scales>
<clustering>
<clus scale="   67.890">  2  9  1 -1</clus>
<clus scale="   91.613">  7  8 -1 -1</clus>
<clus scale="   92.308">  5  6 -1 -1</clus>
<clus scale="  133.311">  1  7  2 -1</clus>
<clus scale="   67.890">  2  5  1 -1</clus>
</clustering>
</event>
<event>
 9    1  0.2075077E-005  0.1757315E+03  0.7546771E-02  0.1173868E+00
         -2   -1    0    0    0  501 -0.00000000000E+00  0.00000000000E+00  0.95771338334E+02  0.95771338334E+02  0.00000000000E+00 0.  1.
          2   -1    0    0  502    0  0.00000000000E+00 -0.00000000000E+00 -0.75645816904E+03  0.75645816904E+03  0.00000000000E+00 0. -1.
         23    2    1    2    0    0 -0.11634975485E+03 -0.88088174298E+02 -0.12523667029E+02  0.17955678264E+03  0.10386050285E+03 0.  0.
         23    2    1    2    0    0  0.10063454318E+03  0.64157261647E+02 -0.51196584368E+03  0.53349885350E+03  0.90931491183E+02 0.  0.
        -11    1    3    3    0    0  0.19726106734E+02 -0.94680525543E+01 -0.33329141725E+01  0.22133043688E+02  0.00000000000E+00 0. -1.
         11    1    3    3    0    0 -0.13607586158E+03 -0.78620121743E+02 -0.91907528562E+01  0.15742373896E+03  0.00000000000E+00 0.  1.
        -13    1    4    4    0    0  0.20059131523E+01  0.49917696842E+02 -0.15238606594E+03  0.16036618483E+03  0.00000000000E+00 0.  1.
         13    1    4    4    0    0  0.98628630025E+02  0.14239564804E+02 -0.35957977774E+03  0.37313266866E+03  0.00000000000E+00 0. -1.
         21    1    1    2  502  501  0.15715211673E+02  0.23930912651E+02 -0.13619732000E+03  0.13917387123E+03  0.00000000000E+00 0. -1.
<scales pt_clust_5="13000.00000" pt_clust_6="13000.00000" pt_clust_7="13000.00000" pt_clust_8="13000.00000" pt_clust_9="28.62964"></scales>
<clustering>
<clus scale="   28.630">  2  9  1 -1</clus>
<clus scale="   90.931">  7  8 -1 -1</clus>
<clus scale="  103.861">  5  6 -1 -1</clus>
<clus scale="  168.413">  2  7  1 -1</clus>
<clus scale="   28.630">  2  5  1 -1</clus>
</clustering>
</event>
<event>
 9    1  0.2075077E-005  0.2065730E+03  0.7546771E-02  0.1144419E+00
         -2   -1    0    0    0  501 -0.00000000000E+00  0.00000000000E+00  0.24230358603E+03  0.24230358603E+03  0.00000000000E+00 0. -1.
          2   -1    0    0  502    0  0.00000000000E+00 -0.00000000000E+00 -0.32548705924E+03  0.32548705924E+03  0.00000000000E+00 0.  1.
         23    2    1    2    0    0 -0.31943457993E+02  0.17864943121E+03  0.13298551466E+03  0.24280491312E+03  0.91285677678E+02 0.  0.
         23    2    1    2    0    0  0.32729267650E+02 -0.19962004092E+03 -0.19304886120E+03  0.29376195553E+03  0.90049197719E+02 0.  0.
        -11    1    3    3    0    0  0.29223233500E+02  0.62480850580E+02  0.65784687611E+02  0.95317780028E+02  0.00000000000E+00 0.  1.
         11    1    3    3    0    0 -0.61166691493E+02  0.11616858063E+03  0.67200827046E+02  0.14748713310E+03  0.00000000000E+00 0. -1.
        -11    1    4    4    0    0  0.46263209482E+01 -0.15208349969E+03 -0.89811275806E+02  0.17668293349E+03  0.00000000000E+00 0. -1.
         11    1    4    4    0    0  0.28102946702E+02 -0.47536541231E+02 -0.10323758539E+03  0.11707902205E+03  0.00000000000E+00 0.  1.
         21    1    1    2  502  501 -0.78580965703E+00  0.20970609712E+02 -0.23120126666E+02  0.31223776606E+02  0.00000000000E+00 0. -1.
<scales pt_clust_5="13000.00000" pt_clust_6="13000.00000" pt_clust_7="13000.00000" pt_clust_8="13000.00000" pt_clust_9="20.98533"></scales>
<clustering>
<clus scale="   20.985">  2  9  1 -1</clus>
<clus scale="   90.049">  7  8 -1 -1</clus>
<clus scale="   91.286">  5  6 -1 -1</clus>
<clus scale="  206.030">  2  7  1 -1</clus>
<clus scale="   20.985">  2  5  1 -1</clus>
</clustering>
</event>
<event>
 9    1  0.2075077E-005  0.1053855E+03  0.7546771E-02  0.1272264E+00
         -2   -1    0    0    0  501 -0.00000000000E+00  0.00000000000E+00  0.31478765449E+02  0.31478765449E+02  0.00000000000E+00 0.  1.
          2   -1    0    0  502    0  0.00000000000E+00 -0.00000000000E+00 -0.62539098868E+03  0.62539098868E+03  0.00000000000E+00 0. -1.
         23    2    1    2    0    0 -0.48194967998E+02  0.24537873982E+01 -0.10878374199E+03  0.14991222520E+03  0.91164668202E+02 0.  0.
         23    2    1    2    0    0  0.15963654759E+02  0.27218578939E+02 -0.36498472280E+03  0.37907543649E+03  0.97409698471E+02 0.  0.
        -11    1    3    3    0    0 -0.36788708505E+02  0.30590081829E+02 -0.10954983521E+03  0.11954216233E+03  0.00000000000E+00 0.  1.
         11    1    3    3    0    0 -0.11406259493E+02 -0.28136294431E+02  0.76609321404E+00  0.30370062870E+02  0.00000000000E+00 0. -1.
        -11    1    4    4    0    0  0.31207823264E+02  0.48260800080E+02 -0.33272740283E+03  0.33765449449E+03  0.00000000000E+00 0. -1.
         11    1    4    4    0    0 -0.15244168504E+02 -0.21042221141E+02 -0.32257319972E+02  0.41420941995E+02  0.00000000000E+00 0.  1.
         21    1    1    2  502  501  0.32231313239E+02 -0.29672366338E+02 -0.12014375844E+03  0.12788209245E+03  0.00000000000E+00 0. -1.
<scales pt_clust_5="13000.00000" pt_clust_6="13000.00000" pt_clust_7="13000.00000" pt_clust_8="13000.00000" pt_clust_9="43.80989"></scales>
<clustering>
<clus scale="   43.810">  2  9  1 -1</clus>
<clus scale="   91.165">  5  6 -1 -1</clus>
<clus scale="   97.410">  7  8 -1 -1</clus>
<clus scale="   99.642">  1  5  2 -1</clus>
<clus scale="   43.810">  2  5  1 -1</clus>
</clustering>
</event>
<event>
 9    1  0.2075077E-005  0.3076490E+03  0.7546771E-02  0.1129023E+00
          2   -1    0    0  502    0  0.00000000000E+00  0.00000000000E+00  0.64260517564E+03  0.64260517564E+03  0.00000000000E+00 0.  1.
         -2   -1    0    0    0  501 -0.00000000000E+00 -0.00000000000E+00 -0.29060908555E+03  0.29060908555E+03  0.00000000000E+00 0. -1.
         23    2    1    2    0    0 -0.26005241542E+02 -0.68563482632E+00  0.20984389693E+02  0.93017088038E+02  0.86804904087E+02 0.  0.
         23    2    1    2    0    0  0.15289208931E+03  0.25464316904E+03  0.43807472039E+03  0.53678789253E+03  0.89513386789E+02 0.  0.
        -11    1    4    4    0    0  0.14843373846E+03  0.22033074327E+03  0.42194093317E+03  0.49861043132E+03  0.00000000000E+00 0.  1.
         11    1    4    4    0    0  0.44583508539E+01  0.34312425765E+02  0.16133787222E+02  0.38177461209E+02  0.00000000000E+00 0. -1.
        -13    1    3    3    0    0 -0.11483861145E+02  0.42822358561E+02  0.58632218169E+01  0.44721480628E+02  0.00000000000E+00 0. -1.
         13    1    3    3    0    0 -0.14521380397E+02 -0.43507993387E+02  0.15121167876E+02  0.48295607410E+02  0.00000000000E+00 0.  1.
         21    1    1    2  502  501 -0.12688684777E+03 -0.25395753421E+03 -0.10706301999E+03  0.30340928062E+03  0.00000000000E+00 0. -1.
<scales pt_clust_5="13000.00000" pt_clust_6="13000.00000" pt_clust_7="13000.00000" pt_clust_8="13000.00000" pt_clust_9="294.33869"></scales>
<clustering>
<clus scale="   86.805">  7  8 -1 -1</clus>
<clus scale="   89.513">  5  6 -1 -1</clus>
<clus scale="   90.619">  2  7  1 -1</clus>
<clus scale="  294.339">  2  9  1 -1</clus>
<clus scale="  307.649">  1  5  2 -1</clus>
</clustering>
</event>
<event>
 9    1  0.2075077E-005  0.9411231E+02  0.7546771E-02  0.1293344E+00
         -3   -1    0    0    0  501 -0.00000000000E+00  0.00000000000E+00  0.16503139985E+03  0.16503139985E+03  0.00000000000E+00 0.  1.
          3   -1    0    0  502    0  0.00000000000E+00 -0.00000000000E+00 -0.99551904874E+02  0.99551904874E+02  0.00000000000E+00 0. -1.
         23    2    1    2    0    0  0.15473635720E+02 -0.31749022461E+02  0.59457956622E+02  0.11519493605E+03  0.92125951047E+02 0.  0.
         23    2    1    2    0    0  0.18335323318E+02  0.29425722139E+00  0.27953726370E+02  0.98266271309E+02  0.92404429496E+02 0.  0.
        -13    1    4    4    0    0  0.63286877572E+01 -0.44735787742E+02  0.24839358584E+02  0.51559060586E+02  0.00000000000E+00 0. -1.
         13    1    4    4    0    0  0.12006635561E+02  0.45030044963E+02  0.31143677860E+01  0.46707210724E+02  0.00000000000E+00 0.  1.
        -13    1    3    3    0    0 -0.19839599710E+02 -0.53548294270E+02  0.32462129501E+02  0.65687284825E+02  0.00000000000E+00 0. -1.
         13    1    3    3    0    0  0.35313235430E+02  0.21799271810E+02  0.26995827121E+02  0.49507651225E+02  0.00000000000E+00 0.  1.
         21    1    1    2  502  501 -0.33808959038E+02  0.31454765239E+02 -0.21932188018E+02  0.51122097363E+02  0.00000000000E+00 0. -1.
<scales pt_clust_5="13000.00000" pt_clust_6="13000.00000" pt_clust_7="13000.00000" pt_clust_8="13000.00000" pt_clust_9="46.17844"></scales>
<clustering>
<clus scale="   46.178">  2  9  1 -1</clus>
<clus scale="   92.126">  7  8 -1 -1</clus>
<clus scale="   92.404">  5  6 -1 -1</clus>
<clus scale="   93.839">  1  7  2 -1</clus>
<clus scale="   46.178">  2  5  1 -1</clus>
</clustering>
</event>
<event>
 9    1  0.2075077E-005  0.1256833E+03  0.7546771E-02  0.1234085E+00
          3   -1    0    0  502    0  0.00000000000E+00  0.00000000000E+00  0.10782725546E+03  0.10782725546E+03  0.00000000000E+00 0. -1.
         -3   -1    0    0    0  501 -0.00000000000E+00 -0.00000000000E+00 -0.21436188564E+03  0.21436188564E+03  0.00000000000E+00 0.  1.
         23    2    1    2    0    0  0.82512262966E+02 -0.46383680800E+02 -0.67911908135E+02  0.14703602198E+03  0.89709782690E+02 0.  0.
         23    2    1    2    0    0 -0.84339867124E+02  0.72558026340E+01 -0.51592009749E+02  0.13389135218E+03  0.89996104691E+02 0.  0.
        -11    1    3    3    0    0  0.65780152424E+01 -0.53681849359E+02 -0.26263588095E+02  0.60123101174E+02  0.00000000000E+00 0. -1.
         11    1    3    3    0    0  0.75934247724E+02  0.72981685589E+01 -0.41648320040E+02  0.86912920811E+02  0.00000000000E+00 0.  1.
        -13    1    4    4    0    0 -0.64027238518E+01 -0.33806538566E+02 -0.68308109466E+01  0.35079009403E+02  0.00000000000E+00 0.  1.
         13    1    4    4    0    0 -0.77937143272E+02  0.41062341200E+02 -0.44761198802E+02  0.98812342774E+02  0.00000000000E+00 0. -1.
         21    1    1    2  502  501  0.18276041576E+01  0.39127878166E+02  0.12969287707E+02  0.41261766932E+02  0.00000000000E+00 0.  1.
<scales pt_clust_5="13000.00000" pt_clust_6="13000.00000" pt_clust_7="13000.00000" pt_clust_8="13000.00000" pt_clust_9="39.17054"></scales>
<clustering>
<clus scale="   39.171">  1  9  2 -1</clus>
<clus scale="   89.710">  5  6 -1 -1</clus>
<clus scale="   89.996">  7  8 -1 -1</clus>
<clus scale="  125.478">  2  5  1 -1</clus>
<clus scale="   39.171">  1  5  2 -1</clus>
</clustering>
</event>
<event>
 9    1  0.2075077E-005  0.9379527E+02  0.7546771E-02  0.1295665E+00
          1   -1    0    0  502    0  0.00000000000E+00  0.00000000000E+00  0.33010724555E+02  0.33010724555E+02  0.00000000000E+00 0. -1.
         -1   -1    0    0    0  501 -0.00000000000E+00 -0.00000000000E+00 -0.37033394439E+03  0.37033394439E+03  0.00000000000E+00 0.  1.
         23    2    1    2    0    0  0.18494680308E+02 -0.10938864160E+02 -0.17145335413E+03  0.19624432431E+03  0.93026180362E+02 0.  0.
         23    2    1    2    0    0  0.11110110895E+02  0.11497513695E+02 -0.14287220183E+03  0.16960836822E+03  0.89993917183E+02 0.  0.
        -11    1    3    3    0    0  0.38413709711E+02  0.29882712216E+02 -0.71954397844E+02  0.86867859144E+02  0.00000000000E+00 0. -1.
         11    1    3    3    0    0 -0.19919029403E+02 -0.40821576376E+02 -0.99498956290E+02  0.10937646517E+03  0.00000000000E+00 0.  1.
        -13    1    4    4    0    0 -0.17841084793E+02 -0.20899743570E+02 -0.90836014246E+01  0.28941586044E+02  0.00000000000E+00 0. -1.
         13    1    4    4    0    0  0.28951195688E+02  0.32397257264E+02 -0.13378860041E+03  0.14066678218E+03  0.00000000000E+00 0.  1.
         21    1    1    2  502  501 -0.29604791203E+02 -0.55864953424E+00 -0.22997663867E+02  0.37491976405E+02  0.00000000000E+00 0.  1.
<scales pt_clust_5="13000.00000" pt_clust_6="13000.00000" pt_clust_7="13000.00000" pt_clust_8="13000.00000" pt_clust_9="29.61006"></scales>
<clustering>
<clus scale="   29.610">  1  9  2 -1</clus>
<clus scale="   89.994">  7  8 -1 -1</clus>
<clus scale="   90.789">  1  7  2 -1</clus>
<clus scale="   93.026">  5  6 -1 -1</clus>
<clus scale="   29.610">  1  5  2 -1</clus>
</clustering>
</event>
<event>
 9    1  0.2075077E-005  0.1092145E+03  0.7546771E-02  0.1262085E+00
         -2   -1    0    0    0  501 -0.00000000000E+00  0.00000000000E+00  0.15772863863E+03  0.15772863863E+03  0.00000000000E+00 0.  1.
          2   -1    0    0  502    0  0.00000000000E+00 -0.00000000000E+00 -0.17558631736E+03  0.17558631736E+03  0.00000000000E+00 0. -1.
         23    2    1    2    0    0  0.57350900711E+02 -0.18758288472E+02  0.10286177563E+03  0.14980351733E+03  0.90661732386E+02 0.  0.
         23    2    1    2    0    0 -0.48386685683E+02  0.37987752621E+02 -0.11981094819E+03  0.16227574169E+03  0.90522993396E+02 0.  0.
        -11    1    3    3    0    0  0.74872843278E+02  0.78490398007E+01  0.59291291076E+02  0.95828008869E+02  0.00000000000E+00 0.  1.
         11    1    3    3    0    0 -0.17521942567E+02 -0.26607328273E+02  0.43570484552E+02  0.53975508457E+02  0.00000000000E+00 0. -1.
        -11    1    4    4    0    0 -0.10584893742E+02  0.56695597175E+02 -0.10053083312E+03  0.11590029820E+03  0.00000000000E+00 0. -1.
         11    1    4    4    0    0 -0.37801791942E+02 -0.18707844555E+02 -0.19280115074E+02  0.46375443493E+02  0.00000000000E+00 0.  1.
         21    1    1    2  502  501 -0.89642150276E+01 -0.19229464149E+02 -0.90850616058E+00  0.21235696974E+02  0.00000000000E+00 0.  1.
<scales pt_clust_5="13000.00000" pt_clust_6="13000.00000" pt_clust_7="13000.00000" pt_clust_8="13000.00000" pt_clust_9="21.21625"></scales>
<clustering>
<clus scale="   21.216">  1  9  2 -1</clus>
<clus scale="   90.523">  7  8 -1 -1</clus>
<clus scale="   90.662">  5  6 -1 -1</clus>
<clus scale="  109.099">  2  7  1 -1</clus>
<clus scale="  109.099">  2  5  1 -1</clus>
</clustering>
</event>
<event>
 9    1  0.3976722E-005  0.1232437E+03  0.7546771E-02  0.1238917E+00
          2   -1    0    0  502    0  0.00000000000E+00  0.00000000000E+00  0.40418794912E+03  0.40418794912E+03  0.00000000000E+00 0. -1.
         -2   -1    0    0    0  501 -0.00000000000E+00 -0.00000000000E+00 -0.18919331664E+03  0.18919331664E+03  0.00000000000E+00 0.  1.
         23    2    1    2    0    0  0.82203725163E+02 -0.43790804553E+01 -0.15416181916E+03  0.19839031033E+03  0.93894728119E+02 0.  0.
         23    2    1    2    0    0 -0.45070767846E+02  0.69383770264E+01  0.29747351690E+03  0.31422060411E+03  0.90358063316E+02 0.  0.
        -13    1    4    4    0    0 -0.14271884695E+02  0.39146713869E+02  0.62883626866E+02  0.75435418918E+02  0.00000000000E+00 0.  1.
         13    1    4    4    0    0 -0.30798883151E+02 -0.32208336843E+02  0.23458989003E+03  0.23878518520E+03  0.00000000000E+00 0. -1.
        -13    1    3    3    0    0  0.15846697164E+02  0.36061390798E+02 -0.87687651773E+02  0.96128382857E+02  0.00000000000E+00 0.  1.
         13    1    3    3    0    0  0.66357027999E+02 -0.40440471253E+02 -0.66474167389E+02  0.10226192747E+03  0.00000000000E+00 0. -1.
         21    1    1    2  502  501 -0.37132957316E+02 -0.25592965711E+01  0.71682934750E+02  0.80770351320E+02  0.00000000000E+00 0. -1.
<scales pt_clust_5="13000.00000" pt_clust_6="13000.00000" pt_clust_7="13000.00000" pt_clust_8="13000.00000" pt_clust_9="37.22105"></scales>
<clustering>
<clus scale="   37.221">  1  9  2 -1</clus>
<clus scale="   90.358">  5  6 -1 -1</clus>
<clus scale="   93.895">  7  8 -1 -1</clus>
<clus scale="  120.571">  1  5  2 -1</clus>
<clus scale="   37.221">  1  5  2 -1</clus>
</clustering>
</event>
<event>
 9    1  0.2075077E-005  0.1304998E+03  0.7546771E-02  0.1227474E+00
         -2   -1    0    0    0  501 -0.00000000000E+00  0.00000000000E+00  0.16754706900E+03  0.16754706900E+03  0.00000000000E+00 0. -1.
          2   -1    0    0  502    0  0.00000000000E+00 -0.00000000000E+00 -0.28547648961E+03  0.28547648961E+03  0.00000000000E+00 0.  1.
         23    2    1    2    0    0  0.83054600882E+02  0.50558798337E+02  0.65423227275E+02  0.14996029529E+03  0.93560850142E+02 0.  0.
         23    2    1    2    0    0 -0.81575185255E+02 -0.19643609354E+02 -0.67213012061E+01  0.12374073207E+03  0.90698460000E+02 0.  0.
        -13    1    3    3    0    0  0.79564902690E+02  0.70870103992E+02  0.33004965659E+02  0.11154583425E+03  0.00000000000E+00 0.  1.
         13    1    3    3    0    0  0.34896981920E+01 -0.20311305655E+02  0.32418261616E+02  0.38414461041E+02  0.00000000000E+00 0. -1.
        -13    1    4    4    0    0 -0.85818245920E+02  0.98393066480E+01  0.13928601090E+02  0.87496224012E+02  0.00000000000E+00 0.  1.
         13    1    4    4    0    0  0.42430606647E+01 -0.29482916002E+02 -0.20649902296E+02  0.36244508062E+02  0.00000000000E+00 0. -1.
         21    1    1    2  502  501 -0.14794156271E+01 -0.30915188983E+02 -0.17663134668E+03  0.17932253124E+03  0.00000000000E+00 0.  1.
<scales pt_clust_5="13000.00000" pt_clust_6="13000.00000" pt_clust_7="13000.00000" pt_clust_8="13000.00000" pt_clust_9="30.95057"></scales>
<clustering>
<clus scale="   30.951">  2  9  1 -1</clus>
<clus scale="   90.698">  7  8 -1 -1</clus>
<clus scale="   93.561">  5  6 -1 -1</clus>
<clus scale="  128.463">  2  7  1 -1</clus>
<clus scale="   30.951">  2  5  1 -1</clus>
</clustering>
</event>
<event>
 9    1  0.4861682E-005  0.1285966E+03  0.7546771E-02  0.1229709E+00
          2   -1    0    0  502    0  0.00000000000E+00  0.00000000000E+00  0.75503060611E+03  0.75503060611E+03  0.00000000000E+00 0. -1.
         -2   -1    0    0    0  501 -0.00000000000E+00 -0.00000000000E+00 -0.65557800251E+03  0.65557800251E+03  0.00000000000E+00 0.  1.
         23    2    1    2    0    0 -0.91673153533E+02 -0.36880437384E+01 -0.63642040339E+03  0.64947386708E+03  0.91475709501E+02 0.  0.
         23    2    1    2    0    0  0.14324703558E+02 -0.25841265748E+02  0.24603918877E+03  0.26435316750E+03  0.92056214399E+02 0.  0.
        -11    1    3    3    0    0  0.10610997435E+02 -0.22170286281E+02 -0.92408469373E+02  0.95621336909E+02  0.00000000000E+00 0. -1.
         11    1    3    3    0    0 -0.10228415097E+03  0.18482242542E+02 -0.54401193401E+03  0.55385253017E+03  0.00000000000E+00 0.  1.
        -13    1    4    4    0    0  0.29765249977E+02 -0.55599562892E+02  0.15513649323E+03  0.16746525918E+03  0.00000000000E+00 0. -1.
         13    1    4    4    0    0 -0.15440546419E+02  0.29758297144E+02  0.90902695537E+02  0.96887908320E+02  0.00000000000E+00 0.  1.
         21    1    1    2  502  501  0.77348449975E+02  0.29529309486E+02  0.48983381823E+03  0.49678157404E+03  0.00000000000E+00 0. -1.
<scales pt_clust_5="13000.00000" pt_clust_6="13000.00000" pt_clust_7="13000.00000" pt_clust_8="13000.00000" pt_clust_9="82.79350"></scales>
<clustering>
<clus scale="   82.793">  1  9  2 -1</clus>
<clus scale="   91.476">  5  6 -1 -1</clus>
<clus scale="   92.056">  7  8 -1 -1</clus>
<clus scale="  128.182">  2  5  1 -1</clus>
<clus scale="   82.793">  1  5  2 -1</clus>
</clustering>
</event>
<event>
 9    1  0.2075077E-005  0.9369302E+02  0.7546771E-02  0.1295871E+00
          3   -1    0    0  502    0  0.00000000000E+00  0.00000000000E+00  0.26835545579E+03  0.26835545579E+03  0.00000000000E+00 0. -1.
         -3   -1    0    0    0  501 -0.00000000000E+00 -0.00000000000E+00 -0.46640490158E+02  0.46640490158E+02  0.00000000000E+00 0.  1.
         23    2    1    2    0    0 -0.55629587485E+01 -0.11141229855E+02  0.70605182266E+02  0.11701778722E+03  0.92482415893E+02 0.  0.
         23    2    1    2    0    0  0.23227708231E+02 -0.17485883405E+01  0.75832856712E+02  0.11958934273E+03  0.89489690732E+02 0.  0.
        -11    1    4    4    0    0 -0.17315966302E+02  0.33801778362E+02  0.24888433845E+02  0.45407455871E+02  0.00000000000E+00 0.  1.
         11    1    4    4    0    0  0.40543674533E+02 -0.35550366702E+02  0.50944422867E+02  0.74181886863E+02  0.00000000000E+00 0. -1.
        -13    1    3    3    0    0 -0.22252501393E+02 -0.47954651714E+02  0.38513604431E+02  0.65407340303E+02  0.00000000000E+00 0. -1.
         13    1    3    3    0    0  0.16689542644E+02  0.36813421859E+02  0.32091577834E+02  0.51610446913E+02  0.00000000000E+00 0.  1.
         21    1    1    2  502  501 -0.17664749482E+02  0.12889818195E+02  0.75276926650E+02  0.78388815996E+02  0.00000000000E+00 0. -1.
<scales pt_clust_5="13000.00000" pt_clust_6="13000.00000" pt_clust_7="13000.00000" pt_clust_8="13000.00000" pt_clust_9="21.86757"></scales>
<clustering>
<clus scale="   21.868">  1  9  2 -1</clus>
<clus scale="   89.490">  5  6 -1 -1</clus>
<clus scale="   90.740">  1  5  2 -1</clus>
<clus scale="   92.482">  7  8 -1 -1</clus>
<clus scale="   21.868">  1  5  2 -1</clus>
</clustering>
</event>
<event>
 9    1  0.2075077E-005  0.2346750E+03  0.7546771E-02  0.1123870E+00
         -2   -1    0    0    0  501 -0.00000000000E+00  0.00000000000E+00  0.32455111119E+03  0.32455111119E+03  0.00000000000E+00 0.  1.
          2   -1    0    0  502    0  0.00000000000E+00 -0.00000000000E+00 -0.47327920894E+03  0.47327920894E+03  0.00000000000E+00 0. -1.
         23    2    1    2    0    0  0.10841903979E+03  0.18691616985E+03  0.23279898605E+03  0.33149972852E+03  0.94891302893E+02 0.  0.
         23    2    1    2    0    0 -0.12993177884E+03 -0.15901948598E+03 -0.36382002408E+03  0.42690264623E+03  0.87814550989E+02 0.  0.
        -11    1    3    3    0    0  0.61312672623E+02  0.23356946498E+02  0.59001084189E+02  0.88237853042E+02  0.00000000000E+00 0.  1.
         11    1    3    3    0    0  0.47106367163E+02  0.16355922336E+03  0.17379790186E+03  0.24326187548E+03  0.00000000000E+00 0. -1.
        -11    1    4    4    0    0 -0.85711790624E+02 -0.96207551945E+02 -0.30186745404E+03  0.32821694641E+03  0.00000000000E+00 0. -1.
         11    1    4    4    0    0 -0.44219988213E+02 -0.62811934035E+02 -0.61952570045E+02  0.98685699825E+02  0.00000000000E+00 0.  1.
         21    1    1    2  502  501  0.21512739051E+02 -0.27896683875E+02 -0.17707059715E+02  0.39427945374E+02  0.00000000000E+00 0.  1.
<scales pt_clust_5="13000.00000" pt_clust_6="13000.00000" pt_clust_7="13000.00000" pt_clust_8="13000.00000" pt_clust_9="35.22816"></scales>
<clustering>
<clus scale="   35.228">  2  9  1 -1</clus>
<clus scale="   87.815">  7  8 -1 -1</clus>
<clus scale="   94.891">  5  6 -1 -1</clus>
<clus scale="  231.904">  2  7  1 -1</clus>
<clus scale="   35.228">  2  5  1 -1</clus>
</clustering>
</event>
<event>
 9    1  0.2075077E-005  0.1128661E+03  0.7546771E-02  0.1255644E+00
          1   -1    0    0  502    0  0.00000000000E+00  0.00000000000E+00  0.68688850879E+03  0.68688850879E+03  0.00000000000E+00 0. -1.
         -1   -1    0    0    0  501 -0.00000000000E+00 -0.00000000000E+00 -0.28660629658E+02  0.28660629658E+02  0.00000000000E+00 0.  1.
         23    2    1    2    0    0 -0.74587936625E+02  0.19618809609E+00  0.15109580427E+03  0.19080309379E+03  0.89512455836E+02 0.  0.
         23    2    1    2    0    0  0.50734120875E+02 -0.17867215783E+02  0.39389886522E+03  0.40768610484E+03  0.90324169738E+02 0.  0.
        -11    1    3    3    0    0 -0.37760732675E+02 -0.20319425401E+02  0.10672978496E+02  0.44188962997E+02  0.00000000000E+00 0.  1.
         11    1    3    3    0    0 -0.36827203950E+02  0.20515613497E+02  0.14042282578E+03  0.14661413079E+03  0.00000000000E+00 0. -1.
        -13    1    4    4    0    0  0.66184745231E+02 -0.35466474008E+02  0.34965087152E+03  0.35762273870E+03  0.00000000000E+00 0.  1.
         13    1    4    4    0    0 -0.15450624356E+02  0.17599258225E+02  0.44247993693E+02  0.50063366137E+02  0.00000000000E+00 0. -1.
         21    1    1    2  502  501  0.23853815751E+02  0.17671027687E+02  0.11323320965E+03  0.11705993983E+03  0.00000000000E+00 0. -1.
<scales pt_clust_5="13000.00000" pt_clust_6="13000.00000" pt_clust_7="13000.00000" pt_clust_8="13000.00000" pt_clust_9="29.68619"></scales>
<clustering>
<clus scale="   29.686">  1  9  2 -1</clus>
<clus scale="   89.512">  5  6 -1 -1</clus>
<clus scale="   90.324">  7  8 -1 -1</clus>
<clus scale="  112.218">  2  5  1 -1</clus>
<clus scale="   29.686">  1  5  2 -1</clus>
</clustering>
</event>
<event>
 9    1  0.2075077E-005  0.1405292E+03  0.7546771E-02  0.1223888E+00
         -2   -1    0    0    0  501 -0.00000000000E+00  0.00000000000E+00  0.24200490701E+03  0.24200490701E+03  0.00000000000E+00 0.  1.
          2   -1    0    0  502    0  0.00000000000E+00 -0.00000000000E+00 -0.18142219277E+03  0.18142219277E+03  0.00000000000E+00 0. -1.
         23    2    1    2    0    0  0.43573878102E+02  0.45967745552E+02  0.11755211261E+03  0.16156783838E+03  0.90961259532E+02 0.  0.
         23    2    1    2    0    0  0.68315385483E+02  0.15116207581E+02  0.11872041157E+02  0.11698138031E+03  0.92995732975E+02 0.  0.
        -11    1    3    3    0    0  0.27418509065E+02  0.70758142205E+02  0.10469832506E+03  0.12930672294E+03  0.00000000000E+00 0.  1.
         11    1    3    3    0    0  0.16155369037E+02 -0.24790396653E+02  0.12853787551E+02  0.32261115439E+02  0.00000000000E+00 0. -1.
        -13    1    4    4    0    0  0.82114247465E+01  0.44411292604E+02  0.20435234052E+02  0.49572060658E+02  0.00000000000E+00 0.  1.
         13    1    4    4    0    0  0.60103960736E+02 -0.29295085023E+02 -0.85631928950E+01  0.67409319647E+02  0.00000000000E+00 0. -1.
         21    1    1    2  502  501 -0.11188926358E+03 -0.61083953133E+02 -0.68841439530E+02  0.14487788110E+03  0.00000000000E+00 0.  1.
<scales pt_clust_5="13000.00000" pt_clust_6="13000.00000" pt_clust_7="13000.00000" pt_clust_8="13000.00000" pt_clust_9="105.35770"></scales>
<clustering>
<clus scale="   90.961">  5  6 -1 -1</clus>
<clus scale="   92.996">  7  8 -1 -1</clus>
<clus scale="  110.841">  1  5  2 -1</clus>
<clus scale="  105.358">  2  9  1 -1</clus>
<clus scale="  105.358">  2  5  1 -1</clus>
</clustering>
</event>
<event>
 9    1  0.2075077E-005  0.1039731E+03  0.7546771E-02  0.1275139E+00
         -1   -1    0    0    0  501 -0.00000000000E+00  0.00000000000E+00  0.38322861379E+02  0.38322861379E+02  0.00000000000E+00 0.  1.
          1   -1    0    0  502    0  0.00000000000E+00 -0.00000000000E+00 -0.49437929510E+03  0.49437929510E+03  0.00000000000E+00 0. -1.
         23    2    1    2    0    0 -0.13621444626E+02  0.41909770399E+02 -0.64241406009E+02  0.11919948938E+03  0.90219662018E+02 0.  0.
         23    2    1    2    0    0  0.20573678754E+02 -0.12567317299E+02 -0.33102674549E+03  0.34564599190E+03  0.96494724023E+02 0.  0.
        -13    1    3    3    0    0  0.34345282980E+02  0.34637402240E+02 -0.46929253880E+02  0.67688277912E+02  0.00000000000E+00 0. -1.
         13    1    3    3    0    0 -0.47966727607E+02  0.72723681597E+01 -0.17312152129E+02  0.51511211472E+02  0.00000000000E+00 0.  1.
        -13    1    4    4    0    0  0.59125528648E+02 -0.95323792700E+00 -0.20299412617E+03  0.21143167232E+03  0.00000000000E+00 0. -1.
         13    1    4    4    0    0 -0.38551849895E+02 -0.11614079372E+02 -0.12803261932E+03  0.13421431957E+03  0.00000000000E+00 0.  1.
         21    1    1    2  502  501 -0.69522341270E+01 -0.29342453100E+02 -0.60788282218E+02  0.67856675194E+02  0.00000000000E+00 0.  1.
<scales pt_clust_5="13000.00000" pt_clust_6="13000.00000" pt_clust_7="13000.00000" pt_clust_8="13000.00000" pt_clust_9="30.15482"></scales>
<clustering>
<clus scale="   30.155">  2  9  1 -1</clus>
<clus scale="   90.220">  5  6 -1 -1</clus>
<clus scale="   96.495">  7  8 -1 -1</clus>
<clus scale="   98.177">  1  5  2 -1</clus>
<clus scale="   30.155">  2  5  1 -1</clus>
</clustering>
</event>
<event>
 9    1  0.2075077E-005  0.9511435E+02  0.7546771E-02  0.1291493E+00
         -1   -1    0    0    0  501 -0.00000000000E+00  0.00000000000E+00  0.21611817527E+02  0.21611817527E+02  0.00000000000E+00 0.  1.
          1   -1    0    0  502    0  0.00000000000E+00 -0.00000000000E+00 -0.73550093284E+03  0.73550093284E+03  0.00000000000E+00 0. -1.
         23    2    1    2    0    0 -0.30516021544E+02  0.28905270196E+02 -0.16137973584E+03  0.18958011252E+03  0.90169050712E+02 0.  0.
         23    2    1    2    0    0  0.11298167395E+02 -0.16305306876E+00 -0.31619772303E+03  0.32870500139E+03  0.89097153266E+02 0.  0.
        -11    1    4    4    0    0  0.38603970118E+02 -0.24340972236E+02 -0.10660686008E+03  0.11596452929E+03  0.00000000000E+00 0. -1.
         11    1    4    4    0    0 -0.27305802723E+02  0.24177919168E+02 -0.20959086295E+03  0.21274047210E+03  0.00000000000E+00 0.  1.
        -13    1    3    3    0    0 -0.22783525890E+02  0.58790897316E+02 -0.75757109556E+02  0.98562661833E+02  0.00000000000E+00 0.  1.
         13    1    3    3    0    0 -0.77324956543E+01 -0.29885627120E+02 -0.85622626286E+02  0.91017450687E+02  0.00000000000E+00 0. -1.
         21    1    1    2  502  501  0.19217854149E+02 -0.28742217128E+02 -0.23631165645E+03  0.23882763646E+03  0.00000000000E+00 0. -1.
<scales pt_clust_5="13000.00000" pt_clust_6="13000.00000" pt_clust_7="13000.00000" pt_clust_8="13000.00000" pt_clust_9="34.57515"></scales>
<clustering>
<clus scale="   34.575">  2  9  1 -1</clus>
<clus scale="   89.097">  5  6 -1 -1</clus>
<clus scale="   90.169">  7  8 -1 -1</clus>
<clus scale="   94.099">  2  5  1 -1</clus>
<clus scale="   34.575">  2  5  1 -1</clus>
</clustering>
</event>
<event>
 9    1  0.2075077E-005  0.9644106E+02  0.7546771E-02  0.1288168E+00
         -3   -1    0    0    0  501 -0.00000000000E+00  0.00000000000E+00  0.42131802977E+03  0.42131802977E+03  0.00000000000E+00 0.  1.
          3   -1    0    0  502    0  0.00000000000E+00 -0.00000000000E+00 -0.41554058232E+02  0.41554058232E+02  0.00000000000E+00 0. -1.
         23    2    1    2    0    0 -0.40202122492E+02 -0.44379612809E+02  0.24185597874E+03  0.26522655228E+03  0.90912314335E+02 0.  0.
         23    2    1    2    0    0  0.21045540782E+02  0.67496606806E+01  0.67977149663E+02  0.11595520128E+03  0.91303029087E+02 0.  0.
        -11    1    4    4    0    0  0.43927112763E+02 -0.16168189387E+01  0.78061979090E+02  0.89587264266E+02  0.00000000000E+00 0.  1.
         11    1    4    4    0    0 -0.22881571981E+02  0.83664796193E+01 -0.10084829428E+02  0.26367937009E+02  0.00000000000E+00 0. -1.
        -11    1    3    3    0    0  0.12676014450E+02 -0.36715096595E+02  0.17692314146E+03  0.18113662701E+03  0.00000000000E+00 0.  1.
         11    1    3    3    0    0 -0.52878136942E+02 -0.76645162132E+01  0.64932837279E+02  0.84089925273E+02  0.00000000000E+00 0. -1.
         21    1    1    2  502  501  0.19156581710E+02  0.37629952128E+02  0.69930843133E+02  0.81690334442E+02  0.00000000000E+00 0. -1.
<scales pt_clust_5="13000.00000" pt_clust_6="13000.00000" pt_clust_7="13000.00000" pt_clust_8="13000.00000" pt_clust_9="42.22544"></scales>
<clustering>
<clus scale="   42.225">  1  9  2 -1</clus>
<clus scale="   90.912">  7  8 -1 -1</clus>
<clus scale="   91.303">  5  6 -1 -1</clus>
<clus scale="   96.071">  1  7  2 -1</clus>
<clus scale="   96.441">  2  5  1 -1</clus>
</clustering>
</event>
<event>
 9    1  0.2075077E-005  0.1156520E+03  0.7546771E-02  0.1255700E+00
          1   -1    0    0  502    0  0.00000000000E+00  0.00000000000E+00  0.29981117020E+03  0.29981117020E+03  0.00000000000E+00 0. -1.
         -1   -1    0    0    0  501 -0.00000000000E+00 -0.00000000000E+00 -0.18535858780E+03  0.18535858780E+03  0.00000000000E+00 0.  1.
         23    2    1    2    0    0 -0.10882117889E+02 -0.48691921495E+02 -0.12770059290E+03  0.17194276991E+03  0.10376681063E+03 0.  0.
         23    2    1    2    0    0  0.66614765405E+02  0.38542791439E+02  0.85261236059E+02  0.14642107260E+03  0.90810673305E+02 0.  0.
        -11    1    3    3    0    0  0.34163136929E+02 -0.14708340808E+02 -0.10451895352E+03  0.11093992455E+03  0.00000000000E+00 0.  1.
         11    1    3    3    0    0 -0.45045254818E+02 -0.33983580687E+02 -0.23181639381E+02  0.61002845363E+02  0.00000000000E+00 0. -1.
        -11    1    4    4    0    0  0.88274110658E+02  0.32359401912E+02  0.55780649670E+02  0.10932031093E+03  0.00000000000E+00 0.  1.
         11    1    4    4    0    0 -0.21659345252E+02  0.61833895266E+01  0.29480586390E+02  0.37100761673E+02  0.00000000000E+00 0. -1.
         21    1    1    2  502  501 -0.55732647517E+02  0.10149130056E+02  0.15689193924E+03  0.16680591548E+03  0.00000000000E+00 0. -1.
<scales pt_clust_5="13000.00000" pt_clust_6="13000.00000" pt_clust_7="13000.00000" pt_clust_8="13000.00000" pt_clust_9="56.64921"></scales>
<clustering>
<clus scale="   56.649">  1  9  2 -1</clus>
<clus scale="   90.811">  7  8 -1 -1</clus>
<clus scale="  103.767">  5  6 -1 -1</clus>
<clus scale="  104.185">  1  7  2 -1</clus>
<clus scale="   56.649">  1  5  2 -1</clus>
</clustering>
</event>
<event>
 9    1  0.2075077E-005  0.1272644E+03  0.7546771E-02  0.1234495E+00
         -1   -1    0    0    0  501 -0.00000000000E+00  0.00000000000E+00  0.82165041779E+02  0.82165041779E+02  0.00000000000E+00 0.  1.
          1   -1    0    0  502    0  0.00000000000E+00 -0.00000000000E+00 -0.63964339693E+03  0.63964339693E+03  0.00000000000E+00 0. -1.
         23    2    1    2    0    0  0.38142157738E+02 -0.71485511092E+02  0.52210867280E+01  0.12405488207E+03  0.93794197722E+02 0.  0.
         23    2    1    2    0    0 -0.26158127822E+02  0.12129751711E+03 -0.39298661285E+03  0.42047609824E+03  0.83452597376E+02 0.  0.
        -11    1    3    3    0    0 -0.55309789165E+01  0.20809552811E+02 -0.23948546224E+01  0.21664822746E+02  0.00000000000E+00 0. -1.
         11    1    3    3    0    0  0.43673136655E+02 -0.92295063903E+02  0.76159413503E+01  0.10239005933E+03  0.00000000000E+00 0.  1.
        -13    1    4    4    0    0 -0.36081986410E+02  0.27254161464E+02 -0.20638452852E+03  0.21128008111E+03  0.00000000000E+00 0.  1.
         13    1    4    4    0    0  0.99238585882E+01  0.94043355644E+02 -0.18660208433E+03  0.20919601714E+03  0.00000000000E+00 0. -1.
         21    1    1    2  502  501 -0.11984029917E+02 -0.49812006017E+02 -0.16971282903E+03  0.17727745839E+03  0.00000000000E+00 0. -1.
<scales pt_clust_5="13000.00000" pt_clust_6="13000.00000" pt_clust_7="13000.00000" pt_clust_8="13000.00000" pt_clust_9="51.23332"></scales>
<clustering>
<clus scale="   51.233">  2  9  1 -1</clus>
<clus scale="   83.453">  7  8 -1 -1</clus>
<clus scale="   93.794">  5  6 -1 -1</clus>
<clus scale="  119.847">  2  7  1 -1</clus>
<clus scale="   51.233">  2  5  1 -1</clus>
</clustering>
</event>
<event>
 9    1  0.2075077E-005  0.8983101E+02  0.7546771E-02  0.1304711E+00
         -1   -1    0    0    0  501 -0.00000000000E+00  0.00000000000E+00  0.33789926686E+03  0.33789926686E+03  0.00000000000E+00 0.  1.
          1   -1    0    0  502    0  0.00000000000E+00 -0.00000000000E+00 -0.33149017193E+02  0.33149017193E+02  0.00000000000E+00 0. -1.
         23    2    1    2    0    0  0.17410512827E+00  0.95343109308E+01  0.16679054210E+03  0.18921241197E+03  0.88833093572E+02 0.  0.
         23    2    1    2    0    0  0.22499080294E+02 -0.82288418354E+01  0.12963264518E+03  0.15764666881E+03  0.86451877007E+02 0.  0.
        -11    1    4    4    0    0  0.42404557191E+02  0.34957909054E+00  0.12918472933E+03  0.13596677156E+03  0.00000000000E+00 0.  1.
         11    1    4    4    0    0 -0.19905476898E+02 -0.85784209259E+01  0.44791584958E+00  0.21679897249E+02  0.00000000000E+00 0. -1.
        -13    1    3    3    0    0  0.25085630584E+02 -0.22770720617E+02  0.26214635068E+02  0.42836919485E+02  0.00000000000E+00 0.  1.
         13    1    3    3    0    0 -0.24911525456E+02  0.32305031547E+02  0.14057590703E+03  0.14637549249E+03  0.00000000000E+00 0. -1.
         21    1    1    2  502  501 -0.22673185422E+02 -0.13054690955E+01  0.83270623839E+01  0.24189203267E+02  0.00000000000E+00 0. -1.
<scales pt_clust_5="13000.00000" pt_clust_6="13000.00000" pt_clust_7="13000.00000" pt_clust_8="13000.00000" pt_clust_9="22.71074"></scales>
<clustering>
<clus scale="   22.711">  2  9  1 -1</clus>
<clus scale="   86.452">  5  6 -1 -1</clus>
<clus scale="   87.477">  2  5  1 -1</clus>
<clus scale="   88.833">  7  8 -1 -1</clus>
<clus scale="   22.711">  2  5  1 -1</clus>
</clustering>
</event>
<event>
 9    1  0.2075077E-005  0.1057076E+03  0.7546771E-02  0.1269771E+00
         -2   -1    0    0    0  501 -0.00000000000E+00  0.00000000000E+00  0.39261052587E+03  0.39261052587E+03  0.00000000000E+00 0.  1.
          2   -1    0    0  502    0  0.00000000000E+00 -0.00000000000E+00 -0.37601928491E+02  0.37601928491E+02  0.00000000000E+00 0. -1.
         23    2    1    2    0    0  0.37026130663E+02  0.21392199073E+02  0.17831967290E+03  0.20679760050E+03  0.95596973254E+02 0.  0.
         23    2    1    2    0    0 -0.52015323698E+02  0.25603735743E+01  0.15267645455E+03  0.18633385662E+03  0.93263374042E+02 0.  0.
        -11    1    3    3    0    0  0.11378437791E+02  0.52901629683E+02  0.14324158265E+03  0.15312152778E+03  0.00000000000E+00 0.  1.
         11    1    3    3    0    0  0.25647692872E+02 -0.31509430610E+02  0.35078090257E+02  0.53676072724E+02  0.00000000000E+00 0. -1.
        -11    1    4    4    0    0 -0.54507353784E+01  0.32810546711E+02  0.11377065043E+03  0.11853271021E+03  0.00000000000E+00 0.  1.
         11    1    4    4    0    0 -0.46564588320E+02 -0.30250173137E+02  0.38905804124E+02  0.67801146412E+02  0.00000000000E+00 0. -1.
         21    1    1    2  502  501  0.14989193036E+02 -0.23952572648E+02  0.24012469927E+02  0.37080997240E+02  0.00000000000E+00 0. -1.
<scales pt_clust_5="13000.00000" pt_clust_6="13000.00000" pt_clust_7="13000.00000" pt_clust_8="13000.00000" pt_clust_9="28.25600"></scales>
<clustering>
<clus scale="   28.256">  2  9  1 -1</clus>
<clus scale="   93.263">  7  8 -1 -1</clus>
<clus scale="   95.597">  5  6 -1 -1</clus>
<clus scale="  103.602">  2  7  1 -1</clus>
<clus scale="   28.256">  2  5  1 -1</clus>
</clustering>
</event>
<event>
 9    1  0.2075077E-005  0.1229067E+03  0.7546771E-02  0.1238509E+00
          2   -1    0    0  502    0  0.00000000000E+00  0.00000000000E+00  0.25249247770E+03  0.25249247770E+03  0.00000000000E+00 0. -1.
         -2   -1    0    0    0  501 -0.00000000000E+00 -0.00000000000E+00 -0.11419411959E+03  0.11419411959E+03  0.00000000000E+00 0.  1.
         23    2    1    2    0    0 -0.37458347397E+02  0.77920239469E+02 -0.50353680207E+02  0.13515220636E+03  0.90862171799E+02 0.  0.
         23    2    1    2    0    0  0.32780158171E+02 -0.56473700351E+02  0.15589851890E+03  0.19210556227E+03  0.91303785579E+02 0.  0.
        -11    1    3    3    0    0  0.26530370636E+02  0.32888636567E+01 -0.65325994906E+01  0.27520029912E+02  0.00000000000E+00 0. -1.
         11    1    3    3    0    0 -0.63988718033E+02  0.74631375812E+02 -0.43821080717E+02  0.10763217645E+03  0.00000000000E+00 0.  1.
        -13    1    4    4    0    0 -0.31483364851E+02 -0.11015584807E+02  0.51467375508E+02  0.61330547957E+02  0.00000000000E+00 0.  1.
         13    1    4    4    0    0  0.64263523022E+02 -0.45458115544E+02  0.10443114339E+03  0.13077501432E+03  0.00000000000E+00 0. -1.
         21    1    1    2  502  501  0.46781892262E+01 -0.21446539119E+02  0.32753519427E+02  0.39428828659E+02  0.00000000000E+00 0. -1.
<scales pt_clust_5="13000.00000" pt_clust_6="13000.00000" pt_clust_7="13000.00000" pt_clust_8="13000.00000" pt_clust_9="21.95084"></scales>
<clustering>
<clus scale="   21.951">  1  9  2 -1</clus>
<clus scale="   90.862">  5  6 -1 -1</clus>
<clus scale="   91.304">  7  8 -1 -1</clus>
<clus scale="  122.579">  2  5  1 -1</clus>
<clus scale="   21.951">  1  5  2 -1</clus>
</clustering>
</event>
<event>
 9    1  0.2075077E-005  0.1401420E+03  0.7546771E-02  0.1214150E+00
          1   -1    0    0  502    0  0.00000000000E+00  0.00000000000E+00  0.29277446196E+03  0.29277446196E+03  0.00000000000E+00 0. -1.
         -1   -1    0    0    0  501 -0.00000000000E+00 -0.00000000000E+00 -0.91481874671E+02  0.91481874671E+02  0.00000000000E+00 0.  1.
         23    2    1    2    0    0 -0.10813084610E+03 -0.40012614800E+02  0.59558416613E+02  0.15834511448E+03  0.90734122971E+02 0.  0.
         23    2    1    2    0    0  0.97272338703E+02  0.24805855211E+01  0.11840194181E+03  0.18040349414E+03  0.95175310308E+02 0.  0.
        -11    1    3    3    0    0 -0.17459273122E+02  0.28040043897E+02  0.17861612599E+02  0.37551397901E+02  0.00000000000E+00 0. -1.
         11    1    3    3    0    0 -0.90671572974E+02 -0.68052658696E+02  0.41696804014E+02  0.12079371658E+03  0.00000000000E+00 0.  1.
        -11    1    4    4    0    0  0.20984110673E+02 -0.35936401184E+02  0.72095158880E+02  0.83243436766E+02  0.00000000000E+00 0.  1.
         11    1    4    4    0    0  0.76288228030E+02  0.38416986705E+02  0.46306782929E+02  0.97160057373E+02  0.00000000000E+00 0. -1.
         21    1    1    2  502  501  0.10858507393E+02  0.37532029279E+02  0.23332228872E+02  0.45507728011E+02  0.00000000000E+00 0. -1.
<scales pt_clust_5="13000.00000" pt_clust_6="13000.00000" pt_clust_7="13000.00000" pt_clust_8="13000.00000" pt_clust_9="39.07122"></scales>
<clustering>
<clus scale="   39.071">  2  9  1 -1</clus>
<clus scale="   90.734">  5  6 -1 -1</clus>
<clus scale="   95.175">  7  8 -1 -1</clus>
<clus scale="  137.165">  2  5  1 -1</clus>
<clus scale="  140.142">  1  5  2 -1</clus>
</clustering>
</event>
<event>
 9    1  0.2075077E-005  0.9740191E+02  0.7546771E-02  0.1286221E+00
          3   -1    0    0  502    0  0.00000000000E+00  0.00000000000E+00  0.79742474229E+02  0.79742474229E+02  0.00000000000E+00 0. -1.
         -3   -1    0    0    0  501 -0.00000000000E+00 -0.00000000000E+00 -0.28845979603E+03  0.28845979603E+03  0.00000000000E+00 0.  1.
         23    2    1    2    0    0  0.22940710202E+02 -0.36942177080E+02 -0.13935321904E+03  0.17198323713E+03  0.90928068067E+02 0.  0.
         23    2    1    2    0    0  0.22861343707E+01  0.29246033221E+02 -0.11157136718E+03  0.14644878612E+03  0.90213746795E+02 0.  0.
        -11    1    4    4    0    0  0.25619023055E+02  0.17950375437E+02 -0.11600536544E+03  0.12014905381E+03  0.00000000000E+00 0.  1.
         11    1    4    4    0    0 -0.23332888684E+02  0.11295657783E+02  0.44339982541E+01  0.26299732311E+02  0.00000000000E+00 0. -1.
        -13    1    3    3    0    0  0.46672260104E+02  0.94628857728E+01 -0.78956682629E+02  0.92206311076E+02  0.00000000000E+00 0. -1.
         13    1    3    3    0    0 -0.23731549902E+02 -0.46405062853E+02 -0.60396536415E+02  0.79776926050E+02  0.00000000000E+00 0.  1.
         21    1    1    2  502  501 -0.25226844573E+02  0.76961438597E+01  0.42207264426E+02  0.49770247013E+02  0.00000000000E+00 0. -1.
<scales pt_clust_5="13000.00000" pt_clust_6="13000.00000" pt_clust_7="13000.00000" pt_clust_8="13000.00000" pt_clust_9="26.37469"></scales>
<clustering>
<clus scale="   26.375">  1  9  2 -1</clus>
<clus scale="   90.214">  5  6 -1 -1</clus>
<clus scale="   90.928">  7  8 -1 -1</clus>
<clus scale="   96.735">  1  5  2 -1</clus>
<clus scale="   26.375">  1  5  2 -1</clus>
</clustering>
</event>
<event>
 9    1  0.2075077E-005  0.1047784E+03  0.7546771E-02  0.1272354E+00
          2   -1    0    0  502    0  0.00000000000E+00  0.00000000000E+00  0.40458232335E+02  0.40458232335E+02  0.00000000000E+00 0. -1.
         -2   -1    0    0    0  501 -0.00000000000E+00 -0.00000000000E+00 -0.51086542959E+03  0.51086542959E+03  0.00000000000E+00 0.  1.
         23    2    1    2    0    0  0.63687704747E+02 -0.22367173640E+02 -0.33070794105E+03  0.34959645998E+03  0.91068811183E+02 0.  0.
         23    2    1    2    0    0 -0.28120370136E+02 -0.12901500094E+02 -0.10966490319E+03  0.14332363185E+03  0.86937152780E+02 0.  0.
        -11    1    4    4    0    0 -0.34137334152E+02 -0.46046824090E+02 -0.57227295477E+02  0.80997721816E+02  0.00000000000E+00 0.  1.
         11    1    4    4    0    0  0.60169640159E+01  0.33145323997E+02 -0.52437607710E+02  0.62325910031E+02  0.00000000000E+00 0. -1.
        -13    1    3    3    0    0  0.43543479253E+01  0.30707047639E+02 -0.13067001402E+03  0.13430017009E+03  0.00000000000E+00 0. -1.
         13    1    3    3    0    0  0.59333356822E+02 -0.53074221279E+02 -0.20003792702E+03  0.21529628990E+03  0.00000000000E+00 0.  1.
         21    1    1    2  502  501 -0.35567334612E+02  0.35268673733E+02 -0.30034353024E+02  0.58403570095E+02  0.00000000000E+00 0. -1.
<scales pt_clust_5="13000.00000" pt_clust_6="13000.00000" pt_clust_7="13000.00000" pt_clust_8="13000.00000" pt_clust_9="50.08907"></scales>
<clustering>
<clus scale="   50.089">  1  9  2 -1</clus>
<clus scale="   86.937">  5  6 -1 -1</clus>
<clus scale="   91.069">  7  8 -1 -1</clus>
<clus scale="  101.208">  1  5  2 -1</clus>
<clus scale="   50.089">  1  5  2 -1</clus>
</clustering>
</event>
<event>
 9    1  0.2075077E-005  0.1635236E+03  0.7546771E-02  0.1185013E+00
         -1   -1    0    0    0  501 -0.00000000000E+00  0.00000000000E+00  0.40188274204E+03  0.40188274204E+03  0.00000000000E+00 0.  1.
          1   -1    0    0  502    0  0.00000000000E+00 -0.00000000000E+00 -0.10323193114E+03  0.10323193114E+03  0.00000000000E+00 0. -1.
         23    2    1    2    0    0  0.82639832816E+02 -0.10735668179E+03  0.24149862511E+03  0.29231866504E+03  0.93668654889E+02 0.  0.
         23    2    1    2    0    0 -0.63176583665E+02  0.11626893936E+03  0.81250209855E+02  0.18056308760E+03  0.92150339214E+02 0.  0.
        -13    1    3    3    0    0  0.11903545128E+02 -0.38995565984E+02  0.11804794822E+02  0.42446457259E+02  0.00000000000E+00 0. -1.
         13    1    3    3    0    0  0.70736287688E+02 -0.68361115809E+02  0.22969383029E+03  0.24987220778E+03  0.00000000000E+00 0.  1.
        -13    1    4    4    0    0  0.15403113805E+02  0.45255567970E+02  0.52105455820E+02  0.70712805583E+02  0.00000000000E+00 0. -1.
         13    1    4    4    0    0 -0.78579697470E+02  0.71013371392E+02  0.29144754035E+02  0.10985028201E+03  0.00000000000E+00 0.  1.
         21    1    1    2  502  501 -0.19463249151E+02 -0.89122575689E+01 -0.24098024067E+02  0.32232920538E+02  0.00000000000E+00 0. -1.
<scales pt_clust_5="13000.00000" pt_clust_6="13000.00000" pt_clust_7="13000.00000" pt_clust_8="13000.00000" pt_clust_9="21.40669"></scales>
<clustering>
<clus scale="   21.407">  2  9  1 -1</clus>
<clus scale="   92.150">  7  8 -1 -1</clus>
<clus scale="   93.669">  5  6 -1 -1</clus>
<clus scale="  162.659">  2  7  1 -1</clus>
<clus scale="   21.407">  2  5  1 -1</clus>
</clustering>
</event>
<event>
 9    1  0.2075077E-005  0.9252858E+02  0.7546771E-02  0.1297020E+00
         -4   -1    0    0    0  501 -0.00000000000E+00  0.00000000000E+00  0.34689147222E+02  0.34689147222E+02  0.00000000000E+00 0.  1.
          4   -1    0    0  502    0  0.00000000000E+00 -0.00000000000E+00 -0.48166607459E+03  0.48166607459E+03  0.00000000000E+00 0. -1.
         23    2    1    2    0    0 -0.92539061421E+01 -0.68597657418E+01 -0.86535804868E+02  0.12616523375E+03  0.91085287055E+02 0.  0.
         23    2    1    2    0    0  0.20765358119E+02 -0.39436627107E+02 -0.24086146911E+03  0.26144542305E+03  0.91394826294E+02 0.  0.
        -11    1    3    3    0    0 -0.28129627817E+01  0.40941577764E+02 -0.25282255085E+02  0.48200808827E+02  0.00000000000E+00 0.  1.
         11    1    3    3    0    0 -0.64409433604E+01 -0.47801343506E+02 -0.61253549783E+02  0.77964424922E+02  0.00000000000E+00 0. -1.
        -13    1    4    4    0    0 -0.31269905747E+02 -0.13559475839E+02 -0.41054342265E+02  0.53358461459E+02  0.00000000000E+00 0.  1.
         13    1    4    4    0    0  0.52035263866E+02 -0.25877151268E+02 -0.19980712685E+03  0.20808696159E+03  0.00000000000E+00 0. -1.
         21    1    1    2  502  501 -0.11511451977E+02  0.46296392848E+02 -0.11957965339E+03  0.12874456502E+03  0.00000000000E+00 0.  1.
<scales pt_clust_5="13000.00000" pt_clust_6="13000.00000" pt_clust_7="13000.00000" pt_clust_8="13000.00000" pt_clust_9="47.70607"></scales>
<clustering>
<clus scale="   47.706">  2  9  1 -1</clus>
<clus scale="   91.085">  5  6 -1 -1</clus>
<clus scale="   91.395">  7  8 -1 -1</clus>
<clus scale="   92.223">  1  5  2 -1</clus>
<clus scale="   47.706">  2  5  1 -1</clus>
</clustering>
</event>
<event>
 9    1  0.2075077E-005  0.1136496E+03  0.7546771E-02  0.1257641E+00
          2   -1    0    0  502    0  0.00000000000E+00  0.00000000000E+00  0.13691646601E+03  0.13691646601E+03  0.00000000000E+00 0. -1.
         -2   -1    0    0    0  501 -0.00000000000E+00 -0.00000000000E+00 -0.26198449113E+03  0.26198449113E+03  0.00000000000E+00 0.  1.
         23    2    1    2    0    0 -0.80903192220E+02  0.27290968463E+01 -0.18834369659E+03  0.22073102263E+03  0.81829467933E+02 0.  0.
         23    2    1    2    0    0  0.22891119809E+02  0.10254787372E+02  0.57564485182E+01  0.95450875022E+02  0.91916096592E+02 0.  0.
        -11    1    4    4    0    0 -0.79872954635E+01 -0.34093209981E+02 -0.14280947969E+02  0.37816521925E+02  0.00000000000E+00 0.  1.
         11    1    4    4    0    0  0.30878415273E+02  0.44347997352E+02  0.20037396487E+02  0.57634353097E+02  0.00000000000E+00 0. -1.
        -13    1    3    3    0    0 -0.39566178291E+02  0.40138527564E+02 -0.11965372461E+03  0.13226336482E+03  0.00000000000E+00 0.  1.
         13    1    3    3    0    0 -0.41337013929E+02 -0.37409430717E+02 -0.68689971978E+02  0.88467657805E+02  0.00000000000E+00 0. -1.
         21    1    1    2  502  501  0.58012072411E+02 -0.12983884218E+02  0.57519222955E+02  0.82719059497E+02  0.00000000000E+00 0. -1.
<scales pt_clust_5="13000.00000" pt_clust_6="13000.00000" pt_clust_7="13000.00000" pt_clust_8="13000.00000" pt_clust_9="59.44730"></scales>
<clustering>
<clus scale="   59.447">  1  9  2 -1</clus>
<clus scale="   81.829">  7  8 -1 -1</clus>
<clus scale="   91.916">  5  6 -1 -1</clus>
<clus scale="  105.659">  2  7  1 -1</clus>
<clus scale="   59.447">  1  5  2 -1</clus>
</clustering>
</event>
<event>
 9    1  0.2075077E-005  0.1624209E+03  0.7546771E-02  0.1186335E+00
         -1   -1    0    0    0  501 -0.00000000000E+00  0.00000000000E+00  0.93532903886E+02  0.93532903886E+02  0.00000000000E+00 0.  1.
          1   -1    0    0  502    0  0.00000000000E+00 -0.00000000000E+00 -0.56639111823E+03  0.56639111823E+03  0.00000000000E+00 0. -1.
         23    2    1    2    0    0  0.20322211411E+02 -0.12511485625E+03 -0.23248150757E+02  0.15826312708E+03  0.91869588821E+02 0.  0.
         23    2    1    2    0    0 -0.42757933514E+02  0.14846860966E+03 -0.31521118072E+03  0.36341539189E+03  0.94029195876E+02 0.  0.
        -11    1    3    3    0    0  0.40616080538E+02 -0.83517851842E+02 -0.49307131123E+02  0.10514794698E+03  0.00000000000E+00 0. -1.
         11    1    3    3    0    0 -0.20293869127E+02 -0.41597004405E+02  0.26058980367E+02  0.53115180103E+02  0.00000000000E+00 0.  1.
        -13    1    4    4    0    0 -0.66819243011E+02  0.12043341240E+03 -0.28156677303E+03  0.31344675103E+03  0.00000000000E+00 0.  1.
         13    1    4    4    0    0  0.24061309497E+02  0.28035197259E+02 -0.33644407695E+02  0.49968640858E+02  0.00000000000E+00 0. -1.
         21    1    1    2  502  501  0.22435722103E+02 -0.23353753410E+02 -0.13439888287E+03  0.13824550315E+03  0.00000000000E+00 0.  1.
<scales pt_clust_5="13000.00000" pt_clust_6="13000.00000" pt_clust_7="13000.00000" pt_clust_8="13000.00000" pt_clust_9="32.38456"></scales>
<clustering>
<clus scale="   32.385">  2  9  1 -1</clus>
<clus scale="   91.870">  5  6 -1 -1</clus>
<clus scale="   94.029">  7  8 -1 -1</clus>
<clus scale="  161.180">  1  5  2 -1</clus>
<clus scale="   32.385">  2  5  1 -1</clus>
</clustering>
</event>
<event>
 9    1  0.2075077E-005  0.1787564E+03  0.7546771E-02  0.1169233E+00
         -1   -1    0    0    0  501 -0.00000000000E+00  0.00000000000E+00  0.54574545082E+02  0.54574545082E+02  0.00000000000E+00 0.  1.
          1   -1    0    0  502    0  0.00000000000E+00 -0.00000000000E+00 -0.69612290273E+03  0.69612290273E+03  0.00000000000E+00 0. -1.
         23    2    1    2    0    0 -0.15930018088E+03  0.25549044732E+02 -0.22108546099E+03  0.28923416562E+03  0.93532455281E+02 0.  0.
         23    2    1    2    0    0  0.13725199671E+03 -0.23522717859E+02 -0.35213753190E+03  0.38963999978E+03  0.91799015257E+02 0.  0.
        -11    1    3    3    0    0 -0.12456380565E+03 -0.22312898727E+02 -0.13783212158E+03  0.18711413861E+03  0.00000000000E+00 0. -1.
         11    1    3    3    0    0 -0.34736375226E+02  0.47861943459E+02 -0.83253339409E+02  0.10212002702E+03  0.00000000000E+00 0.  1.
        -11    1    4    4    0    0  0.69882694080E+02 -0.39737357401E+02 -0.27233207926E+03  0.28394966085E+03  0.00000000000E+00 0. -1.
         11    1    4    4    0    0  0.67369302626E+02  0.16214639542E+02 -0.79805452644E+02  0.10569033893E+03  0.00000000000E+00 0.  1.
         21    1    1    2  502  501  0.22048184171E+02 -0.20263268731E+01 -0.68325364760E+02  0.71823282404E+02  0.00000000000E+00 0.  1.
<scales pt_clust_5="13000.00000" pt_clust_6="13000.00000" pt_clust_7="13000.00000" pt_clust_8="13000.00000" pt_clust_9="22.14110"></scales>
<clustering>
<clus scale="   22.141">  2  9  1 -1</clus>
<clus scale="   91.799">  7  8 -1 -1</clus>
<clus scale="   93.532">  5  6 -1 -1</clus>
<clus scale="  177.856">  2  7  1 -1</clus>
<clus scale="   22.141">  2  5  1 -1</clus>
</clustering>
</event>
<event>
 9    1  0.2075077E-005  0.9907439E+02  0.7546771E-02  0.1284822E+00
         -2   -1    0    0    0  501 -0.00000000000E+00  0.00000000000E+00  0.46459788135E+02  0.46459788135E+02  0.00000000000E+00 0.  1.
          2   -1    0    0  502    0  0.00000000000E+00 -0.00000000000E+00 -0.59426548829E+03  0.59426548829E+03  0.00000000000E+00 0. -1.
         23    2    1    2    0    0  0.46691970827E+02  0.31615641200E+02 -0.75096457832E+02  0.13039747755E+03  0.90467315995E+02 0.  0.
         23    2    1    2    0    0  0.20522444621E+02  0.11588999192E+02 -0.16151563562E+03  0.18903995372E+03  0.95358942508E+02 0.  0.
        -11    1    4    4    0    0 -0.20206660573E+02 -0.32373238684E+02 -0.67751451430E+02  0.77759853944E+02  0.00000000000E+00 0. -1.
         11    1    4    4    0    0  0.40729105194E+02  0.43962237876E+02 -0.93764184190E+02  0.11128009977E+03  0.00000000000E+00 0.  1.
        -11    1    3    3    0    0  0.47124782619E+02 -0.17767115710E+02 -0.60871816651E+02  0.79005022625E+02  0.00000000000E+00 0. -1.
         11    1    3    3    0    0 -0.43281179229E+00  0.49382756911E+02 -0.14224641181E+02  0.51392454922E+02  0.00000000000E+00 0.  1.
         21    1    1    2  502  501 -0.67214415448E+02 -0.43204640392E+02 -0.31119360671E+03  0.32128784517E+03  0.00000000000E+00 0. -1.
<scales pt_clust_5="13000.00000" pt_clust_6="13000.00000" pt_clust_7="13000.00000" pt_clust_8="13000.00000" pt_clust_9="79.90256"></scales>
<clustering>
<clus scale="   79.903">  2  9  1 -1</clus>
<clus scale="   90.467">  7  8 -1 -1</clus>
<clus scale="   94.376">  1  7  2 -1</clus>
<clus scale="   95.359">  5  6 -1 -1</clus>
<clus scale="   79.903">  2  5  1 -1</clus>
</clustering>
</event>
<event>
 9    1  0.2075077E-005  0.3017022E+03  0.7546771E-02  0.1084635E+00
         -1   -1    0    0    0  501 -0.00000000000E+00  0.00000000000E+00  0.21894156374E+03  0.21894156374E+03  0.00000000000E+00 0.  1.
          1   -1    0    0  502    0  0.00000000000E+00 -0.00000000000E+00 -0.89598901526E+03  0.89598901526E+03  0.00000000000E+00 0. -1.
         23    2    1    2    0    0 -0.27064355601E+03 -0.12654587258E+03 -0.23335270096E+02  0.31179359234E+03  0.86075066760E+02 0.  0.
         23    2    1    2    0    0  0.21714655709E+03  0.16237899564E+03 -0.21117093147E+03  0.35593602567E+03  0.92616016955E+02 0.  0.
        -11    1    3    3    0    0 -0.24330866973E+03 -0.79482921626E+02 -0.12278700308E+02  0.25625653178E+03  0.00000000000E+00 0.  1.
         11    1    3    3    0    0 -0.27334886272E+02 -0.47062950956E+02 -0.11056569788E+02  0.55537060560E+02  0.00000000000E+00 0. -1.
        -13    1    4    4    0    0  0.53197666413E+02  0.80049918566E+01 -0.76590016921E+02  0.93595418149E+02  0.00000000000E+00 0.  1.
         13    1    4    4    0    0  0.16394889067E+03  0.15437400378E+03 -0.13458091455E+03  0.26234060752E+03  0.00000000000E+00 0. -1.
         21    1    1    2  502  501  0.53496998921E+02 -0.35833123054E+02 -0.44254124995E+03  0.44720096099E+03  0.00000000000E+00 0. -1.
<scales pt_clust_5="13000.00000" pt_clust_6="13000.00000" pt_clust_7="13000.00000" pt_clust_8="13000.00000" pt_clust_9="64.38899"></scales>
<clustering>
<clus scale="   64.389">  2  9  1 -1</clus>
<clus scale="   86.075">  5  6 -1 -1</clus>
<clus scale="   92.616">  7  8 -1 -1</clus>
<clus scale="  299.759">  1  5  2 -1</clus>
<clus scale="   64.389">  2  5  1 -1</clus>
</clustering>
</event>
<event>
 9    1  0.2075077E-005  0.9479830E+02  0.7546771E-02  0.1295800E+00
          1   -1    0    0  502    0  0.00000000000E+00  0.00000000000E+00  0.14633666145E+03  0.14633666145E+03  0.00000000000E+00 0. -1.
         -1   -1    0    0    0  501 -0.00000000000E+00 -0.00000000000E+00 -0.13668953523E+03  0.13668953523E+03  0.00000000000E+00 0.  1.
         23    2    1    2    0    0 -0.10423640226E+02 -0.25399039963E+02 -0.74615487377E+02  0.12179112643E+03  0.92259655401E+02 0.  0.
         23    2    1    2    0    0  0.20810804376E+02 -0.14044481322E+02  0.81449736839E+02  0.12034990391E+03  0.84968833735E+02 0.  0.
        -11    1    3    3    0    0 -0.51136164651E+02 -0.19547854412E+02 -0.37197511595E+02  0.66186711779E+02  0.00000000000E+00 0.  1.
         11    1    3    3    0    0  0.40712524424E+02 -0.58511855512E+01 -0.37417975782E+02  0.55604414654E+02  0.00000000000E+00 0. -1.
        -13    1    4    4    0    0 -0.20351764547E+02 -0.33496843863E+02  0.20378093465E+02  0.44175780267E+02  0.00000000000E+00 0.  1.
         13    1    4    4    0    0  0.41162568923E+02  0.19452362540E+02  0.61071643374E+02  0.76174123645E+02  0.00000000000E+00 0. -1.
         21    1    1    2  502  501 -0.10387164150E+02  0.39443521285E+02  0.28128767604E+01  0.40885166334E+02  0.00000000000E+00 0.  1.
<scales pt_clust_5="13000.00000" pt_clust_6="13000.00000" pt_clust_7="13000.00000" pt_clust_8="13000.00000" pt_clust_9="40.78829"></scales>
<clustering>
<clus scale="   40.788">  1  9  2 -1</clus>
<clus scale="   84.969">  7  8 -1 -1</clus>
<clus scale="   87.719">  1  7  2 -1</clus>
<clus scale="   92.260">  5  6 -1 -1</clus>
<clus scale="   40.788">  1  5  2 -1</clus>
</clustering>
</event>
<event>
 9    1  0.2075077E-005  0.1412914E+03  0.7546771E-02  0.1212139E+00
         -3   -1    0    0    0  501 -0.00000000000E+00  0.00000000000E+00  0.12503407752E+03  0.12503407752E+03  0.00000000000E+00 0.  1.
          3   -1    0    0  502    0  0.00000000000E+00 -0.00000000000E+00 -0.23919165220E+03  0.23919165220E+03  0.00000000000E+00 0. -1.
         23    2    1    2    0    0 -0.15314627573E+02 -0.86903264694E+02 -0.24701572306E+02  0.13137598911E+03  0.94142273227E+02 0.  0.
         23    2    1    2    0    0 -0.97726076221E+01  0.13334245939E+03 -0.64977647525E+02  0.17466762970E+03  0.91711345264E+02 0.  0.
        -13    1    4    4    0    0 -0.50109364518E+02  0.62018053076E+02 -0.38616350791E+02  0.88591251646E+02  0.00000000000E+00 0.  1.
         13    1    4    4    0    0  0.40336756896E+02  0.71324406319E+02 -0.26361296734E+02  0.86076378055E+02  0.00000000000E+00 0. -1.
        -13    1    3    3    0    0  0.25592740250E+02 -0.74278812084E+02 -0.36989433840E+02  0.86836331647E+02  0.00000000000E+00 0. -1.
         13    1    3    3    0    0 -0.40907367823E+02 -0.12624452610E+02  0.12287861534E+02  0.44539657464E+02  0.00000000000E+00 0.  1.
         21    1    1    2  502  501  0.25087235195E+02 -0.46439194701E+02 -0.24478354848E+02  0.58182110912E+02  0.00000000000E+00 0.  1.
<scales pt_clust_5="13000.00000" pt_clust_6="13000.00000" pt_clust_7="13000.00000" pt_clust_8="13000.00000" pt_clust_9="52.78227"></scales>
<clustering>
<clus scale="   52.782">  2  9  1 -1</clus>
<clus scale="   91.711">  5  6 -1 -1</clus>
<clus scale="   94.142">  7  8 -1 -1</clus>
<clus scale="  139.683">  2  5  1 -1</clus>
<clus scale="   52.782">  2  5  1 -1</clus>
</clustering>
</event>
<event>
 9    1  0.2075077E-005  0.9840880E+02  0.7546771E-02  0.1287327E+00
          1   -1    0    0  502    0  0.00000000000E+00  0.00000000000E+00  0.31635814099E+03  0.31635814099E+03  0.00000000000E+00 0. -1.
         -1   -1    0    0    0  501 -0.00000000000E+00 -0.00000000000E+00 -0.45318529105E+02  0.45318529105E+02  0.00000000000E+00 0.  1.
         23    2    1    2    0    0 -0.15251745504E+02 -0.18649347642E+02  0.78733788561E+02  0.12771849336E+03  0.97634984390E+02 0.  0.
         23    2    1    2    0    0  0.79836177330E+01 -0.15829809296E+02  0.10663713823E+03  0.14132577662E+03  0.91033921557E+02 0.  0.
        -11    1    3    3    0    0 -0.35021071255E+02  0.28250095250E+02  0.17957712875E+02  0.48446081010E+02  0.00000000000E+00 0.  1.
         11    1    3    3    0    0  0.19769325750E+02 -0.46899442892E+02  0.60776075686E+02  0.79272412351E+02  0.00000000000E+00 0. -1.
        -13    1    4    4    0    0 -0.33847661556E+02  0.36118866064E+01  0.82537510659E+02  0.89281300301E+02  0.00000000000E+00 0.  1.
         13    1    4    4    0    0  0.41831279289E+02 -0.19441695903E+02  0.24099627568E+02  0.52044476320E+02  0.00000000000E+00 0. -1.
         21    1    1    2  502  501  0.72681277713E+01  0.34479156938E+02  0.85668685097E+02  0.92632400113E+02  0.00000000000E+00 0. -1.
<scales pt_clust_5="13000.00000" pt_clust_6="13000.00000" pt_clust_7="13000.00000" pt_clust_8="13000.00000" pt_clust_9="35.23688"></scales>
<clustering>
<clus scale="   35.237">  1  9  2 -1</clus>
<clus scale="   91.034">  7  8 -1 -1</clus>
<clus scale="   91.863">  1  7  2 -1</clus>
<clus scale="   97.635">  5  6 -1 -1</clus>
<clus scale="   35.237">  1  5  2 -1</clus>
</clustering>
</event>
<event>
 9    1  0.2075077E-005  0.9601749E+02  0.7546771E-02  0.1289180E+00
         -1   -1    0    0    0  501 -0.00000000000E+00  0.00000000000E+00  0.84062426989E+02  0.84062426989E+02  0.00000000000E+00 0.  1.
          1   -1    0    0  502    0  0.00000000000E+00 -0.00000000000E+00 -0.19455608372E+03  0.19455608372E+03  0.00000000000E+00 0. -1.
         23    2    1    2    0    0  0.80844018396E+01  0.18734137575E+02 -0.34317459292E+01  0.94912617124E+02  0.92629922517E+02 0.  0.
         23    2    1    2    0    0  0.29508896095E+02 -0.39539481535E+02 -0.88370983911E+02  0.13685006006E+03  0.92110599782E+02 0.  0.
        -11    1    3    3    0    0  0.18899085073E+02 -0.30343033840E+02 -0.21257295311E+02  0.41590235911E+02  0.00000000000E+00 0. -1.
         11    1    3    3    0    0 -0.10814683233E+02  0.49077171415E+02  0.17825549382E+02  0.53322381213E+02  0.00000000000E+00 0.  1.
        -11    1    4    4    0    0  0.39833571388E+02  0.14909432644E+02 -0.15431699197E+02  0.45245352595E+02  0.00000000000E+00 0.  1.
         11    1    4    4    0    0 -0.10324675293E+02 -0.54448914179E+02 -0.72939284714E+02  0.91604707465E+02  0.00000000000E+00 0. -1.
         21    1    1    2  502  501 -0.37593297935E+02  0.20805343960E+02 -0.18690926886E+02  0.46855833519E+02  0.00000000000E+00 0. -1.
<scales pt_clust_5="13000.00000" pt_clust_6="13000.00000" pt_clust_7="13000.00000" pt_clust_8="13000.00000" pt_clust_9="42.96648"></scales>
<clustering>
<clus scale="   42.966">  2  9  1 -1</clus>
<clus scale="   92.111">  7  8 -1 -1</clus>
<clus scale="   92.630">  5  6 -1 -1</clus>
<clus scale="   95.517">  2  7  1 -1</clus>
<clus scale="   42.966">  2  5  1 -1</clus>
</clustering>
</event>
<event>
 9    1  0.2075077E-005  0.9617284E+02  0.7546771E-02  0.1289885E+00
         -2   -1    0    0    0  501 -0.00000000000E+00  0.00000000000E+00  0.33662450454E+02  0.33662450454E+02  0.00000000000E+00 0.  1.
          2   -1    0    0  502    0  0.00000000000E+00 -0.00000000000E+00 -0.40881352538E+03  0.40881352538E+03  0.00000000000E+00 0. -1.
         23    2    1    2    0    0 -0.52308025348E+01  0.21648339908E+02 -0.12255427830E+03  0.15520318008E+03  0.92587602100E+02 0.  0.
         23    2    1    2    0    0 -0.14083748840E+02 -0.29642275923E+02 -0.12288000014E+03  0.15588252899E+03  0.90126865624E+02 0.  0.
        -11    1    3    3    0    0 -0.45078724274E+02 -0.62573098159E+01 -0.70875973643E+02  0.84229739096E+02  0.00000000000E+00 0.  1.
         11    1    3    3    0    0  0.39847921739E+02  0.27905649724E+02 -0.51678304656E+02  0.70973440987E+02  0.00000000000E+00 0. -1.
        -13    1    4    4    0    0 -0.22803932870E+02 -0.28565920050E+01 -0.12550428521E+03  0.12759116379E+03  0.00000000000E+00 0. -1.
         13    1    4    4    0    0  0.87201840297E+01 -0.26785683918E+02  0.26242850732E+01  0.28291365195E+02  0.00000000000E+00 0.  1.
         21    1    1    2  502  501  0.19314551375E+02  0.79939360146E+01 -0.12971679649E+03  0.13139026676E+03  0.00000000000E+00 0. -1.
<scales pt_clust_5="13000.00000" pt_clust_6="13000.00000" pt_clust_7="13000.00000" pt_clust_8="13000.00000" pt_clust_9="20.90347"></scales>
<clustering>
<clus scale="   20.903">  2  9  1 -1</clus>
<clus scale="   90.127">  7  8 -1 -1</clus>
<clus scale="   92.588">  5  6 -1 -1</clus>
<clus scale="   93.806">  2  7  1 -1</clus>
<clus scale="   20.903">  2  5  1 -1</clus>
</clustering>
</event>
<event>
 9    1  0.2075077E-005  0.9320629E+02  0.7546771E-02  0.1296685E+00
          1   -1    0    0  502    0  0.00000000000E+00  0.00000000000E+00  0.30662870891E+03  0.30662870891E+03  0.00000000000E+00 0. -1.
         -1   -1    0    0    0  501 -0.00000000000E+00 -0.00000000000E+00 -0.57550479040E+02  0.57550479040E+02  0.00000000000E+00 0.  1.
         23    2    1    2    0    0 -0.13784489793E+02  0.12623789030E+01  0.97899299882E+01  0.91966757555E+02  0.90390464136E+02 0.  0.
         23    2    1    2    0    0 -0.73617010164E+01 -0.50924127283E+01  0.12516342076E+03  0.15608182039E+03  0.92819854834E+02 0.  0.
        -11    1    4    4    0    0 -0.48240769721E+02  0.62867383458E+01  0.49960957863E+02  0.69733723928E+02  0.00000000000E+00 0.  1.
         11    1    4    4    0    0  0.40879068704E+02 -0.11379151074E+02  0.75202462892E+02  0.86348096461E+02  0.00000000000E+00 0. -1.
        -11    1    3    3    0    0 -0.38182869985E+02  0.19594019610E+02 -0.21720795501E+02  0.48100417066E+02  0.00000000000E+00 0.  1.
         11    1    3    3    0    0  0.24398380192E+02 -0.18331640707E+02  0.31510725489E+02  0.43866340489E+02  0.00000000000E+00 0. -1.
         21    1    1    2  502  501  0.21146190809E+02  0.38300338253E+01  0.11412487912E+03  0.11613061000E+03  0.00000000000E+00 0. -1.
<scales pt_clust_5="13000.00000" pt_clust_6="13000.00000" pt_clust_7="13000.00000" pt_clust_8="13000.00000" pt_clust_9="21.49024"></scales>
<clustering>
<clus scale="   21.490">  1  9  2 -1</clus>
<clus scale="   90.390">  7  8 -1 -1</clus>
<clus scale="   90.787">  2  7  1 -1</clus>
<clus scale="   92.820">  5  6 -1 -1</clus>
<clus scale="   21.490">  1  5  2 -1</clus>
</clustering>
</event>
<event>
 9    1  0.2075077E-005  0.1107363E+03  0.7546771E-02  0.1262619E+00
          1   -1    0    0  502    0  0.00000000000E+00  0.00000000000E+00  0.38587418800E+03  0.38587418800E+03  0.00000000000E+00 0. -1.
         -1   -1    0    0    0  501 -0.00000000000E+00 -0.00000000000E+00 -0.12112133998E+03  0.12112133998E+03  0.00000000000E+00 0.  1.
         23    2    1    2    0    0 -0.19649491985E+02 -0.45990837201E+02 -0.75261064763E+02  0.13301167752E+03  0.97604399723E+02 0.  0.
         23    2    1    2    0    0  0.48522370380E+02  0.62206087243E+02  0.29431347790E+03  0.31754709658E+03  0.89396406828E+02 0.  0.
        -11    1    4    4    0    0  0.16024118950E+02 -0.21353533253E+02  0.41890478259E+02  0.49674520021E+02  0.00000000000E+00 0.  1.
         11    1    4    4    0    0  0.32498251430E+02  0.83559620496E+02  0.25242299964E+03  0.26787257656E+03  0.00000000000E+00 0. -1.
        -13    1    3    3    0    0 -0.38467510570E+02  0.58996453655E+01  0.92901410444E+00  0.38928373355E+02  0.00000000000E+00 0. -1.
         13    1    3    3    0    0  0.18818018585E+02 -0.51890482567E+02 -0.76190078867E+02  0.94083304163E+02  0.00000000000E+00 0.  1.
         21    1    1    2  502  501 -0.28872878395E+02 -0.16215250042E+02  0.45700434878E+02  0.56436753883E+02  0.00000000000E+00 0.  1.
<scales pt_clust_5="13000.00000" pt_clust_6="13000.00000" pt_clust_7="13000.00000" pt_clust_8="13000.00000" pt_clust_9="33.11461"></scales>
<clustering>
<clus scale="   33.115">  1  9  2 -1</clus>
<clus scale="   89.396">  5  6 -1 -1</clus>
<clus scale="   97.604">  7  8 -1 -1</clus>
<clus scale="  103.574">  1  5  2 -1</clus>
<clus scale="   33.115">  1  5  2 -1</clus>
</clustering>
</event>
<event>
 9    1  0.2075077E-005  0.9572272E+02  0.7546771E-02  0.1291130E+00
          2   -1    0    0  502    0  0.00000000000E+00  0.00000000000E+00  0.10493704267E+03  0.10493704267E+03  0.00000000000E+00 0. -1.
         -2   -1    0    0    0  501 -0.00000000000E+00 -0.00000000000E+00 -0.27718805180E+03  0.27718805180E+03  0.00000000000E+00 0.  1.
         23    2    1    2    0    0 -0.12459852632E+02  0.61989641347E+01 -0.18781160628E+03  0.21050945396E+03  0.94060383108E+02 0.  0.
         23    2    1    2    0    0  0.92876296244E+01 -0.33718278009E+02 -0.43064967197E+02  0.10677481673E+03  0.91230958297E+02 0.  0.
        -13    1    4    4    0    0  0.18412013197E+00  0.27497866903E+02 -0.34773684454E+02  0.44332558182E+02  0.00000000000E+00 0. -1.
         13    1    4    4    0    0  0.91035094925E+01 -0.61216144912E+02 -0.82912827433E+01  0.62442258547E+02  0.00000000000E+00 0.  1.
        -13    1    3    3    0    0 -0.35637355848E+02 -0.33629584406E+02 -0.97634847856E+02  0.10924071400E+03  0.00000000000E+00 0. -1.
         13    1    3    3    0    0  0.23177503216E+02  0.39828548540E+02 -0.90176758421E+02  0.10126873996E+03  0.00000000000E+00 0.  1.
         21    1    1    2  502  501  0.31722230076E+01  0.27519313874E+02  0.58625564340E+02  0.64840823785E+02  0.00000000000E+00 0. -1.
<scales pt_clust_5="13000.00000" pt_clust_6="13000.00000" pt_clust_7="13000.00000" pt_clust_8="13000.00000" pt_clust_9="27.70155"></scales>
<clustering>
<clus scale="   27.702">  1  9  2 -1</clus>
<clus scale="   91.231">  5  6 -1 -1</clus>
<clus scale="   92.944">  1  5  2 -1</clus>
<clus scale="   94.060">  7  8 -1 -1</clus>
<clus scale="   27.702">  1  5  2 -1</clus>
</clustering>
</event>
<event>
 9    1  0.2075077E-005  0.1430515E+03  0.7546771E-02  0.1209286E+00
          2   -1    0    0  502    0  0.00000000000E+00  0.00000000000E+00  0.57958477663E+03  0.57958477663E+03  0.00000000000E+00 0. -1.
         -2   -1    0    0    0  501 -0.00000000000E+00 -0.00000000000E+00 -0.49363659385E+02  0.49363659385E+02  0.00000000000E+00 0.  1.
         23    2    1    2    0    0 -0.10080174124E+03 -0.47603653912E+02  0.17442722988E+03  0.22574655647E+03  0.90053041772E+02 0.  0.
         23    2    1    2    0    0  0.11166757947E+03  0.18065009752E+02  0.21617895024E+03  0.26008329722E+03  0.90077689142E+02 0.  0.
        -13    1    4    4    0    0  0.11714216153E+03 -0.61598162766E+01  0.15765675093E+03  0.19650923759E+03  0.00000000000E+00 0. -1.
         13    1    4    4    0    0 -0.54745820614E+01  0.24224826028E+02  0.58522199318E+02  0.63574059630E+02  0.00000000000E+00 0.  1.
        -13    1    3    3    0    0 -0.40884954662E+02 -0.49631346923E+02  0.33300388564E+02  0.72413852222E+02  0.00000000000E+00 0.  1.
         13    1    3    3    0    0 -0.59916786580E+02  0.20276930104E+01  0.14112684131E+03  0.15333270425E+03  0.00000000000E+00 0. -1.
         21    1    1    2  502  501 -0.10865838228E+02  0.29538644161E+02  0.13961493712E+03  0.14311858233E+03  0.00000000000E+00 0.  1.
<scales pt_clust_5="13000.00000" pt_clust_6="13000.00000" pt_clust_7="13000.00000" pt_clust_8="13000.00000" pt_clust_9="31.47377"></scales>
<clustering>
<clus scale="   31.474">  1  9  2 -1</clus>
<clus scale="   90.053">  7  8 -1 -1</clus>
<clus scale="   90.078">  5  6 -1 -1</clus>
<clus scale="  143.036">  2  7  1 -1</clus>
<clus scale="   31.474">  1  5  2 -1</clus>
</clustering>
</event>
<event>
 9    1  0.2075077E-005  0.1654484E+03  0.7546771E-02  0.1202543E+00
          1   -1    0    0  502    0  0.00000000000E+00  0.00000000000E+00  0.18262419885E+03  0.18262419885E+03  0.00000000000E+00 0. -1.
         -1   -1    0    0    0  501 -0.00000000000E+00 -0.00000000000E+00 -0.58192784702E+03  0.58192784702E+03  0.00000000000E+00 0.  1.
         23    2    1    2    0    0 -0.12364419336E+02  0.53865685180E+02 -0.43814258475E+03  0.45099048719E+03  0.91482807428E+02 0.  0.
         23    2    1    2    0    0  0.39918023849E+02 -0.16023953098E+03  0.67375378407E+02  0.20003215851E+03  0.90571888064E+02 0.  0.
        -11    1    4    4    0    0  0.53901666005E+02 -0.55677298439E+02  0.54020327079E+01  0.77682257415E+02  0.00000000000E+00 0.  1.
         11    1    4    4    0    0 -0.13983642157E+02 -0.10456223254E+03  0.61973345699E+02  0.12234990110E+03  0.00000000000E+00 0. -1.
        -13    1    3    3    0    0 -0.67080129124E+00  0.79066924999E+02 -0.31956467710E+03  0.32920147547E+03  0.00000000000E+00 0.  1.
         13    1    3    3    0    0 -0.11693618045E+02 -0.25201239819E+02 -0.11857790766E+03  0.12178901172E+03  0.00000000000E+00 0. -1.
         21    1    1    2  502  501 -0.27553604513E+02  0.10637384580E+03 -0.28536441825E+02  0.11352940017E+03  0.00000000000E+00 0.  1.
<scales pt_clust_5="13000.00000" pt_clust_6="13000.00000" pt_clust_7="13000.00000" pt_clust_8="13000.00000" pt_clust_9="138.45538"></scales>
<clustering>
<clus scale="   90.572">  5  6 -1 -1</clus>
<clus scale="   91.483">  7  8 -1 -1</clus>
<clus scale="  106.881">  2  7  1 -1</clus>
<clus scale="  138.455">  2  9  1 -1</clus>
<clus scale="  165.448">  1  5  2 -1</clus>
</clustering>
</event>
<event>
 9    1  0.2075077E-005  0.1066932E+03  0.7546771E-02  0.1266903E+00
         -2   -1    0    0    0  501 -0.00000000000E+00  0.00000000000E+00  0.17789263788E+03  0.17789263788E+03  0.00000000000E+00 0.  1.
          2   -1    0    0  502    0  0.00000000000E+00 -0.00000000000E+00 -0.13970241314E+03  0.13970241314E+03  0.00000000000E+00 0. -1.
         23    2    1    2    0    0  0.72700355637E+02 -0.30600917378E+02  0.78674865843E+02  0.14420825559E+03  0.91567071655E+02 0.  0.
         23    2    1    2    0    0 -0.10953228115E+01  0.28667598681E+02 -0.12893911473E+02  0.96625693242E+02  0.91363234921E+02 0.  0.
        -11    1    3    3    0    0  0.58082289572E+02 -0.60966506181E+02  0.69760936611E+02  0.10934832196E+03  0.00000000000E+00 0. -1.
         11    1    3    3    0    0  0.14618066065E+02  0.30365588802E+02  0.89139292321E+01  0.34859933636E+02  0.00000000000E+00 0.  1.
        -11    1    4    4    0    0  0.24792969222E+02  0.28829209037E+02  0.28695652119E+02  0.47636698742E+02  0.00000000000E+00 0.  1.
         11    1    4    4    0    0 -0.25888292034E+02 -0.16161035569E+00 -0.41589563592E+02  0.48988994500E+02  0.00000000000E+00 0. -1.
         21    1    1    2  502  501 -0.71605032825E+02  0.19333186975E+01 -0.27590729632E+02  0.76761102185E+02  0.00000000000E+00 0.  1.
<scales pt_clust_5="13000.00000" pt_clust_6="13000.00000" pt_clust_7="13000.00000" pt_clust_8="13000.00000" pt_clust_9="71.63113"></scales>
<clustering>
<clus scale="   71.631">  2  9  1 -1</clus>
<clus scale="   91.363">  7  8 -1 -1</clus>
<clus scale="   91.567">  5  6 -1 -1</clus>
<clus scale="  106.518">  2  7  1 -1</clus>
<clus scale="   71.631">  2  5  1 -1</clus>
</clustering>
</event>
<event>
 9    1  0.2075077E-005  0.9544160E+02  0.7546771E-02  0.1290326E+00
         -1   -1    0    0    0  501 -0.00000000000E+00  0.00000000000E+00  0.62046398404E+02  0.62046398404E+02  0.00000000000E+00 0.  1.
          1   -1    0    0  502    0  0.00000000000E+00 -0.00000000000E+00 -0.51741819373E+03  0.51741819373E+03  0.00000000000E+00 0. -1.
         23    2    1    2    0    0 -0.19963980016E+02 -0.19342117640E+02  0.98263965377E+01  0.95748512892E+02  0.91096331645E+02 0.  0.
         23    2    1    2    0    0  0.87112705265E+01  0.40483397447E+02 -0.42790519287E+03  0.43939514788E+03  0.90831988826E+02 0.  0.
        -11    1    3    3    0    0  0.48546962254E+01  0.34181981114E+02  0.12425813305E+02  0.36693006753E+02  0.00000000000E+00 0. -1.
         11    1    3    3    0    0 -0.24818676241E+02 -0.53524098754E+02 -0.25994167672E+01  0.59055506139E+02  0.00000000000E+00 0.  1.
        -13    1    4    4    0    0  0.47646677318E+02  0.65438592111E+01 -0.21516622276E+03  0.22047569337E+03  0.00000000000E+00 0. -1.
         13    1    4    4    0    0 -0.38935406792E+02  0.33939538236E+02 -0.21273897011E+03  0.21891945451E+03  0.00000000000E+00 0.  1.
         21    1    1    2  502  501  0.11252709489E+02 -0.21141279807E+02 -0.37292998995E+02  0.44320931361E+02  0.00000000000E+00 0.  1.
<scales pt_clust_5="13000.00000" pt_clust_6="13000.00000" pt_clust_7="13000.00000" pt_clust_8="13000.00000" pt_clust_9="23.94947"></scales>
<clustering>
<clus scale="   23.949">  2  9  1 -1</clus>
<clus scale="   90.832">  7  8 -1 -1</clus>
<clus scale="   91.096">  5  6 -1 -1</clus>
<clus scale="   95.189">  2  7  1 -1</clus>
<clus scale="   23.949">  2  5  1 -1</clus>
</clustering>
</event>
<event>
 9    1  0.2075077E-005  0.9972374E+02  0.7546771E-02  0.1283395E+00
         -2   -1    0    0    0  501 -0.00000000000E+00  0.00000000000E+00  0.19812012310E+03  0.19812012310E+03  0.00000000000E+00 0.  1.
          2   -1    0    0  502    0  0.00000000000E+00 -0.00000000000E+00 -0.14487333544E+03  0.14487333544E+03  0.00000000000E+00 0. -1.
         23    2    1    2    0    0 -0.41078976870E+02 -0.18507878154E+02  0.94057356872E+02  0.13694385005E+03  0.88751381906E+02 0.  0.
         23    2    1    2    0    0  0.20128986979E+02  0.23332939928E+01  0.52323175315E+02  0.10922805293E+03  0.93714633302E+02 0.  0.
        -11    1    3    3    0    0 -0.30591972178E+01 -0.36321685827E+02  0.87054811692E+02  0.94377771682E+02  0.00000000000E+00 0.  1.
         11    1    3    3    0    0 -0.38019779653E+02  0.17813807673E+02  0.70025451805E+01  0.42566078368E+02  0.00000000000E+00 0. -1.
        -11    1    4    4    0    0  0.22498507629E+02 -0.34958855377E+02  0.58074230563E+02  0.71420729976E+02  0.00000000000E+00 0.  1.
         11    1    4    4    0    0 -0.23695206502E+01  0.37292149370E+02 -0.57510552478E+01  0.37807322958E+02  0.00000000000E+00 0. -1.
         21    1    1    2  502  501  0.20949989891E+02  0.16174584161E+02 -0.93133744527E+02  0.96821555549E+02  0.00000000000E+00 0. -1.
<scales pt_clust_5="13000.00000" pt_clust_6="13000.00000" pt_clust_7="13000.00000" pt_clust_8="13000.00000" pt_clust_9="26.46732"></scales>
<clustering>
<clus scale="   26.467">  2  9  1 -1</clus>
<clus scale="   88.751">  5  6 -1 -1</clus>
<clus scale="   93.715">  7  8 -1 -1</clus>
<clus scale="   95.075">  1  5  2 -1</clus>
<clus scale="   26.467">  2  5  1 -1</clus>
</clustering>
</event>
<event>
 9    1  0.2075077E-005  0.2261474E+03  0.7546771E-02  0.1129415E+00
          1   -1    0    0  502    0  0.00000000000E+00  0.00000000000E+00  0.11351299609E+04  0.11351299609E+04  0.00000000000E+00 0. -1.
         -1   -1    0    0    0  501 -0.00000000000E+00 -0.00000000000E+00 -0.56963480667E+02  0.56963480667E+02  0.00000000000E+00 0.  1.
         23    2    1    2    0    0  0.39341786573E+02  0.20272954330E+03  0.32436233341E+03  0.39503516586E+03  0.90525217665E+02 0.  0.
         23    2    1    2    0    0 -0.95786423148E+01 -0.20928064524E+03  0.67257970490E+03  0.71030476478E+03  0.90990442185E+02 0.  0.
        -11    1    4    4    0    0  0.13537319262E+02 -0.19606612308E+03  0.63128400772E+03  0.66116917807E+03  0.00000000000E+00 0. -1.
         11    1    4    4    0    0 -0.23115961577E+02 -0.13214522154E+02  0.41295697177E+02  0.49135586704E+02  0.00000000000E+00 0.  1.
        -11    1    3    3    0    0 -0.20161008937E+02  0.17809247599E+02  0.69910204533E+02  0.74907090981E+02  0.00000000000E+00 0. -1.
         11    1    3    3    0    0  0.59502795510E+02  0.18492029570E+03  0.25445212888E+03  0.32012807488E+03  0.00000000000E+00 0.  1.
         21    1    1    2  502  501 -0.29763144258E+02  0.65511019394E+01  0.81224441931E+02  0.86753510936E+02  0.00000000000E+00 0. -1.
<scales pt_clust_5="13000.00000" pt_clust_6="13000.00000" pt_clust_7="13000.00000" pt_clust_8="13000.00000" pt_clust_9="30.47559"></scales>
<clustering>
<clus scale="   30.476">  1  9  2 -1</clus>
<clus scale="   90.525">  7  8 -1 -1</clus>
<clus scale="   90.990">  5  6 -1 -1</clus>
<clus scale="  225.961">  2  7  1 -1</clus>
<clus scale="   30.476">  1  5  2 -1</clus>
</clustering>
</event>
<event>
 9    1  0.2075077E-005  0.1774778E+03  0.7546771E-02  0.1170524E+00
          1   -1    0    0  502    0  0.00000000000E+00  0.00000000000E+00  0.30959475079E+03  0.30959475079E+03  0.00000000000E+00 0. -1.
         -1   -1    0    0    0  501 -0.00000000000E+00 -0.00000000000E+00 -0.39511671333E+03  0.39511671333E+03  0.00000000000E+00 0.  1.
         23    2    1    2    0    0  0.47861294200E+02 -0.14412546970E+03 -0.32979750188E+03  0.37521495744E+03  0.94641521238E+02 0.  0.
         23    2    1    2    0    0 -0.68451858001E+02  0.12134505233E+03  0.13208594920E+03  0.21318045934E+03  0.92676489347E+02 0.  0.
        -13    1    3    3    0    0  0.58653224183E+02 -0.78675919360E+02 -0.11909155081E+03  0.15431428472E+03  0.00000000000E+00 0.  1.
         13    1    3    3    0    0 -0.10791929983E+02 -0.65449550341E+02 -0.21070595107E+03  0.22090067272E+03  0.00000000000E+00 0. -1.
        -13    1    4    4    0    0 -0.52165011540E+02  0.10226994668E+03  0.14501774461E+03  0.18496074361E+03  0.00000000000E+00 0. -1.
         13    1    4    4    0    0 -0.16286846461E+02  0.19075105648E+02 -0.12931795413E+02  0.28219715728E+02  0.00000000000E+00 0.  1.
         21    1    1    2  502  501  0.20590563801E+02  0.22780417367E+02  0.11218959014E+03  0.11631604734E+03  0.00000000000E+00 0. -1.
<scales pt_clust_5="13000.00000" pt_clust_6="13000.00000" pt_clust_7="13000.00000" pt_clust_8="13000.00000" pt_clust_9="30.70698"></scales>
<clustering>
<clus scale="   30.707">  1  9  2 -1</clus>
<clus scale="   92.676">  7  8 -1 -1</clus>
<clus scale="   94.642">  5  6 -1 -1</clus>
<clus scale="  176.438">  1  7  2 -1</clus>
<clus scale="   30.707">  1  5  2 -1</clus>
</clustering>
</event>
<event>
 9    1  0.2075077E-005  0.3339350E+03  0.7546771E-02  0.1069472E+00
          1   -1    0    0  502    0  0.00000000000E+00  0.00000000000E+00  0.46646295442E+03  0.46646295442E+03  0.00000000000E+00 0. -1.
         -1   -1    0    0    0  501 -0.00000000000E+00 -0.00000000000E+00 -0.26554142662E+03  0.26554142662E+03  0.00000000000E+00 0.  1.
         23    2    1    2    0    0 -0.31197713599E+03 -0.67929431172E+02  0.57125776491E+02  0.33624072488E+03  0.88602086479E+02 0.  0.
         23    2    1    2    0    0  0.32076624025E+03  0.47180261323E+02  0.10820461167E+03  0.35363877487E+03  0.90747931999E+02 0.  0.
        -11    1    4    4    0    0  0.60527078309E+02  0.18115274979E+02  0.60492788720E+02  0.87470382893E+02  0.00000000000E+00 0. -1.
         11    1    4    4    0    0  0.26023916194E+03  0.29064986344E+02  0.47711822951E+02  0.26616839198E+03  0.00000000000E+00 0.  1.
        -13    1    3    3    0    0 -0.19018895407E+03 -0.78594417176E+01  0.39166451255E+01  0.19039156804E+03  0.00000000000E+00 0.  1.
         13    1    3    3    0    0 -0.12178818192E+03 -0.60069989455E+02  0.53209131365E+02  0.14584915684E+03  0.00000000000E+00 0. -1.
         21    1    1    2  502  501 -0.87891042576E+01  0.20749169849E+02  0.35591139638E+02  0.42124881292E+02  0.00000000000E+00 0. -1.
<scales pt_clust_5="13000.00000" pt_clust_6="13000.00000" pt_clust_7="13000.00000" pt_clust_8="13000.00000" pt_clust_9="22.53389"></scales>
<clustering>
<clus scale="   22.534">  1  9  2 -1</clus>
<clus scale="   88.602">  7  8 -1 -1</clus>
<clus scale="   90.748">  5  6 -1 -1</clus>
<clus scale="  333.358">  2  7  1 -1</clus>
<clus scale="   22.534">  1  5  2 -1</clus>
</clustering>
</event>
<event>
 9    1  0.2075077E-005  0.9819595E+02  0.7546771E-02  0.1284406E+00
          2   -1    0    0  502    0  0.00000000000E+00  0.00000000000E+00  0.10047000796E+04  0.10047000796E+04  0.00000000000E+00 0. -1.
         -2   -1    0    0    0  501 -0.00000000000E+00 -0.00000000000E+00 -0.16109874972E+02  0.16109874972E+02  0.00000000000E+00 0.  1.
         23    2    1    2    0    0 -0.19199123386E+02  0.17207668532E+02  0.30606693171E+03  0.32040587121E+03  0.91204415603E+02 0.  0.
         23    2    1    2    0    0  0.56491230613E+02  0.64969711679E+01  0.38427097088E+03  0.39889612845E+03  0.90666821159E+02 0.  0.
        -11    1    3    3    0    0 -0.77891020420E+01  0.52580787186E+02  0.22548182647E+03  0.23166239091E+03  0.00000000000E+00 0. -1.
         11    1    3    3    0    0 -0.11410021344E+02 -0.35373118654E+02  0.80585105241E+02  0.88743480307E+02  0.00000000000E+00 0.  1.
        -13    1    4    4    0    0 -0.20122105531E+02  0.27763239770E+01  0.28793426228E+02  0.35237316864E+02  0.00000000000E+00 0.  1.
         13    1    4    4    0    0  0.76613336144E+02  0.37206471909E+01  0.35547754465E+03  0.36365881158E+03  0.00000000000E+00 0. -1.
         21    1    1    2  502  501 -0.37292107227E+02 -0.23704639700E+02  0.29825230201E+03  0.30150795489E+03  0.00000000000E+00 0.  1.
<scales pt_clust_5="13000.00000" pt_clust_6="13000.00000" pt_clust_7="13000.00000" pt_clust_8="13000.00000" pt_clust_9="44.18836"></scales>
<clustering>
<clus scale="   44.188">  1  9  2 -1</clus>
<clus scale="   90.667">  7  8 -1 -1</clus>
<clus scale="   91.204">  5  6 -1 -1</clus>
<clus scale="   97.697">  1  7  2 -1</clus>
<clus scale="   44.188">  1  5  2 -1</clus>
</clustering>
</event>
<event>
 9    1  0.2075077E-005  0.2018731E+03  0.7546771E-02  0.1148311E+00
         -3   -1    0    0    0  501 -0.00000000000E+00  0.00000000000E+00  0.12300513863E+04  0.12300513863E+04  0.00000000000E+00 0.  1.
          3   -1    0    0  502    0  0.00000000000E+00 -0.00000000000E+00 -0.44312220717E+02  0.44312220717E+02  0.00000000000E+00 0. -1.
         23    2    1    2    0    0  0.11898105566E+03 -0.13901407365E+03  0.79794034235E+03  0.82373361565E+03  0.91361235387E+02 0.  0.
         23    2    1    2    0    0 -0.13362216486E+03  0.11059119480E+03  0.34572741308E+03  0.39778847668E+03  0.92859747558E+02 0.  0.
        -13    1    3    3    0    0  0.28142998405E+02 -0.83415813646E+02  0.49128589255E+03  0.49911126470E+03  0.00000000000E+00 0.  1.
         13    1    3    3    0    0  0.90838057254E+02 -0.55598260001E+02  0.30665444979E+03  0.32462235096E+03  0.00000000000E+00 0. -1.
        -13    1    4    4    0    0 -0.28435262905E+02 -0.15215479097E+02  0.68017053080E+02  0.75275457424E+02  0.00000000000E+00 0.  1.
         13    1    4    4    0    0 -0.10518690196E+03  0.12580667389E+03  0.27771035999E+03  0.32251301925E+03  0.00000000000E+00 0. -1.
         21    1    1    2  502  501  0.14641109203E+02  0.28422878851E+02  0.42071410117E+02  0.52841514646E+02  0.00000000000E+00 0. -1.
<scales pt_clust_5="13000.00000" pt_clust_6="13000.00000" pt_clust_7="13000.00000" pt_clust_8="13000.00000" pt_clust_9="31.97221"></scales>
<clustering>
<clus scale="   31.972">  2  9  1 -1</clus>
<clus scale="   91.361">  5  6 -1 -1</clus>
<clus scale="   92.860">  7  8 -1 -1</clus>
<clus scale="  201.188">  1  5  2 -1</clus>
<clus scale="   31.972">  2  5  1 -1</clus>
</clustering>
</event>
<event>
 9    1  0.2075077E-005  0.1408194E+03  0.7546771E-02  0.1213271E+00
          2   -1    0    0  502    0  0.00000000000E+00  0.00000000000E+00  0.18030176474E+03  0.18030176474E+03  0.00000000000E+00 0. -1.
         -2   -1    0    0    0  501 -0.00000000000E+00 -0.00000000000E+00 -0.24528813759E+03  0.24528813759E+03  0.00000000000E+00 0.  1.
         23    2    1    2    0    0  0.63669266085E+02  0.91940394890E+02 -0.17591933310E+03  0.22987472138E+03  0.96891506919E+02 0.  0.
         23    2    1    2    0    0 -0.35043012326E+02 -0.57381994388E+02  0.64713591487E+02  0.13129487749E+03  0.92356861893E+02 0.  0.
        -13    1    4    4    0    0 -0.51065421301E+02 -0.19065962076E+02  0.12820331342E+00  0.54508757082E+02  0.00000000000E+00 0.  1.
         13    1    4    4    0    0  0.16022408975E+02 -0.38316032312E+02  0.64585388174E+02  0.76786120406E+02  0.00000000000E+00 0. -1.
        -13    1    3    3    0    0  0.54891474576E+00  0.80476449720E+02 -0.12157124379E+03  0.14579549919E+03  0.00000000000E+00 0.  1.
         13    1    3    3    0    0  0.63120351339E+02  0.11463945170E+02 -0.54348089310E+02  0.84079222188E+02  0.00000000000E+00 0. -1.
         21    1    1    2  502  501 -0.28626253759E+02 -0.34558400503E+02  0.46219368761E+02  0.64420303463E+02  0.00000000000E+00 0. -1.
<scales pt_clust_5="13000.00000" pt_clust_6="13000.00000" pt_clust_7="13000.00000" pt_clust_8="13000.00000" pt_clust_9="44.87478"></scales>
<clustering>
<clus scale="   44.875">  1  9  2 -1</clus>
<clus scale="   92.357">  5  6 -1 -1</clus>
<clus scale="   96.892">  7  8 -1 -1</clus>
<clus scale="  137.739">  1  5  2 -1</clus>
<clus scale="   44.875">  1  5  2 -1</clus>
</clustering>
</event>
<event>
 9    1  0.2075077E-005  0.1078521E+03  0.7546771E-02  0.1266478E+00
          1   -1    0    0  502    0  0.00000000000E+00  0.00000000000E+00  0.21516462281E+03  0.21516462281E+03  0.00000000000E+00 0. -1.
         -1   -1    0    0    0  501 -0.00000000000E+00 -0.00000000000E+00 -0.75424587367E+02  0.75424587367E+02  0.00000000000E+00 0.  1.
         23    2    1    2    0    0  0.65050173983E+02 -0.97947035314E+01  0.24500700092E+02  0.11153170503E+03  0.86669346192E+02 0.  0.
         23    2    1    2    0    0 -0.41990892383E+02  0.23347618726E+02  0.64382713679E+02  0.12159614469E+03  0.91280568791E+02 0.  0.
        -11    1    3    3    0    0  0.85452700643E+02 -0.11069996426E+02  0.10612292898E+02  0.86817795576E+02  0.00000000000E+00 0. -1.
         11    1    3    3    0    0 -0.20402526660E+02  0.12752928942E+01  0.13888407194E+02  0.24713909454E+02  0.00000000000E+00 0.  1.
        -13    1    4    4    0    0 -0.21623428016E+02  0.23577239105E+02 -0.18017100145E+02  0.36716137333E+02  0.00000000000E+00 0.  1.
         13    1    4    4    0    0 -0.20367464367E+02 -0.22962037923E+00  0.82399813824E+02  0.84880007355E+02  0.00000000000E+00 0. -1.
         21    1    1    2  502  501 -0.23059281600E+02 -0.13552915195E+02  0.50856621676E+02  0.57461360465E+02  0.00000000000E+00 0. -1.
<scales pt_clust_5="13000.00000" pt_clust_6="13000.00000" pt_clust_7="13000.00000" pt_clust_8="13000.00000" pt_clust_9="26.74719"></scales>
<clustering>
<clus scale="   26.747">  1  9  2 -1</clus>
<clus scale="   86.669">  5  6 -1 -1</clus>
<clus scale="   91.281">  7  8 -1 -1</clus>
<clus scale="  103.978">  2  5  1 -1</clus>
<clus scale="   26.747">  1  5  2 -1</clus>
</clustering>
</event>
<event>
 9    1  0.2075077E-005  0.9418361E+02  0.7546771E-02  0.1293914E+00
         -2   -1    0    0    0  501 -0.00000000000E+00  0.00000000000E+00  0.21086977785E+02  0.21086977785E+02  0.00000000000E+00 0.  1.
          2   -1    0    0  502    0  0.00000000000E+00 -0.00000000000E+00 -0.67049191748E+03  0.67049191748E+03  0.00000000000E+00 0. -1.
         23    2    1    2    0    0  0.12250135593E+01 -0.56366701280E+00 -0.15953426730E+03  0.18411554202E+03  0.91899575589E+02 0.  0.
         23    2    1    2    0    0 -0.20456418761E+02  0.27270649738E+02 -0.36087600196E+03  0.37433659082E+03  0.93457161465E+02 0.  0.
        -11    1    3    3    0    0  0.34701835861E+02  0.17786555446E+02 -0.13036201513E+03  0.13606922487E+03  0.00000000000E+00 0.  1.
         11    1    3    3    0    0 -0.33476822302E+02 -0.18350222459E+02 -0.29172252165E+02  0.48046317155E+02  0.00000000000E+00 0. -1.
        -11    1    4    4    0    0 -0.29036140258E+02  0.57798614295E+02 -0.19472992977E+03  0.20519142965E+03  0.00000000000E+00 0.  1.
         11    1    4    4    0    0  0.85797214970E+01 -0.30527964556E+02 -0.16614607219E+03  0.16914516116E+03  0.00000000000E+00 0. -1.
         21    1    1    2  502  501  0.19231405202E+02 -0.26706982725E+02 -0.12899467044E+03  0.13312676243E+03  0.00000000000E+00 0. -1.
<scales pt_clust_5="13000.00000" pt_clust_6="13000.00000" pt_clust_7="13000.00000" pt_clust_8="13000.00000" pt_clust_9="32.91063"></scales>
<clustering>
<clus scale="   32.911">  2  9  1 -1</clus>
<clus scale="   91.900">  5  6 -1 -1</clus>
<clus scale="   92.638">  1  5  2 -1</clus>
<clus scale="   93.457">  7  8 -1 -1</clus>
<clus scale="   32.911">  2  5  1 -1</clus>
</clustering>
</event>
<event>
 9    1  0.2075077E-005  0.1091427E+03  0.7546771E-02  0.1263341E+00
          1   -1    0    0  502    0  0.00000000000E+00  0.00000000000E+00  0.40791555966E+03  0.40791555966E+03  0.00000000000E+00 0. -1.
         -1   -1    0    0    0  501 -0.00000000000E+00 -0.00000000000E+00 -0.67099784858E+02  0.67099784858E+02  0.00000000000E+00 0.  1.
         23    2    1    2    0    0 -0.43905089356E+02  0.31012822449E+02  0.60690303880E+01  0.10664566686E+03  0.91907633542E+02 0.  0.
         23    2    1    2    0    0  0.65720000454E+02 -0.45603404903E+02  0.21755168636E+03  0.24827197961E+03  0.88946335646E+02 0.  0.
        -13    1    4    4    0    0  0.45510226174E+02 -0.24322843676E+02  0.21227062868E+03  0.21845274366E+03  0.00000000000E+00 0.  1.
         13    1    4    4    0    0  0.20209774280E+02 -0.21280561227E+02  0.52810576740E+01  0.29819235952E+02  0.00000000000E+00 0. -1.
        -13    1    3    3    0    0  0.62019168115E+01  0.42316622280E+02  0.27652011783E+02  0.50929304423E+02  0.00000000000E+00 0. -1.
         13    1    3    3    0    0 -0.50107006168E+02 -0.11303799831E+02 -0.21582981395E+02  0.55716362441E+02  0.00000000000E+00 0.  1.
         21    1    1    2  502  501 -0.21814911098E+02  0.14590582453E+02  0.11719505806E+03  0.12009769804E+03  0.00000000000E+00 0.  1.
<scales pt_clust_5="13000.00000" pt_clust_6="13000.00000" pt_clust_7="13000.00000" pt_clust_8="13000.00000" pt_clust_9="26.24453"></scales>
<clustering>
<clus scale="   26.245">  1  9  2 -1</clus>
<clus scale="   88.946">  5  6 -1 -1</clus>
<clus scale="   91.908">  7  8 -1 -1</clus>
<clus scale="  106.661">  1  5  2 -1</clus>
<clus scale="   26.245">  1  5  2 -1</clus>
</clustering>
</event>
<event>
 9    1  0.2075077E-005  0.9525488E+02  0.7546771E-02  0.1290935E+00
         -1   -1    0    0    0  501 -0.00000000000E+00  0.00000000000E+00  0.11106678204E+03  0.11106678204E+03  0.00000000000E+00 0.  1.
          1   -1    0    0  502    0  0.00000000000E+00 -0.00000000000E+00 -0.14491570371E+03  0.14491570371E+03  0.00000000000E+00 0. -1.
         23    2    1    2    0    0  0.17287812121E+02 -0.15736419099E+01  0.46228113857E+02  0.10476346273E+03  0.92395886352E+02 0.  0.
         23    2    1    2    0    0 -0.38510184834E+02 -0.45302988560E+01 -0.44011458236E+02  0.10892986292E+03  0.91788608421E+02 0.  0.
        -11    1    4    4    0    0  0.10336176636E+02  0.33644192938E+02 -0.27800767094E+02  0.44851431604E+02  0.00000000000E+00 0.  1.
         11    1    4    4    0    0 -0.48846361470E+02 -0.38174491794E+02 -0.16210691142E+02  0.64078431316E+02  0.00000000000E+00 0. -1.
        -13    1    3    3    0    0  0.31426284524E+02  0.38650279731E+02  0.34330319681E+02  0.60498151473E+02  0.00000000000E+00 0.  1.
         13    1    3    3    0    0 -0.14138472403E+02 -0.40223921641E+02  0.11897794176E+02  0.44265311253E+02  0.00000000000E+00 0. -1.
         21    1    1    2  502  501  0.21222372714E+02  0.61039407658E+01 -0.36065577297E+02  0.42289160103E+02  0.00000000000E+00 0. -1.
<scales pt_clust_5="13000.00000" pt_clust_6="13000.00000" pt_clust_7="13000.00000" pt_clust_8="13000.00000" pt_clust_9="22.08274"></scales>
<clustering>
<clus scale="   22.083">  2  9  1 -1</clus>
<clus scale="   91.789">  5  6 -1 -1</clus>
<clus scale="   92.396">  7  8 -1 -1</clus>
<clus scale="   94.666">  2  5  1 -1</clus>
<clus scale="   22.083">  2  5  1 -1</clus>
</clustering>
</event>
<event>
 9    1  0.2075077E-005  0.9416296E+02  0.7546771E-02  0.1295035E+00
          1   -1    0    0  502    0  0.00000000000E+00  0.00000000000E+00  0.31875998166E+02  0.31875998166E+02  0.00000000000E+00 0. -1.
         -1   -1    0    0    0  501 -0.00000000000E+00 -0.00000000000E+00 -0.51656829735E+03  0.51656829735E+03  0.00000000000E+00 0.  1.
         23    2    1    2    0    0  0.24418271212E+02  0.22428476884E+02 -0.31812801276E+03  0.33259409656E+03  0.91181752669E+02 0.  0.
         23    2    1    2    0    0  0.77068394701E+01 -0.16325970184E+02 -0.15870953335E+03  0.18222044323E+03  0.87690599714E+02 0.  0.
        -11    1    3    3    0    0  0.25357669650E+02 -0.29943709489E+02 -0.19293787005E+03  0.19688742684E+03  0.00000000000E+00 0.  1.
         11    1    3    3    0    0 -0.93939843799E+00  0.52372186373E+02 -0.12519014270E+03  0.13570666972E+03  0.00000000000E+00 0. -1.
        -11    1    4    4    0    0  0.55155953826E+01 -0.52042311778E+02 -0.10963496799E+03  0.12148518516E+03  0.00000000000E+00 0.  1.
         11    1    4    4    0    0  0.21912440875E+01  0.35716341594E+02 -0.49074565365E+02  0.60735258074E+02  0.00000000000E+00 0. -1.
         21    1    1    2  502  501 -0.32125110682E+02 -0.61025067004E+01 -0.78547530751E+01  0.33629755727E+02  0.00000000000E+00 0. -1.
<scales pt_clust_5="13000.00000" pt_clust_6="13000.00000" pt_clust_7="13000.00000" pt_clust_8="13000.00000" pt_clust_9="32.69959"></scales>
<clustering>
<clus scale="   32.700">  1  9  2 -1</clus>
<clus scale="   87.691">  7  8 -1 -1</clus>
<clus scale="   90.787">  1  7  2 -1</clus>
<clus scale="   91.182">  5  6 -1 -1</clus>
<clus scale="   32.700">  1  5  2 -1</clus>
</clustering>
</event>
<event>
 9    1  0.2075077E-005  0.9886681E+02  0.7546771E-02  0.1289858E+00
         -1   -1    0    0    0  501 -0.00000000000E+00  0.00000000000E+00  0.11843066536E+03  0.11843066536E+03  0.00000000000E+00 0.  1.
          1   -1    0    0  502    0  0.00000000000E+00 -0.00000000000E+00 -0.16336100779E+03  0.16336100779E+03  0.00000000000E+00 0. -1.
         23    2    1    2    0    0 -0.37592410869E+02  0.16296313355E+02  0.23505213571E+02  0.10813099803E+03  0.97267972559E+02 0.  0.
         23    2    1    2    0    0 -0.17963000124E+02  0.24216631288E+02 -0.48686630503E+02  0.10212241660E+03  0.84554629544E+02 0.  0.
        -13    1    3    3    0    0 -0.73980648776E+01 -0.29912215638E+02  0.40025860001E+02  0.50512785283E+02  0.00000000000E+00 0.  1.
         13    1    3    3    0    0 -0.30194345992E+02  0.46208528993E+02 -0.16520646430E+02  0.57618212746E+02  0.00000000000E+00 0. -1.
        -13    1    4    4    0    0 -0.44783293401E+01  0.51379712235E+02 -0.49912259953E+02  0.71771609684E+02  0.00000000000E+00 0. -1.
         13    1    4    4    0    0 -0.13484670784E+02 -0.27163080947E+02  0.12256294505E+01  0.30350806912E+02  0.00000000000E+00 0.  1.
         21    1    1    2  502  501  0.55555410993E+02 -0.40512944643E+02 -0.19748925501E+02  0.71538258524E+02  0.00000000000E+00 0.  1.
<scales pt_clust_5="13000.00000" pt_clust_6="13000.00000" pt_clust_7="13000.00000" pt_clust_8="13000.00000" pt_clust_9="68.75829"></scales>
<clustering>
<clus scale="   68.758">  2  9  1 -1</clus>
<clus scale="   84.555">  7  8 -1 -1</clus>
<clus scale="   86.389">  2  7  1 -1</clus>
<clus scale="   97.268">  5  6 -1 -1</clus>
<clus scale="   68.758">  2  5  1 -1</clus>
</clustering>
</event>
<event>
 9    1  0.2075077E-005  0.9582543E+02  0.7546771E-02  0.1291136E+00
          1   -1    0    0  502    0  0.00000000000E+00  0.00000000000E+00  0.31320705401E+03  0.31320705401E+03  0.00000000000E+00 0. -1.
         -1   -1    0    0    0  501 -0.00000000000E+00 -0.00000000000E+00 -0.43455298537E+02  0.43455298537E+02  0.00000000000E+00 0.  1.
         23    2    1    2    0    0 -0.16485740046E+02 -0.16372640059E+02  0.60649144150E+02  0.11022320288E+03  0.89056121634E+02 0.  0.
         23    2    1    2    0    0 -0.30613106959E+00  0.35250913533E+02  0.12952118792E+03  0.16294328692E+03  0.92369129094E+02 0.  0.
        -13    1    3    3    0    0  0.30108316406E+02 -0.77095781763E+00 -0.24856399876E+01  0.30220580717E+02  0.00000000000E+00 0.  1.
         13    1    3    3    0    0 -0.46594056452E+02 -0.15601682242E+02  0.63134784138E+02  0.80002622166E+02  0.00000000000E+00 0. -1.
        -13    1    4    4    0    0 -0.42964482972E+02  0.32715715536E+02  0.55266752114E+02  0.77270167136E+02  0.00000000000E+00 0. -1.
         13    1    4    4    0    0  0.42658351902E+02  0.25351979978E+01  0.74254435806E+02  0.85673119780E+02  0.00000000000E+00 0.  1.
         21    1    1    2  502  501  0.16791871115E+02 -0.18878273474E+02  0.79581423402E+02  0.83495862746E+02  0.00000000000E+00 0.  1.
<scales pt_clust_5="13000.00000" pt_clust_6="13000.00000" pt_clust_7="13000.00000" pt_clust_8="13000.00000" pt_clust_9="25.26571"></scales>
<clustering>
<clus scale="   25.266">  1  9  2 -1</clus>
<clus scale="   89.056">  5  6 -1 -1</clus>
<clus scale="   92.369">  7  8 -1 -1</clus>
<clus scale="   92.636">  2  5  1 -1</clus>
<clus scale="   25.266">  1  5  2 -1</clus>
</clustering>
</event>
<event>
 9    1  0.2075077E-005  0.1138676E+03  0.7546771E-02  0.1254533E+00
         -1   -1    0    0    0  501 -0.00000000000E+00  0.00000000000E+00  0.45114475459E+02  0.45114475459E+02  0.00000000000E+00 0.  1.
          1   -1    0    0  502    0  0.00000000000E+00 -0.00000000000E+00 -0.78655734970E+03  0.78655734970E+03  0.00000000000E+00 0. -1.
         23    2    1    2    0    0 -0.65619135000E+02 -0.70411625372E+00 -0.64531165524E+02  0.13225879513E+03  0.94982897976E+02 0.  0.
         23    2    1    2    0    0  0.49549318072E+02 -0.45945510905E+02 -0.33629811210E+03  0.35524439559E+03  0.92390667832E+02 0.  0.
        -11    1    3    3    0    0 -0.12747610411E+02  0.29786871914E+02  0.11839969097E+02  0.34495567510E+02  0.00000000000E+00 0. -1.
         11    1    3    3    0    0 -0.52871524589E+02 -0.30490988168E+02 -0.76371134621E+02  0.97763227622E+02  0.00000000000E+00 0.  1.
        -11    1    4    4    0    0  0.38230821155E+01 -0.55714370495E+02 -0.25860515785E+03  0.26456631437E+03  0.00000000000E+00 0. -1.
         11    1    4    4    0    0  0.45726235956E+02  0.97688595899E+01 -0.77692954254E+02  0.90678081217E+02  0.00000000000E+00 0.  1.
         21    1    1    2  502  501  0.16069816928E+02  0.46649627159E+02 -0.34061359661E+03  0.34416863443E+03  0.00000000000E+00 0. -1.
<scales pt_clust_5="13000.00000" pt_clust_6="13000.00000" pt_clust_7="13000.00000" pt_clust_8="13000.00000" pt_clust_9="49.33991"></scales>
<clustering>
<clus scale="   49.340">  2  9  1 -1</clus>
<clus scale="   92.391">  7  8 -1 -1</clus>
<clus scale="   94.983">  5  6 -1 -1</clus>
<clus scale="  111.714">  2  7  1 -1</clus>
<clus scale="   49.340">  2  5  1 -1</clus>
</clustering>
</event>
<event>
 9    1  0.2075077E-005  0.9504802E+02  0.7546771E-02  0.1293160E+00
         -3   -1    0    0    0  501 -0.00000000000E+00  0.00000000000E+00  0.48864921376E+02  0.48864921376E+02  0.00000000000E+00 0.  1.
          3   -1    0    0  502    0  0.00000000000E+00 -0.00000000000E+00 -0.24823972598E+03  0.24823972598E+03  0.00000000000E+00 0. -1.
         23    2    1    2    0    0  0.35748077140E+02 -0.20637982916E+02 -0.76820038849E+02  0.12429354357E+03  0.88564751717E+02 0.  0.
         23    2    1    2    0    0 -0.32077345379E+02 -0.98690824257E+01 -0.89424801949E+02  0.12762537806E+03  0.84646837195E+02 0.  0.
        -13    1    4    4    0    0  0.17664875762E+02 -0.31580182360E+02 -0.43046621359E+02  0.56234930106E+02  0.00000000000E+00 0.  1.
         13    1    4    4    0    0 -0.49742221140E+02  0.21711099935E+02 -0.46378180590E+02  0.71390447955E+02  0.00000000000E+00 0. -1.
        -13    1    3    3    0    0 -0.32484890408E+01 -0.48210127556E+02 -0.27312805740E+02  0.55504580328E+02  0.00000000000E+00 0.  1.
         13    1    3    3    0    0  0.38996566181E+02  0.27572144640E+02 -0.49507233110E+02  0.68788963243E+02  0.00000000000E+00 0. -1.
         21    1    1    2  502  501 -0.36707317615E+01  0.30507065342E+02 -0.33129963804E+02  0.45185725723E+02  0.00000000000E+00 0. -1.
<scales pt_clust_5="13000.00000" pt_clust_6="13000.00000" pt_clust_7="13000.00000" pt_clust_8="13000.00000" pt_clust_9="30.72711"></scales>
<clustering>
<clus scale="   30.727">  2  9  1 -1</clus>
<clus scale="   84.647">  5  6 -1 -1</clus>
<clus scale="   88.565">  7  8 -1 -1</clus>
<clus scale="   91.408">  2  5  1 -1</clus>
<clus scale="   30.727">  2  5  1 -1</clus>
</clustering>
</event>
<event>
 9    1  0.2075077E-005  0.9893331E+02  0.7546771E-02  0.1282834E+00
          2   -1    0    0  502    0  0.00000000000E+00  0.00000000000E+00  0.58672289721E+02  0.58672289721E+02  0.00000000000E+00 0. -1.
         -2   -1    0    0    0  501 -0.00000000000E+00 -0.00000000000E+00 -0.34625345157E+03  0.34625345157E+03  0.00000000000E+00 0.  1.
         23    2    1    2    0    0 -0.23676587283E+02  0.31200555779E+02 -0.19106750421E+03  0.21479523650E+03  0.89978591864E+02 0.  0.
         23    2    1    2    0    0  0.64113017825E+02  0.35318829289E+01 -0.71427012128E+02  0.13121711924E+03  0.89404480138E+02 0.  0.
        -11    1    3    3    0    0  0.83077060398E+00  0.33662022645E+02 -0.18678403865E+03  0.18979488677E+03  0.00000000000E+00 0.  1.
         11    1    3    3    0    0 -0.24507357887E+02 -0.24614668656E+01 -0.42834655572E+01  0.25000349736E+02  0.00000000000E+00 0. -1.
        -13    1    4    4    0    0 -0.18373771581E+02 -0.93890793600E+01 -0.33883883902E+02  0.39672003752E+02  0.00000000000E+00 0.  1.
         13    1    4    4    0    0  0.82486789406E+02  0.12920962289E+02 -0.37543128225E+02  0.91545115489E+02  0.00000000000E+00 0. -1.
         21    1    1    2  502  501 -0.40436430542E+02 -0.34732438708E+02 -0.25086645515E+02  0.58913385549E+02  0.00000000000E+00 0.  1.
<scales pt_clust_5="13000.00000" pt_clust_6="13000.00000" pt_clust_7="13000.00000" pt_clust_8="13000.00000" pt_clust_9="53.30523"></scales>
<clustering>
<clus scale="   53.305">  1  9  2 -1</clus>
<clus scale="   89.404">  7  8 -1 -1</clus>
<clus scale="   89.979">  5  6 -1 -1</clus>
<clus scale="   98.411">  1  7  2 -1</clus>
<clus scale="   53.305">  1  5  2 -1</clus>
</clustering>
</event>
<event>
 9    1  0.2075077E-005  0.1323855E+03  0.7546771E-02  0.1228893E+00
          1   -1    0    0  502    0  0.00000000000E+00  0.00000000000E+00  0.15439726215E+03  0.15439726215E+03  0.00000000000E+00 0. -1.
         -1   -1    0    0    0  501 -0.00000000000E+00 -0.00000000000E+00 -0.17742163320E+03  0.17742163320E+03  0.00000000000E+00 0.  1.
         23    2    1    2    0    0  0.71222065297E+02 -0.76114567747E+02 -0.69386873959E+02  0.15440440308E+03  0.90333667052E+02 0.  0.
         23    2    1    2    0    0 -0.49657080036E+02  0.47571095142E+02  0.58202120471E+02  0.13973220251E+03  0.10681182940E+03 0.  0.
        -13    1    3    3    0    0  0.60614362726E+02 -0.26281006747E+02 -0.78547141353E+02  0.10263744784E+03  0.00000000000E+00 0.  1.
         13    1    3    3    0    0  0.10607702571E+02 -0.49833561000E+02  0.91602673935E+01  0.51766955236E+02  0.00000000000E+00 0. -1.
        -13    1    4    4    0    0 -0.28976007957E+02  0.66005109923E+02 -0.34226302135E+01  0.72166460151E+02  0.00000000000E+00 0.  1.
         13    1    4    4    0    0 -0.20681072079E+02 -0.18434014782E+02  0.61624750684E+02  0.67565742357E+02  0.00000000000E+00 0. -1.
         21    1    1    2  502  501 -0.21564985261E+02  0.28543472605E+02 -0.11839617567E+02  0.37682289763E+02  0.00000000000E+00 0. -1.
<scales pt_clust_5="13000.00000" pt_clust_6="13000.00000" pt_clust_7="13000.00000" pt_clust_8="13000.00000" pt_clust_9="35.77399"></scales>
<clustering>
<clus scale="   35.774">  2  9  1 -1</clus>
<clus scale="   90.334">  5  6 -1 -1</clus>
<clus scale="  106.812">  7  8 -1 -1</clus>
<clus scale="  119.488">  2  5  1 -1</clus>
<clus scale="  132.386">  1  5  2 -1</clus>
</clustering>
</event>
<event>
 9    1  0.2075077E-005  0.1004833E+03  0.7546771E-02  0.1280407E+00
          1   -1    0    0  502    0  0.00000000000E+00  0.00000000000E+00  0.66236030814E+02  0.66236030814E+02  0.00000000000E+00 0. -1.
         -1   -1    0    0    0  501 -0.00000000000E+00 -0.00000000000E+00 -0.26684228166E+03  0.26684228166E+03  0.00000000000E+00 0.  1.
         23    2    1    2    0    0 -0.16132380370E+02  0.31259511944E+02 -0.14097627263E+03  0.17131074641E+03  0.90750490955E+02 0.  0.
         23    2    1    2    0    0  0.37166835392E+02 -0.26160861512E+02 -0.80907725654E+02  0.13141650231E+03  0.93050914459E+02 0.  0.
        -11    1    4    4    0    0  0.22032805313E+01 -0.52315320420E+02 -0.19089379364E+02  0.55732859250E+02  0.00000000000E+00 0. -1.
         11    1    4    4    0    0  0.34963554860E+02  0.26154458907E+02 -0.61818346290E+02  0.75683643063E+02  0.00000000000E+00 0.  1.
        -13    1    3    3    0    0  0.18056583200E+02  0.39209723361E+02 -0.12592528476E+03  0.13311881889E+03  0.00000000000E+00 0.  1.
         13    1    3    3    0    0 -0.34188963570E+02 -0.79502114177E+01 -0.15050987872E+02  0.38191927517E+02  0.00000000000E+00 0. -1.
         21    1    1    2  502  501 -0.21034455022E+02 -0.50986504312E+01  0.21277747440E+02  0.30351063745E+02  0.00000000000E+00 0.  1.
<scales pt_clust_5="13000.00000" pt_clust_6="13000.00000" pt_clust_7="13000.00000" pt_clust_8="13000.00000" pt_clust_9="21.64358"></scales>
<clustering>
<clus scale="   21.644">  1  9  2 -1</clus>
<clus scale="   90.750">  7  8 -1 -1</clus>
<clus scale="   93.051">  5  6 -1 -1</clus>
<clus scale="   98.357">  2  7  1 -1</clus>
<clus scale="   21.644">  1  5  2 -1</clus>
</clustering>
</event>
<event>
 9    1  0.2075077E-005  0.1511901E+03  0.7546771E-02  0.1206550E+00
         -1   -1    0    0    0  501 -0.00000000000E+00  0.00000000000E+00  0.10924738803E+03  0.10924738803E+03  0.00000000000E+00 0.  1.
          1   -1    0    0  502    0  0.00000000000E+00 -0.00000000000E+00 -0.24211595841E+03  0.24211595841E+03  0.00000000000E+00 0. -1.
         23    2    1    2    0    0 -0.75611515566E+02 -0.30871335468E+02  0.99195308192E+01  0.11670221368E+03  0.82769976115E+02 0.  0.
         23    2    1    2    0    0  0.97713806564E+02  0.45730826546E+02 -0.13317722717E+03  0.20634709663E+03  0.11490715365E+03 0.  0.
        -11    1    3    3    0    0 -0.64889779306E+02  0.17075265761E+02  0.74216145225E+01  0.67507988574E+02  0.00000000000E+00 0.  1.
         11    1    3    3    0    0 -0.10721736261E+02 -0.47946601229E+02  0.24979162967E+01  0.49194225105E+02  0.00000000000E+00 0. -1.
        -11    1    4    4    0    0  0.55824690867E+00  0.42740395470E+02 -0.16181256296E+01  0.42774658094E+02  0.00000000000E+00 0.  1.
         11    1    4    4    0    0  0.97155559656E+02  0.29904310758E+01 -0.13155910154E+03  0.16357243853E+03  0.00000000000E+00 0. -1.
         21    1    1    2  502  501 -0.22102290998E+02 -0.14859491078E+02 -0.96108740297E+01  0.28314036132E+02  0.00000000000E+00 0.  1.
<scales pt_clust_5="13000.00000" pt_clust_6="13000.00000" pt_clust_7="13000.00000" pt_clust_8="13000.00000" pt_clust_9="26.63298"></scales>
<clustering>
<clus scale="   26.633">  1  9  2 -1</clus>
<clus scale="   82.770">  5  6 -1 -1</clus>
<clus scale="  114.907">  7  8 -1 -1</clus>
<clus scale="  128.474">  1  5  2 -1</clus>
<clus scale="  151.190">  2  5  1 -1</clus>
</clustering>
</event>
<event>
 9    1  0.2075077E-005  0.1528675E+03  0.7546771E-02  0.1197432E+00
          1   -1    0    0  502    0  0.00000000000E+00  0.00000000000E+00  0.95375715640E+03  0.95375715640E+03  0.00000000000E+00 0. -1.
         -1   -1    0    0    0  501 -0.00000000000E+00 -0.00000000000E+00 -0.45694020718E+02  0.45694020718E+02  0.00000000000E+00 0.  1.
         23    2    1    2    0    0 -0.58023209245E+02  0.10688274607E+03  0.12546430902E+03  0.19499124643E+03  0.86542932292E+02 0.  0.
         23    2    1    2    0    0  0.49490651287E+02 -0.12759549786E+03  0.70704374858E+03  0.72565388741E+03  0.89066078104E+02 0.  0.
        -11    1    3    3    0    0 -0.16869587189E+02  0.10220877251E+03  0.10913177934E+03  0.15046913773E+03  0.00000000000E+00 0.  1.
         11    1    3    3    0    0 -0.41153622055E+02  0.46739735621E+01  0.16332529680E+02  0.44522108697E+02  0.00000000000E+00 0. -1.
        -13    1    4    4    0    0  0.21439183031E+02  0.94288468300E+01  0.10138034562E+03  0.10405054637E+03  0.00000000000E+00 0.  1.
         13    1    4    4    0    0  0.28051468256E+02 -0.13702434469E+03  0.60566340296E+03  0.62160334104E+03  0.00000000000E+00 0. -1.
         21    1    1    2  502  501  0.85325579574E+01  0.20712751795E+02  0.75555078093E+02  0.78806043282E+02  0.00000000000E+00 0.  1.
<scales pt_clust_5="13000.00000" pt_clust_6="13000.00000" pt_clust_7="13000.00000" pt_clust_8="13000.00000" pt_clust_9="22.40140"></scales>
<clustering>
<clus scale="   22.401">  1  9  2 -1</clus>
<clus scale="   86.543">  5  6 -1 -1</clus>
<clus scale="   89.066">  7  8 -1 -1</clus>
<clus scale="  151.411">  2  5  1 -1</clus>
<clus scale="   22.401">  1  5  2 -1</clus>
</clustering>
</event>
<event>
 9    1  0.2075077E-005  0.1623122E+03  0.7546771E-02  0.1187524E+00
         -1   -1    0    0    0  501 -0.00000000000E+00  0.00000000000E+00  0.19253214096E+03  0.19253214096E+03  0.00000000000E+00 0.  1.
          1   -1    0    0  502    0  0.00000000000E+00 -0.00000000000E+00 -0.22075854306E+03  0.22075854306E+03  0.00000000000E+00 0. -1.
         23    2    1    2    0    0  0.28829625242E+02  0.12754788982E+03  0.89941419526E+02  0.17901425852E+03  0.82807211764E+02 0.  0.
         23    2    1    2    0    0 -0.60040530589E+01 -0.14576625788E+03 -0.10727579500E+03  0.20310669779E+03  0.91980345207E+02 0.  0.
        -13    1    3    3    0    0 -0.79942561019E+01  0.50724551197E+02 -0.48334424633E+01  0.51577615210E+02  0.00000000000E+00 0. -1.
         13    1    3    3    0    0  0.36823881344E+02  0.76823338621E+02  0.94774861989E+02  0.12743664331E+03  0.00000000000E+00 0.  1.
        -13    1    4    4    0    0 -0.45762898720E+02 -0.99014242772E+02 -0.83175817265E+02  0.13717244530E+03  0.00000000000E+00 0. -1.
         13    1    4    4    0    0  0.39758845661E+02 -0.46752015113E+02 -0.24099977737E+02  0.65934252497E+02  0.00000000000E+00 0.  1.
         21    1    1    2  502  501 -0.22825572183E+02  0.18218368066E+02 -0.10892026624E+02  0.31169727693E+02  0.00000000000E+00 0. -1.
<scales pt_clust_5="13000.00000" pt_clust_6="13000.00000" pt_clust_7="13000.00000" pt_clust_8="13000.00000" pt_clust_9="29.20472"></scales>
<clustering>
<clus scale="   29.205">  2  9  1 -1</clus>
<clus scale="   82.807">  5  6 -1 -1</clus>
<clus scale="   91.980">  7  8 -1 -1</clus>
<clus scale="  157.296">  1  5  2 -1</clus>
<clus scale="   29.205">  2  5  1 -1</clus>
</clustering>
</event>
<event>
 9    1  0.2075077E-005  0.1352191E+03  0.7546771E-02  0.1236949E+00
         -1   -1    0    0    0  501 -0.00000000000E+00  0.00000000000E+00  0.15323065091E+03  0.15323065091E+03  0.00000000000E+00 0.  1.
          1   -1    0    0  502    0  0.00000000000E+00 -0.00000000000E+00 -0.24575780578E+03  0.24575780578E+03  0.00000000000E+00 0. -1.
         23    2    1    2    0    0 -0.45864930990E+02 -0.79780050720E+02  0.57114414197E+02  0.14297996301E+03  0.93342193701E+02 0.  0.
         23    2    1    2    0    0 -0.17976355934E+02 -0.11484011105E+02 -0.83321956893E+02  0.12638160659E+03  0.92599838551E+02 0.  0.
        -11    1    4    4    0    0 -0.49657211974E+02 -0.77899488143E+01 -0.17473524377E+02  0.53215092387E+02  0.00000000000E+00 0.  1.
         11    1    4    4    0    0  0.31680856040E+02 -0.36940622906E+01 -0.65848432515E+02  0.73166514201E+02  0.00000000000E+00 0. -1.
        -11    1    3    3    0    0 -0.70650326294E+02 -0.39136480821E+02  0.49615009789E+02  0.94788089615E+02  0.00000000000E+00 0.  1.
         11    1    3    3    0    0  0.24785395304E+02 -0.40643569899E+02  0.74994044073E+01  0.48191873391E+02  0.00000000000E+00 0. -1.
         21    1    1    2  502  501  0.63841286924E+02  0.91264061824E+02 -0.66319612174E+02  0.12962688709E+03  0.00000000000E+00 0. -1.
<scales pt_clust_5="13000.00000" pt_clust_6="13000.00000" pt_clust_7="13000.00000" pt_clust_8="13000.00000" pt_clust_9="97.83369"></scales>
<clustering>
<clus scale="   92.600">  5  6 -1 -1</clus>
<clus scale="   93.342">  7  8 -1 -1</clus>
<clus scale="   95.025">  2  5  1 -1</clus>
<clus scale="   97.834">  2  9  1 -1</clus>
<clus scale="   95.025">  2  5  1 -1</clus>
</clustering>
</event>
<event>
 9    1  0.2075077E-005  0.1434959E+03  0.7546771E-02  0.1209981E+00
         -2   -1    0    0    0  501 -0.00000000000E+00  0.00000000000E+00  0.10273892112E+03  0.10273892112E+03  0.00000000000E+00 0.  1.
          2   -1    0    0  502    0  0.00000000000E+00 -0.00000000000E+00 -0.31778839647E+03  0.31778839647E+03  0.00000000000E+00 0. -1.
         23    2    1    2    0    0  0.72064327730E+02  0.45853367365E+02 -0.57213119356E+02  0.13439535223E+03  0.86561949166E+02 0.  0.
         23    2    1    2    0    0 -0.12008825229E+03 -0.86049188945E+02 -0.10085690332E+03  0.20146402911E+03  0.92682192590E+02 0.  0.
        -11    1    4    4    0    0  0.15211801918E+01 -0.36356832856E+02 -0.47102784466E+02  0.59521471663E+02  0.00000000000E+00 0. -1.
         11    1    4    4    0    0 -0.12160943248E+03 -0.49692356089E+02 -0.53754118858E+02  0.14194255745E+03  0.00000000000E+00 0.  1.
        -11    1    3    3    0    0  0.49546035065E+02 -0.78374327179E+01  0.34913909109E+01  0.50283444122E+02  0.00000000000E+00 0.  1.
         11    1    3    3    0    0  0.22518292665E+02  0.53690800083E+02 -0.60704510267E+02  0.84111908103E+02  0.00000000000E+00 0. -1.
         21    1    1    2  502  501  0.48023924557E+02  0.40195821580E+02 -0.56979452674E+02  0.84667936254E+02  0.00000000000E+00 0. -1.
<scales pt_clust_5="13000.00000" pt_clust_6="13000.00000" pt_clust_7="13000.00000" pt_clust_8="13000.00000" pt_clust_9="62.62588"></scales>
<clustering>
<clus scale="   62.626">  2  9  1 -1</clus>
<clus scale="   86.562">  7  8 -1 -1</clus>
<clus scale="   92.682">  5  6 -1 -1</clus>
<clus scale="  139.621">  1  7  2 -1</clus>
<clus scale="   62.626">  2  5  1 -1</clus>
</clustering>
</event>
<event>
 9    1  0.2075077E-005  0.1601287E+03  0.7546771E-02  0.1189018E+00
         -2   -1    0    0    0  501 -0.00000000000E+00  0.00000000000E+00  0.38267840428E+03  0.38267840428E+03  0.00000000000E+00 0.  1.
          2   -1    0    0  502    0  0.00000000000E+00 -0.00000000000E+00 -0.13436362799E+03  0.13436362799E+03  0.00000000000E+00 0. -1.
         23    2    1    2    0    0  0.23067731615E+02  0.12617494627E+03  0.24107589344E+03  0.28654252992E+03  0.86814732348E+02 0.  0.
         23    2    1    2    0    0  0.20702983501E+02 -0.15328515513E+03  0.76791458057E+01  0.17901132158E+03  0.89783805137E+02 0.  0.
        -13    1    3    3    0    0 -0.30961533236E+02  0.65836241286E+02  0.96865447282E+02  0.12114430273E+03  0.00000000000E+00 0. -1.
         13    1    3    3    0    0  0.54029264851E+02  0.60338704981E+02  0.14421044615E+03  0.16539822719E+03  0.00000000000E+00 0.  1.
        -13    1    4    4    0    0  0.42628281641E+02 -0.31409439652E+02 -0.10113596164E+02  0.53907403224E+02  0.00000000000E+00 0.  1.
         13    1    4    4    0    0 -0.21925298140E+02 -0.12187571548E+03  0.17792741970E+02  0.12510391836E+03  0.00000000000E+00 0. -1.
         21    1    1    2  502  501 -0.43770715116E+02  0.27110208862E+02 -0.44026295018E+00  0.51488180758E+02  0.00000000000E+00 0. -1.
<scales pt_clust_5="13000.00000" pt_clust_6="13000.00000" pt_clust_7="13000.00000" pt_clust_8="13000.00000" pt_clust_9="51.48630"></scales>
<clustering>
<clus scale="   51.486">  2  9  1 -1</clus>
<clus scale="   86.815">  5  6 -1 -1</clus>
<clus scale="   89.784">  7  8 -1 -1</clus>
<clus scale="  158.483">  1  5  2 -1</clus>
<clus scale="   51.486">  2  5  1 -1</clus>
</clustering>
</event>
<event>
 9    1  0.2075077E-005  0.9232679E+02  0.7546771E-02  0.1297796E+00
          1   -1    0    0  502    0  0.00000000000E+00  0.00000000000E+00  0.13241015621E+03  0.13241015621E+03  0.00000000000E+00 0. -1.
         -1   -1    0    0    0  501 -0.00000000000E+00 -0.00000000000E+00 -0.24803801577E+03  0.24803801577E+03  0.00000000000E+00 0.  1.
         23    2    1    2    0    0 -0.19740780271E+02 -0.31928813639E+01 -0.20065515502E+03  0.22089395973E+03  0.90176256932E+02 0.  0.
         23    2    1    2    0    0 -0.15656003173E+02 -0.13322041444E+02  0.44859898075E+02  0.10352658722E+03  0.91009651044E+02 0.  0.
        -11    1    3    3    0    0  0.21960959434E+02 -0.31237826625E+02 -0.56185162782E+02  0.67932746657E+02  0.00000000000E+00 0.  1.
         11    1    3    3    0    0 -0.41701739705E+02  0.28044945261E+02 -0.14446999224E+03  0.15296121308E+03  0.00000000000E+00 0. -1.
        -11    1    4    4    0    0 -0.31699572387E+02  0.30520984385E+02  0.33959887346E+02  0.55584776026E+02  0.00000000000E+00 0. -1.
         11    1    4    4    0    0  0.16043569215E+02 -0.43843025828E+02  0.10900010729E+02  0.47941811197E+02  0.00000000000E+00 0.  1.
         21    1    1    2  502  501  0.35396783443E+02  0.16514922808E+02  0.40167397384E+02  0.56027625026E+02  0.00000000000E+00 0. -1.
<scales pt_clust_5="13000.00000" pt_clust_6="13000.00000" pt_clust_7="13000.00000" pt_clust_8="13000.00000" pt_clust_9="39.05989"></scales>
<clustering>
<clus scale="   39.060">  1  9  2 -1</clus>
<clus scale="   90.176">  5  6 -1 -1</clus>
<clus scale="   91.010">  7  8 -1 -1</clus>
<clus scale="   91.505">  2  5  1 -1</clus>
<clus scale="   39.060">  1  5  2 -1</clus>
</clustering>
</event>
<event>
 9    1  0.2075077E-005  0.2080285E+03  0.7546771E-02  0.1145340E+00
         -1   -1    0    0    0  501 -0.00000000000E+00  0.00000000000E+00  0.34762551489E+03  0.34762551489E+03  0.00000000000E+00 0.  1.
          1   -1    0    0  502    0  0.00000000000E+00 -0.00000000000E+00 -0.24784099664E+03  0.24784099664E+03  0.00000000000E+00 0. -1.
         23    2    1    2    0    0  0.12337141132E+03 -0.91699607388E+02  0.10626314972E+03  0.21837190216E+03  0.11298277541E+03 0.  0.
         23    2    1    2    0    0 -0.20579671606E+03  0.53725655994E+02  0.86382257111E+02  0.24725202592E+03  0.91831016145E+02 0.  0.
        -13    1    3    3    0    0  0.84058912603E+02 -0.10655137001E+03  0.11199278451E+03  0.17595874238E+03  0.00000000000E+00 0.  1.
         13    1    3    3    0    0  0.39312498712E+02  0.14851762617E+02 -0.57296347840E+01  0.42413159780E+02  0.00000000000E+00 0. -1.
        -13    1    4    4    0    0 -0.91773637112E+02  0.68910604355E+02  0.58844850997E+02  0.12897204484E+03  0.00000000000E+00 0.  1.
         13    1    4    4    0    0 -0.11402307895E+03 -0.15184948360E+02  0.27537406114E+02  0.11827998108E+03  0.00000000000E+00 0. -1.
         21    1    1    2  502  501  0.82425304747E+02  0.37973951393E+02 -0.92860888586E+02  0.12984258345E+03  0.00000000000E+00 0.  1.
<scales pt_clust_5="13000.00000" pt_clust_6="13000.00000" pt_clust_7="13000.00000" pt_clust_8="13000.00000" pt_clust_9="90.75215"></scales>
<clustering>
<clus scale="   90.752">  2  9  1 -1</clus>
<clus scale="   91.831">  7  8 -1 -1</clus>
<clus scale="  112.983">  5  6 -1 -1</clus>
<clus scale="  197.342">  2  7  1 -1</clus>
<clus scale="   90.752">  2  5  1 -1</clus>
</clustering>
</event>
<event>
 9    1  0.2075077E-005  0.1284253E+03  0.7546771E-02  0.1229912E+00
          1   -1    0    0  502    0  0.00000000000E+00  0.00000000000E+00  0.65320522734E+03  0.65320522734E+03  0.00000000000E+00 0. -1.
         -1   -1    0    0    0  501 -0.00000000000E+00 -0.00000000000E+00 -0.37674537225E+02  0.37674537225E+02  0.00000000000E+00 0.  1.
         23    2    1    2    0    0 -0.16295638083E+02  0.75658826730E+02  0.18300774410E+03  0.21880151737E+03  0.91610390884E+02 0.  0.
         23    2    1    2    0    0  0.16561833072E+02 -0.10437372877E+03  0.24385313277E+03  0.28123560288E+03  0.91983391968E+02 0.  0.
        -11    1    3    3    0    0  0.25357050297E+02  0.19214192020E+02  0.12065758344E+02  0.34025691751E+02  0.00000000000E+00 0. -1.
         11    1    3    3    0    0 -0.41652688380E+02  0.56444634710E+02  0.17094198576E+03  0.18477582562E+03  0.00000000000E+00 0.  1.
        -13    1    4    4    0    0 -0.10932137606E+02 -0.10944229474E+03  0.21215186874E+03  0.23896766083E+03  0.00000000000E+00 0. -1.
         13    1    4    4    0    0  0.27493970679E+02  0.50685659772E+01  0.31701264022E+02  0.42267942052E+02  0.00000000000E+00 0.  1.
         21    1    1    2  502  501 -0.26619498941E+00  0.28714902037E+02  0.18866981325E+03  0.19084264431E+03  0.00000000000E+00 0. -1.
<scales pt_clust_5="13000.00000" pt_clust_6="13000.00000" pt_clust_7="13000.00000" pt_clust_8="13000.00000" pt_clust_9="28.71614"></scales>
<clustering>
<clus scale="   28.716">  1  9  2 -1</clus>
<clus scale="   91.610">  5  6 -1 -1</clus>
<clus scale="   91.983">  7  8 -1 -1</clus>
<clus scale="  128.158">  2  5  1 -1</clus>
<clus scale="   28.716">  1  5  2 -1</clus>
</clustering>
</event>
<event>
 9    1  0.2075077E-005  0.1650852E+03  0.7546771E-02  0.1183249E+00
          1   -1    0    0  502    0  0.00000000000E+00  0.00000000000E+00  0.72376108166E+03  0.72376108166E+03  0.00000000000E+00 0. -1.
         -1   -1    0    0    0  501 -0.00000000000E+00 -0.00000000000E+00 -0.52677058082E+02  0.52677058082E+02  0.00000000000E+00 0.  1.
         23    2    1    2    0    0 -0.53182227109E+02 -0.13147140287E+03  0.16707448745E+03  0.23755196111E+03  0.91673173921E+02 0.  0.
         23    2    1    2    0    0  0.62268802487E+02  0.11360264063E+03  0.35564419238E+03  0.38917267309E+03  0.90496487150E+02 0.  0.
        -11    1    4    4    0    0 -0.22694582888E+01  0.41709691853E+02  0.21190475442E+03  0.21598257750E+03  0.00000000000E+00 0.  1.
         11    1    4    4    0    0  0.64538260776E+02  0.71892948776E+02  0.14373943796E+03  0.17319009559E+03  0.00000000000E+00 0. -1.
        -13    1    3    3    0    0 -0.36826825416E+02 -0.47470423765E+01  0.61332748255E+02  0.71696969881E+02  0.00000000000E+00 0. -1.
         13    1    3    3    0    0 -0.16355401693E+02 -0.12672436050E+03  0.10574173920E+03  0.16585499123E+03  0.00000000000E+00 0.  1.
         21    1    1    2  502  501 -0.90865753777E+01  0.17868762244E+02  0.14836534375E+03  0.14971350554E+03  0.00000000000E+00 0.  1.
<scales pt_clust_5="13000.00000" pt_clust_6="13000.00000" pt_clust_7="13000.00000" pt_clust_8="13000.00000" pt_clust_9="20.04641"></scales>
<clustering>
<clus scale="   20.046">  1  9  2 -1</clus>
<clus scale="   90.496">  5  6 -1 -1</clus>
<clus scale="   91.673">  7  8 -1 -1</clus>
<clus scale="  164.435">  1  5  2 -1</clus>
<clus scale="   20.046">  1  5  2 -1</clus>
</clustering>
</event>
<event>
 9    1  0.2075077E-005  0.2688249E+03  0.7546771E-02  0.1102124E+00
          1   -1    0    0  502    0  0.00000000000E+00  0.00000000000E+00  0.10653698875E+03  0.10653698875E+03  0.00000000000E+00 0. -1.
         -1   -1    0    0    0  501 -0.00000000000E+00 -0.00000000000E+00 -0.11947263114E+04  0.11947263114E+04  0.00000000000E+00 0.  1.
         23    2    1    2    0    0  0.54482638789E+02 -0.24251205518E+03 -0.56394721877E+03  0.62308696861E+03  0.91763010347E+02 0.  0.
         23    2    1    2    0    0 -0.37268582593E+02  0.25464308956E+03 -0.56789901207E+03  0.62970560467E+03  0.88248571297E+02 0.  0.
        -13    1    4    4    0    0 -0.17257248318E+02  0.19685798944E+03 -0.50353338988E+03  0.54092213428E+03  0.00000000000E+00 0.  1.
         13    1    4    4    0    0 -0.20011334275E+02  0.57785100122E+02 -0.64365622185E+02  0.88783470392E+02  0.00000000000E+00 0. -1.
        -13    1    3    3    0    0 -0.96448378652E+00 -0.27842075189E+02 -0.15894545343E+03  0.16136842487E+03  0.00000000000E+00 0.  1.
         13    1    3    3    0    0  0.55447122576E+02 -0.21466997999E+03 -0.40500176533E+03  0.46171854374E+03  0.00000000000E+00 0. -1.
         21    1    1    2  502  501 -0.17214056196E+02 -0.12131034389E+02  0.43656908212E+02  0.48470726843E+02  0.00000000000E+00 0. -1.
<scales pt_clust_5="13000.00000" pt_clust_6="13000.00000" pt_clust_7="13000.00000" pt_clust_8="13000.00000" pt_clust_9="21.05910"></scales>
<clustering>
<clus scale="   21.059">  1  9  2 -1</clus>
<clus scale="   88.249">  5  6 -1 -1</clus>
<clus scale="   91.763">  7  8 -1 -1</clus>
<clus scale="  267.646">  1  5  2 -1</clus>
<clus scale="   21.059">  1  5  2 -1</clus>
</clustering>
</event>
<event>
 9    1  0.2075077E-005  0.1878720E+03  0.7546771E-02  0.1181800E+00
          2   -1    0    0  502    0  0.00000000000E+00  0.00000000000E+00  0.57652378403E+03  0.57652378403E+03  0.00000000000E+00 0. -1.
         -2   -1    0    0    0  501 -0.00000000000E+00 -0.00000000000E+00 -0.31797068490E+03  0.31797068490E+03  0.00000000000E+00 0.  1.
         23    2    1    2    0    0  0.70336431288E+02 -0.72005022320E+01 -0.24328531863E+03  0.26920018602E+03  0.91005126745E+02 0.  0.
         23    2    1    2    0    0 -0.18122942124E+03 -0.89074086004E+02  0.25560609647E+03  0.33859512420E+03  0.92379032555E+02 0.  0.
        -11    1    3    3    0    0  0.36186140464E+02  0.38271576392E+02 -0.75633306463E+02  0.92165868778E+02  0.00000000000E+00 0. -1.
         11    1    3    3    0    0  0.34150290824E+02 -0.45472078624E+02 -0.16765201217E+03  0.17703431724E+03  0.00000000000E+00 0.  1.
        -13    1    4    4    0    0 -0.15673899991E+03 -0.39691923619E+02  0.21980477998E+03  0.27286755798E+03  0.00000000000E+00 0. -1.
         13    1    4    4    0    0 -0.24490421334E+02 -0.49382162385E+02  0.35801316485E+02  0.65727566219E+02  0.00000000000E+00 0.  1.
         21    1    1    2  502  501  0.11089298995E+03  0.96274588236E+02  0.24623232129E+03  0.28669915872E+03  0.00000000000E+00 0. -1.
<scales pt_clust_5="13000.00000" pt_clust_6="13000.00000" pt_clust_7="13000.00000" pt_clust_8="13000.00000" pt_clust_9="163.59100"></scales>
<clustering>
<clus scale="   91.005">  5  6 -1 -1</clus>
<clus scale="   92.379">  7  8 -1 -1</clus>
<clus scale="  115.243">  2  5  1 -1</clus>
<clus scale="  163.591">  1  9  2 -1</clus>
<clus scale="  163.591">  1  5  2 -1</clus>
</clustering>
</event>
<event>
 9    1  0.2075077E-005  0.1483208E+03  0.7546771E-02  0.1219813E+00
          1   -1    0    0  502    0  0.00000000000E+00  0.00000000000E+00  0.10801021732E+04  0.10801021732E+04  0.00000000000E+00 0. -1.
         -1   -1    0    0    0  501 -0.00000000000E+00 -0.00000000000E+00 -0.32473767694E+02  0.32473767694E+02  0.00000000000E+00 0.  1.
         23    2    1    2    0    0  0.92235526597E+02  0.12537784175E+02  0.42874816380E+03  0.44788626547E+03  0.90069586669E+02 0.  0.
         23    2    1    2    0    0  0.35379505978E+02  0.37932225500E+02  0.31370279480E+03  0.33007632763E+03  0.88602344340E+02 0.  0.
        -13    1    4    4    0    0  0.82310315129E+00  0.55886979282E+02  0.24313226995E+03  0.24947411217E+03  0.00000000000E+00 0.  1.
         13    1    4    4    0    0  0.34556402826E+02 -0.17954753783E+02  0.70570524854E+02  0.80602215465E+02  0.00000000000E+00 0. -1.
        -13    1    3    3    0    0  0.54013173971E+02 -0.26260648235E+02  0.32708698347E+03  0.33255516740E+03  0.00000000000E+00 0. -1.
         13    1    3    3    0    0  0.38222352625E+02  0.38798432411E+02  0.10166118032E+03  0.11533109807E+03  0.00000000000E+00 0.  1.
         21    1    1    2  502  501 -0.12761503257E+03 -0.50470009675E+02  0.30517744690E+03  0.33461334778E+03  0.00000000000E+00 0.  1.
<scales pt_clust_5="13000.00000" pt_clust_6="13000.00000" pt_clust_7="13000.00000" pt_clust_8="13000.00000" pt_clust_9="117.84115"></scales>
<clustering>
<clus scale="   88.602">  5  6 -1 -1</clus>
<clus scale="   90.070">  7  8 -1 -1</clus>
<clus scale="  102.669">  1  5  2 -1</clus>
<clus scale="  117.841">  2  9  1 -1</clus>
<clus scale="  102.669">  1  5  2 -1</clus>
</clustering>
</event>
<event>
 9    1  0.2075077E-005  0.1328300E+03  0.7546771E-02  0.1223489E+00
          2   -1    0    0  502    0  0.00000000000E+00  0.00000000000E+00  0.36989311858E+03  0.36989311858E+03  0.00000000000E+00 0. -1.
         -2   -1    0    0    0  501 -0.00000000000E+00 -0.00000000000E+00 -0.11027205687E+03  0.11027205687E+03  0.00000000000E+00 0.  1.
         23    2    1    2    0    0 -0.88306389000E+02 -0.54852240949E+02 -0.19990176877E+02  0.13989827765E+03  0.91461107821E+02 0.  0.
         23    2    1    2    0    0  0.85114786356E+02 -0.44091793720E+01  0.13704741172E+03  0.18584362560E+03  0.92151464437E+02 0.  0.
        -11    1    4    4    0    0  0.42515487837E+02  0.16382297042E+01  0.36459371512E+00  0.42548600813E+02  0.00000000000E+00 0.  1.
         11    1    4    4    0    0  0.42599298519E+02 -0.60474090762E+01  0.13668281801E+03  0.14329502479E+03  0.00000000000E+00 0. -1.
        -13    1    3    3    0    0 -0.10045281815E+03 -0.21548907326E+02 -0.18696224555E+02  0.10442544179E+03  0.00000000000E+00 0.  1.
         13    1    3    3    0    0  0.12146429149E+02 -0.33303333623E+02 -0.12939523226E+01  0.35472835862E+02  0.00000000000E+00 0. -1.
         21    1    1    2  502  501  0.31916026438E+01  0.59261420321E+02  0.14256382687E+03  0.15442327220E+03  0.00000000000E+00 0. -1.
<scales pt_clust_5="13000.00000" pt_clust_6="13000.00000" pt_clust_7="13000.00000" pt_clust_8="13000.00000" pt_clust_9="59.34730"></scales>
<clustering>
<clus scale="   59.347">  1  9  2 -1</clus>
<clus scale="   91.461">  7  8 -1 -1</clus>
<clus scale="   92.151">  5  6 -1 -1</clus>
<clus scale="  132.352">  2  7  1 -1</clus>
<clus scale="   59.347">  1  5  2 -1</clus>
</clustering>
</event>
<event>
 9    1  0.2075077E-005  0.1763168E+03  0.7546771E-02  0.1171597E+00
          2   -1    0    0  502    0  0.00000000000E+00  0.00000000000E+00  0.54692923515E+03  0.54692923515E+03  0.00000000000E+00 0. -1.
         -2   -1    0    0    0  501 -0.00000000000E+00 -0.00000000000E+00 -0.87072404213E+02  0.87072404213E+02  0.00000000000E+00 0.  1.
         23    2    1    2    0    0 -0.71836696501E+02  0.12951263526E+03  0.77838550732E+02  0.19075251902E+03  0.91616864579E+02 0.  0.
         23    2    1    2    0    0  0.38199780974E+02 -0.15327425918E+03  0.32049755573E+03  0.36921631412E+03  0.93004202015E+02 0.  0.
        -13    1    4    4    0    0 -0.30691971744E+02 -0.49984140534E+02  0.11582532923E+03  0.12983034440E+03  0.00000000000E+00 0. -1.
         13    1    4    4    0    0  0.68891752718E+02 -0.10329011864E+03  0.20467222649E+03  0.23938596972E+03  0.00000000000E+00 0.  1.
        -13    1    3    3    0    0 -0.33210479033E+02 -0.38273199315E+01  0.26796654136E+02  0.42844427506E+02  0.00000000000E+00 0.  1.
         13    1    3    3    0    0 -0.38626217469E+02  0.13333995519E+03  0.51041896596E+02  0.14790809151E+03  0.00000000000E+00 0. -1.
         21    1    1    2  502  501  0.33636915528E+02  0.23761623918E+02  0.61520724483E+02  0.74032806230E+02  0.00000000000E+00 0. -1.
<scales pt_clust_5="13000.00000" pt_clust_6="13000.00000" pt_clust_7="13000.00000" pt_clust_8="13000.00000" pt_clust_9="41.18321"></scales>
<clustering>
<clus scale="   41.183">  1  9  2 -1</clus>
<clus scale="   91.617">  7  8 -1 -1</clus>
<clus scale="   93.004">  5  6 -1 -1</clus>
<clus scale="  175.589">  2  7  1 -1</clus>
<clus scale="   41.183">  1  5  2 -1</clus>
</clustering>
</event>
<event>
 9    1  0.2075077E-005  0.1611767E+03  0.7546771E-02  0.1187728E+00
         -2   -1    0    0    0  501 -0.00000000000E+00  0.00000000000E+00  0.88242785992E+02  0.88242785992E+02  0.00000000000E+00 0.  1.
          2   -1    0    0  502    0  0.00000000000E+00 -0.00000000000E+00 -0.64252172572E+03  0.64252172572E+03  0.00000000000E+00 0. -1.
         23    2    1    2    0    0  0.10683450282E+03 -0.65698737384E+02 -0.30549683996E+02  0.15845094283E+03  0.91888426938E+02 0.  0.
         23    2    1    2    0    0 -0.14379425440E+03  0.84060482289E+02 -0.44117545536E+03  0.48001889477E+03  0.89662727163E+02 0.  0.
        -11    1    4    4    0    0 -0.10353625136E+03  0.10113436086E+03 -0.35537055667E+03  0.38371362608E+03  0.00000000000E+00 0. -1.
         11    1    4    4    0    0 -0.40258003043E+02 -0.17073878567E+02 -0.85804898686E+02  0.96305268687E+02  0.00000000000E+00 0.  1.
        -13    1    3    3    0    0  0.77114038090E+02 -0.75297666435E+00 -0.39194887971E+02  0.86506537831E+02  0.00000000000E+00 0. -1.
         13    1    3    3    0    0  0.29720464733E+02 -0.64945760720E+02  0.86452039744E+01  0.71944405002E+02  0.00000000000E+00 0.  1.
         21    1    1    2  502  501  0.36959751580E+02 -0.18361744905E+02 -0.82553800372E+02  0.92294674108E+02  0.00000000000E+00 0. -1.
<scales pt_clust_5="13000.00000" pt_clust_6="13000.00000" pt_clust_7="13000.00000" pt_clust_8="13000.00000" pt_clust_9="41.26956"></scales>
<clustering>
<clus scale="   41.270">  2  9  1 -1</clus>
<clus scale="   89.663">  5  6 -1 -1</clus>
<clus scale="   91.888">  7  8 -1 -1</clus>
<clus scale="  159.918">  2  5  1 -1</clus>
<clus scale="   41.270">  2  5  1 -1</clus>
</clustering>
</event>
<event>
 9    1  0.2075077E-005  0.1749996E+03  0.7546771E-02  0.1174235E+00
         -1   -1    0    0    0  501 -0.00000000000E+00  0.00000000000E+00  0.12533127347E+03  0.12533127347E+03  0.00000000000E+00 0.  1.
          1   -1    0    0  502    0  0.00000000000E+00 -0.00000000000E+00 -0.35444233207E+03  0.35444233207E+03  0.00000000000E+00 0. -1.
         23    2    1    2    0    0  0.19748359325E+02 -0.14918388382E+03  0.13084891099E+01  0.17741919656E+03  0.93968240787E+02 0.  0.
         23    2    1    2    0    0 -0.47125076282E+02  0.13456009043E+03 -0.19298200658E+03  0.25372407430E+03  0.82502486433E+02 0.  0.
        -11    1    4    4    0    0 -0.70403186198E+02  0.10187336586E+03 -0.15579000232E+03  0.19901084423E+03  0.00000000000E+00 0. -1.
         11    1    4    4    0    0  0.23278109916E+02  0.32686724565E+02 -0.37192004256E+02  0.54713230070E+02  0.00000000000E+00 0.  1.
        -11    1    3    3    0    0  0.11764391522E+02 -0.12833180370E+03 -0.36120403887E+02  0.13383622949E+03  0.00000000000E+00 0.  1.
         11    1    3    3    0    0  0.79839678028E+01 -0.20852080120E+02  0.37428892997E+02  0.43582967065E+02  0.00000000000E+00 0. -1.
         21    1    1    2  502  501  0.27376716957E+02  0.14623793388E+02 -0.37437541137E+02  0.48630334677E+02  0.00000000000E+00 0. -1.
<scales pt_clust_5="13000.00000" pt_clust_6="13000.00000" pt_clust_7="13000.00000" pt_clust_8="13000.00000" pt_clust_9="31.03772"></scales>
<clustering>
<clus scale="   31.038">  2  9  1 -1</clus>
<clus scale="   82.502">  5  6 -1 -1</clus>
<clus scale="   93.968">  7  8 -1 -1</clus>
<clus scale="  169.120">  2  5  1 -1</clus>
<clus scale="   31.038">  2  5  1 -1</clus>
</clustering>
</event>
<event>
 9    1  0.2075077E-005  0.1001022E+03  0.7546771E-02  0.1282089E+00
         -1   -1    0    0    0  501 -0.00000000000E+00  0.00000000000E+00  0.20620455169E+03  0.20620455169E+03  0.00000000000E+00 0.  1.
          1   -1    0    0  502    0  0.00000000000E+00 -0.00000000000E+00 -0.34308597166E+03  0.34308597166E+03  0.00000000000E+00 0. -1.
         23    2    1    2    0    0 -0.33198206633E+02  0.30385212938E+01  0.14955373559E+03  0.17715287442E+03  0.88912696222E+02 0.  0.
         23    2    1    2    0    0  0.60048240631E+02  0.33388502522E+02 -0.41130078326E+02  0.12269340003E+03  0.92959151056E+02 0.  0.
        -11    1    4    4    0    0  0.74059042061E+02  0.79536732691E+01 -0.27103655887E+01  0.74534211682E+02  0.00000000000E+00 0. -1.
         11    1    4    4    0    0 -0.14010801430E+02  0.25434829253E+02 -0.38419712737E+02  0.48159188351E+02  0.00000000000E+00 0.  1.
        -11    1    3    3    0    0 -0.63445768257E+00 -0.34384622339E+02  0.10495255110E+03  0.11044339171E+03  0.00000000000E+00 0.  1.
         11    1    3    3    0    0 -0.32563748950E+02  0.37423143633E+02  0.44601184491E+02  0.66709482707E+02  0.00000000000E+00 0. -1.
         21    1    1    2  502  501 -0.26850033998E+02 -0.36427023816E+02 -0.24530507723E+03  0.24944424889E+03  0.00000000000E+00 0. -1.
<scales pt_clust_5="13000.00000" pt_clust_6="13000.00000" pt_clust_7="13000.00000" pt_clust_8="13000.00000" pt_clust_9="45.25320"></scales>
<clustering>
<clus scale="   45.253">  2  9  1 -1</clus>
<clus scale="   88.913">  7  8 -1 -1</clus>
<clus scale="   92.959">  5  6 -1 -1</clus>
<clus scale="   96.356">  1  7  2 -1</clus>
<clus scale="   45.253">  2  5  1 -1</clus>
</clustering>
</event>
<event>
 9    1  0.2075077E-005  0.9858343E+02  0.7546771E-02  0.1284066E+00
          1   -1    0    0  502    0  0.00000000000E+00  0.00000000000E+00  0.66165877092E+02  0.66165877092E+02  0.00000000000E+00 0. -1.
         -1   -1    0    0    0  501 -0.00000000000E+00 -0.00000000000E+00 -0.37811790871E+03  0.37811790871E+03  0.00000000000E+00 0.  1.
         23    2    1    2    0    0  0.38772092771E+02 -0.45111958204E+01 -0.30591558205E+03  0.32191524201E+03  0.92311719897E+02 0.  0.
         23    2    1    2    0    0 -0.12413564397E+02 -0.90176723967E+01 -0.93177850442E+01  0.92559661628E+02  0.90802284365E+02 0.  0.
        -11    1    4    4    0    0 -0.81705203472E+01  0.39965116999E+02 -0.14103551676E+02  0.43161072153E+02  0.00000000000E+00 0.  1.
         11    1    4    4    0    0 -0.42430440503E+01 -0.48982789396E+02  0.47857666319E+01  0.49398589475E+02  0.00000000000E+00 0. -1.
        -13    1    3    3    0    0  0.43738496536E+02  0.30935264560E+02 -0.10543810581E+03  0.11826766604E+03  0.00000000000E+00 0.  1.
         13    1    3    3    0    0 -0.49664037656E+01 -0.35446460381E+02 -0.20047747624E+03  0.20364757597E+03  0.00000000000E+00 0. -1.
         21    1    1    2  502  501 -0.26358528373E+02  0.13528868217E+02  0.32813354803E+01  0.29808882163E+02  0.00000000000E+00 0.  1.
<scales pt_clust_5="13000.00000" pt_clust_6="13000.00000" pt_clust_7="13000.00000" pt_clust_8="13000.00000" pt_clust_9="29.62773"></scales>
<clustering>
<clus scale="   29.628">  1  9  2 -1</clus>
<clus scale="   90.802">  5  6 -1 -1</clus>
<clus scale="   92.312">  7  8 -1 -1</clus>
<clus scale="   97.171">  1  5  2 -1</clus>
<clus scale="   29.628">  1  5  2 -1</clus>
</clustering>
</event>
<event>
 9    1  0.2075077E-005  0.1194334E+03  0.7546771E-02  0.1244350E+00
         -1   -1    0    0    0  501 -0.00000000000E+00  0.00000000000E+00  0.10072898956E+03  0.10072898956E+03  0.00000000000E+00 0.  1.
          1   -1    0    0  502    0  0.00000000000E+00 -0.00000000000E+00 -0.20917318478E+03  0.20917318478E+03  0.00000000000E+00 0. -1.
         23    2    1    2    0    0  0.73154403835E+02  0.39413105317E+02  0.22142251468E+02  0.12455819318E+03  0.90108293281E+02 0.  0.
         23    2    1    2    0    0 -0.55535805988E+02 -0.27402864729E+02 -0.11119210434E+03  0.15652035570E+03  0.91103210366E+02 0.  0.
        -13    1    4    4    0    0 -0.30862573486E+02  0.24291079873E+02 -0.84797193564E+02  0.93451158580E+02  0.00000000000E+00 0.  1.
         13    1    4    4    0    0 -0.24673232502E+02 -0.51693944603E+02 -0.26394910779E+02  0.63069197123E+02  0.00000000000E+00 0. -1.
        -13    1    3    3    0    0  0.10151727736E+02 -0.19427775083E+02 -0.19026325306E+02  0.29025800167E+02  0.00000000000E+00 0. -1.
         13    1    3    3    0    0  0.63002676099E+02  0.58840880400E+02  0.41168576774E+02  0.95532393017E+02  0.00000000000E+00 0.  1.
         21    1    1    2  502  501 -0.17618597847E+02 -0.12010240588E+02 -0.19394342342E+02  0.28823625448E+02  0.00000000000E+00 0.  1.
<scales pt_clust_5="13000.00000" pt_clust_6="13000.00000" pt_clust_7="13000.00000" pt_clust_8="13000.00000" pt_clust_9="21.32278"></scales>
<clustering>
<clus scale="   21.323">  2  9  1 -1</clus>
<clus scale="   90.108">  7  8 -1 -1</clus>
<clus scale="   91.103">  5  6 -1 -1</clus>
<clus scale="  118.676">  1  7  2 -1</clus>
<clus scale="   21.323">  2  5  1 -1</clus>
</clustering>
</event>
<event>
 9    1  0.2075077E-005  0.2239899E+03  0.7546771E-02  0.1132768E+00
         -2   -1    0    0    0  501 -0.00000000000E+00  0.00000000000E+00  0.51551894783E+03  0.51551894783E+03  0.00000000000E+00 0.  1.
          2   -1    0    0  502    0  0.00000000000E+00 -0.00000000000E+00 -0.13338195976E+03  0.13338195976E+03  0.00000000000E+00 0. -1.
         23    2    1    2    0    0 -0.36137205145E+02  0.17426149150E+03  0.23397418143E+03  0.31461126456E+03  0.11208641843E+03 0.  0.
         23    2    1    2    0    0  0.74596618313E+02 -0.20830942822E+03  0.15090383684E+03  0.28285131390E+03  0.90969359980E+02 0.  0.
        -11    1    4    4    0    0  0.14489968112E+02 -0.18647785994E+02 -0.11273913281E+02  0.26168687759E+02  0.00000000000E+00 0. -1.
         11    1    4    4    0    0  0.60106650201E+02 -0.18966164222E+03  0.16217775012E+03  0.25668262614E+03  0.00000000000E+00 0.  1.
        -13    1    3    3    0    0 -0.70008334522E+02  0.66900473101E+02  0.93668303018E+02  0.13472412996E+03  0.00000000000E+00 0. -1.
         13    1    3    3    0    0  0.33871129377E+02  0.10736101839E+03  0.14030587841E+03  0.17988713460E+03  0.00000000000E+00 0.  1.
         21    1    1    2  502  501 -0.38459413168E+02  0.34047936723E+02 -0.27410302019E+01  0.51438329122E+02  0.00000000000E+00 0.  1.
<scales pt_clust_5="13000.00000" pt_clust_6="13000.00000" pt_clust_7="13000.00000" pt_clust_8="13000.00000" pt_clust_9="51.36525"></scales>
<clustering>
<clus scale="   51.365">  2  9  1 -1</clus>
<clus scale="   90.969">  5  6 -1 -1</clus>
<clus scale="  112.086">  7  8 -1 -1</clus>
<clus scale="  214.204">  2  5  1 -1</clus>
<clus scale="   51.365">  2  5  1 -1</clus>
</clustering>
</event>
<event>
 9    1  0.2075077E-005  0.1089133E+03  0.7546771E-02  0.1265149E+00
         -2   -1    0    0    0  501 -0.00000000000E+00  0.00000000000E+00  0.61095044674E+02  0.61095044674E+02  0.00000000000E+00 0.  1.
          2   -1    0    0  502    0  0.00000000000E+00 -0.00000000000E+00 -0.24747967689E+03  0.24747967689E+03  0.00000000000E+00 0. -1.
         23    2    1    2    0    0  0.57862007106E+02  0.33266517316E+02 -0.41868075201E+02  0.12027735929E+03  0.90879229726E+02 0.  0.
         23    2    1    2    0    0 -0.48440071727E+02 -0.13896663450E+02 -0.10947170040E+03  0.14716214525E+03  0.84457598835E+02 0.  0.
        -11    1    4    4    0    0 -0.27374114408E+00  0.20285423812E+02  0.26260406083E+01  0.20456525675E+02  0.00000000000E+00 0.  1.
         11    1    4    4    0    0 -0.48166330583E+02 -0.34182087262E+02 -0.11209774101E+03  0.12670561957E+03  0.00000000000E+00 0. -1.
        -11    1    3    3    0    0  0.22431558987E+02 -0.25392319508E+02 -0.39037683354E+02  0.51690283906E+02  0.00000000000E+00 0. -1.
         11    1    3    3    0    0  0.35430448118E+02  0.58658836824E+02 -0.28303918469E+01  0.68587075382E+02  0.00000000000E+00 0.  1.
         21    1    1    2  502  501 -0.94219353785E+01 -0.19369853866E+02 -0.35044856615E+02  0.41135217032E+02  0.00000000000E+00 0. -1.
<scales pt_clust_5="13000.00000" pt_clust_6="13000.00000" pt_clust_7="13000.00000" pt_clust_8="13000.00000" pt_clust_9="21.53983"></scales>
<clustering>
<clus scale="   21.540">  2  9  1 -1</clus>
<clus scale="   84.458">  5  6 -1 -1</clus>
<clus scale="   90.879">  7  8 -1 -1</clus>
<clus scale="  103.615">  2  5  1 -1</clus>
<clus scale="   21.540">  2  5  1 -1</clus>
</clustering>
</event>
<event>
 9    1  0.2075077E-005  0.1591461E+03  0.7546771E-02  0.1193722E+00
          1   -1    0    0  502    0  0.00000000000E+00  0.00000000000E+00  0.15162377473E+03  0.15162377473E+03  0.00000000000E+00 0. -1.
         -1   -1    0    0    0  501 -0.00000000000E+00 -0.00000000000E+00 -0.25755631689E+03  0.25755631689E+03  0.00000000000E+00 0.  1.
         23    2    1    2    0    0  0.36918737902E+02 -0.11370451274E+03 -0.17329861584E+03  0.23739938549E+03  0.10970117844E+03 0.  0.
         23    2    1    2    0    0 -0.18631549457E+02  0.10074679947E+03  0.56957627780E+02  0.14706918371E+03  0.88815095552E+02 0.  0.
        -11    1    4    4    0    0 -0.43993943226E+02  0.97966544146E+02  0.33725598080E+02  0.11256254607E+03  0.00000000000E+00 0. -1.
         11    1    4    4    0    0  0.25362393768E+02  0.27802553199E+01  0.23232029700E+02  0.34506637641E+02  0.00000000000E+00 0.  1.
        -13    1    3    3    0    0 -0.35740969016E+02 -0.66178234637E+02 -0.74329188891E+02  0.10574404913E+03  0.00000000000E+00 0. -1.
         13    1    3    3    0    0  0.72659706918E+02 -0.47526278108E+02 -0.98969426945E+02  0.13165533635E+03  0.00000000000E+00 0.  1.
         21    1    1    2  502  501 -0.18287188445E+02  0.12957713279E+02  0.10408445897E+02  0.24711522426E+02  0.00000000000E+00 0.  1.
<scales pt_clust_5="13000.00000" pt_clust_6="13000.00000" pt_clust_7="13000.00000" pt_clust_8="13000.00000" pt_clust_9="22.41258"></scales>
<clustering>
<clus scale="   22.413">  1  9  2 -1</clus>
<clus scale="   88.815">  5  6 -1 -1</clus>
<clus scale="  109.701">  7  8 -1 -1</clus>
<clus scale="  145.538">  1  5  2 -1</clus>
<clus scale="   22.413">  1  5  2 -1</clus>
</clustering>
</event>
<event>
 9    1  0.2075077E-005  0.2582526E+03  0.7546771E-02  0.1108250E+00
         -2   -1    0    0    0  501 -0.00000000000E+00  0.00000000000E+00  0.51585112664E+03  0.51585112664E+03  0.00000000000E+00 0.  1.
          2   -1    0    0  502    0  0.00000000000E+00 -0.00000000000E+00 -0.29455707322E+03  0.29455707322E+03  0.00000000000E+00 0. -1.
         23    2    1    2    0    0  0.26575529697E+02  0.23809421839E+03  0.39192287346E+03  0.46857598756E+03  0.92546214237E+02 0.  0.
         23    2    1    2    0    0 -0.50369016010E+02 -0.24656134287E+03 -0.16869698704E+03  0.31650329273E+03  0.91575800832E+02 0.  0.
        -11    1    3    3    0    0  0.26722165932E+02  0.89740715693E+02  0.79942302265E+02  0.12311881212E+03  0.00000000000E+00 0. -1.
         11    1    3    3    0    0 -0.14663623490E+00  0.14835350269E+03  0.31198057120E+03  0.34545717545E+03  0.00000000000E+00 0.  1.
        -11    1    4    4    0    0 -0.15940788895E+02 -0.35451108307E+02  0.72460390874E+01  0.39539788988E+02  0.00000000000E+00 0.  1.
         11    1    4    4    0    0 -0.34428227115E+02 -0.21111023457E+03 -0.17594302613E+03  0.27696350374E+03  0.00000000000E+00 0. -1.
         21    1    1    2  502  501  0.23793486312E+02  0.84671244868E+01 -0.19318330056E+01  0.25328919573E+02  0.00000000000E+00 0.  1.
<scales pt_clust_5="13000.00000" pt_clust_6="13000.00000" pt_clust_7="13000.00000" pt_clust_8="13000.00000" pt_clust_9="25.25514"></scales>
<clustering>
<clus scale="   25.255">  2  9  1 -1</clus>
<clus scale="   91.576">  7  8 -1 -1</clus>
<clus scale="   92.546">  5  6 -1 -1</clus>
<clus scale="  257.906">  2  7  1 -1</clus>
<clus scale="   25.255">  2  5  1 -1</clus>
</clustering>
</event>
<event>
 9    1  0.2075077E-005  0.9305354E+02  0.7546771E-02  0.1295788E+00
         -1   -1    0    0    0  501 -0.00000000000E+00  0.00000000000E+00  0.31617082415E+03  0.31617082415E+03  0.00000000000E+00 0.  1.
          1   -1    0    0  502    0  0.00000000000E+00 -0.00000000000E+00 -0.13800176539E+03  0.13800176539E+03  0.00000000000E+00 0. -1.
         23    2    1    2    0    0 -0.43521929261E+01  0.85858100349E+01  0.20491584852E+03  0.22461454728E+03  0.91479681669E+02 0.  0.
         23    2    1    2    0    0  0.42210438062E+02 -0.83096835133E+01  0.71939645823E+02  0.12385877292E+03  0.91186134181E+02 0.  0.
        -13    1    4    4    0    0  0.20166361546E+02 -0.20809781277E+02  0.88808152310E+02  0.93416363939E+02  0.00000000000E+00 0.  1.
         13    1    4    4    0    0  0.22044076516E+02  0.12500097764E+02 -0.16868506487E+02  0.30442408982E+02  0.00000000000E+00 0. -1.
        -13    1    3    3    0    0  0.38405102808E+02 -0.15879230696E+00  0.14794566244E+03  0.15284925964E+03  0.00000000000E+00 0.  1.
         13    1    3    3    0    0 -0.42757295734E+02  0.87446023419E+01  0.56970186079E+02  0.71765287643E+02  0.00000000000E+00 0. -1.
         21    1    1    2  502  501 -0.37858245136E+02 -0.27612652163E+00 -0.98686435586E+02  0.10569926934E+03  0.00000000000E+00 0. -1.
<scales pt_clust_5="13000.00000" pt_clust_6="13000.00000" pt_clust_7="13000.00000" pt_clust_8="13000.00000" pt_clust_9="37.85925"></scales>
<clustering>
<clus scale="   37.859">  2  9  1 -1</clus>
<clus scale="   91.186">  5  6 -1 -1</clus>
<clus scale="   91.480">  7  8 -1 -1</clus>
<clus scale="   92.765">  2  5  1 -1</clus>
<clus scale="   37.859">  2  5  1 -1</clus>
</clustering>
</event>
<event>
 9    1  0.2075077E-005  0.9764925E+02  0.7546771E-02  0.1288882E+00
          1   -1    0    0  502    0  0.00000000000E+00  0.00000000000E+00  0.38316163083E+03  0.38316163083E+03  0.00000000000E+00 0. -1.
         -1   -1    0    0    0  501 -0.00000000000E+00 -0.00000000000E+00 -0.11348997268E+03  0.11348997268E+03  0.00000000000E+00 0.  1.
         23    2    1    2    0    0  0.15794097635E+02  0.29521555334E+02 -0.71808549039E+02  0.12083014555E+03  0.91227630730E+02 0.  0.
         23    2    1    2    0    0  0.14111959876E+02 -0.54633046570E+02  0.15499851122E+03  0.18529486612E+03  0.84414049427E+02 0.  0.
        -11    1    3    3    0    0 -0.20117445650E+02 -0.38622755634E+01 -0.68712116101E+02  0.71700653352E+02  0.00000000000E+00 0.  1.
         11    1    3    3    0    0  0.35911543286E+02  0.33383830898E+02 -0.30964329385E+01  0.49129492197E+02  0.00000000000E+00 0. -1.
        -13    1    4    4    0    0  0.21276250174E+02 -0.75442611836E+02  0.10851762940E+03  0.13386688311E+03  0.00000000000E+00 0.  1.
         13    1    4    4    0    0 -0.71642902981E+01  0.20809565266E+02  0.46480881820E+02  0.51427983013E+02  0.00000000000E+00 0. -1.
         21    1    1    2  502  501 -0.29906057512E+02  0.25111491236E+02  0.18648169597E+03  0.19052659184E+03  0.00000000000E+00 0. -1.
<scales pt_clust_5="13000.00000" pt_clust_6="13000.00000" pt_clust_7="13000.00000" pt_clust_8="13000.00000" pt_clust_9="39.05073"></scales>
<clustering>
<clus scale="   39.051">  1  9  2 -1</clus>
<clus scale="   84.414">  7  8 -1 -1</clus>
<clus scale="   91.228">  5  6 -1 -1</clus>
<clus scale="   91.316">  1  7  2 -1</clus>
<clus scale="   39.051">  1  5  2 -1</clus>
</clustering>
</event>
<event>
 9    1  0.2075077E-005  0.1070660E+03  0.7546771E-02  0.1266625E+00
          1   -1    0    0  502    0  0.00000000000E+00  0.00000000000E+00  0.49439258996E+02  0.49439258996E+02  0.00000000000E+00 0. -1.
         -1   -1    0    0    0  501 -0.00000000000E+00 -0.00000000000E+00 -0.33953197222E+03  0.33953197222E+03  0.00000000000E+00 0.  1.
         23    2    1    2    0    0 -0.60121885372E+02 -0.29045424302E+02 -0.17099971962E+03  0.20570961589E+03  0.92829220527E+02 0.  0.
         23    2    1    2    0    0  0.27615025117E+02  0.29322923220E+02 -0.11164634394E+03  0.14991156944E+03  0.91575919868E+02 0.  0.
        -13    1    3    3    0    0 -0.78482909790E+02 -0.10207122127E+02 -0.15721134171E+03  0.17600897259E+03  0.00000000000E+00 0.  1.
         13    1    3    3    0    0  0.18361024419E+02 -0.18838302175E+02 -0.13788377912E+02  0.29700643292E+02  0.00000000000E+00 0. -1.
        -13    1    4    4    0    0  0.47098083503E+02  0.48353940161E+02 -0.55047896490E+02  0.87101113120E+02  0.00000000000E+00 0. -1.
         13    1    4    4    0    0 -0.19483058385E+02 -0.19031016942E+02 -0.56598447451E+02  0.62810456325E+02  0.00000000000E+00 0.  1.
         21    1    1    2  502  501  0.32506860254E+02 -0.27749891741E+00 -0.74466496578E+01  0.33350045883E+02  0.00000000000E+00 0. -1.
<scales pt_clust_5="13000.00000" pt_clust_6="13000.00000" pt_clust_7="13000.00000" pt_clust_8="13000.00000" pt_clust_9="32.50804"></scales>
<clustering>
<clus scale="   32.508">  1  9  2 -1</clus>
<clus scale="   91.576">  7  8 -1 -1</clus>
<clus scale="   92.829">  5  6 -1 -1</clus>
<clus scale="  105.981">  1  7  2 -1</clus>
<clus scale="   32.508">  1  5  2 -1</clus>
</clustering>
</event>
<event>
 9    1  0.2075077E-005  0.1142880E+03  0.7546771E-02  0.1253270E+00
          2   -1    0    0  502    0  0.00000000000E+00  0.00000000000E+00  0.92802949005E+03  0.92802949005E+03  0.00000000000E+00 0. -1.
         -2   -1    0    0    0  501 -0.00000000000E+00 -0.00000000000E+00 -0.27094076630E+02  0.27094076630E+02  0.00000000000E+00 0.  1.
         23    2    1    2    0    0  0.58972884575E+02 -0.46560078803E+02  0.22139456839E+03  0.25083526711E+03  0.90868774930E+02 0.  0.
         23    2    1    2    0    0 -0.71169703283E+02 -0.68846050657E+00  0.29095557156E+03  0.31265109295E+03  0.89610047763E+02 0.  0.
        -11    1    4    4    0    0 -0.52417141367E+02 -0.41264679946E+02  0.20775894321E+03  0.21820657416E+03  0.00000000000E+00 0. -1.
         11    1    4    4    0    0 -0.18752561916E+02  0.40576219440E+02  0.83196628343E+02  0.94444518793E+02  0.00000000000E+00 0.  1.
        -13    1    3    3    0    0  0.42737531439E+01 -0.57077039668E+02  0.14811205354E+03  0.15878675583E+03  0.00000000000E+00 0. -1.
         13    1    3    3    0    0  0.54699131431E+02  0.10516960865E+02  0.73282514859E+02  0.92048511281E+02  0.00000000000E+00 0.  1.
         21    1    1    2  502  501  0.12196818708E+02  0.47248539310E+02  0.38858527347E+03  0.39163720662E+03  0.00000000000E+00 0.  1.
<scales pt_clust_5="13000.00000" pt_clust_6="13000.00000" pt_clust_7="13000.00000" pt_clust_8="13000.00000" pt_clust_9="48.79741"></scales>
<clustering>
<clus scale="   48.797">  1  9  2 -1</clus>
<clus scale="   89.610">  5  6 -1 -1</clus>
<clus scale="   90.869">  7  8 -1 -1</clus>
<clus scale="  113.290">  1  5  2 -1</clus>
<clus scale="   48.797">  1  5  2 -1</clus>
</clustering>
</event>
<event>
 9    1  0.2075077E-005  0.1092204E+03  0.7546771E-02  0.1262228E+00
         -4   -1    0    0    0  501 -0.00000000000E+00  0.00000000000E+00  0.26489143114E+03  0.26489143114E+03  0.00000000000E+00 0.  1.
          4   -1    0    0  502    0  0.00000000000E+00 -0.00000000000E+00 -0.82839019861E+02  0.82839019861E+02  0.00000000000E+00 0. -1.
         23    2    1    2    0    0  0.57990075196E+02 -0.24604047572E+02  0.19078705527E+03  0.22059816530E+03  0.91080415558E+02 0.  0.
         23    2    1    2    0    0 -0.36837054431E+02  0.32123892903E+02 -0.26271421247E+01  0.10386643217E+03  0.91610156540E+02 0.  0.
        -11    1    4    4    0    0 -0.25839288741E+02 -0.11532689181E+02  0.35130175497E+02  0.45108768469E+02  0.00000000000E+00 0.  1.
         11    1    4    4    0    0 -0.10997765690E+02  0.43656582083E+02 -0.37757317622E+02  0.58757663699E+02  0.00000000000E+00 0. -1.
        -13    1    3    3    0    0  0.53394970293E+02 -0.48151651538E+02  0.18087103955E+03  0.19463796482E+03  0.00000000000E+00 0.  1.
         13    1    3    3    0    0  0.45951049031E+01  0.23547603966E+02  0.99160157153E+01  0.25960200486E+02  0.00000000000E+00 0. -1.
         21    1    1    2  502  501 -0.21153020765E+02 -0.75198453309E+01 -0.61075018679E+01  0.23265853527E+02  0.00000000000E+00 0.  1.
<scales pt_clust_5="13000.00000" pt_clust_6="13000.00000" pt_clust_7="13000.00000" pt_clust_8="13000.00000" pt_clust_9="22.44991"></scales>
<clustering>
<clus scale="   22.450">  2  9  1 -1</clus>
<clus scale="   91.080">  7  8 -1 -1</clus>
<clus scale="   91.610">  5  6 -1 -1</clus>
<clus scale="  108.776">  1  7  2 -1</clus>
<clus scale="   22.450">  2  5  1 -1</clus>
</clustering>
</event>
<event>
 9    1  0.2075077E-005  0.1070756E+03  0.7546771E-02  0.1271978E+00
         -2   -1    0    0    0  501 -0.00000000000E+00  0.00000000000E+00  0.46213401955E+02  0.46213401955E+02  0.00000000000E+00 0.  1.
          2   -1    0    0  502    0  0.00000000000E+00 -0.00000000000E+00 -0.39117970826E+03  0.39117970826E+03  0.00000000000E+00 0. -1.
         23    2    1    2    0    0 -0.15833276803E+01 -0.36752574127E+02 -0.69769131226E+02  0.12906272819E+03  0.10215770899E+03 0.  0.
         23    2    1    2    0    0  0.24169043253E+02  0.20528963090E+02 -0.13441722383E+03  0.16483015632E+03  0.89974493010E+02 0.  0.
        -11    1    4    4    0    0 -0.11157299852E+02 -0.29951320591E+02 -0.61962117782E+02  0.69719946824E+02  0.00000000000E+00 0. -1.
         11    1    4    4    0    0  0.35326343105E+02  0.50480283681E+02 -0.72455106046E+02  0.95110209493E+02  0.00000000000E+00 0.  1.
        -13    1    3    3    0    0 -0.48392762065E+02 -0.87293171152E+01 -0.52277953133E+02  0.71770779439E+02  0.00000000000E+00 0.  1.
         13    1    3    3    0    0  0.46809434384E+02 -0.28023257012E+02 -0.17491178093E+02  0.57291948754E+02  0.00000000000E+00 0. -1.
         21    1    1    2  502  501 -0.22585715573E+02  0.16223611037E+02 -0.14077995126E+03  0.14350022571E+03  0.00000000000E+00 0. -1.
<scales pt_clust_5="13000.00000" pt_clust_6="13000.00000" pt_clust_7="13000.00000" pt_clust_8="13000.00000" pt_clust_9="27.80863"></scales>
<clustering>
<clus scale="   27.809">  2  9  1 -1</clus>
<clus scale="   89.974">  5  6 -1 -1</clus>
<clus scale="   95.522">  2  5  1 -1</clus>
<clus scale="  102.158">  7  8 -1 -1</clus>
<clus scale="   27.809">  2  5  1 -1</clus>
</clustering>
</event>
<event>
 9    1  0.2075077E-005  0.1177184E+03  0.7546771E-02  0.1247965E+00
          2   -1    0    0  502    0  0.00000000000E+00  0.00000000000E+00  0.47340171238E+03  0.47340171238E+03  0.00000000000E+00 0. -1.
         -2   -1    0    0    0  501 -0.00000000000E+00 -0.00000000000E+00 -0.37258637844E+02  0.37258637844E+02  0.00000000000E+00 0.  1.
         23    2    1    2    0    0  0.65478816475E+02  0.18118328671E+02  0.17196483139E+03  0.20756169911E+03  0.94309100622E+02 0.  0.
         23    2    1    2    0    0 -0.75541419818E+02  0.85112184871E+01  0.19518970474E+03  0.22846751017E+03  0.91210939136E+02 0.  0.
        -11    1    3    3    0    0  0.48155958502E+02 -0.35382446811E+02  0.81921457928E+02  0.10140039029E+03  0.00000000000E+00 0. -1.
         11    1    3    3    0    0  0.17322857973E+02  0.53500775482E+02  0.90043373462E+02  0.10616130882E+03  0.00000000000E+00 0.  1.
        -11    1    4    4    0    0 -0.48904361598E+02  0.44106588363E+02  0.72371367439E+02  0.97850102429E+02  0.00000000000E+00 0.  1.
         11    1    4    4    0    0 -0.26637058220E+02 -0.35595369876E+02  0.12281833730E+03  0.13061740774E+03  0.00000000000E+00 0. -1.
         21    1    1    2  502  501  0.10062603343E+02 -0.26629547158E+02  0.68988538405E+02  0.74631140947E+02  0.00000000000E+00 0. -1.
<scales pt_clust_5="13000.00000" pt_clust_6="13000.00000" pt_clust_7="13000.00000" pt_clust_8="13000.00000" pt_clust_9="28.46733"></scales>
<clustering>
<clus scale="   28.467">  1  9  2 -1</clus>
<clus scale="   91.211">  7  8 -1 -1</clus>
<clus scale="   94.309">  5  6 -1 -1</clus>
<clus scale="  115.251">  1  7  2 -1</clus>
<clus scale="   28.467">  1  5  2 -1</clus>
</clustering>
</event>
<event>
 9    1  0.2075077E-005  0.2546381E+03  0.7546771E-02  0.1110442E+00
          3   -1    0    0  502    0  0.00000000000E+00  0.00000000000E+00  0.10653563495E+03  0.10653563495E+03  0.00000000000E+00 0. -1.
         -3   -1    0    0    0  501 -0.00000000000E+00 -0.00000000000E+00 -0.80077055710E+03  0.80077055710E+03  0.00000000000E+00 0.  1.
         23    2    1    2    0    0 -0.17260575165E+03 -0.20732232567E+03 -0.30744496036E+03  0.41933676750E+03  0.92442569784E+02 0.  0.
         23    2    1    2    0    0  0.15252858895E+03  0.14408750948E+03 -0.27409091132E+03  0.35719171078E+03  0.91836320415E+02 0.  0.
        -11    1    3    3    0    0 -0.13100140024E+03 -0.16140662634E+03 -0.28641818684E+03  0.35390513367E+03  0.00000000000E+00 0.  1.
         11    1    3    3    0    0 -0.41604351408E+02 -0.45915699330E+02 -0.21026773527E+02  0.65431633832E+02  0.00000000000E+00 0. -1.
        -13    1    4    4    0    0  0.21217026587E+02 -0.12458117738E+02 -0.26113909391E+02  0.35879007490E+02  0.00000000000E+00 0.  1.
         13    1    4    4    0    0  0.13131156236E+03  0.15654562721E+03 -0.24797700193E+03  0.32131270329E+03  0.00000000000E+00 0. -1.
         21    1    1    2  502  501  0.20077162695E+02  0.63234816189E+02 -0.11269905047E+03  0.13077771377E+03  0.00000000000E+00 0. -1.
<scales pt_clust_5="13000.00000" pt_clust_6="13000.00000" pt_clust_7="13000.00000" pt_clust_8="13000.00000" pt_clust_9="66.34557"></scales>
<clustering>
<clus scale="   66.346">  2  9  1 -1</clus>
<clus scale="   91.836">  7  8 -1 -1</clus>
<clus scale="   92.443">  5  6 -1 -1</clus>
<clus scale="  254.419">  1  7  2 -1</clus>
<clus scale="  254.419">  1  5  2 -1</clus>
</clustering>
</event>
<event>
 9    1  0.2075077E-005  0.1016521E+03  0.7546771E-02  0.1280318E+00
          2   -1    0    0  502    0  0.00000000000E+00  0.00000000000E+00  0.47830112611E+03  0.47830112611E+03  0.00000000000E+00 0. -1.
         -2   -1    0    0    0  501 -0.00000000000E+00 -0.00000000000E+00 -0.28368961474E+02  0.28368961474E+02  0.00000000000E+00 0.  1.
         23    2    1    2    0    0 -0.60583953072E+01 -0.33852141632E+02  0.14026540964E+03  0.17070824217E+03  0.91017839778E+02 0.  0.
         23    2    1    2    0    0  0.17235379899E+02  0.14480222068E+02  0.19683004790E+03  0.22093002929E+03  0.97781771991E+02 0.  0.
        -11    1    3    3    0    0 -0.61621360362E+01 -0.65305141532E+02  0.10040168302E+03  0.11993011041E+03  0.00000000000E+00 0. -1.
         11    1    3    3    0    0  0.10374072904E+00  0.31452999900E+02  0.39863726621E+02  0.50778131759E+02  0.00000000000E+00 0.  1.
        -11    1    4    4    0    0 -0.37506554825E+02  0.19052825043E+02  0.11424180151E+03  0.12174128720E+03  0.00000000000E+00 0. -1.
         11    1    4    4    0    0  0.54741934724E+02 -0.45726029750E+01  0.82588246394E+02  0.99188742092E+02  0.00000000000E+00 0.  1.
         21    1    1    2  502  501 -0.11176984592E+02  0.19371919563E+02  0.11283670709E+03  0.11503181612E+03  0.00000000000E+00 0. -1.
<scales pt_clust_5="13000.00000" pt_clust_6="13000.00000" pt_clust_7="13000.00000" pt_clust_8="13000.00000" pt_clust_9="22.36507"></scales>
<clustering>
<clus scale="   22.365">  1  9  2 -1</clus>
<clus scale="   91.018">  5  6 -1 -1</clus>
<clus scale="   95.164">  2  5  1 -1</clus>
<clus scale="   97.782">  7  8 -1 -1</clus>
<clus scale="   22.365">  1  5  2 -1</clus>
</clustering>
</event>
<event>
 9    1  0.2075077E-005  0.1432160E+03  0.7546771E-02  0.1209236E+00
         -1   -1    0    0    0  501 -0.00000000000E+00  0.00000000000E+00  0.11368229677E+03  0.11368229677E+03  0.00000000000E+00 0.  1.
          1   -1    0    0  502    0  0.00000000000E+00 -0.00000000000E+00 -0.49796491614E+03  0.49796491614E+03  0.00000000000E+00 0. -1.
         23    2    1    2    0    0 -0.65153081232E+02 -0.49160498753E+02 -0.55541304200E+02  0.13459865313E+03  0.91489247020E+02 0.  0.
         23    2    1    2    0    0  0.12440103930E+03  0.65146876061E+02 -0.27234403762E+02  0.16935991452E+03  0.90671571389E+02 0.  0.
        -11    1    3    3    0    0 -0.40209928726E+02 -0.70545020634E+02 -0.60648059605E+02  0.10134902781E+03  0.00000000000E+00 0. -1.
         11    1    3    3    0    0 -0.24943152506E+02  0.21384521881E+02  0.51067554055E+01  0.33249625318E+02  0.00000000000E+00 0.  1.
        -13    1    4    4    0    0  0.56771356753E+02  0.78483255516E+02 -0.52462128681E+01  0.97005830203E+02  0.00000000000E+00 0.  1.
         13    1    4    4    0    0  0.67629682547E+02 -0.13336379455E+02 -0.21988190894E+02  0.72354084316E+02  0.00000000000E+00 0. -1.
         21    1    1    2  502  501 -0.59247958068E+02 -0.15986377308E+02 -0.30150691141E+03  0.30768864526E+03  0.00000000000E+00 0. -1.
<scales pt_clust_5="13000.00000" pt_clust_6="13000.00000" pt_clust_7="13000.00000" pt_clust_8="13000.00000" pt_clust_9="61.36681"></scales>
<clustering>
<clus scale="   61.367">  2  9  1 -1</clus>
<clus scale="   90.672">  7  8 -1 -1</clus>
<clus scale="   91.489">  5  6 -1 -1</clus>
<clus scale="  142.695">  2  7  1 -1</clus>
<clus scale="   61.367">  2  5  1 -1</clus>
</clustering>
</event>
<event>
 9    1  0.2075077E-005  0.9584741E+02  0.7546771E-02  0.1290419E+00
         -1   -1    0    0    0  501 -0.00000000000E+00  0.00000000000E+00  0.21602675265E+03  0.21602675265E+03  0.00000000000E+00 0.  1.
          1   -1    0    0  502    0  0.00000000000E+00 -0.00000000000E+00 -0.48737361300E+03  0.48737361300E+03  0.00000000000E+00 0. -1.
         23    2    1    2    0    0  0.59414476077E+01 -0.23420390310E+02  0.19366207955E+03  0.21523164729E+03  0.90751558975E+02 0.  0.
         23    2    1    2    0    0 -0.36366754530E+02  0.59464643104E+01 -0.23282206202E+03  0.25334584117E+03  0.92844501197E+02 0.  0.
        -11    1    3    3    0    0  0.46917298251E+02 -0.69584692424E+00  0.91127094899E+02  0.10249811951E+03  0.00000000000E+00 0.  1.
         11    1    3    3    0    0 -0.40975850643E+02 -0.22724543386E+02  0.10253498465E+03  0.11273352778E+03  0.00000000000E+00 0. -1.
        -13    1    4    4    0    0 -0.47287760635E+02 -0.31216926320E+02 -0.99411502488E+02  0.11442585207E+03  0.00000000000E+00 0.  1.
         13    1    4    4    0    0  0.10921006105E+02  0.37163390631E+02 -0.13341055953E+03  0.13891998910E+03  0.00000000000E+00 0. -1.
         21    1    1    2  502  501  0.30425306922E+02  0.17473926000E+02 -0.23218687787E+03  0.23482287718E+03  0.00000000000E+00 0. -1.
<scales pt_clust_5="13000.00000" pt_clust_6="13000.00000" pt_clust_7="13000.00000" pt_clust_8="13000.00000" pt_clust_9="35.08614"></scales>
<clustering>
<clus scale="   35.086">  2  9  1 -1</clus>
<clus scale="   90.752">  5  6 -1 -1</clus>
<clus scale="   92.845">  7  8 -1 -1</clus>
<clus scale="   93.821">  1  5  2 -1</clus>
<clus scale="   35.086">  2  5  1 -1</clus>
</clustering>
</event>
<event>
 9    1  0.2075077E-005  0.2451423E+03  0.7546771E-02  0.1116569E+00
          1   -1    0    0  502    0  0.00000000000E+00  0.00000000000E+00  0.15849698670E+03  0.15849698670E+03  0.00000000000E+00 0. -1.
         -1   -1    0    0    0  501 -0.00000000000E+00 -0.00000000000E+00 -0.71588367911E+03  0.71588367911E+03  0.00000000000E+00 0.  1.
         23    2    1    2    0    0  0.21432710132E+03 -0.98030225204E+02 -0.53704934950E+03  0.59347244877E+03  0.90782774995E+02 0.  0.
         23    2    1    2    0    0 -0.16030164081E+03  0.12146142639E+03 -0.33598710791E+01  0.21962195331E+03  0.88164729305E+02 0.  0.
        -11    1    3    3    0    0  0.21516046580E+03 -0.73833286426E+02 -0.46924397753E+03  0.52147415149E+03  0.00000000000E+00 0. -1.
         11    1    3    3    0    0 -0.83336448062E+00 -0.24196938777E+02 -0.67805371971E+02  0.71998297276E+02  0.00000000000E+00 0.  1.
        -13    1    4    4    0    0 -0.31854904761E+02  0.77115254101E+02  0.40473420548E+01  0.83533695897E+02  0.00000000000E+00 0.  1.
         13    1    4    4    0    0 -0.12844673605E+03  0.44346172289E+02 -0.74072131338E+01  0.13608825741E+03  0.00000000000E+00 0. -1.
         21    1    1    2  502  501 -0.54025460504E+02 -0.23431201187E+02 -0.16977471835E+02  0.61286263727E+02  0.00000000000E+00 0.  1.
<scales pt_clust_5="13000.00000" pt_clust_6="13000.00000" pt_clust_7="13000.00000" pt_clust_8="13000.00000" pt_clust_9="58.88779"></scales>
<clustering>
<clus scale="   58.888">  1  9  2 -1</clus>
<clus scale="   88.165">  7  8 -1 -1</clus>
<clus scale="   90.783">  5  6 -1 -1</clus>
<clus scale="  244.185">  1  7  2 -1</clus>
<clus scale="   58.888">  1  5  2 -1</clus>
</clustering>
</event>
<event>
 9    1  0.2075077E-005  0.3194449E+03  0.7546771E-02  0.1075926E+00
         -2   -1    0    0    0  501 -0.00000000000E+00  0.00000000000E+00  0.10643941374E+04  0.10643941374E+04  0.00000000000E+00 0.  1.
          2   -1    0    0  502    0  0.00000000000E+00 -0.00000000000E+00 -0.20221042609E+03  0.20221042609E+03  0.00000000000E+00 0. -1.
         23    2    1    2    0    0  0.96438919155E+02  0.29812539445E+03  0.87452807277E+03  0.93350678323E+03  0.91958405488E+02 0.  0.
         23    2    1    2    0    0 -0.98555511114E+02 -0.24878919581E+03 -0.15691511237E+02  0.28360289296E+03  0.92601968917E+02 0.  0.
        -11    1    4    4    0    0  0.53824140767E+01 -0.35623334095E+02  0.23803653729E+02  0.43181086650E+02  0.00000000000E+00 0.  1.
         11    1    4    4    0    0 -0.10393792519E+03 -0.21316586172E+03 -0.39495164967E+02  0.24042180631E+03  0.00000000000E+00 0. -1.
        -13    1    3    3    0    0 -0.10625405189E+02  0.81978594604E+02  0.17456610717E+03  0.19314946281E+03  0.00000000000E+00 0.  1.
         13    1    3    3    0    0  0.10706432434E+03  0.21614679984E+03  0.69996196559E+03  0.74035732043E+03  0.00000000000E+00 0. -1.
         21    1    1    2  502  501  0.21165919589E+01 -0.49336198633E+02  0.33471497769E+01  0.49494887298E+02  0.00000000000E+00 0. -1.
<scales pt_clust_5="13000.00000" pt_clust_6="13000.00000" pt_clust_7="13000.00000" pt_clust_8="13000.00000" pt_clust_9="49.38158"></scales>
<clustering>
<clus scale="   49.382">  2  9  1 -1</clus>
<clus scale="   91.958">  7  8 -1 -1</clus>
<clus scale="   92.602">  5  6 -1 -1</clus>
<clus scale="  319.259">  1  7  2 -1</clus>
<clus scale="   49.382">  2  5  1 -1</clus>
</clustering>
</event>
<event>
 9    1  0.2075077E-005  0.9245097E+02  0.7546771E-02  0.1297105E+00
         -1   -1    0    0    0  501 -0.00000000000E+00  0.00000000000E+00  0.46659231630E+02  0.46659231630E+02  0.00000000000E+00 0.  1.
          1   -1    0    0  502    0  0.00000000000E+00 -0.00000000000E+00 -0.28715340431E+03  0.28715340431E+03  0.00000000000E+00 0. -1.
         23    2    1    2    0    0  0.15090222126E+01 -0.11784783358E+02 -0.41161921830E+02  0.10011685302E+03  0.90487138219E+02 0.  0.
         23    2    1    2    0    0 -0.10240888057E+02  0.30071844339E+02 -0.13106824301E+03  0.16248737859E+03  0.90631519163E+02 0.  0.
        -11    1    3    3    0    0 -0.40984669020E+02 -0.62695754621E+01 -0.39452872745E+02  0.57232681564E+02  0.00000000000E+00 0. -1.
         11    1    3    3    0    0  0.42493691233E+02 -0.55152078955E+01 -0.17090490851E+01  0.42884171456E+02  0.00000000000E+00 0.  1.
        -13    1    4    4    0    0  0.18028609487E+02 -0.26225711165E+02 -0.32340958203E+02  0.45373519410E+02  0.00000000000E+00 0.  1.
         13    1    4    4    0    0 -0.28269497544E+02  0.56297555504E+02 -0.98727284809E+02  0.11711385918E+03  0.00000000000E+00 0. -1.
         21    1    1    2  502  501  0.87318658445E+01 -0.18287060982E+02 -0.68264007839E+02  0.71208404326E+02  0.00000000000E+00 0. -1.
<scales pt_clust_5="13000.00000" pt_clust_6="13000.00000" pt_clust_7="13000.00000" pt_clust_8="13000.00000" pt_clust_9="20.26480"></scales>
<clustering>
<clus scale="   20.265">  2  9  1 -1</clus>
<clus scale="   90.487">  5  6 -1 -1</clus>
<clus scale="   90.632">  7  8 -1 -1</clus>
<clus scale="   92.309">  1  5  2 -1</clus>
<clus scale="   20.265">  2  5  1 -1</clus>
</clustering>
</event>
<event>
 9    1  0.2075077E-005  0.1246443E+03  0.7546771E-02  0.1236025E+00
          3   -1    0    0  502    0  0.00000000000E+00  0.00000000000E+00  0.54063528236E+03  0.54063528236E+03  0.00000000000E+00 0. -1.
         -3   -1    0    0    0  501 -0.00000000000E+00 -0.00000000000E+00 -0.36421148908E+02  0.36421148908E+02  0.00000000000E+00 0.  1.
         23    2    1    2    0    0  0.33267781559E+02 -0.56623351916E+02  0.13824645848E+03  0.18009592195E+03  0.94918431022E+02 0.  0.
         23    2    1    2    0    0 -0.50892690923E+02  0.71071663838E+02  0.32573809839E+03  0.35072405206E+03  0.96233074174E+02 0.  0.
        -11    1    3    3    0    0 -0.23119999869E+02 -0.20635857383E+02  0.96241737449E+02  0.10110808588E+03  0.00000000000E+00 0. -1.
         11    1    3    3    0    0  0.56387781428E+02 -0.35987494533E+02  0.42004721032E+02  0.78987836064E+02  0.00000000000E+00 0.  1.
        -13    1    4    4    0    0 -0.62459774338E+02  0.43999466805E+02  0.30572269653E+03  0.31512464782E+03  0.00000000000E+00 0. -1.
         13    1    4    4    0    0  0.11567083415E+02  0.27072197033E+02  0.20015401853E+02  0.35599404241E+02  0.00000000000E+00 0.  1.
         21    1    1    2  502  501  0.17624909364E+02 -0.14448311922E+02  0.40229576582E+02  0.46236457255E+02  0.00000000000E+00 0.  1.
<scales pt_clust_5="13000.00000" pt_clust_6="13000.00000" pt_clust_7="13000.00000" pt_clust_8="13000.00000" pt_clust_9="22.79015"></scales>
<clustering>
<clus scale="   22.790">  2  9  1 -1</clus>
<clus scale="   94.918">  5  6 -1 -1</clus>
<clus scale="   96.233">  7  8 -1 -1</clus>
<clus scale="  123.632">  2  5  1 -1</clus>
<clus scale="  124.644">  1  5  2 -1</clus>
</clustering>
</event>
<event>
 9    1  0.2075077E-005  0.1031579E+03  0.7546771E-02  0.1274105E+00
         -1   -1    0    0    0  501 -0.00000000000E+00  0.00000000000E+00  0.54866144239E+02  0.54866144239E+02  0.00000000000E+00 0.  1.
          1   -1    0    0  502    0  0.00000000000E+00 -0.00000000000E+00 -0.40592882386E+03  0.40592882386E+03  0.00000000000E+00 0. -1.
         23    2    1    2    0    0  0.28249417678E+02 -0.28992407597E+02 -0.28029669413E+02  0.10332097634E+03  0.90834863834E+02 0.  0.
         23    2    1    2    0    0 -0.52143804837E+02  0.49409377789E+02 -0.20919023527E+03  0.23937245995E+03  0.91533365792E+02 0.  0.
        -11    1    4    4    0    0 -0.75342343639E+02  0.29959224663E+02 -0.17953367998E+03  0.19699331495E+03  0.00000000000E+00 0. -1.
         11    1    4    4    0    0  0.23198538803E+02  0.19450153126E+02 -0.29656555288E+02  0.42379144998E+02  0.00000000000E+00 0.  1.
        -11    1    3    3    0    0  0.36381531441E+02  0.30045066279E+01  0.22558635782E+02  0.42913109167E+02  0.00000000000E+00 0.  1.
         11    1    3    3    0    0 -0.81321137631E+01 -0.31996914225E+02 -0.50588305195E+02  0.60407867176E+02  0.00000000000E+00 0. -1.
         21    1    1    2  502  501  0.23894387159E+02 -0.20416970192E+02 -0.11384277493E+03  0.11810153180E+03  0.00000000000E+00 0. -1.
<scales pt_clust_5="13000.00000" pt_clust_6="13000.00000" pt_clust_7="13000.00000" pt_clust_8="13000.00000" pt_clust_9="31.42920"></scales>
<clustering>
<clus scale="   31.429">  2  9  1 -1</clus>
<clus scale="   90.835">  7  8 -1 -1</clus>
<clus scale="   91.533">  5  6 -1 -1</clus>
<clus scale="  102.539">  1  7  2 -1</clus>
<clus scale="   31.429">  2  5  1 -1</clus>
</clustering>
</event>
<event>
 9    1  0.2075077E-005  0.1021276E+03  0.7546771E-02  0.1276212E+00
         -1   -1    0    0    0  501 -0.00000000000E+00  0.00000000000E+00  0.35969807284E+03  0.35969807284E+03  0.00000000000E+00 0.  1.
          1   -1    0    0  502    0  0.00000000000E+00 -0.00000000000E+00 -0.48697910253E+02  0.48697910253E+02  0.00000000000E+00 0. -1.
         23    2    1    2    0    0 -0.29933861091E+02 -0.10297544485E+02  0.12217338931E+03  0.15528779637E+03  0.90475892825E+02 0.  0.
         23    2    1    2    0    0  0.59956580836E+02 -0.25627504495E+02  0.86829906344E+02  0.14087925236E+03  0.89755058562E+02 0.  0.
        -11    1    4    4    0    0 -0.20921217059E+02 -0.21413218422E+02  0.22417859947E+02  0.37400316724E+02  0.00000000000E+00 0.  1.
         11    1    4    4    0    0  0.80877797894E+02 -0.42142860731E+01  0.64412046396E+02  0.10347893564E+03  0.00000000000E+00 0. -1.
        -13    1    3    3    0    0  0.21442972782E+02 -0.97002906143E+01  0.86951473029E+00  0.23551067398E+02  0.00000000000E+00 0. -1.
         13    1    3    3    0    0 -0.51376833873E+02 -0.59725387064E+00  0.12130387458E+03  0.13173672897E+03  0.00000000000E+00 0.  1.
         21    1    1    2  502  501 -0.30022719745E+02  0.35925048980E+02  0.10199686693E+03  0.11222893436E+03  0.00000000000E+00 0.  1.
<scales pt_clust_5="13000.00000" pt_clust_6="13000.00000" pt_clust_7="13000.00000" pt_clust_8="13000.00000" pt_clust_9="46.81851"></scales>
<clustering>
<clus scale="   46.819">  1  9  2 -1</clus>
<clus scale="   89.755">  5  6 -1 -1</clus>
<clus scale="   90.476">  7  8 -1 -1</clus>
<clus scale="  101.490">  2  5  1 -1</clus>
<clus scale="  101.490">  2  5  1 -1</clus>
</clustering>
</event>
<event>
 9    1  0.2075077E-005  0.1397723E+03  0.7546771E-02  0.1229397E+00
          1   -1    0    0  502    0  0.00000000000E+00  0.00000000000E+00  0.10812926955E+04  0.10812926955E+04  0.00000000000E+00 0. -1.
         -1   -1    0    0    0  501 -0.00000000000E+00 -0.00000000000E+00 -0.37683510674E+02  0.37683510674E+02  0.00000000000E+00 0.  1.
         23    2    1    2    0    0 -0.28627359851E+02 -0.33416788721E+02  0.14773187081E+03  0.17866106967E+03  0.90326433892E+02 0.  0.
         23    2    1    2    0    0  0.39333469025E+02 -0.73148190199E+02  0.20438459582E+03  0.24057740362E+03  0.95951261645E+02 0.  0.
        -11    1    3    3    0    0  0.22609101033E+01 -0.56967842883E+02  0.11294275226E+03  0.12651684523E+03  0.00000000000E+00 0.  1.
         11    1    3    3    0    0 -0.30888269954E+02  0.23551054162E+02  0.34789118550E+02  0.52144224439E+02  0.00000000000E+00 0. -1.
        -13    1    4    4    0    0  0.65309510193E+02 -0.26375222483E+02  0.89881306108E+02  0.11419121538E+03  0.00000000000E+00 0.  1.
         13    1    4    4    0    0 -0.25976041168E+02 -0.46772967716E+02  0.11450328971E+03  0.12638618824E+03  0.00000000000E+00 0. -1.
         21    1    1    2  502  501 -0.10706109174E+02  0.10656497892E+03  0.69149271819E+03  0.69973773288E+03  0.00000000000E+00 0. -1.
<scales pt_clust_5="13000.00000" pt_clust_6="13000.00000" pt_clust_7="13000.00000" pt_clust_8="13000.00000" pt_clust_9="101.63494"></scales>
<clustering>
<clus scale="   90.326">  5  6 -1 -1</clus>
<clus scale="   95.951">  7  8 -1 -1</clus>
<clus scale="  100.474">  2  5  1 -1</clus>
<clus scale="  101.635">  1  9  2 -1</clus>
<clus scale="  101.635">  1  5  2 -1</clus>
</clustering>
</event>
<event>
 9    1  0.2075077E-005  0.8884316E+02  0.7546771E-02  0.1307193E+00
         -1   -1    0    0    0  501 -0.00000000000E+00  0.00000000000E+00  0.28833602150E+02  0.28833602150E+02  0.00000000000E+00 0.  1.
          1   -1    0    0  502    0  0.00000000000E+00 -0.00000000000E+00 -0.44852967143E+03  0.44852967143E+03  0.00000000000E+00 0. -1.
         23    2    1    2    0    0  0.12278117132E+02 -0.60850876726E+01 -0.77283148478E+02  0.11621178681E+03  0.85701306311E+02 0.  0.
         23    2    1    2    0    0  0.64964306677E+01  0.15299410098E+02 -0.23122235990E+03  0.24801118353E+03  0.88144721212E+02 0.  0.
        -13    1    4    4    0    0 -0.28901087712E+02 -0.22403478562E+02 -0.11802031660E+03  0.12355559013E+03  0.00000000000E+00 0. -1.
         13    1    4    4    0    0  0.35397518379E+02  0.37702888660E+02 -0.11320204330E+03  0.12445559340E+03  0.00000000000E+00 0.  1.
        -13    1    3    3    0    0  0.42285524592E+01  0.20947779248E+02 -0.84448093364E+02  0.87110106097E+02  0.00000000000E+00 0.  1.
         13    1    3    3    0    0  0.80495646723E+01 -0.27032866920E+02  0.71649448857E+01  0.29101680717E+02  0.00000000000E+00 0. -1.
         21    1    1    2  502  501 -0.18774547799E+02 -0.92143224257E+01 -0.11119056089E+03  0.11314030323E+03  0.00000000000E+00 0. -1.
<scales pt_clust_5="13000.00000" pt_clust_6="13000.00000" pt_clust_7="13000.00000" pt_clust_8="13000.00000" pt_clust_9="20.91381"></scales>
<clustering>
<clus scale="   20.914">  2  9  1 -1</clus>
<clus scale="   85.701">  7  8 -1 -1</clus>
<clus scale="   86.419">  1  7  2 -1</clus>
<clus scale="   88.145">  5  6 -1 -1</clus>
<clus scale="   20.914">  2  5  1 -1</clus>
</clustering>
</event>
<event>
 9    1  0.2075077E-005  0.9916298E+02  0.7546771E-02  0.1282116E+00
          2   -1    0    0  502    0  0.00000000000E+00  0.00000000000E+00  0.29576777591E+03  0.29576777591E+03  0.00000000000E+00 0. -1.
         -2   -1    0    0    0  501 -0.00000000000E+00 -0.00000000000E+00 -0.11175410501E+03  0.11175410501E+03  0.00000000000E+00 0.  1.
         23    2    1    2    0    0 -0.19676276161E+02  0.36620272302E+02 -0.71152044442E+02  0.12296832045E+03  0.91270993302E+02 0.  0.
         23    2    1    2    0    0  0.21782151577E+02 -0.48138472399E+01  0.18919238893E+03  0.21128308085E+03  0.91373655773E+02 0.  0.
        -11    1    4    4    0    0 -0.31933607743E+02 -0.41198187900E+01  0.11666971008E+03  0.12103119210E+03  0.00000000000E+00 0. -1.
         11    1    4    4    0    0  0.53715759320E+02 -0.69402844986E+00  0.72522678855E+02  0.90251888751E+02  0.00000000000E+00 0.  1.
        -11    1    3    3    0    0 -0.39571940460E+02  0.31028681387E+02 -0.14932841284E+01  0.50308522517E+02  0.00000000000E+00 0.  1.
         11    1    3    3    0    0  0.19895664299E+02  0.55915909147E+01 -0.69658760313E+02  0.72659797930E+02  0.00000000000E+00 0. -1.
         21    1    1    2  502  501 -0.21058754167E+01 -0.31806425062E+02  0.65973326409E+02  0.73270479621E+02  0.00000000000E+00 0. -1.
<scales pt_clust_5="13000.00000" pt_clust_6="13000.00000" pt_clust_7="13000.00000" pt_clust_8="13000.00000" pt_clust_9="31.87606"></scales>
<clustering>
<clus scale="   31.876">  1  9  2 -1</clus>
<clus scale="   91.271">  7  8 -1 -1</clus>
<clus scale="   91.374">  5  6 -1 -1</clus>
<clus scale="   99.068">  2  7  1 -1</clus>
<clus scale="   31.876">  1  5  2 -1</clus>
</clustering>
</event>
<event>
 9    1  0.2075077E-005  0.3188604E+03  0.7546771E-02  0.1076201E+00
         -2   -1    0    0    0  501 -0.00000000000E+00  0.00000000000E+00  0.10416571106E+03  0.10416571106E+03  0.00000000000E+00 0.  1.
          2   -1    0    0  502    0  0.00000000000E+00 -0.00000000000E+00 -0.14336410453E+04  0.14336410453E+04  0.00000000000E+00 0. -1.
         23    2    1    2    0    0  0.10625109480E+02 -0.32297894439E+03 -0.31337803581E+03  0.45931647771E+03  0.91310141273E+02 0.  0.
         23    2    1    2    0    0  0.38549454229E+02  0.26526950891E+03 -0.84719981818E+03  0.89335552909E+03  0.92101013366E+02 0.  0.
        -11    1    4    4    0    0  0.15780079782E+02  0.18443117778E+03 -0.69816037568E+03  0.72228234121E+03  0.00000000000E+00 0. -1.
         11    1    4    4    0    0  0.22769374447E+02  0.80838331128E+02 -0.14903944250E+03  0.17107318788E+03  0.00000000000E+00 0.  1.
        -11    1    3    3    0    0 -0.32645422250E+02 -0.21849473206E+03 -0.22920119011E+03  0.31833764634E+03  0.00000000000E+00 0.  1.
         11    1    3    3    0    0  0.43270531729E+02 -0.10448421233E+03 -0.84176845708E+02  0.14097883137E+03  0.00000000000E+00 0. -1.
         21    1    1    2  502  501 -0.49174563709E+02  0.57709435477E+02 -0.16889748029E+03  0.18513474960E+03  0.00000000000E+00 0. -1.
<scales pt_clust_5="13000.00000" pt_clust_6="13000.00000" pt_clust_7="13000.00000" pt_clust_8="13000.00000" pt_clust_9="75.81897"></scales>
<clustering>
<clus scale="   75.819">  2  9  1 -1</clus>
<clus scale="   91.310">  7  8 -1 -1</clus>
<clus scale="   92.101">  5  6 -1 -1</clus>
<clus scale="  318.633">  1  7  2 -1</clus>
<clus scale="   75.819">  2  5  1 -1</clus>
</clustering>
</event>
<event>
 9    1  0.2075077E-005  0.1056114E+03  0.7546771E-02  0.1269071E+00
          2   -1    0    0  502    0  0.00000000000E+00  0.00000000000E+00  0.13891825899E+03  0.13891825899E+03  0.00000000000E+00 0. -1.
         -2   -1    0    0    0  501 -0.00000000000E+00 -0.00000000000E+00 -0.11481624740E+03  0.11481624740E+03  0.00000000000E+00 0.  1.
         23    2    1    2    0    0  0.37058682752E+02  0.17579018098E+02 -0.21161364758E+00  0.99569174296E+02  0.90728208651E+02 0.  0.
         23    2    1    2    0    0 -0.63416146210E+02 -0.25158731376E+02 -0.58724398529E+01  0.11338094220E+03  0.90366936104E+02 0.  0.
        -11    1    4    4    0    0  0.22288238938E+02 -0.13954054720E+02 -0.58882890944E+01  0.26947229663E+02  0.00000000000E+00 0.  1.
         11    1    4    4    0    0 -0.85704385148E+02 -0.11204676656E+02  0.15849241549E-01  0.86433712542E+02  0.00000000000E+00 0. -1.
        -13    1    3    3    0    0  0.27390670685E+02 -0.22955307995E+02  0.31155608774E+02  0.47411675395E+02  0.00000000000E+00 0. -1.
         13    1    3    3    0    0  0.96680120672E+01  0.40534326093E+02 -0.31367222422E+02  0.52157498901E+02  0.00000000000E+00 0.  1.
         21    1    1    2  502  501  0.26357463458E+02  0.75797132785E+01  0.30186065089E+02  0.40784389892E+02  0.00000000000E+00 0. -1.
<scales pt_clust_5="13000.00000" pt_clust_6="13000.00000" pt_clust_7="13000.00000" pt_clust_8="13000.00000" pt_clust_9="27.42568"></scales>
<clustering>
<clus scale="   27.426">  1  9  2 -1</clus>
<clus scale="   90.367">  5  6 -1 -1</clus>
<clus scale="   90.728">  7  8 -1 -1</clus>
<clus scale="  105.301">  1  5  2 -1</clus>
<clus scale="   27.426">  1  5  2 -1</clus>
</clustering>
</event>
<event>
 9    1  0.2075077E-005  0.1687962E+03  0.7546771E-02  0.1179766E+00
          2   -1    0    0  502    0  0.00000000000E+00  0.00000000000E+00  0.34461643647E+03  0.34461643647E+03  0.00000000000E+00 0. -1.
         -2   -1    0    0    0  501 -0.00000000000E+00 -0.00000000000E+00 -0.28656552179E+03  0.28656552179E+03  0.00000000000E+00 0.  1.
         23    2    1    2    0    0  0.11199337017E+03  0.11322525650E+03 -0.13343704450E+03  0.22654690676E+03  0.90308263454E+02 0.  0.
         23    2    1    2    0    0  0.48311558691E+02 -0.15754382679E+03  0.55357957785E+02  0.18970905686E+03  0.75966826318E+02 0.  0.
        -11    1    4    4    0    0 -0.74057667458E+01 -0.79533942856E+02  0.18000796467E+01  0.79898271158E+02  0.00000000000E+00 0.  1.
         11    1    4    4    0    0  0.55717325436E+02 -0.78009883932E+02  0.53557878138E+02  0.10981078570E+03  0.00000000000E+00 0. -1.
        -13    1    3    3    0    0  0.10262756847E+02  0.59918998822E+02 -0.17285887269E+02  0.63201364674E+02  0.00000000000E+00 0.  1.
         13    1    3    3    0    0  0.10173061332E+03  0.53306257676E+02 -0.11615115723E+03  0.16334554209E+03  0.00000000000E+00 0. -1.
         21    1    1    2  502  501 -0.16030492886E+03  0.44318570290E+02  0.13613000140E+03  0.21492599463E+03  0.00000000000E+00 0. -1.
<scales pt_clust_5="13000.00000" pt_clust_6="13000.00000" pt_clust_7="13000.00000" pt_clust_8="13000.00000" pt_clust_9="166.31839"></scales>
<clustering>
<clus scale="   75.967">  5  6 -1 -1</clus>
<clus scale="   90.308">  7  8 -1 -1</clus>
<clus scale="  166.318">  1  9  2 -1</clus>
<clus scale="  166.318">  1  5  2 -1</clus>
<clus scale="  166.318">  1  5  2 -1</clus>
</clustering>
</event>
<event>
 9    1  0.2075077E-005  0.9419971E+02  0.7546771E-02  0.1300434E+00
         -1   -1    0    0    0  501 -0.00000000000E+00  0.00000000000E+00  0.32476025033E+02  0.32476025033E+02  0.00000000000E+00 0.  1.
          1   -1    0    0  502    0  0.00000000000E+00 -0.00000000000E+00 -0.30849245758E+03  0.30849245758E+03  0.00000000000E+00 0. -1.
         23    2    1    2    0    0 -0.79922772433E+01 -0.34931479028E+02 -0.13591494350E+03  0.16689188099E+03  0.89977460242E+02 0.  0.
         23    2    1    2    0    0 -0.10078576412E+02  0.21912098964E+02 -0.11401759325E+03  0.13977748167E+03  0.77175222901E+02 0.  0.
        -11    1    3    3    0    0  0.21874960429E+02 -0.36341261775E+02 -0.12955559008E+03  0.13632260312E+03  0.00000000000E+00 0. -1.
         11    1    3    3    0    0 -0.29867237672E+02  0.14097827471E+01 -0.63593534227E+01  0.30569277870E+02  0.00000000000E+00 0.  1.
        -13    1    4    4    0    0 -0.41417564331E+02  0.26488514982E+02 -0.67772104419E+02  0.83726424732E+02  0.00000000000E+00 0.  1.
         13    1    4    4    0    0  0.31338987919E+02 -0.45764160175E+01 -0.46245488827E+02  0.56051056941E+02  0.00000000000E+00 0. -1.
         21    1    1    2  502  501  0.18070853656E+02  0.13019380063E+02 -0.26083895796E+02  0.34299119945E+02  0.00000000000E+00 0. -1.
<scales pt_clust_5="13000.00000" pt_clust_6="13000.00000" pt_clust_7="13000.00000" pt_clust_8="13000.00000" pt_clust_9="22.27240"></scales>
<clustering>
<clus scale="   22.272">  1  9  2 -1</clus>
<clus scale="   77.175">  7  8 -1 -1</clus>
<clus scale="   82.059">  2  7  1 -1</clus>
<clus scale="   89.977">  5  6 -1 -1</clus>
<clus scale="   82.059">  2  5  1 -1</clus>
</clustering>
</event>
<event>
 9    1  0.2075077E-005  0.1012910E+03  0.7546771E-02  0.1278573E+00
          1   -1    0    0  502    0  0.00000000000E+00  0.00000000000E+00  0.37853811959E+02  0.37853811959E+02  0.00000000000E+00 0. -1.
         -1   -1    0    0    0  501 -0.00000000000E+00 -0.00000000000E+00 -0.47822420876E+03  0.47822420876E+03  0.00000000000E+00 0.  1.
         23    2    1    2    0    0 -0.29730886488E+02  0.19906530033E+02 -0.33331031917E+03  0.34732422013E+03  0.90874360901E+02 0.  0.
         23    2    1    2    0    0  0.19951201045E+02 -0.37554844181E+02 -0.62329561718E+02  0.11968319541E+03  0.92901433007E+02 0.  0.
        -11    1    4    4    0    0 -0.17750089107E+02  0.23937010119E+02 -0.14533942919E+02  0.33155416051E+02  0.00000000000E+00 0. -1.
         11    1    4    4    0    0  0.37701290152E+02 -0.61491854300E+02 -0.47795618799E+02  0.86527779359E+02  0.00000000000E+00 0.  1.
        -13    1    3    3    0    0 -0.57132871522E+02  0.19123417789E+02 -0.28904962745E+03  0.29526184522E+03  0.00000000000E+00 0.  1.
         13    1    3    3    0    0  0.27401985034E+02  0.78311224385E+00 -0.44260691727E+02  0.52062374905E+02  0.00000000000E+00 0. -1.
         21    1    1    2  502  501  0.97796854426E+01  0.17648314148E+02 -0.44730515912E+02  0.49070605187E+02  0.00000000000E+00 0.  1.
<scales pt_clust_5="13000.00000" pt_clust_6="13000.00000" pt_clust_7="13000.00000" pt_clust_8="13000.00000" pt_clust_9="20.17685"></scales>
<clustering>
<clus scale="   20.177">  2  9  1 -1</clus>
<clus scale="   90.874">  7  8 -1 -1</clus>
<clus scale="   92.901">  5  6 -1 -1</clus>
<clus scale="   99.435">  2  7  1 -1</clus>
<clus scale="  101.291">  1  5  2 -1</clus>
</clustering>
</event>
<event>
 9    1  0.2075077E-005  0.1236012E+03  0.7546771E-02  0.1237903E+00
         -1   -1    0    0    0  501 -0.00000000000E+00  0.00000000000E+00  0.27215320574E+03  0.27215320574E+03  0.00000000000E+00 0.  1.
          1   -1    0    0  502    0  0.00000000000E+00 -0.00000000000E+00 -0.73478523740E+02  0.73478523740E+02  0.00000000000E+00 0. -1.
         23    2    1    2    0    0 -0.61176642487E+02 -0.50907647353E+02  0.14385750407E+03  0.18848745574E+03  0.92186600697E+02 0.  0.
         23    2    1    2    0    0  0.54518935349E+02  0.70388198887E+02  0.48544091298E+02  0.13562292229E+03  0.90056845355E+02 0.  0.
        -11    1    4    4    0    0  0.60826590261E+02  0.73388151201E+01  0.11857341949E+02  0.62404557912E+02  0.00000000000E+00 0.  1.
         11    1    4    4    0    0 -0.63076549115E+01  0.63049383767E+02  0.36686749349E+02  0.73218364374E+02  0.00000000000E+00 0. -1.
        -11    1    3    3    0    0 -0.38634140195E+02 -0.14227621028E+02  0.13922597871E+03  0.14518572635E+03  0.00000000000E+00 0.  1.
         11    1    3    3    0    0 -0.22542502293E+02 -0.36680026324E+02  0.46315253634E+01  0.43301729388E+02  0.00000000000E+00 0. -1.
         21    1    1    2  502  501  0.66577071381E+01 -0.19480551534E+02  0.62730866227E+01  0.21521351449E+02  0.00000000000E+00 0. -1.
<scales pt_clust_5="13000.00000" pt_clust_6="13000.00000" pt_clust_7="13000.00000" pt_clust_8="13000.00000" pt_clust_9="20.58682"></scales>
<clustering>
<clus scale="   20.587">  2  9  1 -1</clus>
<clus scale="   90.057">  5  6 -1 -1</clus>
<clus scale="   92.187">  7  8 -1 -1</clus>
<clus scale="  122.021">  2  5  1 -1</clus>
<clus scale="   20.587">  2  5  1 -1</clus>
</clustering>
</event>
<event>
 9    1  0.2075077E-005  0.1664248E+03  0.7546771E-02  0.1181689E+00
          3   -1    0    0  502    0  0.00000000000E+00  0.00000000000E+00  0.88396938961E+03  0.88396938961E+03  0.00000000000E+00 0. -1.
         -3   -1    0    0    0  501 -0.00000000000E+00 -0.00000000000E+00 -0.38019169798E+02  0.38019169798E+02  0.00000000000E+00 0.  1.
         23    2    1    2    0    0  0.51753707658E+01 -0.15147100473E+03  0.44359432828E+03  0.47748912855E+03  0.90827804498E+02 0.  0.
         23    2    1    2    0    0 -0.14879543990E+02  0.12758632838E+03  0.37665563062E+03  0.40809679148E+03  0.90409375177E+02 0.  0.
        -13    1    3    3    0    0 -0.27259568034E+02 -0.67563483219E+02  0.29432673191E+03  0.30320971856E+03  0.00000000000E+00 0. -1.
         13    1    3    3    0    0  0.32434938800E+02 -0.83907521514E+02  0.14926759637E+03  0.17427940999E+03  0.00000000000E+00 0.  1.
        -13    1    4    4    0    0 -0.42630302462E+02  0.26389111295E+02  0.15394755089E+03  0.16190607249E+03  0.00000000000E+00 0.  1.
         13    1    4    4    0    0  0.27750758472E+02  0.10119721709E+03  0.22270807973E+03  0.24619071899E+03  0.00000000000E+00 0. -1.
         21    1    1    2  502  501  0.97041732242E+01  0.23884676350E+02  0.25700260915E+02  0.36402639374E+02  0.00000000000E+00 0.  1.
<scales pt_clust_5="13000.00000" pt_clust_6="13000.00000" pt_clust_7="13000.00000" pt_clust_8="13000.00000" pt_clust_9="25.78078"></scales>
<clustering>
<clus scale="   25.781">  2  9  1 -1</clus>
<clus scale="   90.409">  7  8 -1 -1</clus>
<clus scale="   90.828">  5  6 -1 -1</clus>
<clus scale="  166.197">  1  7  2 -1</clus>
<clus scale="  166.197">  1  5  2 -1</clus>
</clustering>
</event>
<event>
 9    1  0.2075077E-005  0.1186187E+03  0.7546771E-02  0.1246042E+00
          3   -1    0    0  502    0  0.00000000000E+00  0.00000000000E+00  0.43610773477E+02  0.43610773477E+02  0.00000000000E+00 0. -1.
         -3   -1    0    0    0  501 -0.00000000000E+00 -0.00000000000E+00 -0.52728049792E+03  0.52728049792E+03  0.00000000000E+00 0.  1.
         23    2    1    2    0    0  0.66301376172E+02  0.51678021526E+02 -0.30058132699E+03  0.32577487537E+03  0.93346906192E+02 0.  0.
         23    2    1    2    0    0 -0.43705339918E+02 -0.42151502234E+02 -0.19020610075E+03  0.21958216167E+03  0.91384129262E+02 0.  0.
        -11    1    3    3    0    0  0.31553336592E+02 -0.24959158638E+02 -0.11966523514E+03  0.12624714314E+03  0.00000000000E+00 0. -1.
         11    1    3    3    0    0  0.34748039579E+02  0.76637180163E+02 -0.18091609185E+03  0.19952773223E+03  0.00000000000E+00 0.  1.
        -13    1    4    4    0    0 -0.64395326899E+02 -0.13579228292E+02 -0.16048243922E+03  0.17345249167E+03  0.00000000000E+00 0.  1.
         13    1    4    4    0    0  0.20689986980E+02 -0.28572273942E+02 -0.29723661533E+02  0.46129670001E+02  0.00000000000E+00 0. -1.
         21    1    1    2  502  501 -0.22596036253E+02 -0.95265192916E+01  0.71177032990E+01  0.25534234361E+02  0.00000000000E+00 0.  1.
<scales pt_clust_5="13000.00000" pt_clust_6="13000.00000" pt_clust_7="13000.00000" pt_clust_8="13000.00000" pt_clust_9="24.52214"></scales>
<clustering>
<clus scale="   24.522">  1  9  2 -1</clus>
<clus scale="   91.384">  7  8 -1 -1</clus>
<clus scale="   93.347">  5  6 -1 -1</clus>
<clus scale="  117.080">  1  7  2 -1</clus>
<clus scale="   24.522">  1  5  2 -1</clus>
</clustering>
</event>
<event>
 9    1  0.2075077E-005  0.1030545E+03  0.7546771E-02  0.1275584E+00
         -2   -1    0    0    0  501 -0.00000000000E+00  0.00000000000E+00  0.12014908668E+03  0.12014908668E+03  0.00000000000E+00 0.  1.
          2   -1    0    0  502    0  0.00000000000E+00 -0.00000000000E+00 -0.13706214734E+03  0.13706214734E+03  0.00000000000E+00 0. -1.
         23    2    1    2    0    0  0.22962397156E+02 -0.13594473761E+02  0.10784688469E+02  0.94873264834E+02  0.90402132027E+02 0.  0.
         23    2    1    2    0    0 -0.48859416133E+02  0.19360893215E+02 -0.57915022977E+02  0.12212614476E+03  0.93800632288E+02 0.  0.
        -13    1    4    4    0    0  0.25153022224E+02 -0.10855645756E+02 -0.17926433108E+02  0.32739526199E+02  0.00000000000E+00 0. -1.
         13    1    4    4    0    0 -0.74012438356E+02  0.30216538972E+02 -0.39988589868E+02  0.89386618565E+02  0.00000000000E+00 0.  1.
        -13    1    3    3    0    0  0.45745668937E+01 -0.36595393082E+02  0.39291134312E+02  0.53888242619E+02  0.00000000000E+00 0. -1.
         13    1    3    3    0    0  0.18387830262E+02  0.23000919321E+02 -0.28506445843E+02  0.40985022215E+02  0.00000000000E+00 0.  1.
         21    1    1    2  502  501  0.25897018977E+02 -0.57664194543E+01  0.30217273847E+02  0.40211824430E+02  0.00000000000E+00 0. -1.
<scales pt_clust_5="13000.00000" pt_clust_6="13000.00000" pt_clust_7="13000.00000" pt_clust_8="13000.00000" pt_clust_9="26.53125"></scales>
<clustering>
<clus scale="   26.531">  1  9  2 -1</clus>
<clus scale="   90.402">  7  8 -1 -1</clus>
<clus scale="   93.801">  5  6 -1 -1</clus>
<clus scale="   99.971">  1  7  2 -1</clus>
<clus scale="  103.055">  2  5  1 -1</clus>
</clustering>
</event>
<event>
 9    1  0.2075077E-005  0.1406754E+03  0.7546771E-02  0.1212483E+00
          1   -1    0    0  502    0  0.00000000000E+00  0.00000000000E+00  0.19288884232E+03  0.19288884232E+03  0.00000000000E+00 0. -1.
         -1   -1    0    0    0  501 -0.00000000000E+00 -0.00000000000E+00 -0.17200330534E+03  0.17200330534E+03  0.00000000000E+00 0.  1.
         23    2    1    2    0    0  0.92796161110E+02 -0.61156232904E+02 -0.82563285129E+02  0.16585290925E+03  0.91319653509E+02 0.  0.
         23    2    1    2    0    0 -0.67855601122E+02  0.70556294809E+02  0.57397654901E+02  0.14583113096E+03  0.91595057888E+02 0.  0.
        -11    1    3    3    0    0  0.93474735685E+02 -0.25194611607E+02 -0.86299245838E+02  0.12969138174E+03  0.00000000000E+00 0. -1.
         11    1    3    3    0    0 -0.67857457507E+00 -0.35961621297E+02  0.37359607086E+01  0.36161527514E+02  0.00000000000E+00 0.  1.
        -13    1    4    4    0    0 -0.89829825732E+02  0.56375099349E+02  0.35865623726E+02  0.11195486762E+03  0.00000000000E+00 0.  1.
         13    1    4    4    0    0  0.21974224611E+02  0.14181195461E+02  0.21532031175E+02  0.33876263349E+02  0.00000000000E+00 0. -1.
         21    1    1    2  502  501 -0.24940559988E+02 -0.94000619050E+01  0.46051167211E+02  0.53208107444E+02  0.00000000000E+00 0.  1.
<scales pt_clust_5="13000.00000" pt_clust_6="13000.00000" pt_clust_7="13000.00000" pt_clust_8="13000.00000" pt_clust_9="26.65319"></scales>
<clustering>
<clus scale="   26.653">  1  9  2 -1</clus>
<clus scale="   91.320">  5  6 -1 -1</clus>
<clus scale="   91.595">  7  8 -1 -1</clus>
<clus scale="  140.496">  2  5  1 -1</clus>
<clus scale="   26.653">  1  5  2 -1</clus>
</clustering>
</event>
<event>
 9    1  0.2075077E-005  0.3743328E+03  0.7546771E-02  0.1053123E+00
          1   -1    0    0  502    0  0.00000000000E+00  0.00000000000E+00  0.31964173882E+03  0.31964173882E+03  0.00000000000E+00 0.  1.
         -1   -1    0    0    0  501 -0.00000000000E+00 -0.00000000000E+00 -0.82949804632E+03  0.82949804632E+03  0.00000000000E+00 0. -1.
         23    2    1    2    0    0  0.27190931922E+03  0.26824162831E+03 -0.53208125910E+03  0.66116186850E+03  0.90201446997E+02 0.  0.
         23    2    1    2    0    0 -0.26679617496E+03 -0.18756600033E+03 -0.88761961584E+02  0.35067243207E+03  0.93441240035E+02 0.  0.
        -11    1    3    3    0    0  0.20487632281E+03  0.15127989494E+03 -0.38536275445E+03  0.46191380882E+03  0.00000000000E+00 0. -1.
         11    1    3    3    0    0  0.67032996412E+02  0.11696173337E+03 -0.14671850465E+03  0.19924805969E+03  0.00000000000E+00 0.  1.
        -13    1    4    4    0    0 -0.21108391534E+03 -0.17217527896E+03 -0.10287222893E+03  0.29117596310E+03  0.00000000000E+00 0.  1.
         13    1    4    4    0    0 -0.55712259618E+02 -0.15390721369E+02  0.14110267344E+02  0.59496468975E+02  0.00000000000E+00 0. -1.
         21    1    1    2  502  501 -0.51131442660E+01 -0.80675627981E+02  0.11098691318E+03  0.13730548457E+03  0.00000000000E+00 0.  1.
<scales pt_clust_5="13000.00000" pt_clust_6="13000.00000" pt_clust_7="13000.00000" pt_clust_8="13000.00000" pt_clust_9="80.83750"></scales>
<clustering>
<clus scale="   80.837">  1  9  2 -1</clus>
<clus scale="   90.201">  5  6 -1 -1</clus>
<clus scale="   93.441">  7  8 -1 -1</clus>
<clus scale="  373.537">  2  5  1 -1</clus>
<clus scale="   80.837">  1  5  2 -1</clus>
</clustering>
</event>
<event>
 9    1  0.2075077E-005  0.1025700E+03  0.7546771E-02  0.1275079E+00
         -1   -1    0    0    0  501 -0.00000000000E+00  0.00000000000E+00  0.15410207261E+03  0.15410207261E+03  0.00000000000E+00 0.  1.
          1   -1    0    0  502    0  0.00000000000E+00 -0.00000000000E+00 -0.17422269113E+03  0.17422269113E+03  0.00000000000E+00 0. -1.
         23    2    1    2    0    0  0.37474678447E+02  0.16609972663E+02  0.79839994455E+02  0.12864942695E+03  0.92173790323E+02 0.  0.
         23    2    1    2    0    0 -0.69308090671E+02  0.24255235335E+02 -0.50520489886E+02  0.12806767568E+03  0.91962393299E+02 0.  0.
        -11    1    3    3    0    0  0.14010823756E+02  0.16081235314E+02  0.97164591615E+02  0.99477973317E+02  0.00000000000E+00 0.  1.
         11    1    3    3    0    0  0.23463854692E+02  0.52873734911E+00 -0.17324597159E+02  0.29171453630E+02  0.00000000000E+00 0. -1.
        -13    1    4    4    0    0 -0.54828380571E+02 -0.13235604400E+02 -0.64345162900E+02  0.85566538603E+02  0.00000000000E+00 0. -1.
         13    1    4    4    0    0 -0.14479710100E+02  0.37490839735E+02  0.13824673014E+02  0.42501137073E+02  0.00000000000E+00 0.  1.
         21    1    1    2  502  501  0.31833412224E+02 -0.40865207997E+02 -0.49440123094E+02  0.71607661113E+02  0.00000000000E+00 0. -1.
<scales pt_clust_5="13000.00000" pt_clust_6="13000.00000" pt_clust_7="13000.00000" pt_clust_8="13000.00000" pt_clust_9="51.80088"></scales>
<clustering>
<clus scale="   51.801">  2  9  1 -1</clus>
<clus scale="   91.962">  7  8 -1 -1</clus>
<clus scale="   92.174">  5  6 -1 -1</clus>
<clus scale="  102.380">  2  7  1 -1</clus>
<clus scale="   51.801">  2  5  1 -1</clus>
</clustering>
</event>
<event>
 9    1  0.2075077E-005  0.1023735E+03  0.7546771E-02  0.1275913E+00
          1   -1    0    0  502    0  0.00000000000E+00  0.00000000000E+00  0.34007185384E+03  0.34007185384E+03  0.00000000000E+00 0. -1.
         -1   -1    0    0    0  501 -0.00000000000E+00 -0.00000000000E+00 -0.46908470597E+02  0.46908470597E+02  0.00000000000E+00 0.  1.
         23    2    1    2    0    0  0.45754874517E+02 -0.10895486952E+02  0.75025628667E+02  0.12662755984E+03  0.90517809169E+02 0.  0.
         23    2    1    2    0    0 -0.50867960065E+02 -0.21560787782E+02  0.13569794776E+03  0.17160663701E+03  0.89344769902E+02 0.  0.
        -11    1    3    3    0    0 -0.12722426227E+02 -0.36089385036E+02  0.30422180916E+02  0.48885712975E+02  0.00000000000E+00 0.  1.
         11    1    3    3    0    0  0.58477300744E+02  0.25193898085E+02  0.44603447751E+02  0.77741846867E+02  0.00000000000E+00 0. -1.
        -11    1    4    4    0    0 -0.25641456864E+02  0.34636925905E+02  0.49029318777E+02  0.65276910512E+02  0.00000000000E+00 0.  1.
         11    1    4    4    0    0 -0.25226503201E+02 -0.56197713687E+02  0.86668628983E+02  0.10632972650E+03  0.00000000000E+00 0. -1.
         21    1    1    2  502  501  0.51130855483E+01  0.32456274733E+02  0.82439806815E+02  0.88746127583E+02  0.00000000000E+00 0. -1.
<scales pt_clust_5="13000.00000" pt_clust_6="13000.00000" pt_clust_7="13000.00000" pt_clust_8="13000.00000" pt_clust_9="32.85656"></scales>
<clustering>
<clus scale="   32.857">  1  9  2 -1</clus>
<clus scale="   89.345">  7  8 -1 -1</clus>
<clus scale="   90.518">  5  6 -1 -1</clus>
<clus scale="  101.338">  1  7  2 -1</clus>
<clus scale="   32.857">  1  5  2 -1</clus>
</clustering>
</event>
<event>
 9    1  0.2075077E-005  0.9521269E+02  0.7546771E-02  0.1293196E+00
         -1   -1    0    0    0  501 -0.00000000000E+00  0.00000000000E+00  0.94039300284E+02  0.94039300284E+02  0.00000000000E+00 0.  1.
          1   -1    0    0  502    0  0.00000000000E+00 -0.00000000000E+00 -0.38970245620E+03  0.38970245620E+03  0.00000000000E+00 0. -1.
         23    2    1    2    0    0 -0.10727697268E+02 -0.44062245141E+02  0.32852445328E+02  0.10085073954E+03  0.83875047340E+02 0.  0.
         23    2    1    2    0    0 -0.61685431677E+01  0.12873323396E+02 -0.51136691576E+02  0.10325323103E+03  0.88557863081E+02 0.  0.
        -11    1    3    3    0    0 -0.25118253501E+02  0.15097015808E+02  0.26719489780E+02  0.39658261175E+02  0.00000000000E+00 0.  1.
         11    1    3    3    0    0  0.14390556233E+02 -0.59159260949E+02  0.61329555473E+01  0.61192478365E+02  0.00000000000E+00 0. -1.
        -11    1    4    4    0    0 -0.42441937226E+02 -0.70672599644E+01 -0.85557990682E+01  0.43868734841E+02  0.00000000000E+00 0.  1.
         11    1    4    4    0    0  0.36273394058E+02  0.19940583361E+02 -0.42580892507E+02  0.59384496192E+02  0.00000000000E+00 0. -1.
         21    1    1    2  502  501  0.16896240436E+02  0.31188921744E+02 -0.27737890967E+03  0.27963778591E+03  0.00000000000E+00 0. -1.
<scales pt_clust_5="13000.00000" pt_clust_6="13000.00000" pt_clust_7="13000.00000" pt_clust_8="13000.00000" pt_clust_9="35.47156"></scales>
<clustering>
<clus scale="   35.472">  2  9  1 -1</clus>
<clus scale="   83.875">  5  6 -1 -1</clus>
<clus scale="   88.558">  7  8 -1 -1</clus>
<clus scale="   90.873">  1  5  2 -1</clus>
<clus scale="   35.472">  2  5  1 -1</clus>
</clustering>
</event>
<event>
 9    1  0.2075077E-005  0.1189733E+03  0.7546771E-02  0.1250805E+00
         -1   -1    0    0    0  501 -0.00000000000E+00  0.00000000000E+00  0.13360979317E+03  0.13360979317E+03  0.00000000000E+00 0.  1.
          1   -1    0    0  502    0  0.00000000000E+00 -0.00000000000E+00 -0.48076519915E+03  0.48076519915E+03  0.00000000000E+00 0. -1.
         23    2    1    2    0    0 -0.35170207101E+02 -0.45062362746E+02  0.93547105330E+02  0.14194749645E+03  0.90169123480E+02 0.  0.
         23    2    1    2    0    0 -0.13133306282E+02  0.31367330284E+02 -0.36572909627E+03  0.38219559308E+03  0.10563761816E+03 0.  0.
        -11    1    4    4    0    0  0.83199442364E+01 -0.35915717408E+02 -0.83706826314E+02  0.91465802355E+02  0.00000000000E+00 0.  1.
         11    1    4    4    0    0 -0.21453250518E+02  0.67283047692E+02 -0.28202226995E+03  0.29072979072E+03  0.00000000000E+00 0. -1.
        -13    1    3    3    0    0  0.30224812774E+01 -0.22687816038E+02  0.94941577427E+02  0.97661535488E+02  0.00000000000E+00 0.  1.
         13    1    3    3    0    0 -0.38192688378E+02 -0.22374546708E+02 -0.13944720968E+01  0.44285960962E+02  0.00000000000E+00 0. -1.
         21    1    1    2  502  501  0.48303513382E+02  0.13695032461E+02 -0.74973415036E+02  0.90231902791E+02  0.00000000000E+00 0. -1.
<scales pt_clust_5="13000.00000" pt_clust_6="13000.00000" pt_clust_7="13000.00000" pt_clust_8="13000.00000" pt_clust_9="50.20740"></scales>
<clustering>
<clus scale="   50.207">  2  9  1 -1</clus>
<clus scale="   90.169">  7  8 -1 -1</clus>
<clus scale="  105.479">  1  7  2 -1</clus>
<clus scale="  105.638">  5  6 -1 -1</clus>
<clus scale="   50.207">  2  5  1 -1</clus>
</clustering>
</event>
<event>
 9    1  0.2075077E-005  0.1005402E+03  0.7546771E-02  0.1280492E+00
          4   -1    0    0  502    0  0.00000000000E+00  0.00000000000E+00  0.13252927543E+03  0.13252927543E+03  0.00000000000E+00 0. -1.
         -4   -1    0    0    0  501 -0.00000000000E+00 -0.00000000000E+00 -0.31881103304E+03  0.31881103304E+03  0.00000000000E+00 0.  1.
         23    2    1    2    0    0  0.16079810633E+02  0.35366953726E+02 -0.16467676515E+03  0.19315832124E+03  0.93178958786E+02 0.  0.
         23    2    1    2    0    0 -0.35328370222E+02 -0.20186732767E+02 -0.12062515152E+03  0.15617248739E+03  0.90464472112E+02 0.  0.
        -13    1    3    3    0    0 -0.33184050719E+02  0.12986065208E+02 -0.11242827265E+03  0.11794039004E+03  0.00000000000E+00 0.  1.
         13    1    3    3    0    0  0.49263861352E+02  0.22380888519E+02 -0.52248492495E+02  0.75217931201E+02  0.00000000000E+00 0. -1.
        -13    1    4    4    0    0  0.14721127445E+02 -0.35071325894E+02 -0.20399804412E+02  0.43160879432E+02  0.00000000000E+00 0. -1.
         13    1    4    4    0    0 -0.50049497668E+02  0.14884593127E+02 -0.10022534711E+03  0.11301160796E+03  0.00000000000E+00 0.  1.
         21    1    1    2  502  501  0.19248559589E+02 -0.15180220959E+02  0.99020159064E+02  0.10200949983E+03  0.00000000000E+00 0. -1.
<scales pt_clust_5="13000.00000" pt_clust_6="13000.00000" pt_clust_7="13000.00000" pt_clust_8="13000.00000" pt_clust_9="24.51420"></scales>
<clustering>
<clus scale="   24.514">  1  9  2 -1</clus>
<clus scale="   90.464">  7  8 -1 -1</clus>
<clus scale="   93.179">  5  6 -1 -1</clus>
<clus scale="   98.030">  1  7  2 -1</clus>
<clus scale="   24.514">  1  5  2 -1</clus>
</clustering>
</event>
<event>
 9    1  0.2075077E-005  0.1084594E+03  0.7546771E-02  0.1264072E+00
         -1   -1    0    0    0  501 -0.00000000000E+00  0.00000000000E+00  0.38368388113E+02  0.38368388113E+02  0.00000000000E+00 0.  1.
          1   -1    0    0  502    0  0.00000000000E+00 -0.00000000000E+00 -0.52627618556E+03  0.52627618556E+03  0.00000000000E+00 0. -1.
         23    2    1    2    0    0  0.30000954442E+02  0.72240125153E+02 -0.13281026712E+03  0.17794132819E+03  0.88914882193E+02 0.  0.
         23    2    1    2    0    0 -0.79295008796E+01 -0.44508037784E+02 -0.15545392337E+03  0.18393789457E+03  0.87311994346E+02 0.  0.
        -11    1    3    3    0    0  0.37218429997E+02 -0.27249769550E+01 -0.20104673163E+02  0.42389089562E+02  0.00000000000E+00 0.  1.
         11    1    3    3    0    0 -0.72174755552E+01  0.74965102108E+02 -0.11270559396E+03  0.13555223863E+03  0.00000000000E+00 0. -1.
        -11    1    4    4    0    0  0.32140686434E+02 -0.21073524068E+02 -0.25970512205E+02  0.46385177000E+02  0.00000000000E+00 0.  1.
         11    1    4    4    0    0 -0.40070187314E+02 -0.23434513716E+02 -0.12948341116E+03  0.13755271757E+03  0.00000000000E+00 0. -1.
         21    1    1    2  502  501 -0.22071453563E+02 -0.27732087369E+02 -0.19964360695E+03  0.20276535091E+03  0.00000000000E+00 0. -1.
<scales pt_clust_5="13000.00000" pt_clust_6="13000.00000" pt_clust_7="13000.00000" pt_clust_8="13000.00000" pt_clust_9="35.44316"></scales>
<clustering>
<clus scale="   35.443">  2  9  1 -1</clus>
<clus scale="   87.312">  7  8 -1 -1</clus>
<clus scale="   88.915">  5  6 -1 -1</clus>
<clus scale="  107.149">  2  7  1 -1</clus>
<clus scale="   35.443">  2  5  1 -1</clus>
</clustering>
</event>
<event>
 9    1  0.2075077E-005  0.1076633E+03  0.7546771E-02  0.1264969E+00
          1   -1    0    0  502    0  0.00000000000E+00  0.00000000000E+00  0.41806738328E+03  0.41806738328E+03  0.00000000000E+00 0. -1.
         -1   -1    0    0    0  501 -0.00000000000E+00 -0.00000000000E+00 -0.40389385943E+02  0.40389385943E+02  0.00000000000E+00 0.  1.
         23    2    1    2    0    0 -0.35542445710E+02  0.43391446634E+02  0.84568096395E+02  0.13630501940E+03  0.91001166458E+02 0.  0.
         23    2    1    2    0    0  0.54385786144E+02 -0.32247096622E+02  0.22868541306E+03  0.25410924360E+03  0.90976923216E+02 0.  0.
        -13    1    4    4    0    0 -0.24167307121E+02  0.42779559664E+00  0.34715445570E+02  0.42301346358E+02  0.00000000000E+00 0.  1.
         13    1    4    4    0    0  0.78553093265E+02 -0.32674892219E+02  0.19396996749E+03  0.21180789724E+03  0.00000000000E+00 0. -1.
        -13    1    3    3    0    0  0.22609505588E+02 -0.48522984681E+01  0.30478351007E+00  0.23126336423E+02  0.00000000000E+00 0. -1.
         13    1    3    3    0    0 -0.58151951298E+02  0.48243745102E+02  0.84263312885E+02  0.11317868297E+03  0.00000000000E+00 0.  1.
         21    1    1    2  502  501 -0.18843340434E+02 -0.11144350012E+02  0.64424487880E+02  0.68042506233E+02  0.00000000000E+00 0.  1.
<scales pt_clust_5="13000.00000" pt_clust_6="13000.00000" pt_clust_7="13000.00000" pt_clust_8="13000.00000" pt_clust_9="21.89219"></scales>
<clustering>
<clus scale="   21.892">  1  9  2 -1</clus>
<clus scale="   90.977">  5  6 -1 -1</clus>
<clus scale="   91.001">  7  8 -1 -1</clus>
<clus scale="  107.643">  1  5  2 -1</clus>
<clus scale="   21.892">  1  5  2 -1</clus>
</clustering>
</event>
<event>
 9    1  0.2075077E-005  0.9655353E+02  0.7546771E-02  0.1287839E+00
         -1   -1    0    0    0  501 -0.00000000000E+00  0.00000000000E+00  0.26034336942E+02  0.26034336942E+02  0.00000000000E+00 0.  1.
          1   -1    0    0  502    0  0.00000000000E+00 -0.00000000000E+00 -0.48909154423E+03  0.48909154423E+03  0.00000000000E+00 0. -1.
         23    2    1    2    0    0  0.36458012967E+02  0.13650613278E+02 -0.17778317216E+03  0.20439142445E+03  0.93024040617E+02 0.  0.
         23    2    1    2    0    0 -0.12416181589E+02 -0.17944875354E+00 -0.19429933460E+03  0.21567722099E+03  0.92791370607E+02 0.  0.
        -11    1    3    3    0    0  0.36329869187E+02 -0.21643763012E+02 -0.28507301899E+02  0.50999785627E+02  0.00000000000E+00 0.  1.
         11    1    3    3    0    0  0.12814378015E+00  0.35294376290E+02 -0.14927587026E+03  0.15339163882E+03  0.00000000000E+00 0. -1.
        -13    1    4    4    0    0 -0.38492041493E+02  0.33403488155E+02 -0.11168423765E+03  0.12276318348E+03  0.00000000000E+00 0.  1.
         13    1    4    4    0    0  0.26075859904E+02 -0.33582936909E+02 -0.82615096952E+02  0.92914037505E+02  0.00000000000E+00 0. -1.
         21    1    1    2  502  501 -0.24041831378E+02 -0.13471164524E+02 -0.90974700530E+02  0.95057235738E+02  0.00000000000E+00 0.  1.
<scales pt_clust_5="13000.00000" pt_clust_6="13000.00000" pt_clust_7="13000.00000" pt_clust_8="13000.00000" pt_clust_9="27.55870"></scales>
<clustering>
<clus scale="   27.559">  2  9  1 -1</clus>
<clus scale="   92.791">  7  8 -1 -1</clus>
<clus scale="   93.024">  5  6 -1 -1</clus>
<clus scale="   96.329">  2  7  1 -1</clus>
<clus scale="   27.559">  2  5  1 -1</clus>
</clustering>
</event>
<event>
 9    1  0.2075077E-005  0.1035961E+03  0.7546771E-02  0.1273109E+00
          1   -1    0    0  502    0  0.00000000000E+00  0.00000000000E+00  0.25158493825E+03  0.25158493825E+03  0.00000000000E+00 0. -1.
         -1   -1    0    0    0  501 -0.00000000000E+00 -0.00000000000E+00 -0.10091382110E+03  0.10091382110E+03  0.00000000000E+00 0.  1.
         23    2    1    2    0    0 -0.64314945213E+02  0.29415847857E+02 -0.15692643837E+02  0.11742278973E+03  0.92412922221E+02 0.  0.
         23    2    1    2    0    0  0.54561917483E+01  0.10697384054E+02  0.75332100208E+02  0.11948969233E+03  0.91970958451E+02 0.  0.
        -11    1    4    4    0    0 -0.34999177893E+02  0.22736790529E+02  0.62901648114E+02  0.75488551663E+02  0.00000000000E+00 0.  1.
         11    1    4    4    0    0  0.40455369642E+02 -0.12039406475E+02  0.12430452095E+02  0.44001140671E+02  0.00000000000E+00 0. -1.
        -13    1    3    3    0    0 -0.37030473314E+02  0.55202156241E+02 -0.35090648981E+02  0.75165734570E+02  0.00000000000E+00 0.  1.
         13    1    3    3    0    0 -0.27284471899E+02 -0.25786308384E+02  0.19398005144E+02  0.42257055156E+02  0.00000000000E+00 0. -1.
         21    1    1    2  502  501  0.58858753465E+02 -0.40113231911E+02  0.91031660780E+02  0.11558627729E+03  0.00000000000E+00 0. -1.
<scales pt_clust_5="13000.00000" pt_clust_6="13000.00000" pt_clust_7="13000.00000" pt_clust_8="13000.00000" pt_clust_9="71.22797"></scales>
<clustering>
<clus scale="   71.228">  1  9  2 -1</clus>
<clus scale="   91.971">  5  6 -1 -1</clus>
<clus scale="   92.413">  7  8 -1 -1</clus>
<clus scale="  103.202">  1  5  2 -1</clus>
<clus scale="   71.228">  1  5  2 -1</clus>
</clustering>
</event>
<event>
 9    1  0.2075077E-005  0.9388223E+02  0.7546771E-02  0.1293934E+00
         -2   -1    0    0    0  501 -0.00000000000E+00  0.00000000000E+00  0.72083771148E+02  0.72083771148E+02  0.00000000000E+00 0.  1.
          2   -1    0    0  502    0  0.00000000000E+00 -0.00000000000E+00 -0.44372721115E+03  0.44372721115E+03  0.00000000000E+00 0. -1.
         23    2    1    2    0    0 -0.64911852170E+01 -0.17137249877E+02 -0.23987275280E+02  0.95790371000E+02  0.90909762853E+02 0.  0.
         23    2    1    2    0    0 -0.43120290070E+02  0.13435570050E+02 -0.41739651801E+02  0.11008527322E+03  0.91305503057E+02 0.  0.
        -11    1    3    3    0    0 -0.28002411035E+02 -0.11738751808E+02  0.26719298148E+02  0.40445694595E+02  0.00000000000E+00 0.  1.
         11    1    3    3    0    0  0.21511225818E+02 -0.53984980689E+01 -0.50706573428E+02  0.55344676405E+02  0.00000000000E+00 0. -1.
        -11    1    4    4    0    0  0.12197192821E+02  0.16156373549E+02  0.19086107150E+02  0.27822282528E+02  0.00000000000E+00 0. -1.
         11    1    4    4    0    0 -0.55317482891E+02 -0.27208034992E+01 -0.60825758950E+02  0.82262990688E+02  0.00000000000E+00 0.  1.
         21    1    1    2  502  501  0.49611475287E+02  0.37016798274E+01 -0.30591651292E+03  0.30993533808E+03  0.00000000000E+00 0. -1.
<scales pt_clust_5="13000.00000" pt_clust_6="13000.00000" pt_clust_7="13000.00000" pt_clust_8="13000.00000" pt_clust_9="49.74938"></scales>
<clustering>
<clus scale="   49.749">  2  9  1 -1</clus>
<clus scale="   90.910">  5  6 -1 -1</clus>
<clus scale="   91.306">  7  8 -1 -1</clus>
<clus scale="   93.497">  1  5  2 -1</clus>
<clus scale="   49.749">  2  5  1 -1</clus>
</clustering>
</event>
<event>
 9    1  0.2075077E-005  0.9595342E+02  0.7546771E-02  0.1289092E+00
          1   -1    0    0  502    0  0.00000000000E+00  0.00000000000E+00  0.53995097165E+03  0.53995097165E+03  0.00000000000E+00 0. -1.
         -1   -1    0    0    0  501 -0.00000000000E+00 -0.00000000000E+00 -0.25308850469E+02  0.25308850469E+02  0.00000000000E+00 0.  1.
         23    2    1    2    0    0  0.14962378921E+02  0.68832237918E+00  0.16978416150E+03  0.19357846165E+03  0.91769345348E+02 0.  0.
         23    2    1    2    0    0 -0.43053740561E+02  0.12339558222E+02  0.21218115901E+03  0.23543898929E+03  0.91677609932E+02 0.  0.
        -11    1    3    3    0    0  0.24587854194E+02 -0.21232333907E+02  0.16623062587E+03  0.16937530975E+03  0.00000000000E+00 0. -1.
         11    1    3    3    0    0 -0.96254752724E+01  0.21920656286E+02  0.35535356370E+01  0.24203151897E+02  0.00000000000E+00 0.  1.
        -11    1    4    4    0    0  0.25066115912E+02 -0.91332820886E+01  0.32276359732E+02  0.41874698879E+02  0.00000000000E+00 0. -1.
         11    1    4    4    0    0 -0.68119856473E+02  0.21472840311E+02  0.17990479928E+03  0.19356429041E+03  0.00000000000E+00 0.  1.
         21    1    1    2  502  501  0.28091361640E+02 -0.13027880601E+02  0.13267680066E+03  0.13624237118E+03  0.00000000000E+00 0. -1.
<scales pt_clust_5="13000.00000" pt_clust_6="13000.00000" pt_clust_7="13000.00000" pt_clust_8="13000.00000" pt_clust_9="30.96531"></scales>
<clustering>
<clus scale="   30.965">  1  9  2 -1</clus>
<clus scale="   91.678">  7  8 -1 -1</clus>
<clus scale="   91.769">  5  6 -1 -1</clus>
<clus scale="   95.866">  1  7  2 -1</clus>
<clus scale="   30.965">  1  5  2 -1</clus>
</clustering>
</event>
<event>
 9    1  0.2075077E-005  0.1285610E+03  0.7546771E-02  0.1233301E+00
         -1   -1    0    0    0  501 -0.00000000000E+00  0.00000000000E+00  0.85052411947E+02  0.85052411947E+02  0.00000000000E+00 0.  1.
          1   -1    0    0  502    0  0.00000000000E+00 -0.00000000000E+00 -0.37041923023E+03  0.37041923023E+03  0.00000000000E+00 0. -1.
         23    2    1    2    0    0 -0.21933607598E+02  0.77485958812E+02  0.24550240291E+01  0.13129851413E+03  0.10367311954E+03 0.  0.
         23    2    1    2    0    0 -0.10688949741E+02 -0.65133034406E+02 -0.20073988216E+03  0.23036431305E+03  0.91731404745E+02 0.  0.
        -11    1    4    4    0    0  0.39812120980E+02 -0.34978557384E+02 -0.78563864649E+02  0.94767005240E+02  0.00000000000E+00 0.  1.
         11    1    4    4    0    0 -0.50501070721E+02 -0.30154477022E+02 -0.12217601751E+03  0.13559730781E+03  0.00000000000E+00 0. -1.
        -13    1    3    3    0    0 -0.52807796916E+01  0.99212472109E+02 -0.12449003343E+02  0.10012981045E+03  0.00000000000E+00 0.  1.
         13    1    3    3    0    0 -0.16652827906E+02 -0.21726513296E+02  0.14904027372E+02  0.31168703682E+02  0.00000000000E+00 0. -1.
         21    1    1    2  502  501  0.32622557339E+02 -0.12352924406E+02 -0.87081960147E+02  0.93808815000E+02  0.00000000000E+00 0. -1.
<scales pt_clust_5="13000.00000" pt_clust_6="13000.00000" pt_clust_7="13000.00000" pt_clust_8="13000.00000" pt_clust_9="34.88303"></scales>
<clustering>
<clus scale="   34.883">  2  9  1 -1</clus>
<clus scale="   91.731">  5  6 -1 -1</clus>
<clus scale="  103.673">  7  8 -1 -1</clus>
<clus scale="  119.140">  2  5  1 -1</clus>
<clus scale="   34.883">  2  5  1 -1</clus>
</clustering>
</event>
<event>
 9    1  0.2075077E-005  0.1027678E+03  0.7546771E-02  0.1274612E+00
         -1   -1    0    0    0  501 -0.00000000000E+00  0.00000000000E+00  0.36768116379E+03  0.36768116379E+03  0.00000000000E+00 0.  1.
          1   -1    0    0  502    0  0.00000000000E+00 -0.00000000000E+00 -0.13927374134E+03  0.13927374134E+03  0.00000000000E+00 0. -1.
         23    2    1    2    0    0  0.36354117490E+02  0.19903609237E+02  0.26556579971E+03  0.28428472103E+03  0.92600394790E+02 0.  0.
         23    2    1    2    0    0 -0.57147787147E+02 -0.90960864244E+01  0.58746056030E+02  0.12394410055E+03  0.92533413420E+02 0.  0.
        -13    1    3    3    0    0 -0.22688245553E+02  0.33872328256E+02  0.10883076281E+03  0.11621628991E+03  0.00000000000E+00 0. -1.
         13    1    3    3    0    0  0.59042363044E+02 -0.13968719019E+02  0.15673503690E+03  0.16806843111E+03  0.00000000000E+00 0.  1.
        -13    1    4    4    0    0  0.24273913834E+02 -0.21042105940E+01  0.26748094881E+02  0.36181641406E+02  0.00000000000E+00 0.  1.
         13    1    4    4    0    0 -0.81421700981E+02 -0.69918758303E+01  0.31997961149E+02  0.87762459149E+02  0.00000000000E+00 0. -1.
         21    1    1    2  502  501  0.20793669656E+02 -0.10807522812E+02 -0.95904433290E+02  0.98726083544E+02  0.00000000000E+00 0. -1.
<scales pt_clust_5="13000.00000" pt_clust_6="13000.00000" pt_clust_7="13000.00000" pt_clust_8="13000.00000" pt_clust_9="23.43457"></scales>
<clustering>
<clus scale="   23.435">  2  9  1 -1</clus>
<clus scale="   92.533">  7  8 -1 -1</clus>
<clus scale="   92.600">  5  6 -1 -1</clus>
<clus scale="  102.707">  2  7  1 -1</clus>
<clus scale="   23.435">  2  5  1 -1</clus>
</clustering>
</event>
<event>
 9    1  0.2075077E-005  0.9305533E+02  0.7546771E-02  0.1297380E+00
          2   -1    0    0  502    0  0.00000000000E+00  0.00000000000E+00  0.13847503437E+03  0.13847503437E+03  0.00000000000E+00 0. -1.
         -2   -1    0    0    0  501 -0.00000000000E+00 -0.00000000000E+00 -0.11131334000E+03  0.11131334000E+03  0.00000000000E+00 0.  1.
         23    2    1    2    0    0 -0.18496684824E+02  0.12696543539E+02 -0.26488793218E+02  0.95915180154E+02  0.89413287885E+02 0.  0.
         23    2    1    2    0    0 -0.85923323965E+00  0.20743304648E+02  0.95021801527E+01  0.95205076303E+02  0.92426685307E+02 0.  0.
        -13    1    3    3    0    0 -0.13574265482E+02  0.47089232108E+02 -0.34905750147E+02  0.60166999736E+02  0.00000000000E+00 0.  1.
         13    1    3    3    0    0 -0.49224193417E+01 -0.34392688569E+02  0.84169569297E+01  0.35748180418E+02  0.00000000000E+00 0. -1.
        -13    1    4    4    0    0 -0.20763735064E+02 -0.17913071650E+02  0.35259783988E+02  0.44668369083E+02  0.00000000000E+00 0. -1.
         13    1    4    4    0    0  0.19904501824E+02  0.38656376297E+02 -0.25757603835E+02  0.50536707220E+02  0.00000000000E+00 0.  1.
         21    1    1    2  502  501  0.19355918063E+02 -0.33439848186E+02  0.44148307435E+02  0.58668117919E+02  0.00000000000E+00 0. -1.
<scales pt_clust_5="13000.00000" pt_clust_6="13000.00000" pt_clust_7="13000.00000" pt_clust_8="13000.00000" pt_clust_9="38.63774"></scales>
<clustering>
<clus scale="   38.638">  1  9  2 -1</clus>
<clus scale="   89.413">  5  6 -1 -1</clus>
<clus scale="   90.063">  2  5  1 -1</clus>
<clus scale="   92.427">  7  8 -1 -1</clus>
<clus scale="   38.638">  1  5  2 -1</clus>
</clustering>
</event>
<event>
 9    1  0.2075077E-005  0.9671244E+02  0.7546771E-02  0.1287857E+00
         -2   -1    0    0    0  501 -0.00000000000E+00  0.00000000000E+00  0.23866159808E+03  0.23866159808E+03  0.00000000000E+00 0.  1.
          2   -1    0    0  502    0  0.00000000000E+00 -0.00000000000E+00 -0.55442614719E+02  0.55442614719E+02  0.00000000000E+00 0. -1.
         23    2    1    2    0    0 -0.11954519036E+02  0.19176032286E+02  0.12014573541E+03  0.15533721997E+03  0.95833310654E+02 0.  0.
         23    2    1    2    0    0 -0.68265203759E+01 -0.20591999285E+01  0.61433783784E+02  0.11330326895E+03  0.94935131958E+02 0.  0.
        -11    1    3    3    0    0 -0.17816479382E+02 -0.31845360509E+02  0.86656118067E+02  0.94025723725E+02  0.00000000000E+00 0.  1.
         11    1    3    3    0    0  0.58619603460E+01  0.51021392795E+02  0.33489617341E+02  0.61311496243E+02  0.00000000000E+00 0. -1.
        -13    1    4    4    0    0  0.31039280280E+02  0.18964170664E+02  0.59761105244E+02  0.69960463043E+02  0.00000000000E+00 0.  1.
         13    1    4    4    0    0 -0.37865800656E+02 -0.21023370593E+02  0.16726785406E+01  0.43342805907E+02  0.00000000000E+00 0. -1.
         21    1    1    2  502  501  0.18781039412E+02 -0.17116832357E+02  0.16394641740E+01  0.25463723886E+02  0.00000000000E+00 0.  1.
<scales pt_clust_5="13000.00000" pt_clust_6="13000.00000" pt_clust_7="13000.00000" pt_clust_8="13000.00000" pt_clust_9="25.41089"></scales>
<clustering>
<clus scale="   25.411">  2  9  1 -1</clus>
<clus scale="   94.935">  7  8 -1 -1</clus>
<clus scale="   95.822">  2  7  1 -1</clus>
<clus scale="   95.833">  5  6 -1 -1</clus>
<clus scale="   25.411">  2  5  1 -1</clus>
</clustering>
</event>
<event>
 9    1  0.2075077E-005  0.1391362E+03  0.7546771E-02  0.1228503E+00
          2   -1    0    0  502    0  0.00000000000E+00  0.00000000000E+00  0.15219006340E+03  0.15219006340E+03  0.00000000000E+00 0. -1.
         -2   -1    0    0    0  501 -0.00000000000E+00 -0.00000000000E+00 -0.25552642260E+03  0.25552642260E+03  0.00000000000E+00 0.  1.
         23    2    1    2    0    0  0.53390002222E+01 -0.50524963477E+02 -0.12785631220E+03  0.16466088959E+03  0.90469304917E+02 0.  0.
         23    2    1    2    0    0  0.19161952952E+02 -0.58742318351E+02  0.32300925334E+02  0.13080507697E+03  0.11067419744E+03 0.  0.
        -11    1    3    3    0    0 -0.33438242038E+02 -0.41883591664E+02 -0.10727516766E+03  0.11991794227E+03  0.00000000000E+00 0.  1.
         11    1    3    3    0    0  0.38777242260E+02 -0.86413718134E+01 -0.20581144539E+02  0.44742947317E+02  0.00000000000E+00 0. -1.
        -11    1    4    4    0    0  0.22084350572E+02  0.19907779796E+02  0.42049239587E+02  0.51499289183E+02  0.00000000000E+00 0. -1.
         11    1    4    4    0    0 -0.29223976199E+01 -0.78650098147E+02 -0.97483142529E+01  0.79305787791E+02  0.00000000000E+00 0.  1.
         21    1    1    2  502  501 -0.24500953174E+02  0.10926728183E+03 -0.77809723281E+01  0.11225051944E+03  0.00000000000E+00 0. -1.
<scales pt_clust_5="13000.00000" pt_clust_6="13000.00000" pt_clust_7="13000.00000" pt_clust_8="13000.00000" pt_clust_9="84.32141"></scales>
<clustering>
<clus scale="   90.469">  5  6 -1 -1</clus>
<clus scale="  103.759">  2  5  1 -1</clus>
<clus scale="   84.321">  2  9  1 -1</clus>
<clus scale="  110.674">  7  8 -1 -1</clus>
<clus scale="  139.136">  1  5  2 -1</clus>
</clustering>
</event>
<event>
 9    1  0.2075077E-005  0.1473460E+03  0.7546771E-02  0.1205022E+00
         -1   -1    0    0    0  501 -0.00000000000E+00  0.00000000000E+00  0.19605403270E+03  0.19605403270E+03  0.00000000000E+00 0.  1.
          1   -1    0    0  502    0  0.00000000000E+00 -0.00000000000E+00 -0.23197063750E+03  0.23197063750E+03  0.00000000000E+00 0. -1.
         23    2    1    2    0    0 -0.15698245911E+03  0.29925393950E+02  0.47571500680E+02  0.18751572221E+03  0.85790889539E+02 0.  0.
         23    2    1    2    0    0  0.49089649098E+02 -0.49967438592E+02 -0.44904586310E+02  0.12418513290E+03  0.92189949528E+02 0.  0.
        -13    1    3    3    0    0 -0.24067429380E+02  0.41288313578E+02  0.87849288806E+01  0.48591573040E+02  0.00000000000E+00 0.  1.
         13    1    3    3    0    0 -0.13291502973E+03 -0.11362919628E+02  0.38786571799E+02  0.13892414917E+03  0.00000000000E+00 0. -1.
        -13    1    4    4    0    0  0.66868343967E+02 -0.39493536777E+02 -0.60397476014E+02  0.98381756342E+02  0.00000000000E+00 0.  1.
         13    1    4    4    0    0 -0.17778694868E+02 -0.10473901815E+02  0.15492889704E+02  0.25803376559E+02  0.00000000000E+00 0. -1.
         21    1    1    2  502  501  0.10789281002E+03  0.20042044642E+02 -0.38583519169E+02  0.11632381509E+03  0.00000000000E+00 0.  1.
<scales pt_clust_5="13000.00000" pt_clust_6="13000.00000" pt_clust_7="13000.00000" pt_clust_8="13000.00000" pt_clust_9="109.73852"></scales>
<clustering>
<clus scale="   85.791">  5  6 -1 -1</clus>
<clus scale="   92.190">  7  8 -1 -1</clus>
<clus scale="  109.739">  2  9  1 -1</clus>
<clus scale="  143.429">  1  5  2 -1</clus>
<clus scale="  109.739">  2  5  1 -1</clus>
</clustering>
</event>
<event>
 9    1  0.2075077E-005  0.3452239E+03  0.7546771E-02  0.1096754E+00
         -2   -1    0    0    0  501 -0.00000000000E+00  0.00000000000E+00  0.41580560648E+03  0.41580560648E+03  0.00000000000E+00 0.  1.
          2   -1    0    0  502    0  0.00000000000E+00 -0.00000000000E+00 -0.50006704799E+03  0.50006704799E+03  0.00000000000E+00 0. -1.
         23    2    1    2    0    0  0.11162522341E+03  0.30312491785E+03  0.38044204014E+02  0.33589007733E+03  0.83844357385E+02 0.  0.
         23    2    1    2    0    0  0.11050887030E+03 -0.24477783339E+02 -0.16640879637E+03  0.22091034335E+03  0.91094017358E+02 0.  0.
        -11    1    3    3    0    0  0.78590763055E+02  0.14988699088E+03 -0.16192939339E+02  0.17001420340E+03  0.00000000000E+00 0. -1.
         11    1    3    3    0    0  0.33034460357E+02  0.15323792697E+03  0.54237143353E+02  0.16587587393E+03  0.00000000000E+00 0.  1.
        -11    1    4    4    0    0  0.10721264215E+03 -0.15534571445E+01 -0.86656886493E+02  0.13786362770E+03  0.00000000000E+00 0. -1.
         11    1    4    4    0    0  0.32962281491E+01 -0.22924326194E+02 -0.79751909873E+02  0.83046715647E+02  0.00000000000E+00 0.  1.
         21    1    1    2  502  501 -0.22213409372E+03 -0.27864713451E+03  0.44103150835E+02  0.35907223379E+03  0.00000000000E+00 0.  1.
<scales pt_clust_5="13000.00000" pt_clust_6="13000.00000" pt_clust_7="13000.00000" pt_clust_8="13000.00000" pt_clust_9="334.88753"></scales>
<clustering>
<clus scale="   83.844">  5  6 -1 -1</clus>
<clus scale="   91.094">  7  8 -1 -1</clus>
<clus scale="  145.291">  2  7  1 -1</clus>
<clus scale="  334.888">  2  9  1 -1</clus>
<clus scale="  145.291">  2  5  1 -1</clus>
</clustering>
</event>
<event>
 9    1  0.2075077E-005  0.1803783E+03  0.7546771E-02  0.1168070E+00
          1   -1    0    0  502    0  0.00000000000E+00  0.00000000000E+00  0.56102756694E+03  0.56102756694E+03  0.00000000000E+00 0. -1.
         -1   -1    0    0    0  501 -0.00000000000E+00 -0.00000000000E+00 -0.41745431282E+03  0.41745431282E+03  0.00000000000E+00 0.  1.
         23    2    1    2    0    0 -0.14552312946E+03  0.65465022560E+02 -0.36693497165E+03  0.40892490894E+03  0.84354355805E+02 0.  0.
         23    2    1    2    0    0  0.62629059995E+02 -0.81619259973E+02  0.43622899195E+03  0.45708568242E+03  0.89707775008E+02 0.  0.
        -11    1    4    4    0    0 -0.22888244356E+02 -0.13134100893E+02  0.69517100402E+02  0.74357269881E+02  0.00000000000E+00 0.  1.
         11    1    4    4    0    0  0.85517304350E+02 -0.68485159080E+02  0.36671189155E+03  0.38272841254E+03  0.00000000000E+00 0. -1.
        -13    1    3    3    0    0 -0.27873863808E+02  0.65912774294E+01 -0.13238144186E+02  0.31553853699E+02  0.00000000000E+00 0. -1.
         13    1    3    3    0    0 -0.11764926565E+03  0.58873745130E+02 -0.35369682747E+03  0.37737105524E+03  0.00000000000E+00 0.  1.
         21    1    1    2  502  501  0.82894069465E+02  0.16154237413E+02  0.74279233818E+02  0.11247128841E+03  0.00000000000E+00 0. -1.
<scales pt_clust_5="13000.00000" pt_clust_6="13000.00000" pt_clust_7="13000.00000" pt_clust_8="13000.00000" pt_clust_9="84.45346"></scales>
<clustering>
<clus scale="   84.354">  7  8 -1 -1</clus>
<clus scale="   84.453">  1  9  2 -1</clus>
<clus scale="   89.708">  5  6 -1 -1</clus>
<clus scale="  177.777">  2  7  1 -1</clus>
<clus scale="   84.453">  1  5  2 -1</clus>
</clustering>
</event>
<event>
 9    1  0.2075077E-005  0.9876716E+02  0.7546771E-02  0.1283389E+00
         -1   -1    0    0    0  501 -0.00000000000E+00  0.00000000000E+00  0.22388423846E+02  0.22388423846E+02  0.00000000000E+00 0.  1.
          1   -1    0    0  502    0  0.00000000000E+00 -0.00000000000E+00 -0.67849156256E+03  0.67849156256E+03  0.00000000000E+00 0. -1.
         23    2    1    2    0    0 -0.25229628156E+00  0.39325057734E+02 -0.14668759973E+03  0.17714266966E+03  0.91190732434E+02 0.  0.
         23    2    1    2    0    0  0.21304533807E+02 -0.32396650317E+02 -0.44178236924E+03  0.45256537576E+03  0.90223785385E+02 0.  0.
        -13    1    4    4    0    0  0.53667035606E+02 -0.29180957028E+02 -0.34757761090E+03  0.35290490867E+03  0.00000000000E+00 0. -1.
         13    1    4    4    0    0 -0.32362501799E+02 -0.32156932881E+01 -0.94204758338E+02  0.99660467085E+02  0.00000000000E+00 0.  1.
        -13    1    3    3    0    0  0.35006387239E+02  0.74979795039E+01 -0.11398446687E+03  0.11947437187E+03  0.00000000000E+00 0. -1.
         13    1    3    3    0    0 -0.35258683521E+02  0.31827078230E+02 -0.32703132855E+02  0.57668297797E+02  0.00000000000E+00 0.  1.
         21    1    1    2  502  501 -0.21052237525E+02 -0.69284074174E+01 -0.67633169738E+02  0.71171940981E+02  0.00000000000E+00 0.  1.
<scales pt_clust_5="13000.00000" pt_clust_6="13000.00000" pt_clust_7="13000.00000" pt_clust_8="13000.00000" pt_clust_9="22.16302"></scales>
<clustering>
<clus scale="   22.163">  2  9  1 -1</clus>
<clus scale="   90.224">  5  6 -1 -1</clus>
<clus scale="   91.191">  7  8 -1 -1</clus>
<clus scale="   97.875">  2  5  1 -1</clus>
<clus scale="   22.163">  2  5  1 -1</clus>
</clustering>
</event>
<event>
 9    1  0.2075077E-005  0.9457695E+02  0.7546771E-02  0.1292942E+00
          1   -1    0    0  502    0  0.00000000000E+00  0.00000000000E+00  0.98923673467E+02  0.98923673467E+02  0.00000000000E+00 0. -1.
         -1   -1    0    0    0  501 -0.00000000000E+00 -0.00000000000E+00 -0.14164235909E+03  0.14164235909E+03  0.00000000000E+00 0.  1.
         23    2    1    2    0    0 -0.13369984381E+02  0.25551493873E+02 -0.38569616921E+02  0.10286202314E+03  0.90891942072E+02 0.  0.
         23    2    1    2    0    0 -0.12123926697E+02 -0.14921159165E+02 -0.30894417569E+02  0.99255898878E+02  0.92345210140E+02 0.  0.
        -13    1    4    4    0    0  0.13554476556E+02 -0.44869699649E+02  0.33835822706E+01  0.46994280612E+02  0.00000000000E+00 0.  1.
         13    1    4    4    0    0 -0.25678403253E+02  0.29948540484E+02 -0.34277999840E+02  0.52261618266E+02  0.00000000000E+00 0. -1.
        -13    1    3    3    0    0 -0.22872923424E+01 -0.22896480326E+02  0.16776135941E+02  0.28476644021E+02  0.00000000000E+00 0.  1.
         13    1    3    3    0    0 -0.11082692039E+02  0.48447974199E+02 -0.55345752863E+02  0.74385379120E+02  0.00000000000E+00 0. -1.
         21    1    1    2  502  501  0.25493911078E+02 -0.10630334708E+02  0.26745348866E+02  0.38448110539E+02  0.00000000000E+00 0. -1.
<scales pt_clust_5="13000.00000" pt_clust_6="13000.00000" pt_clust_7="13000.00000" pt_clust_8="13000.00000" pt_clust_9="27.62143"></scales>
<clustering>
<clus scale="   27.621">  1  9  2 -1</clus>
<clus scale="   90.892">  7  8 -1 -1</clus>
<clus scale="   92.345">  5  6 -1 -1</clus>
<clus scale="   93.159">  2  7  1 -1</clus>
<clus scale="   27.621">  1  5  2 -1</clus>
</clustering>
</event>
<event>
 9    1  0.2075077E-005  0.1258499E+03  0.7546771E-02  0.1239031E+00
         -2   -1    0    0    0  501 -0.00000000000E+00  0.00000000000E+00  0.40483235444E+02  0.40483235444E+02  0.00000000000E+00 0.  1.
          2   -1    0    0  502    0  0.00000000000E+00 -0.00000000000E+00 -0.55508010678E+03  0.55508010678E+03  0.00000000000E+00 0. -1.
         23    2    1    2    0    0 -0.53368295508E+02 -0.39749752019E+02 -0.11742995253E+03  0.16996006508E+03  0.10328800618E+03 0.  0.
         23    2    1    2    0    0  0.74881217838E+02  0.35674816267E+02 -0.25732496491E+03  0.28405758488E+03  0.87136012416E+02 0.  0.
        -11    1    4    4    0    0  0.32969866303E+02  0.60865112246E+02 -0.12346291937E+03  0.14154386752E+03  0.00000000000E+00 0.  1.
         11    1    4    4    0    0  0.41911351536E+02 -0.25190295980E+02 -0.13386204555E+03  0.14251371736E+03  0.00000000000E+00 0. -1.
        -13    1    3    3    0    0  0.23878990602E+02  0.10192686179E+02 -0.83518628358E+01  0.27273625658E+02  0.00000000000E+00 0.  1.
         13    1    3    3    0    0 -0.77247286110E+02 -0.49942438198E+02 -0.10907808969E+03  0.14268643942E+03  0.00000000000E+00 0. -1.
         21    1    1    2  502  501 -0.21512922331E+02  0.40749357521E+01 -0.13984195390E+03  0.14154569226E+03  0.00000000000E+00 0. -1.
<scales pt_clust_5="13000.00000" pt_clust_6="13000.00000" pt_clust_7="13000.00000" pt_clust_8="13000.00000" pt_clust_9="21.89545"></scales>
<clustering>
<clus scale="   21.895">  2  9  1 -1</clus>
<clus scale="   87.136">  5  6 -1 -1</clus>
<clus scale="  103.288">  7  8 -1 -1</clus>
<clus scale="  112.971">  2  5  1 -1</clus>
<clus scale="   21.895">  2  5  1 -1</clus>
</clustering>
</event>
<event>
 9    1  0.2075077E-005  0.1040822E+03  0.7546771E-02  0.1281587E+00
          3   -1    0    0  502    0  0.00000000000E+00  0.00000000000E+00  0.51132857062E+03  0.51132857062E+03  0.00000000000E+00 0. -1.
         -3   -1    0    0    0  501 -0.00000000000E+00 -0.00000000000E+00 -0.22817125011E+02  0.22817125011E+02  0.00000000000E+00 0.  1.
         23    2    1    2    0    0 -0.16770127377E+02 -0.17478104593E+02  0.17245146270E+03  0.19183179156E+03  0.80456248708E+02 0.  0.
         23    2    1    2    0    0  0.11433725761E+02  0.40576337290E+02  0.26372193584E+03  0.28485716637E+03  0.99081666081E+02 0.  0.
        -13    1    4    4    0    0  0.53163186550E+02  0.67289183766E+01  0.14330565107E+03  0.15299709924E+03  0.00000000000E+00 0. -1.
         13    1    4    4    0    0 -0.41729460788E+02  0.33847418914E+02  0.12041628478E+03  0.13186006713E+03  0.00000000000E+00 0.  1.
        -13    1    3    3    0    0 -0.15446375971E+02  0.23930540658E+02  0.22602726345E+02  0.36361305602E+02  0.00000000000E+00 0.  1.
         13    1    3    3    0    0 -0.13237514062E+01 -0.41408645252E+02  0.14984873635E+03  0.15547048596E+03  0.00000000000E+00 0. -1.
         21    1    1    2  502  501  0.53364016156E+01 -0.23098232697E+02  0.52338047073E+02  0.57456737702E+02  0.00000000000E+00 0. -1.
<scales pt_clust_5="13000.00000" pt_clust_6="13000.00000" pt_clust_7="13000.00000" pt_clust_8="13000.00000" pt_clust_9="23.70666"></scales>
<clustering>
<clus scale="   23.707">  2  9  1 -1</clus>
<clus scale="   80.456">  7  8 -1 -1</clus>
<clus scale="   86.540">  2  7  1 -1</clus>
<clus scale="   99.082">  5  6 -1 -1</clus>
<clus scale="  104.082">  1  5  2 -1</clus>
</clustering>
</event>
<event>
 9    1  0.2075077E-005  0.1511381E+03  0.7546771E-02  0.1200119E+00
          2   -1    0    0  502    0  0.00000000000E+00  0.00000000000E+00  0.21771010252E+03  0.21771010252E+03  0.00000000000E+00 0. -1.
         -2   -1    0    0    0  501 -0.00000000000E+00 -0.00000000000E+00 -0.18019108965E+03  0.18019108965E+03  0.00000000000E+00 0.  1.
         23    2    1    2    0    0 -0.42388098168E+02 -0.96519751367E+02 -0.44891376483E+02  0.14584322658E+03  0.90234127617E+02 0.  0.
         23    2    1    2    0    0  0.57479975338E+02  0.12385226275E+03  0.30096660771E+01  0.16673911779E+03  0.95653252731E+02 0.  0.
        -11    1    3    3    0    0  0.27013228102E+02 -0.32191421061E+02 -0.25786943982E+02  0.49304853335E+02  0.00000000000E+00 0.  1.
         11    1    3    3    0    0 -0.69401326270E+02 -0.64328330305E+02 -0.19104432501E+02  0.96538373246E+02  0.00000000000E+00 0. -1.
        -11    1    4    4    0    0  0.70277101436E+02  0.92473092134E+02 -0.29439934385E+02  0.11982008801E+03  0.00000000000E+00 0.  1.
         11    1    4    4    0    0 -0.12797126098E+02  0.31379170612E+02  0.32449600462E+02  0.46919029773E+02  0.00000000000E+00 0. -1.
         21    1    1    2  502  501 -0.15091877170E+02 -0.27332511380E+02  0.79400723275E+02  0.85318847809E+02  0.00000000000E+00 0. -1.
<scales pt_clust_5="13000.00000" pt_clust_6="13000.00000" pt_clust_7="13000.00000" pt_clust_8="13000.00000" pt_clust_9="31.22228"></scales>
<clustering>
<clus scale="   31.222">  1  9  2 -1</clus>
<clus scale="   90.234">  5  6 -1 -1</clus>
<clus scale="   95.653">  7  8 -1 -1</clus>
<clus scale="  147.768">  2  5  1 -1</clus>
<clus scale="   31.222">  1  5  2 -1</clus>
</clustering>
</event>
<event>
 9    1  0.2075077E-005  0.9903661E+02  0.7546771E-02  0.1283620E+00
          4   -1    0    0  502    0  0.00000000000E+00  0.00000000000E+00  0.14167414340E+03  0.14167414340E+03  0.00000000000E+00 0. -1.
         -4   -1    0    0    0  501 -0.00000000000E+00 -0.00000000000E+00 -0.30849365585E+03  0.30849365585E+03  0.00000000000E+00 0.  1.
         23    2    1    2    0    0 -0.29240666485E+02  0.37376745396E+02 -0.23880924392E+03  0.26017245137E+03  0.91694120849E+02 0.  0.
         23    2    1    2    0    0  0.17027057417E+02  0.21858464056E+02 -0.33459957447E+01  0.93385544649E+02  0.89117625230E+02 0.  0.
        -11    1    4    4    0    0  0.20971563522E+02  0.49599795902E+02 -0.23616231522E+02  0.58801978039E+02  0.00000000000E+00 0. -1.
         11    1    4    4    0    0 -0.39445061048E+01 -0.27741331845E+02  0.20270235777E+02  0.34583566609E+02  0.00000000000E+00 0.  1.
        -13    1    3    3    0    0 -0.52111365700E+02  0.12069312289E+02 -0.20604536412E+03  0.21287544436E+03  0.00000000000E+00 0.  1.
         13    1    3    3    0    0  0.22870699215E+02  0.25307433107E+02 -0.32763879797E+02  0.47297007013E+02  0.00000000000E+00 0. -1.
         21    1    1    2  502  501  0.12213609068E+02 -0.59235209452E+02  0.75335727212E+02  0.96609803229E+02  0.00000000000E+00 0. -1.
<scales pt_clust_5="13000.00000" pt_clust_6="13000.00000" pt_clust_7="13000.00000" pt_clust_8="13000.00000" pt_clust_9="60.48126"></scales>
<clustering>
<clus scale="   60.481">  1  9  2 -1</clus>
<clus scale="   89.118">  5  6 -1 -1</clus>
<clus scale="   91.694">  7  8 -1 -1</clus>
<clus scale="   96.656">  1  5  2 -1</clus>
<clus scale="   60.481">  1  5  2 -1</clus>
</clustering>
</event>
<event>
 9    1  0.2075077E-005  0.9863806E+02  0.7546771E-02  0.1284342E+00
         -2   -1    0    0    0  501 -0.00000000000E+00  0.00000000000E+00  0.25737310406E+03  0.25737310406E+03  0.00000000000E+00 0.  1.
          2   -1    0    0  502    0  0.00000000000E+00 -0.00000000000E+00 -0.61302558433E+02  0.61302558433E+02  0.00000000000E+00 0. -1.
         23    2    1    2    0    0  0.13535267783E+02 -0.30557959620E+01  0.11687329831E+03  0.14986652747E+03  0.92779668226E+02 0.  0.
         23    2    1    2    0    0 -0.35327322010E+02 -0.29223844798E+02  0.29482159088E+02  0.10565488867E+03  0.90508038369E+02 0.  0.
        -11    1    3    3    0    0 -0.35379242773E+01  0.43515105795E+02  0.46662852188E+02  0.63902293502E+02  0.00000000000E+00 0. -1.
         11    1    3    3    0    0  0.17073192061E+02 -0.46570901757E+02  0.70210446121E+02  0.85964233970E+02  0.00000000000E+00 0.  1.
        -13    1    4    4    0    0  0.10697780735E+02  0.26216549577E+02  0.15415400834E+02  0.32239487701E+02  0.00000000000E+00 0. -1.
         13    1    4    4    0    0 -0.46025102746E+02 -0.55440394374E+02  0.14066758254E+02  0.73415400965E+02  0.00000000000E+00 0.  1.
         21    1    1    2  502  501  0.21792054227E+02  0.32279640760E+02  0.49715088233E+02  0.63154246358E+02  0.00000000000E+00 0. -1.
<scales pt_clust_5="13000.00000" pt_clust_6="13000.00000" pt_clust_7="13000.00000" pt_clust_8="13000.00000" pt_clust_9="38.94700"></scales>
<clustering>
<clus scale="   38.947">  1  9  2 -1</clus>
<clus scale="   90.508">  7  8 -1 -1</clus>
<clus scale="   92.780">  5  6 -1 -1</clus>
<clus scale="   96.504">  2  7  1 -1</clus>
<clus scale="   96.504">  2  5  1 -1</clus>
</clustering>
</event>
<event>
 9    1  0.4035680E-005  0.9784292E+02  0.7546771E-02  0.1285433E+00
         -2   -1    0    0    0  501 -0.00000000000E+00  0.00000000000E+00  0.15413802673E+03  0.15413802673E+03  0.00000000000E+00 0.  1.
          2   -1    0    0  502    0  0.00000000000E+00 -0.00000000000E+00 -0.23541699258E+03  0.23541699258E+03  0.00000000000E+00 0. -1.
         23    2    1    2    0    0  0.33174793126E+02 -0.18571895257E+02  0.11800932252E+03  0.15328521898E+03  0.90136984435E+02 0.  0.
         23    2    1    2    0    0 -0.67297906680E+01  0.48555360806E+01 -0.17622415289E+03  0.19859446343E+03  0.91191789830E+02 0.  0.
        -11    1    3    3    0    0  0.52271627898E+02  0.18967594391E+02  0.70612348121E+02  0.89878787416E+02  0.00000000000E+00 0.  1.
         11    1    3    3    0    0 -0.19096834772E+02 -0.37539489647E+02  0.47396974403E+02  0.63406431566E+02  0.00000000000E+00 0. -1.
        -11    1    4    4    0    0 -0.29591201887E+02  0.10841460636E+02 -0.17165594633E+03  0.17452489911E+03  0.00000000000E+00 0. -1.
         11    1    4    4    0    0  0.22861411219E+02 -0.59859245554E+01 -0.45682065572E+01  0.24069564326E+02  0.00000000000E+00 0.  1.
         21    1    1    2  502  501 -0.26445002458E+02  0.13716359176E+02 -0.23064135495E+02  0.37675336895E+02  0.00000000000E+00 0. -1.
<scales pt_clust_5="13000.00000" pt_clust_6="13000.00000" pt_clust_7="13000.00000" pt_clust_8="13000.00000" pt_clust_9="29.79055"></scales>
<clustering>
<clus scale="   29.791">  2  9  1 -1</clus>
<clus scale="   90.137">  5  6 -1 -1</clus>
<clus scale="   91.192">  7  8 -1 -1</clus>
<clus scale="   96.861">  1  5  2 -1</clus>
<clus scale="   29.791">  2  5  1 -1</clus>
</clustering>
</event>
<event>
 9    1  0.2075077E-005  0.9398200E+02  0.7546771E-02  0.1296124E+00
         -2   -1    0    0    0  501 -0.00000000000E+00  0.00000000000E+00  0.31930862658E+03  0.31930862658E+03  0.00000000000E+00 0.  1.
          2   -1    0    0  502    0  0.00000000000E+00 -0.00000000000E+00 -0.44732843744E+02  0.44732843744E+02  0.00000000000E+00 0. -1.
         23    2    1    2    0    0 -0.12297734223E+02  0.10483971659E+02  0.89081484058E+02  0.12357718671E+03  0.84111012026E+02 0.  0.
         23    2    1    2    0    0 -0.14347960950E+02 -0.51727782508E+02  0.12959719049E+03  0.16606312959E+03  0.88881402784E+02 0.  0.
        -11    1    3    3    0    0 -0.47480031120E+02  0.44783052061E+00  0.38379861437E+02  0.61053809638E+02  0.00000000000E+00 0. -1.
         11    1    3    3    0    0  0.35182296897E+02  0.10036141139E+02  0.50701622621E+02  0.62523377071E+02  0.00000000000E+00 0.  1.
        -13    1    4    4    0    0 -0.40658574764E+02 -0.13903702244E+00  0.80318884541E+02  0.90023676036E+02  0.00000000000E+00 0.  1.
         13    1    4    4    0    0  0.26310613814E+02 -0.51588745485E+02  0.49278305947E+02  0.76039453556E+02  0.00000000000E+00 0. -1.
         21    1    1    2  502  501  0.26645695173E+02  0.41243810849E+02  0.55897108286E+02  0.74401154018E+02  0.00000000000E+00 0.  1.
<scales pt_clust_5="13000.00000" pt_clust_6="13000.00000" pt_clust_7="13000.00000" pt_clust_8="13000.00000" pt_clust_9="49.10239"></scales>
<clustering>
<clus scale="   49.102">  2  9  1 -1</clus>
<clus scale="   84.111">  5  6 -1 -1</clus>
<clus scale="   88.881">  7  8 -1 -1</clus>
<clus scale="   89.484">  1  5  2 -1</clus>
<clus scale="   49.102">  2  5  1 -1</clus>
</clustering>
</event>
<event>
 9    1  0.2075077E-005  0.9743758E+02  0.7546771E-02  0.1288084E+00
          1   -1    0    0  502    0  0.00000000000E+00  0.00000000000E+00  0.67656420538E+03  0.67656420538E+03  0.00000000000E+00 0. -1.
         -1   -1    0    0    0  501 -0.00000000000E+00 -0.00000000000E+00 -0.18204342745E+02  0.18204342745E+02  0.00000000000E+00 0.  1.
         23    2    1    2    0    0  0.26014378367E+02 -0.15925146285E+02  0.24891224934E+03  0.26687177690E+03  0.91284605866E+02 0.  0.
         23    2    1    2    0    0 -0.13861911202E+02 -0.83140944699E+01  0.33178695427E+03  0.34563863357E+03  0.95510236321E+02 0.  0.
        -11    1    3    3    0    0 -0.19729472705E+02  0.17473798746E+02  0.15482353745E+03  0.15705067171E+03  0.00000000000E+00 0. -1.
         11    1    3    3    0    0  0.45743851072E+02 -0.33398945031E+02  0.94088711891E+02  0.10982110519E+03  0.00000000000E+00 0.  1.
        -13    1    4    4    0    0 -0.33876018699E+02 -0.33759411967E+02  0.28348773320E+03  0.28749361283E+03  0.00000000000E+00 0. -1.
         13    1    4    4    0    0  0.20014107496E+02  0.25445317497E+02  0.48299221065E+02  0.58145020740E+02  0.00000000000E+00 0.  1.
         21    1    1    2  502  501 -0.12152467165E+02  0.24239240755E+02  0.77660659020E+02  0.82258137653E+02  0.00000000000E+00 0.  1.
<scales pt_clust_5="13000.00000" pt_clust_6="13000.00000" pt_clust_7="13000.00000" pt_clust_8="13000.00000" pt_clust_9="27.11500"></scales>
<clustering>
<clus scale="   27.115">  2  9  1 -1</clus>
<clus scale="   91.285">  5  6 -1 -1</clus>
<clus scale="   93.299">  2  5  1 -1</clus>
<clus scale="   95.510">  7  8 -1 -1</clus>
<clus scale="   97.438">  1  5  2 -1</clus>
</clustering>
</event>
<event>
 9    1  0.2075077E-005  0.1150508E+03  0.7546771E-02  0.1252295E+00
         -2   -1    0    0    0  501 -0.00000000000E+00  0.00000000000E+00  0.75662720659E+03  0.75662720659E+03  0.00000000000E+00 0.  1.
          2   -1    0    0  502    0  0.00000000000E+00 -0.00000000000E+00 -0.23108986124E+02  0.23108986124E+02  0.00000000000E+00 0. -1.
         23    2    1    2    0    0  0.69782427845E+02 -0.32904578389E+02  0.45923080480E+03  0.47473390070E+03  0.92342004996E+02 0.  0.
         23    2    1    2    0    0 -0.55974505837E+02  0.10943616952E+02  0.23322355472E+03  0.25643086818E+03  0.90059178440E+02 0.  0.
        -11    1    3    3    0    0  0.26828660126E+02 -0.54898231756E+02  0.35034686254E+03  0.35563537077E+03  0.00000000000E+00 0. -1.
         11    1    3    3    0    0  0.42953767720E+02  0.21993653367E+02  0.10888394226E+03  0.11909852994E+03  0.00000000000E+00 0.  1.
        -13    1    4    4    0    0 -0.28438010574E+02  0.47297179421E+02  0.16809337766E+03  0.17692124587E+03  0.00000000000E+00 0.  1.
         13    1    4    4    0    0 -0.27536495263E+02 -0.36353562469E+02  0.65130177066E+02  0.79509622312E+02  0.00000000000E+00 0. -1.
         21    1    1    2  502  501 -0.13807922009E+02  0.21960961437E+02  0.41063860941E+02  0.48571423830E+02  0.00000000000E+00 0.  1.
<scales pt_clust_5="13000.00000" pt_clust_6="13000.00000" pt_clust_7="13000.00000" pt_clust_8="13000.00000" pt_clust_9="25.94114"></scales>
<clustering>
<clus scale="   25.941">  2  9  1 -1</clus>
<clus scale="   90.059">  7  8 -1 -1</clus>
<clus scale="   92.342">  5  6 -1 -1</clus>
<clus scale="  113.227">  2  7  1 -1</clus>
<clus scale="   25.941">  2  5  1 -1</clus>
</clustering>
</event>
<event>
 9    1  0.2075077E-005  0.9814491E+02  0.7546771E-02  0.1286286E+00
         -2   -1    0    0    0  501 -0.00000000000E+00  0.00000000000E+00  0.55044112593E+03  0.55044112593E+03  0.00000000000E+00 0.  1.
          2   -1    0    0  502    0  0.00000000000E+00 -0.00000000000E+00 -0.45574344431E+02  0.45574344431E+02  0.00000000000E+00 0. -1.
         23    2    1    2    0    0 -0.12719521463E+02 -0.13215426501E+02  0.44012210429E+03  0.45004938629E+03  0.92198425640E+02 0.  0.
         23    2    1    2    0    0  0.63943816036E+01  0.36740683881E+02  0.64673004460E+02  0.12160524940E+03  0.95992047621E+02 0.  0.
        -11    1    3    3    0    0 -0.51849218133E+02 -0.13463471430E+02  0.29032655810E+03  0.29522722913E+03  0.00000000000E+00 0.  1.
         11    1    3    3    0    0  0.39129696670E+02  0.24804492943E+00  0.14979554620E+03  0.15482215716E+03  0.00000000000E+00 0. -1.
        -13    1    4    4    0    0  0.80375996906E+01  0.65886481920E+02  0.22045641850E+02  0.69940273328E+02  0.00000000000E+00 0. -1.
         13    1    4    4    0    0 -0.16432180870E+01 -0.29145798039E+02  0.42627362610E+02  0.51664976068E+02  0.00000000000E+00 0.  1.
         21    1    1    2  502  501  0.63251398592E+01 -0.23525257381E+02  0.71672746656E-01  0.24360834675E+02  0.00000000000E+00 0.  1.
<scales pt_clust_5="13000.00000" pt_clust_6="13000.00000" pt_clust_7="13000.00000" pt_clust_8="13000.00000" pt_clust_9="24.36073"></scales>
<clustering>
<clus scale="   24.361">  2  9  1 -1</clus>
<clus scale="   92.198">  5  6 -1 -1</clus>
<clus scale="   94.438">  1  5  2 -1</clus>
<clus scale="   95.992">  7  8 -1 -1</clus>
<clus scale="   24.361">  2  5  1 -1</clus>
</clustering>
</event>
<event>
 9    1  0.2075077E-005  0.1489301E+03  0.7546771E-02  0.1202171E+00
         -2   -1    0    0    0  501 -0.00000000000E+00  0.00000000000E+00  0.53850743390E+03  0.53850743390E+03  0.00000000000E+00 0.  1.
          2   -1    0    0  502    0  0.00000000000E+00 -0.00000000000E+00 -0.86256459444E+02  0.86256459444E+02  0.00000000000E+00 0. -1.
         23    2    1    2    0    0 -0.12932395890E+03 -0.41808498969E+02  0.38304752706E+03  0.41629004328E+03  0.89996417787E+02 0.  0.
         23    2    1    2    0    0  0.77057769277E+02  0.39880091900E+02  0.89286215070E+02  0.15244893695E+03  0.87979137526E+02 0.  0.
        -11    1    3    3    0    0 -0.68237823423E+02 -0.36355370038E+02  0.31643700048E+03  0.32574604948E+03  0.00000000000E+00 0.  1.
         11    1    3    3    0    0 -0.61086135476E+02 -0.54531289311E+01  0.66610526583E+02  0.90543993805E+02  0.00000000000E+00 0. -1.
        -11    1    4    4    0    0  0.82889627022E+02 -0.21180905735E+00  0.63605468908E+02  0.10448153332E+03  0.00000000000E+00 0.  1.
         11    1    4    4    0    0 -0.58318577447E+01  0.40091900958E+02  0.25680746162E+02  0.47967403626E+02  0.00000000000E+00 0. -1.
         21    1    1    2  502  501  0.52266189622E+02  0.19284070684E+01 -0.20082767680E+02  0.56024913111E+02  0.00000000000E+00 0. -1.
<scales pt_clust_5="13000.00000" pt_clust_6="13000.00000" pt_clust_7="13000.00000" pt_clust_8="13000.00000" pt_clust_9="52.30175"></scales>
<clustering>
<clus scale="   52.302">  2  9  1 -1</clus>
<clus scale="   87.979">  7  8 -1 -1</clus>
<clus scale="   89.996">  5  6 -1 -1</clus>
<clus scale="  147.720">  2  7  1 -1</clus>
<clus scale="   52.302">  2  5  1 -1</clus>
</clustering>
</event>
<event>
 9    1  0.2075077E-005  0.2143488E+03  0.7546771E-02  0.1138582E+00
          1   -1    0    0  502    0  0.00000000000E+00  0.00000000000E+00  0.24823484572E+03  0.24823484572E+03  0.00000000000E+00 0. -1.
         -1   -1    0    0    0  501 -0.00000000000E+00 -0.00000000000E+00 -0.59311247732E+03  0.59311247732E+03  0.00000000000E+00 0.  1.
         23    2    1    2    0    0  0.11360604481E+03 -0.15050103614E+03 -0.46918100789E+03  0.51442417787E+03  0.94575479431E+02 0.  0.
         23    2    1    2    0    0 -0.13376160005E+03  0.14642708887E+03  0.22341568598E+02  0.22290846504E+03  0.99277288927E+02 0.  0.
        -11    1    4    4    0    0 -0.77341833453E+02  0.98091348235E+02  0.61161465456E+02  0.13908413517E+03  0.00000000000E+00 0. -1.
         11    1    4    4    0    0 -0.56419766594E+02  0.48335740638E+02 -0.38819896859E+02  0.83824329867E+02  0.00000000000E+00 0.  1.
        -13    1    3    3    0    0  0.64333888419E+02 -0.14582695773E+03 -0.32489464898E+03  0.36188518032E+03  0.00000000000E+00 0.  1.
         13    1    3    3    0    0  0.49272156392E+02 -0.46740784157E+01 -0.14428635892E+03  0.15253899755E+03  0.00000000000E+00 0. -1.
         21    1    1    2  502  501  0.20155555235E+02  0.40739472709E+01  0.10196180770E+03  0.10401468013E+03  0.00000000000E+00 0. -1.
<scales pt_clust_5="13000.00000" pt_clust_6="13000.00000" pt_clust_7="13000.00000" pt_clust_8="13000.00000" pt_clust_9="20.56316"></scales>
<clustering>
<clus scale="   20.563">  1  9  2 -1</clus>
<clus scale="   94.575">  7  8 -1 -1</clus>
<clus scale="   99.277">  5  6 -1 -1</clus>
<clus scale="  212.212">  2  7  1 -1</clus>
<clus scale="   20.563">  1  5  2 -1</clus>
</clustering>
</event>
<event>
 9    1  0.2075077E-005  0.1108706E+03  0.7546771E-02  0.1262873E+00
         -2   -1    0    0    0  501 -0.00000000000E+00  0.00000000000E+00  0.41768418606E+03  0.41768418606E+03  0.00000000000E+00 0.  1.
          2   -1    0    0  502    0  0.00000000000E+00 -0.00000000000E+00 -0.94552675736E+02  0.94552675736E+02  0.00000000000E+00 0. -1.
         23    2    1    2    0    0 -0.13735631241E+02 -0.14895069662E+02  0.15767197298E+03  0.18376029951E+03  0.92178446211E+02 0.  0.
         23    2    1    2    0    0  0.88986948746E+02  0.12705402133E+02  0.20327971013E+03  0.24422740265E+03  0.10121402752E+03 0.  0.
        -11    1    3    3    0    0  0.25533232671E+02 -0.34123576512E+02  0.40893611839E+02  0.59064811299E+02  0.00000000000E+00 0.  1.
         11    1    3    3    0    0 -0.39268863912E+02  0.19228506850E+02  0.11677836114E+03  0.12469548821E+03  0.00000000000E+00 0. -1.
        -11    1    4    4    0    0  0.55988728126E+02  0.25213858956E+02  0.19950013145E+03  0.20873614639E+03  0.00000000000E+00 0.  1.
         11    1    4    4    0    0  0.32998220621E+02 -0.12508456823E+02  0.37795786772E+01  0.35491256264E+02  0.00000000000E+00 0. -1.
         21    1    1    2  502  501 -0.75251317505E+02  0.21896675291E+01 -0.37820172782E+02  0.84249159636E+02  0.00000000000E+00 0. -1.
<scales pt_clust_5="13000.00000" pt_clust_6="13000.00000" pt_clust_7="13000.00000" pt_clust_8="13000.00000" pt_clust_9="75.28317"></scales>
<clustering>
<clus scale="   75.283">  2  9  1 -1</clus>
<clus scale="   92.178">  5  6 -1 -1</clus>
<clus scale="  101.214">  7  8 -1 -1</clus>
<clus scale="  102.688">  1  5  2 -1</clus>
<clus scale="   75.283">  2  5  1 -1</clus>
</clustering>
</event>
<event>
 9    1  0.2075077E-005  0.1999236E+03  0.7546771E-02  0.1150076E+00
         -2   -1    0    0    0  501 -0.00000000000E+00  0.00000000000E+00  0.58280161912E+02  0.58280161912E+02  0.00000000000E+00 0.  1.
          2   -1    0    0  502    0  0.00000000000E+00 -0.00000000000E+00 -0.10321075233E+04  0.10321075233E+04  0.00000000000E+00 0. -1.
         23    2    1    2    0    0 -0.95034302774E+02 -0.15803362145E+03 -0.21041267089E+03  0.29534585346E+03  0.94601991924E+02 0.  0.
         23    2    1    2    0    0  0.10149725764E+03  0.12072659916E+03 -0.59212740800E+03  0.61961972127E+03  0.91853832990E+02 0.  0.
        -13    1    3    3    0    0 -0.71502474871E+02 -0.53793923008E+02 -0.49719635061E+02  0.10236421336E+03  0.00000000000E+00 0.  1.
         13    1    3    3    0    0 -0.23531827902E+02 -0.10423969844E+03 -0.16069303583E+03  0.19298164011E+03  0.00000000000E+00 0. -1.
        -13    1    4    4    0    0  0.71987854084E+02  0.27554787538E+02 -0.35247754756E+03  0.36080734331E+03  0.00000000000E+00 0. -1.
         13    1    4    4    0    0  0.29509403557E+02  0.93171811625E+02 -0.23964986044E+03  0.25881237796E+03  0.00000000000E+00 0.  1.
         21    1    1    2  502  501 -0.64629548682E+01  0.37307022283E+02 -0.17128728251E+03  0.17542211048E+03  0.00000000000E+00 0. -1.
<scales pt_clust_5="13000.00000" pt_clust_6="13000.00000" pt_clust_7="13000.00000" pt_clust_8="13000.00000" pt_clust_9="37.86270"></scales>
<clustering>
<clus scale="   37.863">  2  9  1 -1</clus>
<clus scale="   91.854">  7  8 -1 -1</clus>
<clus scale="   94.602">  5  6 -1 -1</clus>
<clus scale="  198.638">  2  7  1 -1</clus>
<clus scale="   37.863">  2  5  1 -1</clus>
</clustering>
</event>
<event>
 9    1  0.2075077E-005  0.1065406E+03  0.7546771E-02  0.1267929E+00
         -1   -1    0    0    0  501 -0.00000000000E+00  0.00000000000E+00  0.72461418271E+03  0.72461418271E+03  0.00000000000E+00 0.  1.
          1   -1    0    0  502    0  0.00000000000E+00 -0.00000000000E+00 -0.15042957905E+03  0.15042957905E+03  0.00000000000E+00 0. -1.
         23    2    1    2    0    0 -0.16465521642E+02 -0.42986465566E+02  0.45917187398E+03  0.47068302105E+03  0.92653908847E+02 0.  0.
         23    2    1    2    0    0 -0.11396324992E+01  0.70159324647E+02  0.24493868321E+03  0.27046130410E+03  0.90723364599E+02 0.  0.
        -11    1    3    3    0    0  0.36976998138E+02 -0.28860099128E+02  0.24794043283E+03  0.25233838778E+03  0.00000000000E+00 0.  1.
         11    1    3    3    0    0 -0.53442519780E+02 -0.14126366437E+02  0.21123144115E+03  0.21834463327E+03  0.00000000000E+00 0. -1.
        -13    1    4    4    0    0 -0.33154335616E+02  0.47988661806E+02  0.69404018253E+02  0.90658917828E+02  0.00000000000E+00 0. -1.
         13    1    4    4    0    0  0.32014703117E+02  0.22170662841E+02  0.17553466496E+03  0.17980238627E+03  0.00000000000E+00 0.  1.
         21    1    1    2  502  501  0.17605154141E+02 -0.27172859081E+02 -0.12992595353E+03  0.13389943661E+03  0.00000000000E+00 0. -1.
<scales pt_clust_5="13000.00000" pt_clust_6="13000.00000" pt_clust_7="13000.00000" pt_clust_8="13000.00000" pt_clust_9="32.37755"></scales>
<clustering>
<clus scale="   32.378">  2  9  1 -1</clus>
<clus scale="   90.723">  7  8 -1 -1</clus>
<clus scale="   92.654">  5  6 -1 -1</clus>
<clus scale="  104.866">  2  7  1 -1</clus>
<clus scale="   32.378">  2  5  1 -1</clus>
</clustering>
</event>
<event>
 9    1  0.2075077E-005  0.1008955E+03  0.7546771E-02  0.1279939E+00
         -3   -1    0    0    0  501 -0.00000000000E+00  0.00000000000E+00  0.67098757321E+03  0.67098757321E+03  0.00000000000E+00 0.  1.
          3   -1    0    0  502    0  0.00000000000E+00 -0.00000000000E+00 -0.76961926301E+02  0.76961926301E+02  0.00000000000E+00 0. -1.
         23    2    1    2    0    0 -0.12659855841E+02 -0.46148379027E+02  0.33780182325E+03  0.35287198013E+03  0.90103372470E+02 0.  0.
         23    2    1    2    0    0 -0.54040254291E+02  0.20475610230E+02  0.29431735073E+03  0.31408917112E+03  0.93218585977E+02 0.  0.
        -11    1    3    3    0    0 -0.53141133362E+01  0.27327980483E+02  0.10583916793E+03  0.10943942519E+03  0.00000000000E+00 0. -1.
         11    1    3    3    0    0 -0.73457425047E+01 -0.73476359510E+02  0.23196265533E+03  0.24343255494E+03  0.00000000000E+00 0.  1.
        -13    1    4    4    0    0 -0.75261002150E+02  0.35949028986E+02  0.22208531965E+03  0.23723077442E+03  0.00000000000E+00 0. -1.
         13    1    4    4    0    0  0.21220747859E+02 -0.15473418756E+02  0.72232031089E+02  0.76858396697E+02  0.00000000000E+00 0.  1.
         21    1    1    2  502  501  0.66700110132E+02  0.25672768797E+02 -0.38093527078E+02  0.80988348265E+02  0.00000000000E+00 0. -1.
<scales pt_clust_5="13000.00000" pt_clust_6="13000.00000" pt_clust_7="13000.00000" pt_clust_8="13000.00000" pt_clust_9="71.47024"></scales>
<clustering>
<clus scale="   71.470">  2  9  1 -1</clus>
<clus scale="   90.103">  5  6 -1 -1</clus>
<clus scale="   93.219">  7  8 -1 -1</clus>
<clus scale="   98.025">  1  5  2 -1</clus>
<clus scale="   71.470">  2  5  1 -1</clus>
</clustering>
</event>
<event>
 9    1  0.2075077E-005  0.9837275E+02  0.7546771E-02  0.1285494E+00
         -2   -1    0    0    0  501 -0.00000000000E+00  0.00000000000E+00  0.10639474773E+03  0.10639474773E+03  0.00000000000E+00 0.  1.
          2   -1    0    0  502    0  0.00000000000E+00 -0.00000000000E+00 -0.12309995170E+03  0.12309995170E+03  0.00000000000E+00 0. -1.
         23    2    1    2    0    0 -0.42979844640E+02  0.36503281070E+01  0.17949378727E+02  0.10173282774E+03  0.90370327558E+02 0.  0.
         23    2    1    2    0    0  0.23057964729E+02 -0.65762975005E-01 -0.43269009481E+02  0.10576326366E+03  0.93712254779E+02 0.  0.
        -11    1    4    4    0    0 -0.25517671385E+02 -0.24787331350E+02  0.93455735941E+00  0.35587030584E+02  0.00000000000E+00 0. -1.
         11    1    4    4    0    0  0.48575636115E+02  0.24721568375E+02 -0.44203566841E+02  0.70176233073E+02  0.00000000000E+00 0.  1.
        -13    1    3    3    0    0 -0.42605912090E+02  0.34057367230E+02  0.36943768635E+02  0.65878752634E+02  0.00000000000E+00 0.  1.
         13    1    3    3    0    0 -0.37393255030E+00 -0.30407039123E+02 -0.18994389908E+02  0.35854075107E+02  0.00000000000E+00 0. -1.
         21    1    1    2  502  501  0.19921879911E+02 -0.35845651320E+01  0.86144267863E+01  0.21998608029E+02  0.00000000000E+00 0.  1.
<scales pt_clust_5="13000.00000" pt_clust_6="13000.00000" pt_clust_7="13000.00000" pt_clust_8="13000.00000" pt_clust_9="20.24180"></scales>
<clustering>
<clus scale="   20.242">  1  9  2 -1</clus>
<clus scale="   90.370">  7  8 -1 -1</clus>
<clus scale="   93.712">  5  6 -1 -1</clus>
<clus scale="   95.195">  1  7  2 -1</clus>
<clus scale="   98.373">  2  5  1 -1</clus>
</clustering>
</event>
<event>
 9    1  0.2583826E-005  0.9269243E+02  0.7546771E-02  0.1307783E+00
         -1   -1    0    0    0  501 -0.00000000000E+00  0.00000000000E+00  0.88750978606E+02  0.88750978606E+02  0.00000000000E+00 0.  1.
          1   -1    0    0  502    0  0.00000000000E+00 -0.00000000000E+00 -0.26305993393E+03  0.26305993393E+03  0.00000000000E+00 0. -1.
         23    2    1    2    0    0 -0.56344121570E+01  0.10234174772E+01  0.46953355452E+02  0.10401790201E+03  0.92640770541E+02 0.  0.
         23    2    1    2    0    0 -0.22216711646E+02 -0.11221095138E+02 -0.18273809623E+03  0.19917415788E+03  0.75217272614E+02 0.  0.
        -11    1    3    3    0    0  0.21949983345E+02 -0.84260768879E+01 -0.20078838490E+02  0.30918607596E+02  0.00000000000E+00 0.  1.
         11    1    3    3    0    0 -0.27584395502E+02  0.94494943651E+01  0.67032193942E+02  0.73099294413E+02  0.00000000000E+00 0. -1.
        -13    1    4    4    0    0  0.18006076108E+02 -0.14043360753E+02 -0.13393991029E+03  0.13587249290E+03  0.00000000000E+00 0.  1.
         13    1    4    4    0    0 -0.40222787754E+02  0.28222656146E+01 -0.48798185942E+02  0.63301664980E+02  0.00000000000E+00 0. -1.
         21    1    1    2  502  501  0.27851123803E+02  0.10197677661E+02 -0.38524214543E+02  0.48618852649E+02  0.00000000000E+00 0.  1.
<scales pt_clust_5="13000.00000" pt_clust_6="13000.00000" pt_clust_7="13000.00000" pt_clust_8="13000.00000" pt_clust_9="29.65936"></scales>
<clustering>
<clus scale="   29.659">  2  9  1 -1</clus>
<clus scale="   75.217">  7  8 -1 -1</clus>
<clus scale="   75.281">  2  7  1 -1</clus>
<clus scale="   92.641">  5  6 -1 -1</clus>
<clus scale="   29.659">  2  5  1 -1</clus>
</clustering>
</event>
<event>
 9    1  0.2075077E-005  0.1310100E+03  0.7546771E-02  0.1226244E+00
         -1   -1    0    0    0  501 -0.00000000000E+00  0.00000000000E+00  0.10900017566E+03  0.10900017566E+03  0.00000000000E+00 0.  1.
          1   -1    0    0  502    0  0.00000000000E+00 -0.00000000000E+00 -0.66080586064E+03  0.66080586064E+03  0.00000000000E+00 0. -1.
         23    2    1    2    0    0 -0.10697363712E+03  0.14479465320E+02  0.36457241294E+02  0.14694159832E+03  0.92788409410E+02 0.  0.
         23    2    1    2    0    0  0.86381691518E+02 -0.29991630964E+02 -0.58213205725E+03  0.59636456889E+03  0.91715169913E+02 0.  0.
        -11    1    4    4    0    0  0.75791670670E+02 -0.56705848058E+02 -0.51016822219E+03  0.51887526967E+03  0.00000000000E+00 0. -1.
         11    1    4    4    0    0  0.10590020848E+02  0.26714217094E+02 -0.71963835067E+02  0.77489299223E+02  0.00000000000E+00 0.  1.
        -13    1    3    3    0    0 -0.85587239474E+02 -0.31377976876E+02  0.16995350174E+02  0.92728608968E+02  0.00000000000E+00 0.  1.
         13    1    3    3    0    0 -0.21386397645E+02  0.45857442196E+02  0.19461891119E+02  0.54212989356E+02  0.00000000000E+00 0. -1.
         21    1    1    2  502  501  0.20591945601E+02  0.15512165643E+02 -0.61308690128E+01  0.26499869083E+02  0.00000000000E+00 0. -1.
<scales pt_clust_5="13000.00000" pt_clust_6="13000.00000" pt_clust_7="13000.00000" pt_clust_8="13000.00000" pt_clust_9="25.78091"></scales>
<clustering>
<clus scale="   25.781">  1  9  2 -1</clus>
<clus scale="   91.715">  5  6 -1 -1</clus>
<clus scale="   92.788">  7  8 -1 -1</clus>
<clus scale="  130.252">  2  5  1 -1</clus>
<clus scale="  130.252">  2  5  1 -1</clus>
</clustering>
</event>
<event>
 9    1  0.2075077E-005  0.9878725E+02  0.7546771E-02  0.1291517E+00
          1   -1    0    0  502    0  0.00000000000E+00  0.00000000000E+00  0.23898303857E+03  0.23898303857E+03  0.00000000000E+00 0. -1.
         -1   -1    0    0    0  501 -0.00000000000E+00 -0.00000000000E+00 -0.17515333443E+03  0.17515333443E+03  0.00000000000E+00 0.  1.
         23    2    1    2    0    0  0.17402663518E+02  0.17338108073E+01 -0.13384322475E+03  0.15783051071E+03  0.81796103226E+02 0.  0.
         23    2    1    2    0    0 -0.26421195192E+02 -0.23889371320E+02  0.66236396660E+02  0.12271033549E+03  0.96962799962E+02 0.  0.
        -13    1    4    4    0    0  0.33703691315E+02 -0.26712353661E+02  0.30296879044E+02  0.52605983749E+02  0.00000000000E+00 0.  1.
         13    1    4    4    0    0 -0.60124886507E+02  0.28229823408E+01  0.35939517615E+02  0.70104351742E+02  0.00000000000E+00 0. -1.
        -13    1    3    3    0    0 -0.24144716089E+02  0.14055211779E+02 -0.15827180187E+02  0.32109436711E+02  0.00000000000E+00 0. -1.
         13    1    3    3    0    0  0.41547379607E+02 -0.12321400972E+02 -0.11801604456E+03  0.12572107400E+03  0.00000000000E+00 0.  1.
         21    1    1    2  502  501  0.90185316739E+01  0.22155560513E+02  0.13143653223E+03  0.13359552680E+03  0.00000000000E+00 0.  1.
<scales pt_clust_5="13000.00000" pt_clust_6="13000.00000" pt_clust_7="13000.00000" pt_clust_8="13000.00000" pt_clust_9="23.92076"></scales>
<clustering>
<clus scale="   23.921">  1  9  2 -1</clus>
<clus scale="   81.796">  7  8 -1 -1</clus>
<clus scale="   83.951">  2  7  1 -1</clus>
<clus scale="   96.963">  5  6 -1 -1</clus>
<clus scale="   23.921">  1  5  2 -1</clus>
</clustering>
</event>
<event>
 9    1  0.2075077E-005  0.9584596E+02  0.7546771E-02  0.1291381E+00
          1   -1    0    0  502    0  0.00000000000E+00  0.00000000000E+00  0.26431207973E+03  0.26431207973E+03  0.00000000000E+00 0. -1.
         -1   -1    0    0    0  501 -0.00000000000E+00 -0.00000000000E+00 -0.55031635889E+02  0.55031635889E+02  0.00000000000E+00 0.  1.
         23    2    1    2    0    0  0.11981616412E+02 -0.25312820970E+02  0.48739366410E+02  0.11003229123E+03  0.94590069447E+02 0.  0.
         23    2    1    2    0    0  0.18806522499E+02  0.14931848239E+01  0.93083282378E+02  0.13142793014E+03  0.90845409747E+02 0.  0.
        -13    1    4    4    0    0 -0.36836974360E+02  0.99508231828E+00  0.32080874767E+02  0.48858319605E+02  0.00000000000E+00 0.  1.
         13    1    4    4    0    0  0.55643496859E+02  0.49810250558E+00  0.61002407611E+02  0.82569610530E+02  0.00000000000E+00 0. -1.
        -13    1    3    3    0    0 -0.21956195008E+02  0.63115025890E+01  0.58346531363E+02  0.62659614476E+02  0.00000000000E+00 0.  1.
         13    1    3    3    0    0  0.33937811419E+02 -0.31624323559E+02 -0.96071649525E+01  0.47372676755E+02  0.00000000000E+00 0. -1.
         21    1    1    2  502  501 -0.30788138911E+02  0.23819636146E+02  0.67457795050E+02  0.77883494251E+02  0.00000000000E+00 0.  1.
<scales pt_clust_5="13000.00000" pt_clust_6="13000.00000" pt_clust_7="13000.00000" pt_clust_8="13000.00000" pt_clust_9="38.92666"></scales>
<clustering>
<clus scale="   38.927">  1  9  2 -1</clus>
<clus scale="   90.845">  5  6 -1 -1</clus>
<clus scale="   92.152">  1  5  2 -1</clus>
<clus scale="   94.590">  7  8 -1 -1</clus>
<clus scale="   38.927">  1  5  2 -1</clus>
</clustering>
</event>
<event>
 9    1  0.2075077E-005  0.1975723E+03  0.7546771E-02  0.1152716E+00
          1   -1    0    0  502    0  0.00000000000E+00  0.00000000000E+00  0.36860846031E+03  0.36860846031E+03  0.00000000000E+00 0. -1.
         -1   -1    0    0    0  501 -0.00000000000E+00 -0.00000000000E+00 -0.18722125258E+03  0.18722125258E+03  0.00000000000E+00 0.  1.
         23    2    1    2    0    0 -0.15036780844E+03 -0.23827485076E+02 -0.58142444126E+01  0.17775955784E+03  0.91577443212E+02 0.  0.
         23    2    1    2    0    0  0.19487395172E+03  0.39122154799E+02  0.43402092033E+02  0.22676589312E+03  0.10016301030E+03 0.  0.
        -13    1    4    4    0    0  0.55197813421E+02  0.27712561622E+01  0.59894979034E+02  0.81497772857E+02  0.00000000000E+00 0.  1.
         13    1    4    4    0    0  0.13967613830E+03  0.36350898637E+02 -0.16492887001E+02  0.14526812026E+03  0.00000000000E+00 0. -1.
        -13    1    3    3    0    0 -0.45026059787E+02 -0.45402854029E+02  0.20331588764E+02  0.67097978476E+02  0.00000000000E+00 0.  1.
         13    1    3    3    0    0 -0.10534174865E+03  0.21575368953E+02 -0.26145833176E+02  0.11066157937E+03  0.00000000000E+00 0. -1.
         21    1    1    2  502  501 -0.44506143282E+02 -0.15294669723E+02  0.14379936011E+03  0.15130426194E+03  0.00000000000E+00 0. -1.
<scales pt_clust_5="13000.00000" pt_clust_6="13000.00000" pt_clust_7="13000.00000" pt_clust_8="13000.00000" pt_clust_9="47.06085"></scales>
<clustering>
<clus scale="   47.061">  1  9  2 -1</clus>
<clus scale="   91.577">  7  8 -1 -1</clus>
<clus scale="  100.163">  5  6 -1 -1</clus>
<clus scale="  193.361">  2  7  1 -1</clus>
<clus scale="   47.061">  1  5  2 -1</clus>
</clustering>
</event>
<event>
 9    1  0.2075077E-005  0.1157705E+03  0.7546771E-02  0.1258384E+00
         -1   -1    0    0    0  501 -0.00000000000E+00  0.00000000000E+00  0.51871022795E+03  0.51871022795E+03  0.00000000000E+00 0.  1.
          1   -1    0    0  502    0  0.00000000000E+00 -0.00000000000E+00 -0.56659749042E+02  0.56659749042E+02  0.00000000000E+00 0. -1.
         23    2    1    2    0    0 -0.19290217160E+02  0.28368685080E+02  0.41016903553E+03  0.42172245407E+03  0.91838422199E+02 0.  0.
         23    2    1    2    0    0  0.11046508016E+02 -0.47704474278E+02  0.32019750755E+02  0.12472835422E+03  0.11015514378E+03 0.  0.
        -11    1    4    4    0    0 -0.30611106086E+02 -0.18107461249E+02  0.57512654640E+02  0.67621190558E+02  0.00000000000E+00 0.  1.
         11    1    4    4    0    0  0.41657614102E+02 -0.29597013030E+02 -0.25492903885E+02  0.57107163661E+02  0.00000000000E+00 0. -1.
        -11    1    3    3    0    0 -0.21397154561E+02  0.59671642426E+02  0.32088045918E+03  0.32708227133E+03  0.00000000000E+00 0.  1.
         11    1    3    3    0    0  0.21069374013E+01 -0.31302957346E+02  0.89288576348E+02  0.94640182746E+02  0.00000000000E+00 0. -1.
         21    1    1    2  502  501  0.82437091438E+01  0.19335789198E+02  0.19861692623E+02  0.28919168699E+02  0.00000000000E+00 0. -1.
<scales pt_clust_5="13000.00000" pt_clust_6="13000.00000" pt_clust_7="13000.00000" pt_clust_8="13000.00000" pt_clust_9="21.01979"></scales>
<clustering>
<clus scale="   21.020">  2  9  1 -1</clus>
<clus scale="   91.838">  7  8 -1 -1</clus>
<clus scale="   98.504">  1  7  2 -1</clus>
<clus scale="  110.155">  5  6 -1 -1</clus>
<clus scale="   21.020">  2  5  1 -1</clus>
</clustering>
</event>
<event>
 9    1  0.2075077E-005  0.5826210E+03  0.7546771E-02  0.9942255E-01
          1   -1    0    0  502    0  0.00000000000E+00  0.00000000000E+00  0.50188658128E+03  0.50188658128E+03  0.00000000000E+00 0. -1.
         -1   -1    0    0    0  501 -0.00000000000E+00 -0.00000000000E+00 -0.83321299491E+03  0.83321299491E+03  0.00000000000E+00 0.  1.
         23    2    1    2    0    0  0.13111276382E+03 -0.54554016318E+03 -0.43326878971E+03  0.71488223344E+03  0.92358741157E+02 0.  0.
         23    2    1    2    0    0 -0.14083143579E+03  0.56399082533E+03  0.10862781760E+03  0.59831814991E+03  0.90914582897E+02 0.  0.
        -11    1    3    3    0    0  0.14135863936E+03 -0.48054242194E+03 -0.36293126207E+03  0.61856477850E+03  0.00000000000E+00 0.  1.
         11    1    3    3    0    0 -0.10245875546E+02 -0.64997741237E+02 -0.70337527636E+02  0.96317454937E+02  0.00000000000E+00 0. -1.
        -11    1    4    4    0    0  0.10701601591E+02  0.65750970844E+02  0.14609089692E+01  0.66632189658E+02  0.00000000000E+00 0.  1.
         11    1    4    4    0    0 -0.15153303738E+03  0.49823985449E+03  0.10716690863E+03  0.53168596025E+03  0.00000000000E+00 0. -1.
         21    1    1    2  502  501  0.97186719764E+01 -0.18450662151E+02 -0.66854415197E+01  0.21899192841E+02  0.00000000000E+00 0.  1.
<scales pt_clust_5="13000.00000" pt_clust_6="13000.00000" pt_clust_7="13000.00000" pt_clust_8="13000.00000" pt_clust_9="20.85377"></scales>
<clustering>
<clus scale="   20.854">  2  9  1 -1</clus>
<clus scale="   90.915">  7  8 -1 -1</clus>
<clus scale="   92.359">  5  6 -1 -1</clus>
<clus scale="  582.394">  1  7  2 -1</clus>
<clus scale="  582.394">  1  5  2 -1</clus>
</clustering>
</event>
<event>
 9    1  0.2075077E-005  0.1037097E+03  0.7546771E-02  0.1276246E+00
          3   -1    0    0  502    0  0.00000000000E+00  0.00000000000E+00  0.94668261939E+02  0.94668261939E+02  0.00000000000E+00 0. -1.
         -3   -1    0    0    0  501 -0.00000000000E+00 -0.00000000000E+00 -0.20024379101E+03  0.20024379101E+03  0.00000000000E+00 0.  1.
         23    2    1    2    0    0 -0.39111588495E+02 -0.79818360325E+00 -0.82317226019E+02  0.13436505045E+03  0.98729365597E+02 0.  0.
         23    2    1    2    0    0  0.23078055820E+02 -0.14210770491E+02 -0.63554090063E+02  0.11465481009E+03  0.91498964228E+02 0.  0.
        -11    1    3    3    0    0  0.30846872881E+02  0.97043909251E+01 -0.11646144722E+02  0.34370589996E+02  0.00000000000E+00 0. -1.
         11    1    3    3    0    0 -0.69958461376E+02 -0.10502574528E+02 -0.70671081297E+02  0.99994460454E+02  0.00000000000E+00 0.  1.
        -13    1    4    4    0    0 -0.31881310540E+02  0.10575681441E+02 -0.32905770959E+02  0.47021832824E+02  0.00000000000E+00 0.  1.
         13    1    4    4    0    0  0.54959366360E+02 -0.24786451931E+02 -0.30648319104E+02  0.67632977267E+02  0.00000000000E+00 0. -1.
         21    1    1    2  502  501  0.16033532675E+02  0.15008954094E+02  0.40295787012E+02  0.45892192407E+02  0.00000000000E+00 0. -1.
<scales pt_clust_5="13000.00000" pt_clust_6="13000.00000" pt_clust_7="13000.00000" pt_clust_8="13000.00000" pt_clust_9="21.96231"></scales>
<clustering>
<clus scale="   21.962">  1  9  2 -1</clus>
<clus scale="   91.499">  7  8 -1 -1</clus>
<clus scale="   96.852">  1  7  2 -1</clus>
<clus scale="   98.729">  5  6 -1 -1</clus>
<clus scale="   21.962">  1  5  2 -1</clus>
</clustering>
</event>
<event>
 9    1  0.2075077E-005  0.2426842E+03  0.7546771E-02  0.1118720E+00
         -2   -1    0    0    0  501 -0.00000000000E+00  0.00000000000E+00  0.23595889375E+03  0.23595889375E+03  0.00000000000E+00 0.  1.
          2   -1    0    0  502    0  0.00000000000E+00 -0.00000000000E+00 -0.57828907614E+03  0.57828907614E+03  0.00000000000E+00 0. -1.
         23    2    1    2    0    0 -0.11498639995E+03 -0.19484724201E+03  0.11891851388E+03  0.27121160753E+03  0.90701726674E+02 0.  0.
         23    2    1    2    0    0  0.53467371318E+02  0.19129350476E+03 -0.33308048051E+03  0.40082415661E+03  0.10131847446E+03 0.  0.
        -13    1    3    3    0    0  0.23612293221E+01 -0.22581028598E+02 -0.11382590249E+02  0.25397669524E+02  0.00000000000E+00 0.  1.
         13    1    3    3    0    0 -0.11734762927E+03 -0.17226621341E+03  0.13030110413E+03  0.24581393800E+03  0.00000000000E+00 0. -1.
        -13    1    4    4    0    0  0.32549745762E+02  0.10304283304E+03 -0.87544963439E+02  0.13907347703E+03  0.00000000000E+00 0.  1.
         13    1    4    4    0    0  0.20917625556E+02  0.88250671722E+02 -0.24553551707E+03  0.26175067958E+03  0.00000000000E+00 0. -1.
         21    1    1    2  502  501  0.61519028632E+02  0.35537372485E+01 -0.12816821576E+03  0.14221220575E+03  0.00000000000E+00 0.  1.
<scales pt_clust_5="13000.00000" pt_clust_6="13000.00000" pt_clust_7="13000.00000" pt_clust_8="13000.00000" pt_clust_9="61.62159"></scales>
<clustering>
<clus scale="   61.622">  2  9  1 -1</clus>
<clus scale="   90.702">  5  6 -1 -1</clus>
<clus scale="  101.318">  7  8 -1 -1</clus>
<clus scale="  238.447">  1  5  2 -1</clus>
<clus scale="   61.622">  2  5  1 -1</clus>
</clustering>
</event>
<event>
 9    1  0.2075077E-005  0.1440028E+03  0.7546771E-02  0.1224914E+00
          1   -1    0    0  502    0  0.00000000000E+00  0.00000000000E+00  0.17262629443E+03  0.17262629443E+03  0.00000000000E+00 0. -1.
         -1   -1    0    0    0  501 -0.00000000000E+00 -0.00000000000E+00 -0.36590662742E+03  0.36590662742E+03  0.00000000000E+00 0.  1.
         23    2    1    2    0    0 -0.27321632290E+02 -0.31452212086E+02 -0.88914631796E+02  0.13443545947E+03  0.91822479710E+02 0.  0.
         23    2    1    2    0    0 -0.70005143080E+02  0.83747853434E+02 -0.20790811646E+03  0.25267630446E+03  0.93301162567E+02 0.  0.
        -13    1    4    4    0    0  0.22634548817E+02  0.21993213849E+02 -0.56834096188E+02  0.65008758987E+02  0.00000000000E+00 0. -1.
         13    1    4    4    0    0 -0.92639691897E+02  0.61754639585E+02 -0.15107402027E+03  0.18766754548E+03  0.00000000000E+00 0.  1.
        -13    1    3    3    0    0  0.27401506187E+02 -0.20098492362E+02 -0.60982222641E+01  0.34525067000E+02  0.00000000000E+00 0. -1.
         13    1    3    3    0    0 -0.54723138477E+02 -0.11353719723E+02 -0.82816409532E+02  0.99910392473E+02  0.00000000000E+00 0.  1.
         21    1    1    2  502  501  0.97326775369E+02 -0.52295641348E+02  0.10354241525E+03  0.15142115791E+03  0.00000000000E+00 0. -1.
<scales pt_clust_5="13000.00000" pt_clust_6="13000.00000" pt_clust_7="13000.00000" pt_clust_8="13000.00000" pt_clust_9="109.68912"></scales>
<clustering>
<clus scale="   91.822">  7  8 -1 -1</clus>
<clus scale="   93.301">  5  6 -1 -1</clus>
<clus scale="  100.832">  2  7  1 -1</clus>
<clus scale="  109.689">  1  9  2 -1</clus>
<clus scale="  109.689">  1  5  2 -1</clus>
</clustering>
</event>
<event>
 9    1  0.2075077E-005  0.1240890E+03  0.7546771E-02  0.1239187E+00
          1   -1    0    0  502    0  0.00000000000E+00  0.00000000000E+00  0.32893350956E+03  0.32893350956E+03  0.00000000000E+00 0. -1.
         -1   -1    0    0    0  501 -0.00000000000E+00 -0.00000000000E+00 -0.82734950570E+02  0.82734950570E+02  0.00000000000E+00 0.  1.
         23    2    1    2    0    0 -0.52117513890E+02  0.30823630206E+02  0.26278803578E+02  0.11292528847E+03  0.91625399459E+02 0.  0.
         23    2    1    2    0    0  0.85742906921E+02 -0.48982699865E+02  0.98890179212E+02  0.17182360192E+03  0.99964652045E+02 0.  0.
        -13    1    3    3    0    0 -0.56023150520E+02 -0.40395436638E+01  0.46070903520E+02  0.72645987214E+02  0.00000000000E+00 0. -1.
         13    1    3    3    0    0  0.39056366297E+01  0.34863173870E+02 -0.19792099942E+02  0.40279301258E+02  0.00000000000E+00 0.  1.
        -13    1    4    4    0    0  0.10082142354E+02  0.29668550137E+02  0.20301795870E+02  0.37336783167E+02  0.00000000000E+00 0. -1.
         13    1    4    4    0    0  0.75660764567E+02 -0.78651250002E+02  0.78588383341E+02  0.13448681875E+03  0.00000000000E+00 0.  1.
         21    1    1    2  502  501 -0.33625393031E+02  0.18159069659E+02  0.12102957620E+03  0.12691956974E+03  0.00000000000E+00 0. -1.
<scales pt_clust_5="13000.00000" pt_clust_6="13000.00000" pt_clust_7="13000.00000" pt_clust_8="13000.00000" pt_clust_9="38.21543"></scales>
<clustering>
<clus scale="   38.215">  1  9  2 -1</clus>
<clus scale="   91.625">  5  6 -1 -1</clus>
<clus scale="   99.965">  7  8 -1 -1</clus>
<clus scale="  117.475">  2  5  1 -1</clus>
<clus scale="   38.215">  1  5  2 -1</clus>
</clustering>
</event>
<event>
 9    1  0.2075077E-005  0.9070255E+02  0.7546771E-02  0.1310742E+00
         -1   -1    0    0    0  501 -0.00000000000E+00  0.00000000000E+00  0.44566195092E+03  0.44566195092E+03  0.00000000000E+00 0.  1.
          1   -1    0    0  502    0  0.00000000000E+00 -0.00000000000E+00 -0.31366966974E+02  0.31366966974E+02  0.00000000000E+00 0. -1.
         23    2    1    2    0    0 -0.15731762911E+02  0.11289876187E+02  0.24646029874E+03  0.25841588545E+03  0.75240556414E+02 0.  0.
         23    2    1    2    0    0 -0.14373076713E+02 -0.80771166417E+01  0.16442727146E+03  0.18814610511E+03  0.89948897273E+02 0.  0.
        -11    1    4    4    0    0  0.34324375599E+02  0.33814739083E+01  0.33904522211E+02  0.48364385165E+02  0.00000000000E+00 0. -1.
         11    1    4    4    0    0 -0.48697452312E+02 -0.11458590550E+02  0.13052274925E+03  0.13978171995E+03  0.00000000000E+00 0.  1.
        -11    1    3    3    0    0 -0.22488506416E+02  0.40893699477E+02  0.13246703501E+03  0.14044765196E+03  0.00000000000E+00 0.  1.
         11    1    3    3    0    0  0.67567435054E+01 -0.29603823290E+02  0.11399326373E+03  0.11796823348E+03  0.00000000000E+00 0. -1.
         21    1    1    2  502  501  0.30104839624E+02 -0.32127595448E+01  0.34074137441E+01  0.30466927332E+02  0.00000000000E+00 0. -1.
<scales pt_clust_5="13000.00000" pt_clust_6="13000.00000" pt_clust_7="13000.00000" pt_clust_8="13000.00000" pt_clust_9="30.27579"></scales>
<clustering>
<clus scale="   30.276">  2  9  1 -1</clus>
<clus scale="   75.241">  7  8 -1 -1</clus>
<clus scale="   76.140">  1  7  2 -1</clus>
<clus scale="   89.949">  5  6 -1 -1</clus>
<clus scale="   30.276">  2  5  1 -1</clus>
</clustering>
</event>
<event>
 9    1  0.2075077E-005  0.1057459E+03  0.7546771E-02  0.1273704E+00
          4   -1    0    0  502    0  0.00000000000E+00  0.00000000000E+00  0.33376634229E+02  0.33376634229E+02  0.00000000000E+00 0. -1.
         -4   -1    0    0    0  501 -0.00000000000E+00 -0.00000000000E+00 -0.61352473139E+03  0.61352473139E+03  0.00000000000E+00 0.  1.
         23    2    1    2    0    0 -0.30335159473E+02  0.14529268675E+02 -0.43395865602E+03  0.44438723210E+03  0.89602317868E+02 0.  0.
         23    2    1    2    0    0  0.41901853385E+02  0.75266292870E+01 -0.13923813390E+03  0.17665737975E+03  0.10004077381E+03 0.  0.
        -13    1    4    4    0    0 -0.32984662202E+02  0.47841947963E+01 -0.35622766967E+02  0.48783788155E+02  0.00000000000E+00 0.  1.
         13    1    4    4    0    0  0.74886515587E+02  0.27424344907E+01 -0.10361536693E+03  0.12787359160E+03  0.00000000000E+00 0. -1.
        -13    1    3    3    0    0  0.28508733237E+02 -0.12051336967E+02 -0.12790710067E+03  0.13159866639E+03  0.00000000000E+00 0. -1.
         13    1    3    3    0    0 -0.58843892710E+02  0.26580605642E+02 -0.30605155535E+03  0.31278856571E+03  0.00000000000E+00 0.  1.
         21    1    1    2  502  501 -0.11566693912E+02 -0.22055897962E+02 -0.69513072389E+01  0.25856753765E+02  0.00000000000E+00 0. -1.
<scales pt_clust_5="13000.00000" pt_clust_6="13000.00000" pt_clust_7="13000.00000" pt_clust_8="13000.00000" pt_clust_9="24.90484"></scales>
<clustering>
<clus scale="   24.905">  1  9  2 -1</clus>
<clus scale="   89.602">  7  8 -1 -1</clus>
<clus scale="   95.930">  2  7  1 -1</clus>
<clus scale="  100.041">  5  6 -1 -1</clus>
<clus scale="   24.905">  1  5  2 -1</clus>
</clustering>
</event>
<event>
 9    1  0.2075077E-005  0.3081058E+03  0.7546771E-02  0.1081386E+00
         -1   -1    0    0    0  501 -0.00000000000E+00  0.00000000000E+00  0.11540932506E+04  0.11540932506E+04  0.00000000000E+00 0.  1.
          1   -1    0    0  502    0  0.00000000000E+00 -0.00000000000E+00 -0.14576730283E+03  0.14576730283E+03  0.00000000000E+00 0. -1.
         23    2    1    2    0    0 -0.49153083312E+02 -0.28793052582E+03  0.72613661850E+03  0.78799015857E+03  0.91291226206E+02 0.  0.
         23    2    1    2    0    0  0.80539999642E+01  0.29718396957E+03  0.32587277522E+03  0.45118263396E+03  0.94813104967E+02 0.  0.
        -11    1    4    4    0    0 -0.31629212623E+02  0.22464327174E+03  0.21233220698E+03  0.31072491491E+03  0.00000000000E+00 0. -1.
         11    1    4    4    0    0  0.39683212587E+02  0.72540697835E+02  0.11354056824E+03  0.14045771905E+03  0.00000000000E+00 0.  1.
        -13    1    3    3    0    0 -0.45401369080E+02 -0.87058062142E+02  0.16539143994E+03  0.19234011257E+03  0.00000000000E+00 0. -1.
         13    1    3    3    0    0 -0.37517142315E+01 -0.20087246368E+03  0.56074517856E+03  0.59565004600E+03  0.00000000000E+00 0.  1.
         21    1    1    2  502  501  0.41099083347E+02 -0.92534437499E+01 -0.43683445941E+02  0.60687760896E+02  0.00000000000E+00 0. -1.
<scales pt_clust_5="13000.00000" pt_clust_6="13000.00000" pt_clust_7="13000.00000" pt_clust_8="13000.00000" pt_clust_9="42.12791"></scales>
<clustering>
<clus scale="   42.128">  2  9  1 -1</clus>
<clus scale="   91.291">  7  8 -1 -1</clus>
<clus scale="   94.813">  5  6 -1 -1</clus>
<clus scale="  307.040">  1  7  2 -1</clus>
<clus scale="   42.128">  2  5  1 -1</clus>
</clustering>
</event>
<event>
 9    1  0.2075077E-005  0.9296931E+02  0.7546771E-02  0.1296660E+00
         -1   -1    0    0    0  501 -0.00000000000E+00  0.00000000000E+00  0.10085464563E+03  0.10085464563E+03  0.00000000000E+00 0.  1.
          1   -1    0    0  502    0  0.00000000000E+00 -0.00000000000E+00 -0.32201724976E+03  0.32201724976E+03  0.00000000000E+00 0. -1.
         23    2    1    2    0    0  0.43302481014E+01  0.16208091960E+02  0.37982857994E+02  0.99873271880E+02  0.90832371108E+02 0.  0.
         23    2    1    2    0    0 -0.39707303984E+02  0.52899231204E+02 -0.13295963529E+03  0.17484255346E+03  0.92285726046E+02 0.  0.
        -11    1    3    3    0    0 -0.91167263493E+01 -0.36678135369E+02  0.15006272781E+02  0.40664339860E+02  0.00000000000E+00 0. -1.
         11    1    3    3    0    0  0.13446974451E+02  0.52886227329E+02  0.22976585213E+02  0.59208932020E+02  0.00000000000E+00 0.  1.
        -13    1    4    4    0    0 -0.49606998658E+02  0.74605567358E+02 -0.10207665764E+03  0.13581785240E+03  0.00000000000E+00 0.  1.
         13    1    4    4    0    0  0.98996946742E+01 -0.21706336154E+02 -0.30882977652E+02  0.39024701056E+02  0.00000000000E+00 0. -1.
         21    1    1    2  502  501  0.35377055882E+02 -0.69107323164E+02 -0.12618582684E+03  0.14815607005E+03  0.00000000000E+00 0. -1.
<scales pt_clust_5="13000.00000" pt_clust_6="13000.00000" pt_clust_7="13000.00000" pt_clust_8="13000.00000" pt_clust_9="77.63606"></scales>
<clustering>
<clus scale="   77.636">  2  9  1 -1</clus>
<clus scale="   90.832">  5  6 -1 -1</clus>
<clus scale="   91.527">  1  5  2 -1</clus>
<clus scale="   92.286">  7  8 -1 -1</clus>
<clus scale="   77.636">  2  5  1 -1</clus>
</clustering>
</event>
<event>
 9    1  0.2075077E-005  0.1066774E+03  0.7546771E-02  0.1268167E+00
         -1   -1    0    0    0  501 -0.00000000000E+00  0.00000000000E+00  0.30090502626E+03  0.30090502626E+03  0.00000000000E+00 0.  1.
          1   -1    0    0  502    0  0.00000000000E+00 -0.00000000000E+00 -0.10188288110E+03  0.10188288110E+03  0.00000000000E+00 0. -1.
         23    2    1    2    0    0 -0.45052066798E+02 -0.59312508063E+01  0.17076201193E+03  0.19929691266E+03  0.92166839043E+02 0.  0.
         23    2    1    2    0    0  0.78032430084E+02  0.63154106173E+02  0.80545874373E+01  0.13442274136E+03  0.89034239168E+02 0.  0.
        -13    1    4    4    0    0  0.26048080133E+02  0.76225270438E+02  0.35485130612E+01  0.80631174349E+02  0.00000000000E+00 0. -1.
         13    1    4    4    0    0  0.51984349952E+02 -0.13071164265E+02  0.45060743761E+01  0.53791567010E+02  0.00000000000E+00 0.  1.
        -13    1    3    3    0    0 -0.23046953205E+02 -0.49089316272E+02  0.86129725619E+02  0.10178041393E+03  0.00000000000E+00 0.  1.
         13    1    3    3    0    0 -0.22005113593E+02  0.43158065466E+02  0.84632286309E+02  0.97516498732E+02  0.00000000000E+00 0. -1.
         21    1    1    2  502  501 -0.32980363287E+02 -0.57222855367E+02  0.20205545793E+02  0.69068253342E+02  0.00000000000E+00 0.  1.
<scales pt_clust_5="13000.00000" pt_clust_6="13000.00000" pt_clust_7="13000.00000" pt_clust_8="13000.00000" pt_clust_9="66.04665"></scales>
<clustering>
<clus scale="   66.047">  2  9  1 -1</clus>
<clus scale="   89.034">  5  6 -1 -1</clus>
<clus scale="   92.167">  7  8 -1 -1</clus>
<clus scale="  103.983">  2  5  1 -1</clus>
<clus scale="   66.047">  2  5  1 -1</clus>
</clustering>
</event>
<event>
 9    1  0.2075077E-005  0.1254227E+03  0.7546771E-02  0.1235436E+00
          2   -1    0    0  502    0  0.00000000000E+00  0.00000000000E+00  0.18642897922E+03  0.18642897922E+03  0.00000000000E+00 0. -1.
         -2   -1    0    0    0  501 -0.00000000000E+00 -0.00000000000E+00 -0.13565775408E+03  0.13565775408E+03  0.00000000000E+00 0.  1.
         23    2    1    2    0    0  0.35584887198E+01 -0.86547012464E+02 -0.51185518230E+02  0.13393778420E+03  0.88409979937E+02 0.  0.
         23    2    1    2    0    0  0.25218632529E+02  0.80944588453E+02  0.97244330960E+02  0.15845523440E+03  0.91997802021E+02 0.  0.
        -11    1    4    4    0    0  0.19844586273E+02 -0.62885548535E+01 -0.74187588535E+01  0.22099581657E+02  0.00000000000E+00 0.  1.
         11    1    4    4    0    0  0.53740462567E+01  0.87233143307E+02  0.10466308981E+03  0.13635565274E+03  0.00000000000E+00 0. -1.
        -13    1    3    3    0    0 -0.34153553089E+02 -0.15971416514E+02 -0.36703465806E+02  0.52618397318E+02  0.00000000000E+00 0. -1.
         13    1    3    3    0    0  0.37712041809E+02 -0.70575595950E+02 -0.14482052424E+02  0.81319386886E+02  0.00000000000E+00 0.  1.
         21    1    1    2  502  501 -0.28777121249E+02  0.56024240108E+01  0.47124124018E+01  0.29693714702E+02  0.00000000000E+00 0. -1.
<scales pt_clust_5="13000.00000" pt_clust_6="13000.00000" pt_clust_7="13000.00000" pt_clust_8="13000.00000" pt_clust_9="29.31740"></scales>
<clustering>
<clus scale="   29.317">  1  9  2 -1</clus>
<clus scale="   88.410">  7  8 -1 -1</clus>
<clus scale="   91.998">  5  6 -1 -1</clus>
<clus scale="  122.815">  2  7  1 -1</clus>
<clus scale="   29.317">  1  5  2 -1</clus>
</clustering>
</event>
<event>
 9    1  0.2075077E-005  0.1402479E+03  0.7546771E-02  0.1213812E+00
          1   -1    0    0  502    0  0.00000000000E+00  0.00000000000E+00  0.42858142170E+03  0.42858142170E+03  0.00000000000E+00 0. -1.
         -1   -1    0    0    0  501 -0.00000000000E+00 -0.00000000000E+00 -0.72894573070E+02  0.72894573070E+02  0.00000000000E+00 0.  1.
         23    2    1    2    0    0  0.32029867370E+02 -0.10712583501E+03  0.94245498862E+02  0.17228145808E+03  0.91086935469E+02 0.  0.
         23    2    1    2    0    0  0.20740130235E+02  0.97984185927E+02  0.13998059325E+03  0.19645058101E+03  0.94695356792E+02 0.  0.
        -13    1    3    3    0    0  0.60907498547E+02 -0.50870808991E+02  0.39512640946E+02  0.88649937288E+02  0.00000000000E+00 0.  1.
         13    1    3    3    0    0 -0.28877631177E+02 -0.56255026019E+02  0.54732857916E+02  0.83631520795E+02  0.00000000000E+00 0. -1.
        -13    1    4    4    0    0  0.42441497696E+02  0.57385873929E+02  0.30374181814E+02  0.77569389414E+02  0.00000000000E+00 0.  1.
         13    1    4    4    0    0 -0.21701367461E+02  0.40598311999E+02  0.10960641144E+03  0.11888119160E+03  0.00000000000E+00 0. -1.
         21    1    1    2  502  501 -0.52769997606E+02  0.91416490833E+01  0.12146075652E+03  0.13274395568E+03  0.00000000000E+00 0.  1.
<scales pt_clust_5="13000.00000" pt_clust_6="13000.00000" pt_clust_7="13000.00000" pt_clust_8="13000.00000" pt_clust_9="53.55597"></scales>
<clustering>
<clus scale="   53.556">  1  9  2 -1</clus>
<clus scale="   91.087">  5  6 -1 -1</clus>
<clus scale="   94.695">  7  8 -1 -1</clus>
<clus scale="  137.837">  2  5  1 -1</clus>
<clus scale="   53.556">  1  5  2 -1</clus>
</clustering>
</event>
<event>
 9    1  0.2075077E-005  0.2306106E+03  0.7546771E-02  0.1126340E+00
          1   -1    0    0  502    0  0.00000000000E+00  0.00000000000E+00  0.66576168521E+03  0.66576168521E+03  0.00000000000E+00 0. -1.
         -1   -1    0    0    0  501 -0.00000000000E+00 -0.00000000000E+00 -0.14818743123E+03  0.14818743123E+03  0.00000000000E+00 0.  1.
         23    2    1    2    0    0 -0.15009345681E+03 -0.21855970857E+03  0.97734177957E+02  0.29599344916E+03  0.88112203583E+02 0.  0.
         23    2    1    2    0    0  0.60641740524E+02  0.14022718755E+03  0.19471206301E+03  0.26335752188E+03  0.90018398274E+02 0.  0.
        -13    1    3    3    0    0 -0.64550621570E+02 -0.62449951023E+02  0.74067383138E+02  0.11641630630E+03  0.00000000000E+00 0. -1.
         13    1    3    3    0    0 -0.85542835236E+02 -0.15610975754E+03  0.23666794819E+02  0.17957714286E+03  0.00000000000E+00 0.  1.
        -13    1    4    4    0    0  0.36357159905E+02  0.14032306649E+03  0.13178615315E+03  0.19590813211E+03  0.00000000000E+00 0. -1.
         13    1    4    4    0    0  0.24284580619E+02 -0.95878941820E-01  0.62925909855E+02  0.67449389765E+02  0.00000000000E+00 0.  1.
         21    1    1    2  502  501  0.89451716282E+02  0.78332521019E+02  0.22512801302E+03  0.25459814540E+03  0.00000000000E+00 0. -1.
<scales pt_clust_5="13000.00000" pt_clust_6="13000.00000" pt_clust_7="13000.00000" pt_clust_8="13000.00000" pt_clust_9="118.90161"></scales>
<clustering>
<clus scale="   88.112">  5  6 -1 -1</clus>
<clus scale="   90.018">  7  8 -1 -1</clus>
<clus scale="  118.902">  1  9  2 -1</clus>
<clus scale="  229.873">  2  5  1 -1</clus>
<clus scale="  118.902">  1  5  2 -1</clus>
</clustering>
</event>
<event>
 9    1  0.2075077E-005  0.1305582E+03  0.7546771E-02  0.1226852E+00
         -2   -1    0    0    0  501 -0.00000000000E+00  0.00000000000E+00  0.31400611211E+02  0.31400611211E+02  0.00000000000E+00 0. -1.
          2   -1    0    0  502    0  0.00000000000E+00 -0.00000000000E+00 -0.69280651239E+03  0.69280651239E+03  0.00000000000E+00 0.  1.
         23    2    1    2    0    0 -0.12108799896E+02  0.93652860484E+02 -0.24591111522E+03  0.27841212203E+03  0.90130748326E+02 0.  0.
         23    2    1    2    0    0  0.38251835043E+02 -0.88615830555E+02 -0.30477763864E+03  0.33192175332E+03  0.89256221077E+02 0.  0.
        -11    1    3    3    0    0  0.27849634996E+02  0.39607452452E+01 -0.29472300809E+02  0.40741946287E+02  0.00000000000E+00 0.  1.
         11    1    3    3    0    0 -0.39958434892E+02  0.89692115239E+02 -0.21643881441E+03  0.23767017574E+03  0.00000000000E+00 0. -1.
        -13    1    4    4    0    0  0.40971339031E+02 -0.50227649462E+02 -0.27694048038E+03  0.28442485311E+03  0.00000000000E+00 0.  1.
         13    1    4    4    0    0 -0.27195039882E+01 -0.38388181093E+02 -0.27837158263E+02  0.47496900211E+02  0.00000000000E+00 0. -1.
         21    1    1    2  502  501 -0.26143035147E+02 -0.50370299290E+01 -0.11071714732E+03  0.11387324826E+03  0.00000000000E+00 0. -1.
<scales pt_clust_5="13000.00000" pt_clust_6="13000.00000" pt_clust_7="13000.00000" pt_clust_8="13000.00000" pt_clust_9="26.62386"></scales>
<clustering>
<clus scale="   26.624">  2  9  1 -1</clus>
<clus scale="   89.256">  7  8 -1 -1</clus>
<clus scale="   90.131">  5  6 -1 -1</clus>
<clus scale="  129.956">  2  7  1 -1</clus>
<clus scale="   26.624">  2  5  1 -1</clus>
</clustering>
</event>
<event>
 9    1  0.2075077E-005  0.1277681E+03  0.7546771E-02  0.1230881E+00
         -1   -1    0    0    0  501 -0.00000000000E+00  0.00000000000E+00  0.63842467409E+02  0.63842467409E+02  0.00000000000E+00 0.  1.
          1   -1    0    0  502    0  0.00000000000E+00 -0.00000000000E+00 -0.40823454098E+03  0.40823454098E+03  0.00000000000E+00 0. -1.
         23    2    1    2    0    0 -0.25377827320E+02 -0.84327403906E+02 -0.67018082224E+02  0.14437029877E+03  0.92715773482E+02 0.  0.
         23    2    1    2    0    0 -0.15507063361E+02  0.92754178638E+02 -0.19569719253E+03  0.23598057222E+03  0.92442590997E+02 0.  0.
        -11    1    3    3    0    0  0.24057488410E+01 -0.95903168739E+02 -0.60974353418E+02  0.11367091614E+03  0.00000000000E+00 0.  1.
         11    1    3    3    0    0 -0.27783576161E+02  0.11575764833E+02 -0.60437288061E+01  0.30699382627E+02  0.00000000000E+00 0. -1.
        -13    1    4    4    0    0 -0.36882328980E+02  0.60481550022E+02 -0.53954626078E+02  0.89047323145E+02  0.00000000000E+00 0. -1.
         13    1    4    4    0    0  0.21375265619E+02  0.32272628615E+02 -0.14174256645E+03  0.14693324907E+03  0.00000000000E+00 0.  1.
         21    1    1    2  502  501  0.40884890681E+02 -0.84267747320E+01 -0.81676798815E+02  0.91726137404E+02  0.00000000000E+00 0. -1.
<scales pt_clust_5="13000.00000" pt_clust_6="13000.00000" pt_clust_7="13000.00000" pt_clust_8="13000.00000" pt_clust_9="41.74428"></scales>
<clustering>
<clus scale="   41.744">  2  9  1 -1</clus>
<clus scale="   92.443">  7  8 -1 -1</clus>
<clus scale="   92.716">  5  6 -1 -1</clus>
<clus scale="  127.570">  2  7  1 -1</clus>
<clus scale="   41.744">  2  5  1 -1</clus>
</clustering>
</event>
<event>
 9    1  0.2075077E-005  0.2951976E+03  0.7546771E-02  0.1087802E+00
          1   -1    0    0  502    0  0.00000000000E+00  0.00000000000E+00  0.41893128820E+03  0.41893128820E+03  0.00000000000E+00 0. -1.
         -1   -1    0    0    0  501 -0.00000000000E+00 -0.00000000000E+00 -0.26160619421E+03  0.26160619421E+03  0.00000000000E+00 0.  1.
         23    2    1    2    0    0 -0.22002199425E+03  0.18898324370E+03 -0.36011488763E+02  0.30543029071E+03  0.88693239913E+02 0.  0.
         23    2    1    2    0    0  0.18121431953E+03 -0.19276485407E+03  0.15388811931E+03  0.31964082836E+03  0.92150894290E+02 0.  0.
        -11    1    3    3    0    0 -0.39369758501E+02  0.59577733854E+02  0.23853717193E+02  0.75289335762E+02  0.00000000000E+00 0. -1.
         11    1    3    3    0    0 -0.18065223575E+03  0.12940550985E+03 -0.59865205956E+02  0.23014095495E+03  0.00000000000E+00 0.  1.
        -13    1    4    4    0    0  0.27448808753E+02 -0.27352918811E+01 -0.50801976407E+01  0.28048660070E+02  0.00000000000E+00 0.  1.
         13    1    4    4    0    0  0.15376551078E+03 -0.19002956219E+03  0.15896831695E+03  0.29159216829E+03  0.00000000000E+00 0. -1.
         21    1    1    2  502  501  0.38807674720E+02  0.37816103687E+01  0.39448463441E+02  0.55466363338E+02  0.00000000000E+00 0.  1.
<scales pt_clust_5="13000.00000" pt_clust_6="13000.00000" pt_clust_7="13000.00000" pt_clust_8="13000.00000" pt_clust_9="38.99149"></scales>
<clustering>
<clus scale="   38.991">  1  9  2 -1</clus>
<clus scale="   88.693">  5  6 -1 -1</clus>
<clus scale="   92.151">  7  8 -1 -1</clus>
<clus scale="  294.137">  2  5  1 -1</clus>
<clus scale="   38.991">  1  5  2 -1</clus>
</clustering>
</event>
<event>
 9    1  0.2075077E-005  0.1372835E+03  0.7546771E-02  0.1234562E+00
          2   -1    0    0  502    0  0.00000000000E+00  0.00000000000E+00  0.23829197715E+03  0.23829197715E+03  0.00000000000E+00 0. -1.
         -2   -1    0    0    0  501 -0.00000000000E+00 -0.00000000000E+00 -0.14842548850E+03  0.14842548850E+03  0.00000000000E+00 0.  1.
         23    2    1    2    0    0  0.40490584095E+02  0.79371438764E+02 -0.63878532986E+01  0.12721450215E+03  0.90572690124E+02 0.  0.
         23    2    1    2    0    0  0.18014938922E+02  0.20178507731E+02  0.10725978417E+03  0.14351068863E+03  0.91427273019E+02 0.  0.
        -11    1    4    4    0    0  0.40521660096E+02 -0.20977944425E+02  0.35651372421E+02  0.57905953448E+02  0.00000000000E+00 0.  1.
         11    1    4    4    0    0 -0.22506721174E+02  0.41156452156E+02  0.71608411750E+02  0.85604735181E+02  0.00000000000E+00 0. -1.
        -11    1    3    3    0    0 -0.15871900578E+01  0.66921262570E+02  0.26893166697E+02  0.72140259018E+02  0.00000000000E+00 0. -1.
         11    1    3    3    0    0  0.42077774152E+02  0.12450176194E+02 -0.33281019995E+02  0.55074243134E+02  0.00000000000E+00 0.  1.
         21    1    1    2  502  501 -0.58505523017E+02 -0.99549946495E+02 -0.11005442216E+02  0.11599227487E+03  0.00000000000E+00 0.  1.
<scales pt_clust_5="13000.00000" pt_clust_6="13000.00000" pt_clust_7="13000.00000" pt_clust_8="13000.00000" pt_clust_9="103.16660"></scales>
<clustering>
<clus scale="   90.573">  7  8 -1 -1</clus>
<clus scale="   91.427">  5  6 -1 -1</clus>
<clus scale="   95.345">  1  5  2 -1</clus>
<clus scale="  103.167">  1  9  2 -1</clus>
<clus scale="   95.345">  1  5  2 -1</clus>
</clustering>
</event>
<event>
 9    1  0.2075077E-005  0.9407863E+02  0.7546771E-02  0.1293854E+00
         -1   -1    0    0    0  501 -0.00000000000E+00  0.00000000000E+00  0.48207289765E+02  0.48207289765E+02  0.00000000000E+00 0.  1.
          1   -1    0    0  502    0  0.00000000000E+00 -0.00000000000E+00 -0.43780491939E+03  0.43780491939E+03  0.00000000000E+00 0. -1.
         23    2    1    2    0    0 -0.31687432316E+02 -0.21244639022E+02 -0.51927672553E+02  0.11119099070E+03  0.90617466205E+02 0.  0.
         23    2    1    2    0    0  0.27554859235E+01  0.81839097231E+01 -0.97904717018E+02  0.13296380073E+03  0.89551491384E+02 0.  0.
        -11    1    4    4    0    0  0.39367885866E+02  0.21674522766E+02 -0.28123613856E+02  0.53014649212E+02  0.00000000000E+00 0. -1.
         11    1    4    4    0    0 -0.36612399943E+02 -0.13490613043E+02 -0.69781103162E+02  0.79949151518E+02  0.00000000000E+00 0.  1.
        -13    1    3    3    0    0  0.16861471887E+00 -0.30084231750E+02  0.17135835813E+02  0.34622626994E+02  0.00000000000E+00 0.  1.
         13    1    3    3    0    0 -0.31856047035E+02  0.88395927283E+01 -0.69063508367E+02  0.76568363703E+02  0.00000000000E+00 0. -1.
         21    1    1    2  502  501  0.28931946393E+02  0.13060729299E+02 -0.23976524006E+03  0.24185741773E+03  0.00000000000E+00 0. -1.
<scales pt_clust_5="13000.00000" pt_clust_6="13000.00000" pt_clust_7="13000.00000" pt_clust_8="13000.00000" pt_clust_9="31.74335"></scales>
<clustering>
<clus scale="   31.743">  2  9  1 -1</clus>
<clus scale="   89.551">  5  6 -1 -1</clus>
<clus scale="   90.617">  7  8 -1 -1</clus>
<clus scale="   93.052">  2  5  1 -1</clus>
<clus scale="   31.743">  2  5  1 -1</clus>
</clustering>
</event>
<event>
 9    1  0.2075077E-005  0.1561858E+03  0.7546771E-02  0.1193339E+00
         -1   -1    0    0    0  501 -0.00000000000E+00  0.00000000000E+00  0.71032715289E+03  0.71032715289E+03  0.00000000000E+00 0.  1.
          1   -1    0    0  502    0  0.00000000000E+00 -0.00000000000E+00 -0.43056226271E+02  0.43056226271E+02  0.00000000000E+00 0. -1.
         23    2    1    2    0    0  0.10861657650E+03 -0.67047653003E+02  0.40329607346E+03  0.43266077206E+03  0.90855227430E+02 0.  0.
         23    2    1    2    0    0 -0.93962926326E+02  0.81406350529E+02  0.25492308595E+03  0.29829859881E+03  0.92413466957E+02 0.  0.
        -11    1    4    4    0    0 -0.82403301844E+02  0.15076438720E+02  0.10798225203E+03  0.13666663789E+03  0.00000000000E+00 0. -1.
         11    1    4    4    0    0 -0.11559624481E+02  0.66329911809E+02  0.14694083392E+03  0.16163196092E+03  0.00000000000E+00 0.  1.
        -11    1    3    3    0    0  0.19654060536E+02  0.54288208574E+01  0.95140058871E+01  0.22500455540E+02  0.00000000000E+00 0.  1.
         11    1    3    3    0    0  0.88962515962E+02 -0.72476473861E+02  0.39378206757E+03  0.41016031652E+03  0.00000000000E+00 0. -1.
         21    1    1    2  502  501 -0.14653650173E+02 -0.14358697526E+02  0.90517672195E+01  0.22424008291E+02  0.00000000000E+00 0. -1.
<scales pt_clust_5="13000.00000" pt_clust_6="13000.00000" pt_clust_7="13000.00000" pt_clust_8="13000.00000" pt_clust_9="20.51589"></scales>
<clustering>
<clus scale="   20.516">  2  9  1 -1</clus>
<clus scale="   90.855">  7  8 -1 -1</clus>
<clus scale="   92.413">  5  6 -1 -1</clus>
<clus scale="  155.269">  1  7  2 -1</clus>
<clus scale="   20.516">  2  5  1 -1</clus>
</clustering>
</event>
<event>
 9    1  0.2075077E-005  0.1423592E+03  0.7546771E-02  0.1211220E+00
         -1   -1    0    0    0  501 -0.00000000000E+00  0.00000000000E+00  0.48600877599E+03  0.48600877599E+03  0.00000000000E+00 0.  1.
          1   -1    0    0  502    0  0.00000000000E+00 -0.00000000000E+00 -0.53045593227E+02  0.53045593227E+02  0.00000000000E+00 0. -1.
         23    2    1    2    0    0  0.86862498006E+01 -0.98225302176E+02  0.18479808625E+03  0.22948163928E+03  0.93743421950E+02 0.  0.
         23    2    1    2    0    0 -0.42259605881E+02  0.11017320516E+03  0.21498780324E+03  0.26088335314E+03  0.88973923028E+02 0.  0.
        -13    1    3    3    0    0 -0.17863834417E+02  0.94033922358E+01  0.56105612955E+02  0.59627008735E+02  0.00000000000E+00 0.  1.
         13    1    3    3    0    0  0.26550084217E+02 -0.10762869441E+03  0.12869247330E+03  0.16985463054E+03  0.00000000000E+00 0. -1.
        -13    1    4    4    0    0 -0.76295311299E+01  0.76017203690E+02  0.19287018934E+03  0.20745056023E+03  0.00000000000E+00 0.  1.
         13    1    4    4    0    0 -0.34630074751E+02  0.34156001473E+02  0.22117613898E+02  0.53432792913E+02  0.00000000000E+00 0. -1.
         21    1    1    2  502  501  0.33573356081E+02 -0.11947902987E+02  0.33177293266E+02  0.48689376796E+02  0.00000000000E+00 0.  1.
<scales pt_clust_5="13000.00000" pt_clust_6="13000.00000" pt_clust_7="13000.00000" pt_clust_8="13000.00000" pt_clust_9="35.63597"></scales>
<clustering>
<clus scale="   35.636">  2  9  1 -1</clus>
<clus scale="   88.974">  7  8 -1 -1</clus>
<clus scale="   93.743">  5  6 -1 -1</clus>
<clus scale="  139.265">  2  7  1 -1</clus>
<clus scale="   35.636">  2  5  1 -1</clus>
</clustering>
</event>
<event>
 9    1  0.2075077E-005  0.9486439E+02  0.7546771E-02  0.1292186E+00
         -4   -1    0    0    0  501 -0.00000000000E+00  0.00000000000E+00  0.51748323483E+03  0.51748323483E+03  0.00000000000E+00 0.  1.
          4   -1    0    0  502    0  0.00000000000E+00 -0.00000000000E+00 -0.69065436415E+02  0.69065436415E+02  0.00000000000E+00 0. -1.
         23    2    1    2    0    0 -0.14981668134E+02 -0.16377293815E+02  0.44795290576E+03  0.45752870517E+03  0.90432539181E+02 0.  0.
         23    2    1    2    0    0  0.37377082867E+02  0.24848039825E+02  0.11314604443E+02  0.10273262340E+03  0.91714231338E+02 0.  0.
        -13    1    3    3    0    0  0.43419657621E+01  0.35185804993E+02  0.12565237279E+03  0.13055808029E+03  0.00000000000E+00 0. -1.
         13    1    3    3    0    0 -0.19323633896E+02 -0.51563098807E+02  0.32230053297E+03  0.32697062489E+03  0.00000000000E+00 0.  1.
        -13    1    4    4    0    0  0.10166544773E+02  0.57321429258E+02 -0.22148322717E+01  0.58258135628E+02  0.00000000000E+00 0.  1.
         13    1    4    4    0    0  0.27210538095E+02 -0.32473389433E+02  0.13529436714E+02  0.44474487771E+02  0.00000000000E+00 0. -1.
         21    1    1    2  502  501 -0.22395414733E+02 -0.84707460099E+01 -0.10849711788E+02  0.26287342675E+02  0.00000000000E+00 0.  1.
<scales pt_clust_5="13000.00000" pt_clust_6="13000.00000" pt_clust_7="13000.00000" pt_clust_8="13000.00000" pt_clust_9="23.94385"></scales>
<clustering>
<clus scale="   23.944">  2  9  1 -1</clus>
<clus scale="   90.433">  5  6 -1 -1</clus>
<clus scale="   91.714">  7  8 -1 -1</clus>
<clus scale="   93.626">  1  5  2 -1</clus>
<clus scale="   23.944">  2  5  1 -1</clus>
</clustering>
</event>
<event>
 9    1  0.2075077E-005  0.9639674E+02  0.7546771E-02  0.1289351E+00
          2   -1    0    0  502    0  0.00000000000E+00  0.00000000000E+00  0.20275389346E+03  0.20275389346E+03  0.00000000000E+00 0. -1.
         -2   -1    0    0    0  501 -0.00000000000E+00 -0.00000000000E+00 -0.21264899793E+03  0.21264899793E+03  0.00000000000E+00 0.  1.
         23    2    1    2    0    0 -0.30904537351E+01 -0.20514796591E+02 -0.14852774645E+03  0.17708430619E+03  0.94169805409E+02 0.  0.
         23    2    1    2    0    0  0.24896933468E+02  0.13637331155E+02 -0.17243071022E+01  0.96111358772E+02  0.91807330605E+02 0.  0.
        -11    1    3    3    0    0  0.19470843228E+02 -0.40300065958E+02 -0.13833085717E+03  0.14539131713E+03  0.00000000000E+00 0.  1.
         11    1    3    3    0    0 -0.22561296963E+02  0.19785269368E+02 -0.10196889282E+02  0.31692989061E+02  0.00000000000E+00 0. -1.
        -11    1    4    4    0    0 -0.13285093904E+00  0.23941526979E+02 -0.41552133319E+02  0.47956169018E+02  0.00000000000E+00 0. -1.
         11    1    4    4    0    0  0.25029784407E+02 -0.10304195824E+02  0.39827826217E+02  0.48155189754E+02  0.00000000000E+00 0.  1.
         21    1    1    2  502  501 -0.21806479733E+02  0.68774654355E+01  0.14035694908E+03  0.14220722642E+03  0.00000000000E+00 0. -1.
<scales pt_clust_5="13000.00000" pt_clust_6="13000.00000" pt_clust_7="13000.00000" pt_clust_8="13000.00000" pt_clust_9="22.86530"></scales>
<clustering>
<clus scale="   22.865">  1  9  2 -1</clus>
<clus scale="   91.807">  7  8 -1 -1</clus>
<clus scale="   94.090">  1  7  2 -1</clus>
<clus scale="   94.170">  5  6 -1 -1</clus>
<clus scale="   22.865">  1  5  2 -1</clus>
</clustering>
</event>
<event>
 9    1  0.2075077E-005  0.1061664E+03  0.7546771E-02  0.1268448E+00
          1   -1    0    0  502    0  0.00000000000E+00  0.00000000000E+00  0.10811822434E+03  0.10811822434E+03  0.00000000000E+00 0. -1.
         -1   -1    0    0    0  501 -0.00000000000E+00 -0.00000000000E+00 -0.21404297351E+03  0.21404297351E+03  0.00000000000E+00 0.  1.
         23    2    1    2    0    0 -0.23625605262E+02  0.60987609820E+02 -0.12149415836E+03  0.16532197963E+03  0.91065189055E+02 0.  0.
         23    2    1    2    0    0  0.13621248666E+02 -0.34564708263E+02 -0.31457719556E+02  0.10197750373E+03  0.89607843828E+02 0.  0.
        -11    1    4    4    0    0 -0.38073513195E+02 -0.10184737827E+02 -0.17616176720E+02  0.43170024020E+02  0.00000000000E+00 0.  1.
         11    1    4    4    0    0  0.51694761861E+02 -0.24379970435E+02 -0.13841542836E+02  0.58807479714E+02  0.00000000000E+00 0. -1.
        -11    1    3    3    0    0  0.38368471258E+01  0.49029003162E+02 -0.10407741191E+02  0.50268137261E+02  0.00000000000E+00 0. -1.
         11    1    3    3    0    0 -0.27462452388E+02  0.11958606658E+02 -0.11108641717E+03  0.11505384237E+03  0.00000000000E+00 0.  1.
         21    1    1    2  502  501  0.10004356596E+02 -0.26422901557E+02  0.47027128745E+02  0.54861714480E+02  0.00000000000E+00 0.  1.
<scales pt_clust_5="13000.00000" pt_clust_6="13000.00000" pt_clust_7="13000.00000" pt_clust_8="13000.00000" pt_clust_9="28.25344"></scales>
<clustering>
<clus scale="   28.253">  1  9  2 -1</clus>
<clus scale="   89.608">  5  6 -1 -1</clus>
<clus scale="   91.065">  7  8 -1 -1</clus>
<clus scale="  104.919">  1  5  2 -1</clus>
<clus scale="   28.253">  1  5  2 -1</clus>
</clustering>
</event>
<event>
 9    1  0.2075077E-005  0.1872657E+03  0.7546771E-02  0.1160982E+00
         -1   -1    0    0    0  501 -0.00000000000E+00  0.00000000000E+00  0.12609665118E+03  0.12609665118E+03  0.00000000000E+00 0.  1.
          1   -1    0    0  502    0  0.00000000000E+00 -0.00000000000E+00 -0.50228052247E+03  0.50228052247E+03  0.00000000000E+00 0. -1.
         23    2    1    2    0    0 -0.10329663812E+03  0.13304878079E+03  0.89277626564E+01  0.19001063436E+03  0.87476640913E+02 0.  0.
         23    2    1    2    0    0  0.80397959131E+02 -0.13418705801E+03 -0.29258615897E+03  0.34304283450E+03  0.87187886286E+02 0.  0.
        -11    1    3    3    0    0 -0.36691326862E+02  0.22283900289E+02 -0.32984140137E+02  0.54136671301E+02  0.00000000000E+00 0. -1.
         11    1    3    3    0    0 -0.66605311259E+02  0.11076488050E+03  0.41911902794E+02  0.13587396305E+03  0.00000000000E+00 0.  1.
        -13    1    4    4    0    0  0.31487373652E+01 -0.24225622449E+02 -0.12921014448E+03  0.13149926527E+03  0.00000000000E+00 0.  1.
         13    1    4    4    0    0  0.77249221766E+02 -0.10996143556E+03 -0.16337601448E+03  0.21154356923E+03  0.00000000000E+00 0. -1.
         21    1    1    2  502  501  0.22898678990E+02  0.11382772170E+01 -0.92525474985E+02  0.95323704794E+02  0.00000000000E+00 0. -1.
<scales pt_clust_5="13000.00000" pt_clust_6="13000.00000" pt_clust_7="13000.00000" pt_clust_8="13000.00000" pt_clust_9="22.92695"></scales>
<clustering>
<clus scale="   22.927">  2  9  1 -1</clus>
<clus scale="   87.188">  7  8 -1 -1</clus>
<clus scale="   87.477">  5  6 -1 -1</clus>
<clus scale="  187.131">  2  7  1 -1</clus>
<clus scale="   22.927">  2  5  1 -1</clus>
</clustering>
</event>
<event>
 9    1  0.2075077E-005  0.1167946E+03  0.7546771E-02  0.1250915E+00
         -2   -1    0    0    0  501 -0.00000000000E+00  0.00000000000E+00  0.16632887296E+03  0.16632887296E+03  0.00000000000E+00 0.  1.
          2   -1    0    0  502    0  0.00000000000E+00 -0.00000000000E+00 -0.19723361105E+03  0.19723361105E+03  0.00000000000E+00 0. -1.
         23    2    1    2    0    0  0.19080127165E+02  0.69379375236E+02  0.81529867559E+02  0.14257082892E+03  0.92205059485E+02 0.  0.
         23    2    1    2    0    0 -0.31620187261E+02 -0.35236187932E+02 -0.73930516985E+01  0.10983078786E+03  0.98826714842E+02 0.  0.
        -13    1    3    3    0    0 -0.33386466587E+02  0.51607923219E+01  0.19451153616E+02  0.38982525643E+02  0.00000000000E+00 0.  1.
         13    1    3    3    0    0  0.52466593751E+02  0.64218582914E+02  0.62078713943E+02  0.10358830328E+03  0.00000000000E+00 0. -1.
        -13    1    4    4    0    0  0.27038612170E+02  0.15376961390E+02 -0.88542187593E+01  0.32340913399E+02  0.00000000000E+00 0. -1.
         13    1    4    4    0    0 -0.58658799431E+02 -0.50613149322E+02  0.14611670608E+01  0.77489874462E+02  0.00000000000E+00 0.  1.
         21    1    1    2  502  501  0.12540060096E+02 -0.34143187305E+02 -0.10504155395E+03  0.11116086722E+03  0.00000000000E+00 0.  1.
<scales pt_clust_5="13000.00000" pt_clust_6="13000.00000" pt_clust_7="13000.00000" pt_clust_8="13000.00000" pt_clust_9="36.37321"></scales>
<clustering>
<clus scale="   36.373">  2  9  1 -1</clus>
<clus scale="   92.205">  5  6 -1 -1</clus>
<clus scale="   98.827">  7  8 -1 -1</clus>
<clus scale="  111.248">  1  5  2 -1</clus>
<clus scale="   36.373">  2  5  1 -1</clus>
</clustering>
</event>
<event>
 9    1  0.2075077E-005  0.9604466E+02  0.7546771E-02  0.1289608E+00
          1   -1    0    0  502    0  0.00000000000E+00  0.00000000000E+00  0.51948462715E+03  0.51948462715E+03  0.00000000000E+00 0. -1.
         -1   -1    0    0    0  501 -0.00000000000E+00 -0.00000000000E+00 -0.48418437666E+02  0.48418437666E+02  0.00000000000E+00 0.  1.
         23    2    1    2    0    0 -0.83400657736E+01 -0.19105764908E+02  0.14451946283E+02  0.95252455433E+02  0.91812769073E+02 0.  0.
         23    2    1    2    0    0  0.25200066802E+02  0.31004597500E+02  0.37713908884E+03  0.39054006188E+03  0.93227244747E+02 0.  0.
        -11    1    4    4    0    0  0.24798811428E+01 -0.30915744571E+02  0.72722819488E+02  0.79060366475E+02  0.00000000000E+00 0.  1.
         11    1    4    4    0    0  0.22720185659E+02  0.61920342071E+02  0.30441626936E+03  0.31147969540E+03  0.00000000000E+00 0. -1.
        -13    1    3    3    0    0  0.39965372199E+02 -0.21158971337E+02  0.17131433403E+01  0.45253374495E+02  0.00000000000E+00 0.  1.
         13    1    3    3    0    0 -0.48305437972E+02  0.20532064293E+01  0.12738802942E+02  0.49999080939E+02  0.00000000000E+00 0. -1.
         21    1    1    2  502  501 -0.16860001028E+02 -0.11898832592E+02  0.79475154361E+02  0.82110547510E+02  0.00000000000E+00 0. -1.
<scales pt_clust_5="13000.00000" pt_clust_6="13000.00000" pt_clust_7="13000.00000" pt_clust_8="13000.00000" pt_clust_9="20.63594"></scales>
<clustering>
<clus scale="   20.636">  1  9  2 -1</clus>
<clus scale="   91.813">  7  8 -1 -1</clus>
<clus scale="   93.227">  5  6 -1 -1</clus>
<clus scale="   94.672">  2  7  1 -1</clus>
<clus scale="   20.636">  1  5  2 -1</clus>
</clustering>
</event>
<event>
 9    1  0.2075077E-005  0.1014787E+03  0.7546771E-02  0.1277917E+00
          1   -1    0    0  502    0  0.00000000000E+00  0.00000000000E+00  0.10984532380E+03  0.10984532380E+03  0.00000000000E+00 0. -1.
         -1   -1    0    0    0  501 -0.00000000000E+00 -0.00000000000E+00 -0.18423554575E+03  0.18423554575E+03  0.00000000000E+00 0.  1.
         23    2    1    2    0    0  0.17632489987E+02 -0.40548521380E+02 -0.12529552634E+03  0.16166627070E+03  0.92097377131E+02 0.  0.
         23    2    1    2    0    0  0.50318721652E+01  0.40214847870E+02  0.45046259724E+02  0.10900278442E+03  0.90608431012E+02 0.  0.
        -11    1    4    4    0    0  0.22743448419E+02  0.61907779165E+02  0.46912054378E+02  0.80935643650E+02  0.00000000000E+00 0. -1.
         11    1    4    4    0    0 -0.17711576254E+02 -0.21692931295E+02 -0.18657946534E+01  0.28067140774E+02  0.00000000000E+00 0.  1.
        -11    1    3    3    0    0  0.44212495280E+02 -0.31972248360E+02 -0.12187170606E+03  0.13352783284E+03  0.00000000000E+00 0.  1.
         11    1    3    3    0    0 -0.26580005294E+02 -0.85762730202E+01 -0.34238202754E+01  0.28138437867E+02  0.00000000000E+00 0. -1.
         21    1    1    2  502  501 -0.22664362152E+02  0.33367351043E+00  0.58590446602E+01  0.23411814413E+02  0.00000000000E+00 0.  1.
<scales pt_clust_5="13000.00000" pt_clust_6="13000.00000" pt_clust_7="13000.00000" pt_clust_8="13000.00000" pt_clust_9="22.66682"></scales>
<clustering>
<clus scale="   22.667">  1  9  2 -1</clus>
<clus scale="   90.608">  5  6 -1 -1</clus>
<clus scale="   92.097">  7  8 -1 -1</clus>
<clus scale="  100.129">  1  5  2 -1</clus>
<clus scale="   22.667">  1  5  2 -1</clus>
</clustering>
</event>
<event>
 9    1  0.2075077E-005  0.1651432E+03  0.7546771E-02  0.1206215E+00
         -1   -1    0    0    0  501 -0.00000000000E+00  0.00000000000E+00  0.54418942941E+03  0.54418942941E+03  0.00000000000E+00 0.  1.
          1   -1    0    0  502    0  0.00000000000E+00 -0.00000000000E+00 -0.21842893977E+03  0.21842893977E+03  0.00000000000E+00 0. -1.
         23    2    1    2    0    0  0.33590892255E+01 -0.41809653978E+02  0.41319838950E+03  0.42496169913E+03  0.90001144405E+02 0.  0.
         23    2    1    2    0    0 -0.10508898144E+03 -0.74415416898E+02 -0.92194291823E+02  0.18312556854E+03  0.91944755778E+02 0.  0.
        -11    1    3    3    0    0  0.19603508058E+02 -0.63337586458E+02  0.35039381567E+03  0.35661151614E+03  0.00000000000E+00 0.  1.
         11    1    3    3    0    0 -0.16244418833E+02  0.21527932480E+02  0.62804573834E+02  0.68350182989E+02  0.00000000000E+00 0. -1.
        -13    1    4    4    0    0 -0.33572097230E+02 -0.27550118205E+02  0.15053981107E+02  0.45964302156E+02  0.00000000000E+00 0.  1.
         13    1    4    4    0    0 -0.71516884208E+02 -0.46865298693E+02 -0.10724827293E+03  0.13716126638E+03  0.00000000000E+00 0. -1.
         21    1    1    2  502  501  0.10172989221E+03  0.11622507088E+03  0.47563919611E+01  0.15453110151E+03  0.00000000000E+00 0.  1.
<scales pt_clust_5="13000.00000" pt_clust_6="13000.00000" pt_clust_7="13000.00000" pt_clust_8="13000.00000" pt_clust_9="137.18036"></scales>
<clustering>
<clus scale="   90.001">  5  6 -1 -1</clus>
<clus scale="   91.945">  7  8 -1 -1</clus>
<clus scale="   99.295">  1  5  2 -1</clus>
<clus scale="  137.180">  1  9  2 -1</clus>
<clus scale="  165.143">  2  5  1 -1</clus>
</clustering>
</event>
<event>
 9    1  0.2075077E-005  0.1091565E+03  0.7546771E-02  0.1274370E+00
         -2   -1    0    0    0  501 -0.00000000000E+00  0.00000000000E+00  0.11753412218E+03  0.11753412218E+03  0.00000000000E+00 0.  1.
          2   -1    0    0  502    0  0.00000000000E+00 -0.00000000000E+00 -0.41803987088E+03  0.41803987088E+03  0.00000000000E+00 0. -1.
         23    2    1    2    0    0 -0.21565613534E+02 -0.53710131343E+02  0.38684873707E+02  0.11955135247E+03  0.97191319199E+02 0.  0.
         23    2    1    2    0    0 -0.37546226390E+02  0.43735946378E+02 -0.22449297107E+02  0.93658310766E+02  0.70323225987E+02 0.  0.
        -13    1    3    3    0    0 -0.53879172923E+02 -0.43398974484E+01  0.20453820657E+02  0.57794106657E+02  0.00000000000E+00 0.  1.
         13    1    3    3    0    0  0.32313559389E+02 -0.49370233894E+02  0.18231053050E+02  0.61757245814E+02  0.00000000000E+00 0. -1.
        -13    1    4    4    0    0 -0.25494865453E+01  0.36780277015E+02  0.16885289222E+02  0.40551222560E+02  0.00000000000E+00 0.  1.
         13    1    4    4    0    0 -0.34996739844E+02  0.69556693625E+01 -0.39334586329E+02  0.53107088206E+02  0.00000000000E+00 0. -1.
         21    1    1    2  502  501  0.59111839924E+02  0.99741849650E+01 -0.31674132530E+03  0.32236432982E+03  0.00000000000E+00 0. -1.
<scales pt_clust_5="13000.00000" pt_clust_6="13000.00000" pt_clust_7="13000.00000" pt_clust_8="13000.00000" pt_clust_9="59.94743"></scales>
<clustering>
<clus scale="   59.947">  2  9  1 -1</clus>
<clus scale="   70.323">  7  8 -1 -1</clus>
<clus scale="   86.107">  2  7  1 -1</clus>
<clus scale="   97.191">  5  6 -1 -1</clus>
<clus scale="   59.947">  2  5  1 -1</clus>
</clustering>
</event>
<event>
 9    1  0.2075077E-005  0.1487807E+03  0.7546771E-02  0.1217513E+00
          1   -1    0    0  502    0  0.00000000000E+00  0.00000000000E+00  0.41188702798E+03  0.41188702798E+03  0.00000000000E+00 0. -1.
         -1   -1    0    0    0  501 -0.00000000000E+00 -0.00000000000E+00 -0.93098739339E+02  0.93098739339E+02  0.00000000000E+00 0.  1.
         23    2    1    2    0    0  0.78088230576E+01  0.55164361923E+02  0.67141915141E+02  0.12612057568E+03  0.91072928453E+02 0.  0.
         23    2    1    2    0    0  0.11273241275E+03 -0.19247356846E+02  0.18463933338E+03  0.23635145823E+03  0.93226985091E+02 0.  0.
        -11    1    3    3    0    0 -0.40613813738E+02  0.22803382423E+02  0.41879950606E+02  0.62637100659E+02  0.00000000000E+00 0. -1.
         11    1    3    3    0    0  0.48422636796E+02  0.32360979500E+02  0.25261964535E+02  0.63483475020E+02  0.00000000000E+00 0.  1.
        -11    1    4    4    0    0  0.62054259896E+01  0.29455313641E+02  0.44200161182E+02  0.53476883435E+02  0.00000000000E+00 0. -1.
         11    1    4    4    0    0  0.10652698676E+03 -0.48702670487E+02  0.14043917219E+03  0.18287457480E+03  0.00000000000E+00 0.  1.
         21    1    1    2  502  501 -0.12054123581E+03 -0.35917005077E+02  0.67007040128E+02  0.14251373341E+03  0.00000000000E+00 0.  1.
<scales pt_clust_5="13000.00000" pt_clust_6="13000.00000" pt_clust_7="13000.00000" pt_clust_8="13000.00000" pt_clust_9="115.95006"></scales>
<clustering>
<clus scale="   91.073">  5  6 -1 -1</clus>
<clus scale="   93.227">  7  8 -1 -1</clus>
<clus scale="  106.763">  2  5  1 -1</clus>
<clus scale="  115.950">  2  9  1 -1</clus>
<clus scale="  148.781">  1  5  2 -1</clus>
</clustering>
</event>
<event>
 9    1  0.2075077E-005  0.1012084E+03  0.7546771E-02  0.1278721E+00
         -1   -1    0    0    0  501 -0.00000000000E+00  0.00000000000E+00  0.10228048681E+03  0.10228048681E+03  0.00000000000E+00 0.  1.
          1   -1    0    0  502    0  0.00000000000E+00 -0.00000000000E+00 -0.14087997899E+03  0.14087997899E+03  0.00000000000E+00 0. -1.
         23    2    1    2    0    0  0.40693060181E+02 -0.76049329345E+01  0.61286191215E+01  0.98207422788E+02  0.88844683389E+02 0.  0.
         23    2    1    2    0    0 -0.38915088930E+02  0.36833730653E+02 -0.21690568731E+02  0.10769432369E+03  0.90865167825E+02 0.  0.
        -11    1    3    3    0    0  0.55929117934E+02  0.21320154428E+02  0.19405115806E+02  0.62921965458E+02  0.00000000000E+00 0. -1.
         11    1    3    3    0    0 -0.15236057753E+02 -0.28925087362E+02 -0.13276496685E+02  0.35285457330E+02  0.00000000000E+00 0.  1.
        -11    1    4    4    0    0 -0.23371949580E+02  0.60055379563E+02  0.10252959477E+02  0.65253504271E+02  0.00000000000E+00 0.  1.
         11    1    4    4    0    0 -0.15543139350E+02 -0.23221648910E+02 -0.31943528208E+02  0.42440819423E+02  0.00000000000E+00 0. -1.
         21    1    1    2  502  501 -0.17779712513E+01 -0.29228797719E+02 -0.23037542562E+02  0.37258719317E+02  0.00000000000E+00 0. -1.
<scales pt_clust_5="13000.00000" pt_clust_6="13000.00000" pt_clust_7="13000.00000" pt_clust_8="13000.00000" pt_clust_9="29.28282"></scales>
<clustering>
<clus scale="   29.283">  2  9  1 -1</clus>
<clus scale="   88.845">  5  6 -1 -1</clus>
<clus scale="   90.865">  7  8 -1 -1</clus>
<clus scale="   99.398">  1  5  2 -1</clus>
<clus scale="   29.283">  2  5  1 -1</clus>
</clustering>
</event>
<event>
 9    1  0.2075077E-005  0.1214871E+03  0.7546771E-02  0.1241376E+00
          1   -1    0    0  502    0  0.00000000000E+00  0.00000000000E+00  0.99958103280E+02  0.99958103280E+02  0.00000000000E+00 0. -1.
         -1   -1    0    0    0  501 -0.00000000000E+00 -0.00000000000E+00 -0.19792447104E+03  0.19792447104E+03  0.00000000000E+00 0.  1.
         23    2    1    2    0    0 -0.61990046248E+02  0.58656047748E+02 -0.60549287393E+02  0.13709324917E+03  0.88572258597E+02 0.  0.
         23    2    1    2    0    0  0.75007490951E+02 -0.27764589487E+02 -0.19088052056E+02  0.12258344420E+03  0.90913975455E+02 0.  0.
        -13    1    3    3    0    0 -0.71925609901E+02  0.13206294908E+02 -0.52149473123E+02  0.89817966642E+02  0.00000000000E+00 0.  1.
         13    1    3    3    0    0  0.99355636529E+01  0.45449752839E+02 -0.83998142702E+01  0.47275282527E+02  0.00000000000E+00 0. -1.
        -13    1    4    4    0    0  0.20705957650E+02  0.17606523720E+02  0.26860278426E+02  0.38212575375E+02  0.00000000000E+00 0. -1.
         13    1    4    4    0    0  0.54301533301E+02 -0.45371113208E+02 -0.45948330482E+02  0.84370868827E+02  0.00000000000E+00 0.  1.
         21    1    1    2  502  501 -0.13017444703E+02 -0.30891458261E+02 -0.18329028307E+02  0.38205880945E+02  0.00000000000E+00 0.  1.
<scales pt_clust_5="13000.00000" pt_clust_6="13000.00000" pt_clust_7="13000.00000" pt_clust_8="13000.00000" pt_clust_9="33.52217"></scales>
<clustering>
<clus scale="   33.522">  2  9  1 -1</clus>
<clus scale="   88.572">  5  6 -1 -1</clus>
<clus scale="   90.914">  7  8 -1 -1</clus>
<clus scale="  119.745">  2  5  1 -1</clus>
<clus scale="  121.487">  1  5  2 -1</clus>
</clustering>
</event>
<event>
 9    1  0.2075077E-005  0.9282195E+02  0.7546771E-02  0.1298065E+00
         -1   -1    0    0    0  501 -0.00000000000E+00  0.00000000000E+00  0.27613958492E+02  0.27613958492E+02  0.00000000000E+00 0.  1.
          1   -1    0    0  502    0  0.00000000000E+00 -0.00000000000E+00 -0.46053917007E+03  0.46053917007E+03  0.00000000000E+00 0. -1.
         23    2    1    2    0    0  0.30971527952E+02  0.10251979128E+02 -0.12978557348E+03  0.16055245702E+03  0.88704327694E+02 0.  0.
         23    2    1    2    0    0 -0.20745196313E+01  0.34966831678E+00 -0.24709654965E+03  0.26366117060E+03  0.91956958039E+02 0.  0.
        -11    1    3    3    0    0 -0.10170716713E+02 -0.33160262713E+02 -0.49151675847E+02  0.60157574255E+02  0.00000000000E+00 0.  1.
         11    1    3    3    0    0  0.41142244665E+02  0.43412241841E+02 -0.80633897635E+02  0.10039488277E+03  0.00000000000E+00 0. -1.
        -11    1    4    4    0    0  0.44453636914E+02  0.64042100173E+01 -0.12832962374E+03  0.13596187727E+03  0.00000000000E+00 0. -1.
         11    1    4    4    0    0 -0.46528156545E+02 -0.60545417005E+01 -0.11876692591E+03  0.12769929333E+03  0.00000000000E+00 0.  1.
         21    1    1    2  502  501 -0.28897008321E+02 -0.10601647444E+02 -0.56043088436E+02  0.63939500935E+02  0.00000000000E+00 0.  1.
<scales pt_clust_5="13000.00000" pt_clust_6="13000.00000" pt_clust_7="13000.00000" pt_clust_8="13000.00000" pt_clust_9="30.78038"></scales>
<clustering>
<clus scale="   30.780">  1  9  2 -1</clus>
<clus scale="   88.704">  5  6 -1 -1</clus>
<clus scale="   89.601">  1  5  2 -1</clus>
<clus scale="   91.957">  7  8 -1 -1</clus>
<clus scale="   92.822">  2  5  1 -1</clus>
</clustering>
</event>
<event>
 9    1  0.2075077E-005  0.1031404E+03  0.7546771E-02  0.1280198E+00
          1   -1    0    0  502    0  0.00000000000E+00  0.00000000000E+00  0.24021060502E+03  0.24021060502E+03  0.00000000000E+00 0. -1.
         -1   -1    0    0    0  501 -0.00000000000E+00 -0.00000000000E+00 -0.22407185828E+03  0.22407185828E+03  0.00000000000E+00 0.  1.
         23    2    1    2    0    0  0.12814146675E+02 -0.62833081791E+02 -0.17352094460E+03  0.20401615688E+03  0.86028341455E+02 0.  0.
         23    2    1    2    0    0 -0.25823527853E+02  0.28173636742E+02  0.15825044962E+02  0.82533345466E+02  0.71419273783E+02 0.  0.
        -11    1    3    3    0    0  0.99466652157E+01 -0.82677680800E+02 -0.15821241781E+03  0.17878955283E+03  0.00000000000E+00 0.  1.
         11    1    3    3    0    0  0.28674814588E+01  0.19844599010E+02 -0.15308526788E+02  0.25226604056E+02  0.00000000000E+00 0. -1.
        -13    1    4    4    0    0 -0.26717963314E+02 -0.14221079451E+02 -0.11173728786E+02  0.32263615411E+02  0.00000000000E+00 0.  1.
         13    1    4    4    0    0  0.89443546152E+00  0.42394716193E+02  0.26998773748E+02  0.50269730054E+02  0.00000000000E+00 0. -1.
         21    1    1    2  502  501  0.13009381178E+02  0.34659445049E+02  0.17383464637E+03  0.17773296096E+03  0.00000000000E+00 0. -1.
<scales pt_clust_5="13000.00000" pt_clust_6="13000.00000" pt_clust_7="13000.00000" pt_clust_8="13000.00000" pt_clust_9="37.02055"></scales>
<clustering>
<clus scale="   37.021">  1  9  2 -1</clus>
<clus scale="   71.419">  7  8 -1 -1</clus>
<clus scale="   86.028">  5  6 -1 -1</clus>
<clus scale="   91.311">  1  7  2 -1</clus>
<clus scale="   37.021">  1  5  2 -1</clus>
</clustering>
</event>
<event>
 9    1  0.2075077E-005  0.1544428E+03  0.7546771E-02  0.1200247E+00
         -1   -1    0    0    0  501 -0.00000000000E+00  0.00000000000E+00  0.66001555398E+03  0.66001555398E+03  0.00000000000E+00 0.  1.
          1   -1    0    0  502    0  0.00000000000E+00 -0.00000000000E+00 -0.45691588346E+02  0.45691588346E+02  0.00000000000E+00 0. -1.
         23    2    1    2    0    0  0.42018545325E+02  0.92457007286E+02  0.39356860920E+03  0.41665804060E+03  0.91617772885E+02 0.  0.
         23    2    1    2    0    0 -0.21959191970E+02 -0.10712598868E+03  0.20671258216E+03  0.26050516749E+03  0.11478095270E+03 0.  0.
        -11    1    3    3    0    0  0.14112836445E+02  0.74932796168E+02  0.36550961250E+03  0.37337832412E+03  0.00000000000E+00 0.  1.
         11    1    3    3    0    0  0.27905708880E+02  0.17524211118E+02  0.28058996701E+02  0.43279716488E+02  0.00000000000E+00 0. -1.
        -13    1    4    4    0    0  0.36375033738E+02 -0.69635968024E+01  0.83475809740E+02  0.91322754950E+02  0.00000000000E+00 0. -1.
         13    1    4    4    0    0 -0.58334225708E+02 -0.10016239188E+03  0.12323677242E+03  0.16918241254E+03  0.00000000000E+00 0.  1.
         21    1    1    2  502  501 -0.20059353355E+02  0.14668981394E+02  0.14042774281E+02  0.28543934236E+02  0.00000000000E+00 0. -1.
<scales pt_clust_5="13000.00000" pt_clust_6="13000.00000" pt_clust_7="13000.00000" pt_clust_8="13000.00000" pt_clust_9="24.85069"></scales>
<clustering>
<clus scale="   24.851">  2  9  1 -1</clus>
<clus scale="   91.618">  5  6 -1 -1</clus>
<clus scale="  114.781">  7  8 -1 -1</clus>
<clus scale="  138.100">  1  5  2 -1</clus>
<clus scale="   24.851">  2  5  1 -1</clus>
</clustering>
</event>
<event>
 9    1  0.2075077E-005  0.1066836E+03  0.7546771E-02  0.1267289E+00
          1   -1    0    0  502    0  0.00000000000E+00  0.00000000000E+00  0.64717807543E+02  0.64717807543E+02  0.00000000000E+00 0. -1.
         -1   -1    0    0    0  501 -0.00000000000E+00 -0.00000000000E+00 -0.40732085193E+03  0.40732085193E+03  0.00000000000E+00 0.  1.
         23    2    1    2    0    0  0.25723501982E+02  0.45718401570E+02 -0.30593609149E+03  0.32391057076E+03  0.92570486540E+02 0.  0.
         23    2    1    2    0    0 -0.46419495390E+02 -0.24735573889E+02 -0.46540656567E+02  0.11704604848E+03  0.93632935356E+02 0.  0.
        -11    1    3    3    0    0  0.58304388533E+02  0.26599684296E+02 -0.14383073599E+03  0.15746182249E+03  0.00000000000E+00 0. -1.
         11    1    3    3    0    0 -0.32580886552E+02  0.19118717273E+02 -0.16210535550E+03  0.16644874827E+03  0.00000000000E+00 0.  1.
        -11    1    4    4    0    0 -0.53325098654E+02  0.10693523887E+02  0.44543673550E+01  0.54568846315E+02  0.00000000000E+00 0.  1.
         11    1    4    4    0    0  0.69056032639E+01 -0.35429097775E+02 -0.50995023922E+02  0.62477202166E+02  0.00000000000E+00 0. -1.
         21    1    1    2  502  501  0.20695993409E+02 -0.20982827681E+02  0.98737036713E+01  0.31082040230E+02  0.00000000000E+00 0. -1.
<scales pt_clust_5="13000.00000" pt_clust_6="13000.00000" pt_clust_7="13000.00000" pt_clust_8="13000.00000" pt_clust_9="29.47207"></scales>
<clustering>
<clus scale="   29.472">  1  9  2 -1</clus>
<clus scale="   92.570">  5  6 -1 -1</clus>
<clus scale="   93.633">  7  8 -1 -1</clus>
<clus scale="  105.752">  2  5  1 -1</clus>
<clus scale="   29.472">  1  5  2 -1</clus>
</clustering>
</event>
<event>
 9    1  0.2075077E-005  0.9348899E+02  0.7546771E-02  0.1295686E+00
          1   -1    0    0  502    0  0.00000000000E+00  0.00000000000E+00  0.19645014221E+03  0.19645014221E+03  0.00000000000E+00 0. -1.
         -1   -1    0    0    0  501 -0.00000000000E+00 -0.00000000000E+00 -0.66061894123E+02  0.66061894123E+02  0.00000000000E+00 0.  1.
         23    2    1    2    0    0  0.70940944358E+01 -0.19249170920E+02  0.43454385064E+02  0.10306763659E+03  0.91180027279E+02 0.  0.
         23    2    1    2    0    0  0.18441848170E+02 -0.46896280405E+01  0.45769825068E+02  0.10541081314E+03  0.93029394627E+02 0.  0.
        -11    1    3    3    0    0  0.18703777239E+02  0.31200893417E+02  0.35246810422E+02  0.50652390644E+02  0.00000000000E+00 0. -1.
         11    1    3    3    0    0 -0.11609682803E+02 -0.50450064337E+02  0.82075746421E+01  0.52415245949E+02  0.00000000000E+00 0.  1.
        -13    1    4    4    0    0 -0.15025884948E+02  0.37686981004E+02  0.14969378445E+02  0.43245439606E+02  0.00000000000E+00 0. -1.
         13    1    4    4    0    0  0.33467733118E+02 -0.42376609045E+02  0.30800446623E+02  0.62165373532E+02  0.00000000000E+00 0.  1.
         21    1    1    2  502  501 -0.25535942606E+02  0.23938798960E+02  0.41164037959E+02  0.54033586606E+02  0.00000000000E+00 0. -1.
<scales pt_clust_5="13000.00000" pt_clust_6="13000.00000" pt_clust_7="13000.00000" pt_clust_8="13000.00000" pt_clust_9="35.00215"></scales>
<clustering>
<clus scale="   35.002">  1  9  2 -1</clus>
<clus scale="   91.180">  5  6 -1 -1</clus>
<clus scale="   91.649">  2  5  1 -1</clus>
<clus scale="   93.029">  7  8 -1 -1</clus>
<clus scale="   35.002">  1  5  2 -1</clus>
</clustering>
</event>
<event>
 9    1  0.2075077E-005  0.1343075E+03  0.7546771E-02  0.1221283E+00
          1   -1    0    0  502    0  0.00000000000E+00  0.00000000000E+00  0.51086283884E+03  0.51086283884E+03  0.00000000000E+00 0. -1.
         -1   -1    0    0    0  501 -0.00000000000E+00 -0.00000000000E+00 -0.43149467138E+02  0.43149467138E+02  0.00000000000E+00 0.  1.
         23    2    1    2    0    0 -0.77863271666E+02 -0.43220086390E+02  0.17334913332E+03  0.21518292493E+03  0.91231048536E+02 0.  0.
         23    2    1    2    0    0  0.99831714942E+02  0.49045653130E+02  0.23706399187E+03  0.27718631186E+03  0.90890416683E+02 0.  0.
        -11    1    4    4    0    0  0.20457446918E+02  0.60057922404E+02  0.10876373487E+03  0.12591668357E+03  0.00000000000E+00 0.  1.
         11    1    4    4    0    0  0.79374268024E+02 -0.11012269274E+02  0.12830025700E+03  0.15126962830E+03  0.00000000000E+00 0. -1.
        -13    1    3    3    0    0 -0.86824810219E+02 -0.67106118550E+01  0.14029335357E+03  0.16512360533E+03  0.00000000000E+00 0. -1.
         13    1    3    3    0    0  0.89615385532E+01 -0.36509474535E+02  0.33055779749E+02  0.50059319601E+02  0.00000000000E+00 0.  1.
         21    1    1    2  502  501 -0.21968443276E+02 -0.58255667396E+01  0.57300246517E+02  0.61643069187E+02  0.00000000000E+00 0. -1.
<scales pt_clust_5="13000.00000" pt_clust_6="13000.00000" pt_clust_7="13000.00000" pt_clust_8="13000.00000" pt_clust_9="22.72773"></scales>
<clustering>
<clus scale="   22.728">  1  9  2 -1</clus>
<clus scale="   90.890">  5  6 -1 -1</clus>
<clus scale="   91.231">  7  8 -1 -1</clus>
<clus scale="  134.076">  1  5  2 -1</clus>
<clus scale="   22.728">  1  5  2 -1</clus>
</clustering>
</event>
<event>
 9    1  0.2075077E-005  0.9343240E+02  0.7546771E-02  0.1296189E+00
         -1   -1    0    0    0  501 -0.00000000000E+00  0.00000000000E+00  0.42255847918E+03  0.42255847918E+03  0.00000000000E+00 0.  1.
          1   -1    0    0  502    0  0.00000000000E+00 -0.00000000000E+00 -0.55502406870E+02  0.55502406870E+02  0.00000000000E+00 0. -1.
         23    2    1    2    0    0 -0.76547129819E+01 -0.22613378978E+02  0.29734126626E+03  0.31209961381E+03  0.91784425575E+02 0.  0.
         23    2    1    2    0    0 -0.34841461351E+02 -0.30082226544E+00  0.68270354857E+02  0.11765938935E+03  0.89268542196E+02 0.  0.
        -11    1    4    4    0    0  0.12818466293E+02  0.22861097261E+02  0.58050219821E+02  0.63692785049E+02  0.00000000000E+00 0. -1.
         11    1    4    4    0    0 -0.47659927644E+02 -0.23161919526E+02  0.10220135036E+02  0.53966604297E+02  0.00000000000E+00 0.  1.
        -11    1    3    3    0    0 -0.41366905506E+01 -0.58488956437E+02  0.17533766353E+03  0.18488203397E+03  0.00000000000E+00 0.  1.
         11    1    3    3    0    0 -0.35180224313E+01  0.35875577459E+02  0.12200360273E+03  0.12721757984E+03  0.00000000000E+00 0. -1.
         21    1    1    2  502  501  0.42496174333E+02  0.22914201244E+02  0.14444511882E+01  0.48301882891E+02  0.00000000000E+00 0. -1.
<scales pt_clust_5="13000.00000" pt_clust_6="13000.00000" pt_clust_7="13000.00000" pt_clust_8="13000.00000" pt_clust_9="48.28028"></scales>
<clustering>
<clus scale="   48.280">  2  9  1 -1</clus>
<clus scale="   89.269">  5  6 -1 -1</clus>
<clus scale="   90.962">  2  5  1 -1</clus>
<clus scale="   91.784">  7  8 -1 -1</clus>
<clus scale="   48.280">  2  5  1 -1</clus>
</clustering>
</event>
<event>
 9    1  0.2075077E-005  0.1350385E+03  0.7546771E-02  0.1220294E+00
         -1   -1    0    0    0  501 -0.00000000000E+00  0.00000000000E+00  0.15586297038E+03  0.15586297038E+03  0.00000000000E+00 0.  1.
          1   -1    0    0  502    0  0.00000000000E+00 -0.00000000000E+00 -0.18471437043E+03  0.18471437043E+03  0.00000000000E+00 0. -1.
         23    2    1    2    0    0  0.18687821572E+02  0.10196549464E+03  0.70855411439E+02  0.15509923716E+03  0.91044424674E+02 0.  0.
         23    2    1    2    0    0 -0.21493516897E+01 -0.89337711602E+02 -0.61492574245E+02  0.14196592353E+03  0.91581331777E+02 0.  0.
        -13    1    3    3    0    0  0.43372927704E+02  0.10407556145E+03  0.62722131434E+02  0.12902325031E+03  0.00000000000E+00 0.  1.
         13    1    3    3    0    0 -0.24685106132E+02 -0.21100668037E+01  0.81332800052E+01  0.26075986852E+02  0.00000000000E+00 0. -1.
        -13    1    4    4    0    0  0.35481084136E+02 -0.23865653596E+02 -0.49652628665E+02  0.65527553643E+02  0.00000000000E+00 0.  1.
         13    1    4    4    0    0 -0.37630435825E+02 -0.65472058006E+02 -0.11839945579E+02  0.76438369889E+02  0.00000000000E+00 0. -1.
         21    1    1    2  502  501 -0.16538469882E+02 -0.12627783043E+02 -0.38214237248E+02  0.43512180123E+02  0.00000000000E+00 0. -1.
<scales pt_clust_5="13000.00000" pt_clust_6="13000.00000" pt_clust_7="13000.00000" pt_clust_8="13000.00000" pt_clust_9="20.80822"></scales>
<clustering>
<clus scale="   20.808">  2  9  1 -1</clus>
<clus scale="   91.044">  5  6 -1 -1</clus>
<clus scale="   91.581">  7  8 -1 -1</clus>
<clus scale="  134.675">  1  5  2 -1</clus>
<clus scale="   20.808">  2  5  1 -1</clus>
</clustering>
</event>
<event>
 9    1  0.2075077E-005  0.1080616E+03  0.7546771E-02  0.1264447E+00
          2   -1    0    0  502    0  0.00000000000E+00  0.00000000000E+00  0.22425193945E+03  0.22425193945E+03  0.00000000000E+00 0. -1.
         -2   -1    0    0    0  501 -0.00000000000E+00 -0.00000000000E+00 -0.19064819476E+03  0.19064819476E+03  0.00000000000E+00 0.  1.
         23    2    1    2    0    0  0.67080466193E+02 -0.56136513808E+01 -0.12706880028E+03  0.16981607491E+03  0.90331153354E+02 0.  0.
         23    2    1    2    0    0 -0.11860107100E+02 -0.51792283527E+02  0.87729503352E+02  0.13707750051E+03  0.90943238422E+02 0.  0.
        -13    1    4    4    0    0  0.32887246051E+02 -0.49865809790E+02  0.58408425302E+02  0.83544683165E+02  0.00000000000E+00 0.  1.
         13    1    4    4    0    0 -0.44747353150E+02 -0.19264737369E+01  0.29321078051E+02  0.53532817347E+02  0.00000000000E+00 0. -1.
        -13    1    3    3    0    0 -0.10618962799E+02  0.23616442192E+02 -0.13677697022E+02  0.29284434578E+02  0.00000000000E+00 0. -1.
         13    1    3    3    0    0  0.77699428992E+02 -0.29230093573E+02 -0.11339110326E+03  0.14053164033E+03  0.00000000000E+00 0.  1.
         21    1    1    2  502  501 -0.55220359093E+02  0.57405934908E+02  0.72943041615E+02  0.10800655879E+03  0.00000000000E+00 0. -1.
<scales pt_clust_5="13000.00000" pt_clust_6="13000.00000" pt_clust_7="13000.00000" pt_clust_8="13000.00000" pt_clust_9="79.65381"></scales>
<clustering>
<clus scale="   79.654">  1  9  2 -1</clus>
<clus scale="   90.331">  7  8 -1 -1</clus>
<clus scale="   90.943">  5  6 -1 -1</clus>
<clus scale="  107.547">  2  7  1 -1</clus>
<clus scale="   79.654">  1  5  2 -1</clus>
</clustering>
</event>
<event>
 9    1  0.2075077E-005  0.9867952E+02  0.7546771E-02  0.1286755E+00
         -1   -1    0    0    0  501 -0.00000000000E+00  0.00000000000E+00  0.44910157621E+03  0.44910157621E+03  0.00000000000E+00 0.  1.
          1   -1    0    0  502    0  0.00000000000E+00 -0.00000000000E+00 -0.52381860753E+02  0.52381860753E+02  0.00000000000E+00 0. -1.
         23    2    1    2    0    0  0.36688841984E+02  0.75101062540E+01  0.23818665117E+03  0.25732027986E+03  0.89879768619E+02 0.  0.
         23    2    1    2    0    0  0.18885980226E+01  0.10025003862E+02  0.17380895131E+03  0.19911816085E+03  0.96614817288E+02 0.  0.
        -11    1    3    3    0    0  0.29507983065E+02  0.41317655166E+02  0.75373777700E+02  0.90879458943E+02  0.00000000000E+00 0. -1.
         11    1    3    3    0    0  0.71808589184E+01 -0.33807548912E+02  0.16281287347E+03  0.16644082091E+03  0.00000000000E+00 0.  1.
        -13    1    4    4    0    0 -0.54360933953E+01 -0.35061226031E+02  0.13370918450E+03  0.13833649808E+03  0.00000000000E+00 0.  1.
         13    1    4    4    0    0  0.73246914179E+01  0.45086229893E+02  0.40099766805E+02  0.60781662762E+02  0.00000000000E+00 0. -1.
         21    1    1    2  502  501 -0.38577440006E+02 -0.17535110116E+02 -0.15275887018E+02  0.45044996264E+02  0.00000000000E+00 0. -1.
<scales pt_clust_5="13000.00000" pt_clust_6="13000.00000" pt_clust_7="13000.00000" pt_clust_8="13000.00000" pt_clust_9="42.37569"></scales>
<clustering>
<clus scale="   42.376">  2  9  1 -1</clus>
<clus scale="   89.880">  5  6 -1 -1</clus>
<clus scale="   92.096">  1  5  2 -1</clus>
<clus scale="   96.615">  7  8 -1 -1</clus>
<clus scale="   42.376">  2  5  1 -1</clus>
</clustering>
</event>
<event>
 9    1  0.2075077E-005  0.1232560E+03  0.7546771E-02  0.1239528E+00
         -1   -1    0    0    0  501 -0.00000000000E+00  0.00000000000E+00  0.13309515958E+03  0.13309515958E+03  0.00000000000E+00 0.  1.
          1   -1    0    0  502    0  0.00000000000E+00 -0.00000000000E+00 -0.34439005623E+03  0.34439005623E+03  0.00000000000E+00 0. -1.
         23    2    1    2    0    0 -0.43129023606E+02  0.75179660745E+02  0.66483691439E+02  0.14104377555E+03  0.89225396205E+02 0.  0.
         23    2    1    2    0    0  0.42530401883E+02 -0.38845161875E+02 -0.83572070241E+02  0.13886430158E+03  0.94769307498E+02 0.  0.
        -11    1    3    3    0    0 -0.26771854861E+02 -0.15895366548E+02  0.10321174318E+02  0.32801242807E+02  0.00000000000E+00 0. -1.
         11    1    3    3    0    0 -0.16357168745E+02  0.91075027293E+02  0.56162517120E+02  0.10824253275E+03  0.00000000000E+00 0.  1.
        -11    1    4    4    0    0 -0.19689490800E+02 -0.28811585775E+02 -0.63958295753E+02  0.72859090843E+02  0.00000000000E+00 0. -1.
         11    1    4    4    0    0  0.62219892683E+02 -0.10033576100E+02 -0.19613774488E+02  0.66005210738E+02  0.00000000000E+00 0.  1.
         21    1    1    2  502  501  0.59862172346E+00 -0.36334498869E+02 -0.19420651784E+03  0.19757713868E+03  0.00000000000E+00 0. -1.
<scales pt_clust_5="13000.00000" pt_clust_6="13000.00000" pt_clust_7="13000.00000" pt_clust_8="13000.00000" pt_clust_9="36.33943"></scales>
<clustering>
<clus scale="   36.339">  2  9  1 -1</clus>
<clus scale="   89.225">  5  6 -1 -1</clus>
<clus scale="   94.769">  7  8 -1 -1</clus>
<clus scale="  119.046">  1  5  2 -1</clus>
<clus scale="   36.339">  2  5  1 -1</clus>
</clustering>
</event>
<event>
 9    1  0.2075077E-005  0.9718581E+02  0.7546771E-02  0.1286760E+00
         -2   -1    0    0    0  501 -0.00000000000E+00  0.00000000000E+00  0.51685470567E+02  0.51685470567E+02  0.00000000000E+00 0.  1.
          2   -1    0    0  502    0  0.00000000000E+00 -0.00000000000E+00 -0.33470931890E+03  0.33470931890E+03  0.00000000000E+00 0. -1.
         23    2    1    2    0    0 -0.23861025477E+01  0.41213976763E+02 -0.43154140770E+02  0.10904307619E+03  0.91235011002E+02 0.  0.
         23    2    1    2    0    0  0.20398108533E+02 -0.16833146816E+02 -0.11395459673E+03  0.14783927231E+03  0.90395589824E+02 0.  0.
        -13    1    3    3    0    0 -0.34762123872E+02  0.36513408455E+02 -0.54663469341E+02  0.74362148526E+02  0.00000000000E+00 0. -1.
         13    1    3    3    0    0  0.32376021324E+02  0.47005683083E+01  0.11509328571E+02  0.34680927660E+02  0.00000000000E+00 0.  1.
        -13    1    4    4    0    0  0.32390192769E+02 -0.49437386991E+02 -0.65582126100E+02  0.88284738681E+02  0.00000000000E+00 0.  1.
         13    1    4    4    0    0 -0.11992084235E+02  0.32604240176E+02 -0.48372470628E+02  0.59554533634E+02  0.00000000000E+00 0. -1.
         21    1    1    2  502  501 -0.18012005986E+02 -0.24380829947E+02 -0.12591511084E+03  0.12951244097E+03  0.00000000000E+00 0. -1.
<scales pt_clust_5="13000.00000" pt_clust_6="13000.00000" pt_clust_7="13000.00000" pt_clust_8="13000.00000" pt_clust_9="30.31266"></scales>
<clustering>
<clus scale="   30.313">  2  9  1 -1</clus>
<clus scale="   90.396">  7  8 -1 -1</clus>
<clus scale="   91.235">  5  6 -1 -1</clus>
<clus scale="   96.398">  2  7  1 -1</clus>
<clus scale="   30.313">  2  5  1 -1</clus>
</clustering>
</event>
<event>
 9    1  0.2075077E-005  0.1361466E+03  0.7546771E-02  0.1218947E+00
         -1   -1    0    0    0  501 -0.00000000000E+00  0.00000000000E+00  0.56042016417E+02  0.56042016417E+02  0.00000000000E+00 0.  1.
          1   -1    0    0  502    0  0.00000000000E+00 -0.00000000000E+00 -0.48423819231E+03  0.48423819231E+03  0.00000000000E+00 0. -1.
         23    2    1    2    0    0  0.40676582619E+02 -0.93040857074E+02 -0.13646113940E+03  0.19341559297E+03  0.92069341143E+02 0.  0.
         23    2    1    2    0    0 -0.12741635571E+02  0.10028748508E+03 -0.15043708680E+03  0.20264954903E+03  0.90639912267E+02 0.  0.
        -11    1    4    4    0    0 -0.30868377076E+02 -0.24841648102E+01 -0.27752086957E+02  0.41583724083E+02  0.00000000000E+00 0.  1.
         11    1    4    4    0    0  0.18126741505E+02  0.10277164989E+03 -0.12268499984E+03  0.16106582494E+03  0.00000000000E+00 0. -1.
        -13    1    3    3    0    0  0.53224168992E+02 -0.40437609830E+02 -0.28496250764E+02  0.72663944025E+02  0.00000000000E+00 0.  1.
         13    1    3    3    0    0 -0.12547586373E+02 -0.52603247244E+02 -0.10796488864E+03  0.12075164895E+03  0.00000000000E+00 0. -1.
         21    1    1    2  502  501 -0.27934947048E+02 -0.72466280090E+01 -0.14129794969E+03  0.14421506673E+03  0.00000000000E+00 0.  1.
<scales pt_clust_5="13000.00000" pt_clust_6="13000.00000" pt_clust_7="13000.00000" pt_clust_8="13000.00000" pt_clust_9="28.85957"></scales>
<clustering>
<clus scale="   28.860">  2  9  1 -1</clus>
<clus scale="   90.640">  5  6 -1 -1</clus>
<clus scale="   92.069">  7  8 -1 -1</clus>
<clus scale="  135.184">  2  5  1 -1</clus>
<clus scale="   28.860">  2  5  1 -1</clus>
</clustering>
</event>
<event>
 9    1  0.2075077E-005  0.9610333E+02  0.7546771E-02  0.1290819E+00
         -1   -1    0    0    0  501 -0.00000000000E+00  0.00000000000E+00  0.39379189016E+03  0.39379189016E+03  0.00000000000E+00 0.  1.
          1   -1    0    0  502    0  0.00000000000E+00 -0.00000000000E+00 -0.38148270867E+02  0.38148270867E+02  0.00000000000E+00 0. -1.
         23    2    1    2    0    0  0.76562507866E+01 -0.35348984227E+01  0.19270317563E+03  0.21532969893E+03  0.95714427645E+02 0.  0.
         23    2    1    2    0    0  0.17651697856E+02 -0.21979392534E+02  0.15042808896E+03  0.17855746842E+03  0.91975450239E+02 0.  0.
        -11    1    4    4    0    0  0.10636443665E+02  0.35272979172E+02  0.43005284858E+02  0.56628363204E+02  0.00000000000E+00 0. -1.
         11    1    4    4    0    0  0.70152541910E+01 -0.57252371705E+02  0.10742280411E+03  0.12192910522E+03  0.00000000000E+00 0.  1.
        -11    1    3    3    0    0  0.44670189968E+02 -0.24249202600E+02  0.78646924874E+02  0.93641809522E+02  0.00000000000E+00 0.  1.
         11    1    3    3    0    0 -0.37013939182E+02  0.20714304177E+02  0.11405625076E+03  0.12168788941E+03  0.00000000000E+00 0. -1.
         21    1    1    2  502  501 -0.25307948643E+02  0.25514290956E+02  0.12512354697E+02  0.38052993674E+02  0.00000000000E+00 0. -1.
<scales pt_clust_5="13000.00000" pt_clust_6="13000.00000" pt_clust_7="13000.00000" pt_clust_8="13000.00000" pt_clust_9="35.93705"></scales>
<clustering>
<clus scale="   35.937">  2  9  1 -1</clus>
<clus scale="   91.975">  5  6 -1 -1</clus>
<clus scale="   92.380">  2  5  1 -1</clus>
<clus scale="   95.714">  7  8 -1 -1</clus>
<clus scale="   35.937">  2  5  1 -1</clus>
</clustering>
</event>
<event>
 9    1  0.2075077E-005  0.1371966E+03  0.7546771E-02  0.1217186E+00
          1   -1    0    0  502    0  0.00000000000E+00  0.00000000000E+00  0.38693920243E+03  0.38693920243E+03  0.00000000000E+00 0. -1.
         -1   -1    0    0    0  501 -0.00000000000E+00 -0.00000000000E+00 -0.24589354176E+03  0.24589354176E+03  0.00000000000E+00 0.  1.
         23    2    1    2    0    0 -0.87695197750E+02  0.46793971019E+02 -0.16330073219E+03  0.21172380311E+03  0.90992946079E+02 0.  0.
         23    2    1    2    0    0  0.79939186823E+02 -0.94464532690E+02  0.48864496316E+02  0.16110194575E+03  0.90842040912E+02 0.  0.
        -11    1    3    3    0    0 -0.30666685107E+02  0.37955111463E+02 -0.12666008141E+02  0.50412933101E+02  0.00000000000E+00 0. -1.
         11    1    3    3    0    0 -0.57028512644E+02  0.88388595561E+01 -0.15063472405E+03  0.16131087001E+03  0.00000000000E+00 0.  1.
        -13    1    4    4    0    0 -0.17937286427E+02 -0.33060634610E+02  0.73338166219E+01  0.38321490987E+02  0.00000000000E+00 0.  1.
         13    1    4    4    0    0  0.97876473250E+02 -0.61403898079E+02  0.41530679694E+02  0.12278045476E+03  0.00000000000E+00 0. -1.
         21    1    1    2  502  501  0.77560109271E+01  0.47670561670E+02  0.25548189655E+03  0.26000699533E+03  0.00000000000E+00 0. -1.
<scales pt_clust_5="13000.00000" pt_clust_6="13000.00000" pt_clust_7="13000.00000" pt_clust_8="13000.00000" pt_clust_9="48.29739"></scales>
<clustering>
<clus scale="   48.297">  1  9  2 -1</clus>
<clus scale="   90.842">  7  8 -1 -1</clus>
<clus scale="   90.993">  5  6 -1 -1</clus>
<clus scale="  137.097">  1  7  2 -1</clus>
<clus scale="   48.297">  1  5  2 -1</clus>
</clustering>
</event>
<event>
 9    1  0.2075077E-005  0.1026901E+03  0.7546771E-02  0.1279710E+00
         -2   -1    0    0    0  501 -0.00000000000E+00  0.00000000000E+00  0.18162772858E+03  0.18162772858E+03  0.00000000000E+00 0.  1.
          2   -1    0    0  502    0  0.00000000000E+00 -0.00000000000E+00 -0.79219498313E+02  0.79219498313E+02  0.00000000000E+00 0. -1.
         23    2    1    2    0    0  0.52243684765E+01  0.17033148084E+02  0.66567768995E+02  0.11516669931E+03  0.92275016125E+02 0.  0.
         23    2    1    2    0    0  0.13786813476E+02 -0.10114943181E+02  0.55815534368E+02  0.11725008362E+03  0.10168490513E+03 0.  0.
        -11    1    4    4    0    0  0.52724581881E+02  0.17271849026E+02  0.31367063628E+02  0.63734535253E+02  0.00000000000E+00 0.  1.
         11    1    4    4    0    0 -0.38937768404E+02 -0.27386792207E+02  0.24448470740E+02  0.53515548369E+02  0.00000000000E+00 0. -1.
        -11    1    3    3    0    0 -0.47735779824E+01  0.54748952646E+02  0.38396605485E+02  0.67041287095E+02  0.00000000000E+00 0.  1.
         11    1    3    3    0    0  0.99979464590E+01 -0.37715804562E+02  0.28171163510E+02  0.48125412213E+02  0.00000000000E+00 0. -1.
         21    1    1    2  502  501 -0.19011181953E+02 -0.69182049038E+01 -0.19975073100E+02  0.28430443959E+02  0.00000000000E+00 0. -1.
<scales pt_clust_5="13000.00000" pt_clust_6="13000.00000" pt_clust_7="13000.00000" pt_clust_8="13000.00000" pt_clust_9="20.23083"></scales>
<clustering>
<clus scale="   20.231">  2  9  1 -1</clus>
<clus scale="   92.275">  7  8 -1 -1</clus>
<clus scale="   93.382">  1  7  2 -1</clus>
<clus scale="  101.685">  5  6 -1 -1</clus>
<clus scale="   20.231">  2  5  1 -1</clus>
</clustering>
</event>
<event>
 9    1  0.2075077E-005  0.9851777E+02  0.7546771E-02  0.1286851E+00
         -2   -1    0    0    0  501 -0.00000000000E+00  0.00000000000E+00  0.63302364910E+02  0.63302364910E+02  0.00000000000E+00 0.  1.
          2   -1    0    0  502    0  0.00000000000E+00 -0.00000000000E+00 -0.21847760121E+03  0.21847760121E+03  0.00000000000E+00 0. -1.
         23    2    1    2    0    0  0.34795354054E+02 -0.53427461728E+01 -0.19418158522E+02  0.93349703462E+02  0.84248683406E+02 0.  0.
         23    2    1    2    0    0 -0.44091660610E+02 -0.19000406672E+02 -0.94651872879E+02  0.13976150188E+03  0.90935198792E+02 0.  0.
        -11    1    4    4    0    0  0.94677900523E+01 -0.35055426862E+02 -0.69577093571E+02  0.78482443583E+02  0.00000000000E+00 0. -1.
         11    1    4    4    0    0 -0.53559450662E+02  0.16055020190E+02 -0.25074779308E+02  0.61279058298E+02  0.00000000000E+00 0.  1.
        -13    1    3    3    0    0  0.50764649899E+02 -0.29501577143E+02 -0.42278471806E+00  0.58716024050E+02  0.00000000000E+00 0. -1.
         13    1    3    3    0    0 -0.15969295845E+02  0.24158830970E+02 -0.18995373804E+02  0.34633679412E+02  0.00000000000E+00 0.  1.
         21    1    1    2  502  501  0.92963065563E+01  0.24343152845E+02 -0.41105204902E+02  0.48668760782E+02  0.00000000000E+00 0.  1.
<scales pt_clust_5="13000.00000" pt_clust_6="13000.00000" pt_clust_7="13000.00000" pt_clust_8="13000.00000" pt_clust_9="26.05783"></scales>
<clustering>
<clus scale="   26.058">  2  9  1 -1</clus>
<clus scale="   84.249">  7  8 -1 -1</clus>
<clus scale="   90.935">  5  6 -1 -1</clus>
<clus scale="   92.382">  1  7  2 -1</clus>
<clus scale="   26.058">  2  5  1 -1</clus>
</clustering>
</event>
<event>
 9    1  0.2075077E-005  0.9597808E+02  0.7546771E-02  0.1295232E+00
          1   -1    0    0  502    0  0.00000000000E+00  0.00000000000E+00  0.12316229062E+03  0.12316229062E+03  0.00000000000E+00 0. -1.
         -1   -1    0    0    0  501 -0.00000000000E+00 -0.00000000000E+00 -0.35484840367E+03  0.35484840367E+03  0.00000000000E+00 0.  1.
         23    2    1    2    0    0  0.17649743280E+02  0.68282327137E+01 -0.31676517169E+03  0.33111291823E+03  0.94538100384E+02 0.  0.
         23    2    1    2    0    0  0.10206911417E+02  0.11084739984E+02  0.71198614069E+02  0.11098768634E+03  0.83797203851E+02 0.  0.
        -11    1    3    3    0    0 -0.28192927426E+02 -0.24118443936E+02 -0.17606281608E+03  0.17992958540E+03  0.00000000000E+00 0.  1.
         11    1    3    3    0    0  0.45842670705E+02  0.30946676650E+02 -0.14070235561E+03  0.15118333284E+03  0.00000000000E+00 0. -1.
        -13    1    4    4    0    0  0.15056985212E+02 -0.16043843858E+02 -0.10779478097E+02  0.24501323994E+02  0.00000000000E+00 0.  1.
         13    1    4    4    0    0 -0.48500737946E+01  0.27128583842E+02  0.81978092166E+02  0.86486362349E+02  0.00000000000E+00 0. -1.
         21    1    1    2  502  501 -0.27856654697E+02 -0.17912972698E+02  0.13880444574E+02  0.35910089716E+02  0.00000000000E+00 0.  1.
<scales pt_clust_5="13000.00000" pt_clust_6="13000.00000" pt_clust_7="13000.00000" pt_clust_8="13000.00000" pt_clust_9="33.11899"></scales>
<clustering>
<clus scale="   33.119">  1  9  2 -1</clus>
<clus scale="   83.797">  7  8 -1 -1</clus>
<clus scale="   85.418">  1  7  2 -1</clus>
<clus scale="   94.538">  5  6 -1 -1</clus>
<clus scale="   33.119">  1  5  2 -1</clus>
</clustering>
</event>
<event>
 9    1  0.2075077E-005  0.1048131E+03  0.7546771E-02  0.1270727E+00
          2   -1    0    0  502    0  0.00000000000E+00  0.00000000000E+00  0.17743926603E+03  0.17743926603E+03  0.00000000000E+00 0. -1.
         -2   -1    0    0    0  501 -0.00000000000E+00 -0.00000000000E+00 -0.14021788096E+03  0.14021788096E+03  0.00000000000E+00 0.  1.
         23    2    1    2    0    0  0.22540388177E+02 -0.46423543850E+02 -0.45435234205E+02  0.11367985599E+03  0.90529192136E+02 0.  0.
         23    2    1    2    0    0 -0.47571017536E+02  0.34185293201E+02 -0.94247979116E+01  0.10777284943E+03  0.89969574173E+02 0.  0.
        -11    1    3    3    0    0 -0.29013069863E+02 -0.26304618505E+02 -0.43179539389E+02  0.58293771532E+02  0.00000000000E+00 0.  1.
         11    1    3    3    0    0  0.51553458040E+02 -0.20118925345E+02 -0.22556948157E+01  0.55386084462E+02  0.00000000000E+00 0. -1.
        -13    1    4    4    0    0 -0.70144448303E+02  0.30964349483E+02 -0.24434431069E+02  0.80474070285E+02  0.00000000000E+00 0.  1.
         13    1    4    4    0    0  0.22573430767E+02  0.32209437176E+01  0.15009633157E+02  0.27298779140E+02  0.00000000000E+00 0. -1.
         21    1    1    2  502  501  0.25030629359E+02  0.12238250649E+02  0.92081417187E+02  0.96204441562E+02  0.00000000000E+00 0. -1.
<scales pt_clust_5="13000.00000" pt_clust_6="13000.00000" pt_clust_7="13000.00000" pt_clust_8="13000.00000" pt_clust_9="27.86229"></scales>
<clustering>
<clus scale="   27.862">  1  9  2 -1</clus>
<clus scale="   89.970">  7  8 -1 -1</clus>
<clus scale="   90.529">  5  6 -1 -1</clus>
<clus scale="  104.330">  1  7  2 -1</clus>
<clus scale="   27.862">  1  5  2 -1</clus>
</clustering>
</event>
<event>
 9    1  0.2075077E-005  0.1379772E+03  0.7546771E-02  0.1222058E+00
          1   -1    0    0  502    0  0.00000000000E+00  0.00000000000E+00  0.25212394209E+03  0.25212394209E+03  0.00000000000E+00 0. -1.
         -1   -1    0    0    0  501 -0.00000000000E+00 -0.00000000000E+00 -0.21459327820E+03  0.21459327820E+03  0.00000000000E+00 0.  1.
         23    2    1    2    0    0  0.10066341449E+03 -0.21433537429E+02 -0.94186604540E+02  0.16470297809E+03  0.87541047365E+02 0.  0.
         23    2    1    2    0    0  0.29359863623E+02  0.79431410433E+02  0.25312656517E+02  0.12427356718E+03  0.87360393567E+02 0.  0.
        -13    1    3    3    0    0  0.26925020599E+02  0.20705849823E+02 -0.67693266652E+02  0.75736829226E+02  0.00000000000E+00 0. -1.
         13    1    3    3    0    0  0.73738393887E+02 -0.42139387252E+02 -0.26493337887E+02  0.88966148862E+02  0.00000000000E+00 0.  1.
        -13    1    4    4    0    0  0.40422541029E+02  0.26206211538E+02  0.45518380577E+02  0.66277223212E+02  0.00000000000E+00 0.  1.
         13    1    4    4    0    0 -0.11062677405E+02  0.53225198894E+02 -0.20205724060E+02  0.57996343967E+02  0.00000000000E+00 0. -1.
         21    1    1    2  502  501 -0.13002327811E+03 -0.57997873003E+02  0.10640461191E+03  0.17774067502E+03  0.00000000000E+00 0. -1.
<scales pt_clust_5="13000.00000" pt_clust_6="13000.00000" pt_clust_7="13000.00000" pt_clust_8="13000.00000" pt_clust_9="106.65021"></scales>
<clustering>
<clus scale="   87.360">  7  8 -1 -1</clus>
<clus scale="   87.541">  5  6 -1 -1</clus>
<clus scale="  121.668">  1  7  2 -1</clus>
<clus scale="  106.650">  1  9  2 -1</clus>
<clus scale="  121.668">  1  5  2 -1</clus>
</clustering>
</event>
<event>
 9    1  0.2075077E-005  0.1087904E+03  0.7546771E-02  0.1263101E+00
         -2   -1    0    0    0  501 -0.00000000000E+00  0.00000000000E+00  0.40665980386E+03  0.40665980386E+03  0.00000000000E+00 0.  1.
          2   -1    0    0  502    0  0.00000000000E+00 -0.00000000000E+00 -0.38774022604E+03  0.38774022604E+03  0.00000000000E+00 0. -1.
         23    2    1    2    0    0  0.48662973200E+02 -0.38082889684E+02  0.38625872220E+03  0.40126915942E+03  0.89458070497E+02 0.  0.
         23    2    1    2    0    0 -0.11116408481E+02  0.23186399341E+02 -0.30289348243E+03  0.31707238448E+03  0.90162362726E+02 0.  0.
        -11    1    3    3    0    0  0.68046932914E+02 -0.51285507270E+02  0.30837928468E+03  0.31993494894E+03  0.00000000000E+00 0.  1.
         11    1    3    3    0    0 -0.19383959714E+02  0.13202617586E+02  0.77879437524E+02  0.81334210480E+02  0.00000000000E+00 0. -1.
        -11    1    4    4    0    0  0.91950787147E+01 -0.32061828256E+02 -0.13844932518E+03  0.14241041375E+03  0.00000000000E+00 0.  1.
         11    1    4    4    0    0 -0.20311487196E+02  0.55248227598E+02 -0.16444415725E+03  0.17466197073E+03  0.00000000000E+00 0. -1.
         21    1    1    2  502  501 -0.37546564719E+02  0.14896490343E+02 -0.64445661957E+02  0.76058485995E+02  0.00000000000E+00 0. -1.
<scales pt_clust_5="13000.00000" pt_clust_6="13000.00000" pt_clust_7="13000.00000" pt_clust_8="13000.00000" pt_clust_9="40.39369"></scales>
<clustering>
<clus scale="   40.394">  2  9  1 -1</clus>
<clus scale="   89.458">  5  6 -1 -1</clus>
<clus scale="   90.162">  7  8 -1 -1</clus>
<clus scale="  108.207">  1  5  2 -1</clus>
<clus scale="   40.394">  2  5  1 -1</clus>
</clustering>
</event>
<event>
 9    1  0.2075077E-005  0.1439829E+03  0.7546771E-02  0.1208127E+00
         -1   -1    0    0    0  501 -0.00000000000E+00  0.00000000000E+00  0.45566314014E+03  0.45566314014E+03  0.00000000000E+00 0.  1.
          1   -1    0    0  502    0  0.00000000000E+00 -0.00000000000E+00 -0.36782161869E+03  0.36782161869E+03  0.00000000000E+00 0. -1.
         23    2    1    2    0    0  0.79585272449E+02 -0.80360154760E+02  0.40400991462E+03  0.42930004351E+03  0.91010692684E+02 0.  0.
         23    2    1    2    0    0 -0.29801807141E+02  0.10263945718E+03 -0.10250401823E+03  0.17366889762E+03  0.90723791644E+02 0.  0.
        -11    1    3    3    0    0  0.33533605912E+02  0.16421560474E+02  0.12307956858E+03  0.12861862453E+03  0.00000000000E+00 0. -1.
         11    1    3    3    0    0  0.46051666537E+02 -0.96781715234E+02  0.28093034604E+03  0.30068141899E+03  0.00000000000E+00 0.  1.
        -13    1    4    4    0    0  0.18788850419E+02  0.20204109055E+02  0.67805848514E+01  0.28411322632E+02  0.00000000000E+00 0.  1.
         13    1    4    4    0    0 -0.48590657560E+02  0.82435348122E+02 -0.10928460308E+03  0.14525757499E+03  0.00000000000E+00 0. -1.
         21    1    1    2  502  501 -0.49783465308E+02 -0.22279302417E+02 -0.21366437494E+03  0.22051581769E+03  0.00000000000E+00 0. -1.
<scales pt_clust_5="13000.00000" pt_clust_6="13000.00000" pt_clust_7="13000.00000" pt_clust_8="13000.00000" pt_clust_9="54.54137"></scales>
<clustering>
<clus scale="   54.541">  2  9  1 -1</clus>
<clus scale="   90.724">  7  8 -1 -1</clus>
<clus scale="   91.011">  5  6 -1 -1</clus>
<clus scale="  143.802">  2  7  1 -1</clus>
<clus scale="   54.541">  2  5  1 -1</clus>
</clustering>
</event>
<event>
 9    1  0.2075077E-005  0.2772098E+03  0.7546771E-02  0.1097355E+00
          1   -1    0    0  502    0  0.00000000000E+00  0.00000000000E+00  0.93776731327E+03  0.93776731327E+03  0.00000000000E+00 0. -1.
         -1   -1    0    0    0  501 -0.00000000000E+00 -0.00000000000E+00 -0.16245116290E+03  0.16245116290E+03  0.00000000000E+00 0.  1.
         23    2    1    2    0    0 -0.50929927827E+02  0.25589733482E+03  0.73269193639E+01  0.27728144771E+03  0.93562887835E+02 0.  0.
         23    2    1    2    0    0  0.30182570659E+02 -0.25385287880E+03  0.68746591831E+03  0.73975868683E+03  0.96339266407E+02 0.  0.
        -11    1    3    3    0    0  0.14092607516E+02  0.14772273236E+03 -0.14851765898E+02  0.14913477861E+03  0.00000000000E+00 0.  1.
         11    1    3    3    0    0 -0.65022535344E+02  0.10817460246E+03  0.22178685262E+02  0.12814666909E+03  0.00000000000E+00 0. -1.
        -13    1    4    4    0    0 -0.22965010567E+02 -0.37070285270E+02  0.63151279036E+02  0.76744262354E+02  0.00000000000E+00 0.  1.
         13    1    4    4    0    0  0.53147581226E+02 -0.21678259353E+03  0.62431463928E+03  0.66301442447E+03  0.00000000000E+00 0. -1.
         21    1    1    2  502  501  0.20747357168E+02 -0.20444560193E+01  0.80523312696E+02  0.83178341636E+02  0.00000000000E+00 0.  1.
<scales pt_clust_5="13000.00000" pt_clust_6="13000.00000" pt_clust_7="13000.00000" pt_clust_8="13000.00000" pt_clust_9="20.84784"></scales>
<clustering>
<clus scale="   20.848">  1  9  2 -1</clus>
<clus scale="   93.563">  5  6 -1 -1</clus>
<clus scale="   96.339">  7  8 -1 -1</clus>
<clus scale="  276.257">  2  5  1 -1</clus>
<clus scale="   20.848">  1  5  2 -1</clus>
</clustering>
</event>
<event>
 9    1  0.2075077E-005  0.1153621E+03  0.7546771E-02  0.1255848E+00
          1   -1    0    0  502    0  0.00000000000E+00  0.00000000000E+00  0.11369631692E+03  0.11369631692E+03  0.00000000000E+00 0. -1.
         -1   -1    0    0    0  501 -0.00000000000E+00 -0.00000000000E+00 -0.19834578662E+03  0.19834578662E+03  0.00000000000E+00 0.  1.
         23    2    1    2    0    0 -0.43099244039E+02  0.22133889716E+02 -0.10863880926E+03  0.14662846815E+03  0.85732507741E+02 0.  0.
         23    2    1    2    0    0  0.62194320393E+02 -0.14305472582E+02  0.53833205101E+02  0.12912917086E+03  0.98506592477E+02 0.  0.
        -11    1    4    4    0    0  0.48431880639E+02  0.24984688056E+02  0.66157120935E+02  0.85712579882E+02  0.00000000000E+00 0. -1.
         11    1    4    4    0    0  0.13762439754E+02 -0.39290160638E+02 -0.12323915835E+02  0.43416590982E+02  0.00000000000E+00 0.  1.
        -13    1    3    3    0    0 -0.50218159031E+02 -0.20161498163E+02 -0.47873881465E+02  0.72251353144E+02  0.00000000000E+00 0. -1.
         13    1    3    3    0    0  0.71189149921E+01  0.42295387879E+02 -0.60764927799E+02  0.74377115008E+02  0.00000000000E+00 0.  1.
         21    1    1    2  502  501 -0.19095076355E+02 -0.78284171340E+01 -0.29843865534E+02  0.36284464524E+02  0.00000000000E+00 0. -1.
<scales pt_clust_5="13000.00000" pt_clust_6="13000.00000" pt_clust_7="13000.00000" pt_clust_8="13000.00000" pt_clust_9="20.63749"></scales>
<clustering>
<clus scale="   20.637">  2  9  1 -1</clus>
<clus scale="   85.733">  7  8 -1 -1</clus>
<clus scale="   98.507">  5  6 -1 -1</clus>
<clus scale="  104.666">  2  7  1 -1</clus>
<clus scale="  115.362">  1  5  2 -1</clus>
</clustering>
</event>
<event>
 9    1  0.2075077E-005  0.9525838E+02  0.7546771E-02  0.1290883E+00
         -2   -1    0    0    0  501 -0.00000000000E+00  0.00000000000E+00  0.18379082142E+03  0.18379082142E+03  0.00000000000E+00 0.  1.
          2   -1    0    0  502    0  0.00000000000E+00 -0.00000000000E+00 -0.21613433754E+03  0.21613433754E+03  0.00000000000E+00 0. -1.
         23    2    1    2    0    0  0.13102999834E+02 -0.31175960251E+02  0.11837633132E+03  0.15325676489E+03  0.91274591559E+02 0.  0.
         23    2    1    2    0    0 -0.12107616107E+02 -0.27390170121E+01 -0.47801718632E+00  0.92642993461E+02  0.91806313263E+02 0.  0.
        -11    1    4    4    0    0 -0.10974385652E+01  0.44306832925E+02  0.21727227403E+00  0.44320954666E+02  0.00000000000E+00 0.  1.
         11    1    4    4    0    0 -0.11010177542E+02 -0.47045849937E+02 -0.69528946035E+00  0.48322038795E+02  0.00000000000E+00 0. -1.
        -13    1    3    3    0    0 -0.15138353469E+02  0.27785233758E+02  0.44571999343E+02  0.54661248487E+02  0.00000000000E+00 0.  1.
         13    1    3    3    0    0  0.28241353303E+02 -0.58961194009E+02  0.73804331980E+02  0.98595516401E+02  0.00000000000E+00 0. -1.
         21    1    1    2  502  501 -0.99538372632E+00  0.33914977263E+02 -0.15024183027E+03  0.15402540061E+03  0.00000000000E+00 0. -1.
<scales pt_clust_5="13000.00000" pt_clust_6="13000.00000" pt_clust_7="13000.00000" pt_clust_8="13000.00000" pt_clust_9="33.92958"></scales>
<clustering>
<clus scale="   33.930">  2  9  1 -1</clus>
<clus scale="   91.275">  7  8 -1 -1</clus>
<clus scale="   91.806">  5  6 -1 -1</clus>
<clus scale="   94.746">  1  7  2 -1</clus>
<clus scale="   33.930">  2  5  1 -1</clus>
</clustering>
</event>
<event>
 9    1  0.2075077E-005  0.1872466E+03  0.7546771E-02  0.1161997E+00
         -1   -1    0    0    0  501 -0.00000000000E+00  0.00000000000E+00  0.45950199077E+03  0.45950199077E+03  0.00000000000E+00 0.  1.
          1   -1    0    0  502    0  0.00000000000E+00 -0.00000000000E+00 -0.42592697974E+03  0.42592697974E+03  0.00000000000E+00 0. -1.
         23    2    1    2    0    0 -0.18127167821E+03  0.27872628392E+01  0.33950796999E+03  0.39554997880E+03  0.91252034992E+02 0.  0.
         23    2    1    2    0    0  0.12226070365E+03 -0.28866030508E+02  0.25639875252E+02  0.15208772238E+03  0.81806752311E+02 0.  0.
        -11    1    3    3    0    0 -0.13998282495E+03 -0.37866505577E+02  0.24126975121E+03  0.28149628128E+03  0.00000000000E+00 0.  1.
         11    1    3    3    0    0 -0.41288853260E+02  0.40653768416E+02  0.98238218781E+02  0.11405369753E+03  0.00000000000E+00 0. -1.
        -13    1    4    4    0    0  0.95753083583E+01 -0.30846613177E+02  0.22459756557E+02  0.39340065319E+02  0.00000000000E+00 0.  1.
         13    1    4    4    0    0  0.11268539529E+03  0.19805826691E+01  0.31801186943E+01  0.11274765706E+03  0.00000000000E+00 0. -1.
         21    1    1    2  502  501  0.59010974564E+02  0.26078767669E+02 -0.33157283422E+03  0.33779126933E+03  0.00000000000E+00 0. -1.
<scales pt_clust_5="13000.00000" pt_clust_6="13000.00000" pt_clust_7="13000.00000" pt_clust_8="13000.00000" pt_clust_9="64.51664"></scales>
<clustering>
<clus scale="   64.517">  2  9  1 -1</clus>
<clus scale="   81.807">  7  8 -1 -1</clus>
<clus scale="   91.252">  5  6 -1 -1</clus>
<clus scale="  182.830">  2  7  1 -1</clus>
<clus scale="   64.517">  2  5  1 -1</clus>
</clustering>
</event>
<event>
 9    1  0.2075077E-005  0.1115664E+03  0.7546771E-02  0.1258015E+00
         -1   -1    0    0    0  501 -0.00000000000E+00  0.00000000000E+00  0.26152694435E+03  0.26152694435E+03  0.00000000000E+00 0.  1.
          1   -1    0    0  502    0  0.00000000000E+00 -0.00000000000E+00 -0.16645969901E+03  0.16645969901E+03  0.00000000000E+00 0. -1.
         23    2    1    2    0    0 -0.62497073018E+02  0.43673855066E+02  0.19724003953E+03  0.22998363644E+03  0.90418748522E+02 0.  0.
         23    2    1    2    0    0 -0.27850568169E+01 -0.28728960144E+02 -0.31841763745E+02  0.10088678684E+03  0.91275057640E+02 0.  0.
        -11    1    4    4    0    0  0.40218386726E+02 -0.33123503019E+02 -0.21977570157E+02  0.56548197788E+02  0.00000000000E+00 0. -1.
         11    1    4    4    0    0 -0.43003443543E+02  0.43945428755E+01 -0.98641935875E+01  0.44338589048E+02  0.00000000000E+00 0.  1.
        -13    1    3    3    0    0 -0.61035272316E+02  0.13481967119E+02  0.18838775768E+03  0.19848681354E+03  0.00000000000E+00 0.  1.
         13    1    3    3    0    0 -0.14618007021E+01  0.30191887947E+02  0.88522818500E+01  0.31496822904E+02  0.00000000000E+00 0. -1.
         21    1    1    2  502  501  0.65282129835E+02 -0.14944894922E+02 -0.70331030448E+02  0.97116220087E+02  0.00000000000E+00 0. -1.
<scales pt_clust_5="13000.00000" pt_clust_6="13000.00000" pt_clust_7="13000.00000" pt_clust_8="13000.00000" pt_clust_9="66.97094"></scales>
<clustering>
<clus scale="   66.971">  2  9  1 -1</clus>
<clus scale="   90.419">  7  8 -1 -1</clus>
<clus scale="   91.275">  5  6 -1 -1</clus>
<clus scale="  110.867">  1  7  2 -1</clus>
<clus scale="   66.971">  2  5  1 -1</clus>
</clustering>
</event>
<event>
 9    1  0.2075077E-005  0.1194933E+03  0.7546771E-02  0.1244895E+00
          1   -1    0    0  502    0  0.00000000000E+00  0.00000000000E+00  0.55021119017E+02  0.55021119017E+02  0.00000000000E+00 0. -1.
         -1   -1    0    0    0  501 -0.00000000000E+00 -0.00000000000E+00 -0.89399086772E+03  0.89399086772E+03  0.00000000000E+00 0.  1.
         23    2    1    2    0    0  0.30219482885E+02  0.51866770778E+02 -0.39740242492E+03  0.41233263681E+03  0.92120231158E+02 0.  0.
         23    2    1    2    0    0 -0.53652982730E+02 -0.78724446108E+02 -0.47207023768E+03  0.48976569099E+03  0.89128793300E+02 0.  0.
        -13    1    3    3    0    0  0.33979990335E+02 -0.18823634097E+02 -0.12617988763E+03  0.13202398640E+03  0.00000000000E+00 0.  1.
         13    1    3    3    0    0 -0.37605074497E+01  0.70690404874E+02 -0.27122253729E+03  0.28030865041E+03  0.00000000000E+00 0. -1.
        -13    1    4    4    0    0 -0.62599084961E+01 -0.71862863892E+02 -0.37070566482E+03  0.37765877137E+03  0.00000000000E+00 0.  1.
         13    1    4    4    0    0 -0.47393074234E+02 -0.68615822153E+01 -0.10136457287E+03  0.11210691963E+03  0.00000000000E+00 0. -1.
         21    1    1    2  502  501  0.23433499845E+02  0.26857675330E+02  0.30502913896E+02  0.46913658941E+02  0.00000000000E+00 0. -1.
<scales pt_clust_5="13000.00000" pt_clust_6="13000.00000" pt_clust_7="13000.00000" pt_clust_8="13000.00000" pt_clust_9="35.64356"></scales>
<clustering>
<clus scale="   35.644">  1  9  2 -1</clus>
<clus scale="   89.129">  7  8 -1 -1</clus>
<clus scale="   92.120">  5  6 -1 -1</clus>
<clus scale="  117.203">  1  7  2 -1</clus>
<clus scale="   35.644">  1  5  2 -1</clus>
</clustering>
</event>
<event>
 9    1  0.2075077E-005  0.1523147E+03  0.7546771E-02  0.1197659E+00
         -2   -1    0    0    0  501 -0.00000000000E+00  0.00000000000E+00  0.60356110692E+02  0.60356110692E+02  0.00000000000E+00 0.  1.
          2   -1    0    0  502    0  0.00000000000E+00 -0.00000000000E+00 -0.56760138928E+03  0.56760138928E+03  0.00000000000E+00 0. -1.
         23    2    1    2    0    0  0.45867095733E+02 -0.11188410186E+03 -0.14652484310E+03  0.21086891192E+03  0.91511341639E+02 0.  0.
         23    2    1    2    0    0 -0.11570782655E+02  0.12538590892E+03 -0.20693189237E+03  0.25894481840E+03  0.91521045292E+02 0.  0.
        -11    1    3    3    0    0  0.32185135504E+02 -0.58804640838E+01 -0.76195322914E+02  0.82922795655E+02  0.00000000000E+00 0.  1.
         11    1    3    3    0    0  0.13681960229E+02 -0.10600363777E+03 -0.70329520182E+02  0.12794611626E+03  0.00000000000E+00 0. -1.
        -13    1    4    4    0    0 -0.37948646482E+02  0.11526100778E+03 -0.13425272986E+03  0.18096683441E+03  0.00000000000E+00 0.  1.
         13    1    4    4    0    0  0.26377863827E+02  0.10124901137E+02 -0.72679162510E+02  0.77977983985E+02  0.00000000000E+00 0. -1.
         21    1    1    2  502  501 -0.34296313078E+02 -0.13501807059E+02 -0.15378854313E+03  0.15814376966E+03  0.00000000000E+00 0. -1.
<scales pt_clust_5="13000.00000" pt_clust_6="13000.00000" pt_clust_7="13000.00000" pt_clust_8="13000.00000" pt_clust_9="36.85832"></scales>
<clustering>
<clus scale="   36.858">  2  9  1 -1</clus>
<clus scale="   91.511">  5  6 -1 -1</clus>
<clus scale="   91.521">  7  8 -1 -1</clus>
<clus scale="  152.309">  1  5  2 -1</clus>
<clus scale="   36.858">  2  5  1 -1</clus>
</clustering>
</event>
<event>
 9    1  0.2075077E-005  0.1558729E+03  0.7546771E-02  0.1193982E+00
         -1   -1    0    0    0  501 -0.00000000000E+00  0.00000000000E+00  0.31995887232E+03  0.31995887232E+03  0.00000000000E+00 0.  1.
          1   -1    0    0  502    0  0.00000000000E+00 -0.00000000000E+00 -0.11096940672E+03  0.11096940672E+03  0.00000000000E+00 0. -1.
         23    2    1    2    0    0  0.11069802729E+03  0.28300026304E+02  0.14642712058E+03  0.20695919239E+03  0.91303126664E+02 0.  0.
         23    2    1    2    0    0 -0.14316779098E+03 -0.47524382714E+02  0.64415383932E+02  0.18618952622E+03  0.88100026435E+02 0.  0.
        -11    1    4    4    0    0 -0.14808291046E+03 -0.23427932580E+02  0.52394917170E+02  0.15881638373E+03  0.00000000000E+00 0. -1.
         11    1    4    4    0    0  0.49151194754E+01 -0.24096450134E+02  0.12020466762E+02  0.27373142489E+02  0.00000000000E+00 0.  1.
        -11    1    3    3    0    0  0.89097445659E+02 -0.19588874123E+02  0.73889776875E+02  0.11739581738E+03  0.00000000000E+00 0. -1.
         11    1    3    3    0    0  0.21600581633E+02  0.47888900427E+02  0.72537343706E+02  0.89563375009E+02  0.00000000000E+00 0.  1.
         21    1    1    2  502  501  0.32469763692E+02  0.19224356410E+02 -0.18530389125E+01  0.37779560437E+02  0.00000000000E+00 0.  1.
<scales pt_clust_5="13000.00000" pt_clust_6="13000.00000" pt_clust_7="13000.00000" pt_clust_8="13000.00000" pt_clust_9="37.73409"></scales>
<clustering>
<clus scale="   37.734">  2  9  1 -1</clus>
<clus scale="   88.100">  5  6 -1 -1</clus>
<clus scale="   91.303">  7  8 -1 -1</clus>
<clus scale="  154.019">  2  5  1 -1</clus>
<clus scale="   37.734">  2  5  1 -1</clus>
</clustering>
</event>
<event>
 9    1  0.2075077E-005  0.1214088E+03  0.7546771E-02  0.1241491E+00
          1   -1    0    0  502    0  0.00000000000E+00  0.00000000000E+00  0.22735407094E+03  0.22735407094E+03  0.00000000000E+00 0. -1.
         -1   -1    0    0    0  501 -0.00000000000E+00 -0.00000000000E+00 -0.15572916990E+03  0.15572916990E+03  0.00000000000E+00 0.  1.
         23    2    1    2    0    0 -0.19995699708E+02  0.78508374232E+02 -0.10334274781E+03  0.15980749593E+03  0.91078644029E+02 0.  0.
         23    2    1    2    0    0 -0.21524863198E+00 -0.77857925530E+02  0.15498770088E+03  0.19484857767E+03  0.88785572569E+02 0.  0.
        -13    1    3    3    0    0 -0.10905054359E+02 -0.19118246463E+02 -0.91214264314E+01  0.23824944460E+02  0.00000000000E+00 0. -1.
         13    1    3    3    0    0 -0.90906453493E+01  0.97626620695E+02 -0.94221321378E+02  0.13598255147E+03  0.00000000000E+00 0.  1.
        -13    1    4    4    0    0 -0.35982891147E+02 -0.42870302835E+01  0.50110952759E+02  0.61840558458E+02  0.00000000000E+00 0. -1.
         13    1    4    4    0    0  0.35767642516E+02 -0.73570895246E+02  0.10487674812E+03  0.13300801921E+03  0.00000000000E+00 0.  1.
         21    1    1    2  502  501  0.20210948340E+02 -0.65044870264E+00  0.19979947976E+02  0.28427167243E+02  0.00000000000E+00 0.  1.
<scales pt_clust_5="13000.00000" pt_clust_6="13000.00000" pt_clust_7="13000.00000" pt_clust_8="13000.00000" pt_clust_9="20.22141"></scales>
<clustering>
<clus scale="   20.221">  1  9  2 -1</clus>
<clus scale="   88.786">  7  8 -1 -1</clus>
<clus scale="   91.079">  5  6 -1 -1</clus>
<clus scale="  119.698">  1  7  2 -1</clus>
<clus scale="   20.221">  1  5  2 -1</clus>
</clustering>
</event>
<event>
 9    1  0.2075077E-005  0.1145899E+03  0.7546771E-02  0.1252693E+00
         -2   -1    0    0    0  501 -0.00000000000E+00  0.00000000000E+00  0.20921602470E+03  0.20921602470E+03  0.00000000000E+00 0.  1.
          2   -1    0    0  502    0  0.00000000000E+00 -0.00000000000E+00 -0.18904990957E+03  0.18904990957E+03  0.00000000000E+00 0. -1.
         23    2    1    2    0    0  0.64978337486E+02  0.13245904426E+02  0.15854474866E+03  0.19494214137E+03  0.92023707970E+02 0.  0.
         23    2    1    2    0    0 -0.85295244941E+02 -0.74682666095E+01 -0.13090625401E+03  0.18091856398E+03  0.90906686432E+02 0.  0.
        -11    1    3    3    0    0  0.59103506564E+02  0.40765277587E+02  0.63604698031E+02  0.95919705778E+02  0.00000000000E+00 0. -1.
         11    1    3    3    0    0  0.58748309220E+01 -0.27519373161E+02  0.94940050629E+02  0.99022435594E+02  0.00000000000E+00 0.  1.
        -13    1    4    4    0    0 -0.94252236042E+02  0.14208424571E+02 -0.78420710085E+02  0.12343083528E+03  0.00000000000E+00 0. -1.
         13    1    4    4    0    0  0.89569911005E+01 -0.21676691181E+02 -0.52485543921E+02  0.57487728697E+02  0.00000000000E+00 0.  1.
         21    1    1    2  502  501  0.20316907456E+02 -0.57776378165E+01 -0.74723795256E+01  0.22405228923E+02  0.00000000000E+00 0.  1.
<scales pt_clust_5="13000.00000" pt_clust_6="13000.00000" pt_clust_7="13000.00000" pt_clust_8="13000.00000" pt_clust_9="21.12245"></scales>
<clustering>
<clus scale="   21.122">  2  9  1 -1</clus>
<clus scale="   90.907">  7  8 -1 -1</clus>
<clus scale="   92.024">  5  6 -1 -1</clus>
<clus scale="  113.695">  2  7  1 -1</clus>
<clus scale="   21.122">  2  5  1 -1</clus>
</clustering>
</event>
<event>
 9    1  0.2075077E-005  0.1820762E+03  0.7546771E-02  0.1166878E+00
         -2   -1    0    0    0  501 -0.00000000000E+00  0.00000000000E+00  0.10180867773E+03  0.10180867773E+03  0.00000000000E+00 0.  1.
          2   -1    0    0  502    0  0.00000000000E+00 -0.00000000000E+00 -0.41392828174E+03  0.41392828174E+03  0.00000000000E+00 0. -1.
         23    2    1    2    0    0  0.12803175787E+03 -0.10160719378E+03 -0.11216175383E+03  0.21637294406E+03  0.86722771216E+02 0.  0.
         23    2    1    2    0    0 -0.86372068693E+02  0.12077045753E+03 -0.15110080063E+03  0.23235825692E+03  0.95463448212E+02 0.  0.
        -11    1    4    4    0    0 -0.79312846061E+01  0.22176211931E+02 -0.88675674437E+02  0.91750013014E+02  0.00000000000E+00 0.  1.
         11    1    4    4    0    0 -0.78440784087E+02  0.98594245604E+02 -0.62425126193E+02  0.14060824391E+03  0.00000000000E+00 0. -1.
        -13    1    3    3    0    0  0.90595204598E+02 -0.10549486720E+03 -0.58576577962E+02  0.15089027002E+03  0.00000000000E+00 0.  1.
         13    1    3    3    0    0  0.37436553271E+02  0.38876734269E+01 -0.53585175870E+02  0.65482674033E+02  0.00000000000E+00 0. -1.
         21    1    1    2  502  501 -0.41659689177E+02 -0.19163263758E+02 -0.48857049552E+02  0.67005758492E+02  0.00000000000E+00 0. -1.
<scales pt_clust_5="13000.00000" pt_clust_6="13000.00000" pt_clust_7="13000.00000" pt_clust_8="13000.00000" pt_clust_9="45.85587"></scales>
<clustering>
<clus scale="   45.856">  2  9  1 -1</clus>
<clus scale="   86.723">  7  8 -1 -1</clus>
<clus scale="   95.463">  5  6 -1 -1</clus>
<clus scale="  177.649">  1  7  2 -1</clus>
<clus scale="   45.856">  2  5  1 -1</clus>
</clustering>
</event>
<event>
 9    1  0.2075077E-005  0.3818310E+03  0.7546771E-02  0.1050583E+00
         -2   -1    0    0    0  501 -0.00000000000E+00  0.00000000000E+00  0.37603234445E+03  0.37603234445E+03  0.00000000000E+00 0.  1.
          2   -1    0    0  502    0  0.00000000000E+00 -0.00000000000E+00 -0.47050934875E+03  0.47050934875E+03  0.00000000000E+00 0. -1.
         23    2    1    2    0    0  0.29602007699E+03  0.22850908732E+03  0.97427477405E+02  0.39908199681E+03  0.99649575271E+02 0.  0.
         23    2    1    2    0    0 -0.27270150701E+03 -0.23379112593E+03 -0.14852835072E+03  0.39793046888E+03  0.85226666048E+02 0.  0.
        -13    1    3    3    0    0  0.23988143610E+03  0.22787350321E+03  0.83845274628E+02  0.34132018242E+03  0.00000000000E+00 0.  1.
         13    1    3    3    0    0  0.56138640893E+02  0.63558410352E+00  0.13582202776E+02  0.57761814382E+02  0.00000000000E+00 0. -1.
        -13    1    4    4    0    0 -0.19577292457E+03 -0.15701861504E+03 -0.14358688408E+03  0.28913504932E+03  0.00000000000E+00 0. -1.
         13    1    4    4    0    0 -0.76928582438E+02 -0.76772510892E+02 -0.49414666341E+01  0.10879541956E+03  0.00000000000E+00 0.  1.
         21    1    1    2  502  501 -0.23318569980E+02  0.52820386127E+01 -0.43376130992E+02  0.49529227509E+02  0.00000000000E+00 0.  1.
<scales pt_clust_5="13000.00000" pt_clust_6="13000.00000" pt_clust_7="13000.00000" pt_clust_8="13000.00000" pt_clust_9="23.90932"></scales>
<clustering>
<clus scale="   23.909">  2  9  1 -1</clus>
<clus scale="   85.227">  7  8 -1 -1</clus>
<clus scale="   99.650">  5  6 -1 -1</clus>
<clus scale="  378.323">  2  7  1 -1</clus>
<clus scale="   23.909">  2  5  1 -1</clus>
</clustering>
</event>
<event>
 9    1  0.2075077E-005  0.1080286E+03  0.7546771E-02  0.1268180E+00
         -1   -1    0    0    0  501 -0.00000000000E+00  0.00000000000E+00  0.58753992454E+02  0.58753992454E+02  0.00000000000E+00 0.  1.
          1   -1    0    0  502    0  0.00000000000E+00 -0.00000000000E+00 -0.51286073631E+03  0.51286073631E+03  0.00000000000E+00 0. -1.
         23    2    1    2    0    0  0.28037303349E+02 -0.43084704957E+02 -0.15825444200E+02  0.10687391928E+03  0.92353710034E+02 0.  0.
         23    2    1    2    0    0 -0.50992259746E+02  0.67855691395E+02 -0.36994305663E+03  0.38851320785E+03  0.82946019274E+02 0.  0.
        -11    1    3    3    0    0  0.25300801379E+02  0.20926449975E+02 -0.26153991497E+02  0.41977114362E+02  0.00000000000E+00 0. -1.
         11    1    3    3    0    0  0.27365019695E+01 -0.64011154932E+02  0.10328547296E+02  0.64896804914E+02  0.00000000000E+00 0.  1.
        -13    1    4    4    0    0 -0.30818378675E+02 -0.14016383373E+02 -0.12280056591E+03  0.12738214339E+03  0.00000000000E+00 0.  1.
         13    1    4    4    0    0 -0.20173881071E+02  0.81872074767E+02 -0.24714249072E+03  0.26113106445E+03  0.00000000000E+00 0. -1.
         21    1    1    2  502  501  0.22954956397E+02 -0.24770986438E+02 -0.68338243026E+02  0.76227601643E+02  0.00000000000E+00 0.  1.
<scales pt_clust_5="13000.00000" pt_clust_6="13000.00000" pt_clust_7="13000.00000" pt_clust_8="13000.00000" pt_clust_9="33.77176"></scales>
<clustering>
<clus scale="   33.772">  2  9  1 -1</clus>
<clus scale="   82.946">  7  8 -1 -1</clus>
<clus scale="   92.354">  5  6 -1 -1</clus>
<clus scale="  100.105">  2  7  1 -1</clus>
<clus scale="   33.772">  2  5  1 -1</clus>
</clustering>
</event>
<event>
 9    1  0.2075077E-005  0.1043785E+03  0.7546771E-02  0.1273781E+00
         -2   -1    0    0    0  501 -0.00000000000E+00  0.00000000000E+00  0.79035898547E+02  0.79035898547E+02  0.00000000000E+00 0. -1.
          2   -1    0    0  502    0  0.00000000000E+00 -0.00000000000E+00 -0.40763018973E+03  0.40763018973E+03  0.00000000000E+00 0.  1.
         23    2    1    2    0    0 -0.20822289432E+02  0.39624666681E+02 -0.74098390969E+01  0.10838926372E+03  0.98435993561E+02 0.  0.
         23    2    1    2    0    0 -0.55211548121E+02 -0.10212581905E+02 -0.23828578777E+03  0.26200815410E+03  0.93357079461E+02 0.  0.
        -11    1    4    4    0    0  0.24846978662E+00 -0.42460917417E+02 -0.69542714961E+02  0.81481166224E+02  0.00000000000E+00 0. -1.
         11    1    4    4    0    0 -0.55460017908E+02  0.32248335512E+02 -0.16874307281E+03  0.18052698787E+03  0.00000000000E+00 0.  1.
        -11    1    3    3    0    0 -0.41883940374E+02  0.46267091297E+02 -0.36166283779E+02  0.72131187989E+02  0.00000000000E+00 0.  1.
         11    1    3    3    0    0  0.21061650942E+02 -0.66424246154E+01  0.28756444682E+02  0.36258075734E+02  0.00000000000E+00 0. -1.
         21    1    1    2  502  501  0.76033837554E+02 -0.29412084777E+02 -0.82898664315E+02  0.11626867045E+03  0.00000000000E+00 0. -1.
<scales pt_clust_5="13000.00000" pt_clust_6="13000.00000" pt_clust_7="13000.00000" pt_clust_8="13000.00000" pt_clust_9="81.52432"></scales>
<clustering>
<clus scale="   81.524">  2  9  1 -1</clus>
<clus scale="   93.357">  5  6 -1 -1</clus>
<clus scale="   98.436">  7  8 -1 -1</clus>
<clus scale="   99.603">  2  5  1 -1</clus>
<clus scale="   81.524">  2  5  1 -1</clus>
</clustering>
</event>
<event>
 9    1  0.2075077E-005  0.1207656E+03  0.7546771E-02  0.1241920E+00
         -2   -1    0    0    0  501 -0.00000000000E+00  0.00000000000E+00  0.86490353218E+02  0.86490353218E+02  0.00000000000E+00 0.  1.
          2   -1    0    0  502    0  0.00000000000E+00 -0.00000000000E+00 -0.51715581552E+03  0.51715581552E+03  0.00000000000E+00 0. -1.
         23    2    1    2    0    0  0.80370458516E+02 -0.25819863019E+02  0.23069066447E+02  0.12675426496E+03  0.91697251491E+02 0.  0.
         23    2    1    2    0    0 -0.46314495200E+02  0.13565904545E+02 -0.25995792553E+03  0.27976417845E+03  0.91437444562E+02 0.  0.
        -13    1    3    3    0    0  0.55036007851E+02  0.40713273080E+01 -0.28401748388E+02  0.62066071067E+02  0.00000000000E+00 0. -1.
         13    1    3    3    0    0  0.25334450666E+02 -0.29891190327E+02  0.51470814835E+02  0.64688193896E+02  0.00000000000E+00 0.  1.
        -13    1    4    4    0    0 -0.28174695396E+02  0.51530964172E+02 -0.18107238388E+03  0.19035877162E+03  0.00000000000E+00 0.  1.
         13    1    4    4    0    0 -0.18139799804E+02 -0.37965059627E+02 -0.78885541651E+02  0.89405406833E+02  0.00000000000E+00 0. -1.
         21    1    1    2  502  501 -0.34055963317E+02  0.12253958474E+02 -0.19377660322E+03  0.19712772532E+03  0.00000000000E+00 0. -1.
<scales pt_clust_5="13000.00000" pt_clust_6="13000.00000" pt_clust_7="13000.00000" pt_clust_8="13000.00000" pt_clust_9="36.19348"></scales>
<clustering>
<clus scale="   36.193">  2  9  1 -1</clus>
<clus scale="   91.437">  7  8 -1 -1</clus>
<clus scale="   91.697">  5  6 -1 -1</clus>
<clus scale="  120.568">  2  7  1 -1</clus>
<clus scale="   36.193">  2  5  1 -1</clus>
</clustering>
</event>
<event>
 9    1  0.2075077E-005  0.2133791E+03  0.7546771E-02  0.1161229E+00
          2   -1    0    0  502    0  0.00000000000E+00  0.00000000000E+00  0.96191037455E+03  0.96191037455E+03  0.00000000000E+00 0. -1.
         -2   -1    0    0    0  501 -0.00000000000E+00 -0.00000000000E+00 -0.27301878355E+03  0.27301878355E+03  0.00000000000E+00 0.  1.
         23    2    1    2    0    0  0.53517093073E+02 -0.68272378435E+02 -0.10492486700E+02  0.12620633182E+03  0.91064532101E+02 0.  0.
         23    2    1    2    0    0  0.14084605161E+03  0.41263760529E+02 -0.15495966130E+03  0.23213300098E+03  0.91284858133E+02 0.  0.
        -11    1    4    4    0    0  0.20483489380E+02 -0.10995235162E+02  0.64399134694E+01  0.24123453711E+02  0.00000000000E+00 0. -1.
         11    1    4    4    0    0  0.12036256223E+03  0.52258995692E+02 -0.16139957477E+03  0.20800954727E+03  0.00000000000E+00 0.  1.
        -11    1    3    3    0    0  0.37226619730E+02 -0.80658106097E+02 -0.33928525626E+02  0.95093092004E+02  0.00000000000E+00 0.  1.
         11    1    3    3    0    0  0.16290473344E+02  0.12385727662E+02  0.23436038927E+02  0.31113239819E+02  0.00000000000E+00 0. -1.
         21    1    1    2  502  501 -0.19436314469E+03  0.27008617906E+02  0.85434373899E+03  0.87658982530E+03  0.00000000000E+00 0. -1.
<scales pt_clust_5="13000.00000" pt_clust_6="13000.00000" pt_clust_7="13000.00000" pt_clust_8="13000.00000" pt_clust_9="192.86706"></scales>
<clustering>
<clus scale="   91.065">  7  8 -1 -1</clus>
<clus scale="   91.285">  5  6 -1 -1</clus>
<clus scale="  125.769">  2  7  1 -1</clus>
<clus scale="  192.867">  1  9  2 -1</clus>
<clus scale="  192.867">  1  5  2 -1</clus>
</clustering>
</event>
<event>
 9    1  0.2075077E-005  0.1182517E+03  0.7546771E-02  0.1246274E+00
          2   -1    0    0  502    0  0.00000000000E+00  0.00000000000E+00  0.18897372150E+03  0.18897372150E+03  0.00000000000E+00 0. -1.
         -2   -1    0    0    0  501 -0.00000000000E+00 -0.00000000000E+00 -0.17702092044E+03  0.17702092044E+03  0.00000000000E+00 0.  1.
         23    2    1    2    0    0  0.37814778323E+02 -0.54028992760E+02 -0.60142624615E+02  0.12856772361E+03  0.92538828288E+02 0.  0.
         23    2    1    2    0    0 -0.36904951799E+00  0.96645665491E+02 -0.14356507682E+02  0.13402333918E+03  0.91736717160E+02 0.  0.
        -11    1    3    3    0    0  0.25548628577E+01 -0.47376249597E+02  0.11164966140E+02  0.48741079378E+02  0.00000000000E+00 0. -1.
         11    1    3    3    0    0  0.35259915465E+02 -0.66527431636E+01 -0.71307590755E+02  0.79826644233E+02  0.00000000000E+00 0.  1.
        -13    1    4    4    0    0 -0.33505962999E+02  0.86500880372E+02  0.74764430081E+01  0.93064220093E+02  0.00000000000E+00 0. -1.
         13    1    4    4    0    0  0.33136913481E+02  0.10144785120E+02 -0.21832950690E+02  0.40959119082E+02  0.00000000000E+00 0.  1.
         21    1    1    2  502  501 -0.37445728805E+02 -0.42616672731E+02  0.86451933354E+02  0.10340357915E+03  0.00000000000E+00 0. -1.
<scales pt_clust_5="13000.00000" pt_clust_6="13000.00000" pt_clust_7="13000.00000" pt_clust_8="13000.00000" pt_clust_9="56.73062"></scales>
<clustering>
<clus scale="   56.731">  1  9  2 -1</clus>
<clus scale="   91.737">  7  8 -1 -1</clus>
<clus scale="   92.539">  5  6 -1 -1</clus>
<clus scale="  117.625">  1  7  2 -1</clus>
<clus scale="   56.731">  1  5  2 -1</clus>
</clustering>
</event>
<event>
 9    1  0.2075077E-005  0.1333341E+03  0.7546771E-02  0.1222954E+00
         -1   -1    0    0    0  501 -0.00000000000E+00  0.00000000000E+00  0.10378251713E+03  0.10378251713E+03  0.00000000000E+00 0.  1.
          1   -1    0    0  502    0  0.00000000000E+00 -0.00000000000E+00 -0.21647837815E+03  0.21647837815E+03  0.00000000000E+00 0. -1.
         23    2    1    2    0    0 -0.87707494966E+02 -0.47845382084E+02 -0.25591393528E+02  0.13741128611E+03  0.90802846137E+02 0.  0.
         23    2    1    2    0    0  0.72578427817E+02  0.63143170842E+02 -0.51016018007E+02  0.14083428816E+03  0.89313909442E+02 0.  0.
        -11    1    3    3    0    0 -0.67747225734E+02 -0.74013481036E+02 -0.28676507141E+02  0.10435527793E+03  0.00000000000E+00 0. -1.
         11    1    3    3    0    0 -0.19960269232E+02  0.26168098952E+02  0.30851136138E+01  0.33056008177E+02  0.00000000000E+00 0.  1.
        -11    1    4    4    0    0 -0.11235753898E+02  0.30182409552E+02 -0.38039324544E+02  0.49841852131E+02  0.00000000000E+00 0. -1.
         11    1    4    4    0    0  0.83814181714E+02  0.32960761290E+02 -0.12976693463E+02  0.90992436029E+02  0.00000000000E+00 0.  1.
         21    1    1    2  502  501  0.15129067149E+02 -0.15297788758E+02 -0.36088449483E+02  0.42015321013E+02  0.00000000000E+00 0. -1.
<scales pt_clust_5="13000.00000" pt_clust_6="13000.00000" pt_clust_7="13000.00000" pt_clust_8="13000.00000" pt_clust_9="21.51537"></scales>
<clustering>
<clus scale="   21.515">  2  9  1 -1</clus>
<clus scale="   89.314">  7  8 -1 -1</clus>
<clus scale="   90.803">  5  6 -1 -1</clus>
<clus scale="  132.325">  2  7  1 -1</clus>
<clus scale="   21.515">  2  5  1 -1</clus>
</clustering>
</event>
<event>
 9    1  0.2075077E-005  0.1201065E+03  0.7546771E-02  0.1242987E+00
          2   -1    0    0  502    0  0.00000000000E+00  0.00000000000E+00  0.66475714804E+03  0.66475714804E+03  0.00000000000E+00 0. -1.
         -2   -1    0    0    0  501 -0.00000000000E+00 -0.00000000000E+00 -0.29607588429E+02  0.29607588429E+02  0.00000000000E+00 0.  1.
         23    2    1    2    0    0  0.41667425557E+02 -0.79743811031E+02  0.25605615811E+03  0.28589593956E+03  0.89869251704E+02 0.  0.
         23    2    1    2    0    0 -0.55511611458E+02  0.49469266208E+02  0.31988381876E+03  0.34054248216E+03  0.90082058934E+02 0.  0.
        -11    1    3    3    0    0  0.35209705283E+02  0.90058468286E+01  0.97857534424E+02  0.10438834067E+03  0.00000000000E+00 0. -1.
         11    1    3    3    0    0  0.64577202737E+01 -0.88749657860E+02  0.15819862368E+03  0.18150759889E+03  0.00000000000E+00 0.  1.
        -13    1    4    4    0    0 -0.76996710550E+02  0.20673980008E+02  0.24145513397E+03  0.25427640198E+03  0.00000000000E+00 0.  1.
         13    1    4    4    0    0  0.21485099092E+02  0.28795286200E+02  0.78428684793E+02  0.86266080174E+02  0.00000000000E+00 0. -1.
         21    1    1    2  502  501  0.13844185901E+02  0.30274544823E+02  0.59209582745E+02  0.67926314756E+02  0.00000000000E+00 0.  1.
<scales pt_clust_5="13000.00000" pt_clust_6="13000.00000" pt_clust_7="13000.00000" pt_clust_8="13000.00000" pt_clust_9="33.28978"></scales>
<clustering>
<clus scale="   33.290">  2  9  1 -1</clus>
<clus scale="   89.869">  5  6 -1 -1</clus>
<clus scale="   90.082">  7  8 -1 -1</clus>
<clus scale="  119.947">  2  5  1 -1</clus>
<clus scale="  120.107">  1  5  2 -1</clus>
</clustering>
</event>
<event>
 9    1  0.2075077E-005  0.2513303E+03  0.7546771E-02  0.1112709E+00
          2   -1    0    0  502    0  0.00000000000E+00  0.00000000000E+00  0.78570813055E+03  0.78570813055E+03  0.00000000000E+00 0. -1.
         -2   -1    0    0    0  501 -0.00000000000E+00 -0.00000000000E+00 -0.23746569177E+03  0.23746569177E+03  0.00000000000E+00 0.  1.
         23    2    1    2    0    0 -0.23412036297E+03  0.11198936200E+02 -0.14010732606E+03  0.28828584349E+03  0.92417012568E+02 0.  0.
         23    2    1    2    0    0  0.21249199823E+03 -0.51001448233E+01  0.60234843984E+03  0.64599923197E+03  0.96501315729E+02 0.  0.
        -11    1    3    3    0    0 -0.37310858897E+02 -0.26740044445E+01  0.11865464649E+02  0.39243340107E+02  0.00000000000E+00 0. -1.
         11    1    3    3    0    0 -0.19680950407E+03  0.13872940645E+02 -0.15197279071E+03  0.24904250338E+03  0.00000000000E+00 0.  1.
        -11    1    4    4    0    0  0.11089827400E+02  0.23074440851E+02  0.35447147313E+02  0.43725442765E+02  0.00000000000E+00 0.  1.
         11    1    4    4    0    0  0.20140217083E+03 -0.28174585675E+02  0.56690129253E+03  0.60227378921E+03  0.00000000000E+00 0. -1.
         21    1    1    2  502  501  0.21628364740E+02 -0.60987913771E+01  0.86001325000E+02  0.88888746866E+02  0.00000000000E+00 0. -1.
<scales pt_clust_5="13000.00000" pt_clust_6="13000.00000" pt_clust_7="13000.00000" pt_clust_8="13000.00000" pt_clust_9="22.47179"></scales>
<clustering>
<clus scale="   22.472">  1  9  2 -1</clus>
<clus scale="   92.417">  5  6 -1 -1</clus>
<clus scale="   96.501">  7  8 -1 -1</clus>
<clus scale="  249.791">  2  5  1 -1</clus>
<clus scale="   22.472">  1  5  2 -1</clus>
</clustering>
</event>
<event>
 9    1  0.2075077E-005  0.9423625E+02  0.7546771E-02  0.1293885E+00
         -2   -1    0    0    0  501 -0.00000000000E+00  0.00000000000E+00  0.95068966764E+02  0.95068966764E+02  0.00000000000E+00 0.  1.
          2   -1    0    0  502    0  0.00000000000E+00 -0.00000000000E+00 -0.26250963017E+03  0.26250963017E+03  0.00000000000E+00 0. -1.
         23    2    1    2    0    0  0.14847600097E+02  0.16200111444E+02  0.48719810333E+02  0.10532550889E+03  0.90757633644E+02 0.  0.
         23    2    1    2    0    0  0.12875720698E+01 -0.18186290082E+01 -0.10917294796E+03  0.14310410046E+03  0.92493706539E+02 0.  0.
        -11    1    3    3    0    0 -0.36183039400E+02 -0.65097063982E+01  0.25985393381E+02  0.45020320821E+02  0.00000000000E+00 0. -1.
         11    1    3    3    0    0  0.51030639497E+02  0.22709817842E+02  0.22734416952E+02  0.60305188069E+02  0.00000000000E+00 0.  1.
        -13    1    4    4    0    0 -0.38115573951E+02  0.22091480880E+02 -0.37310469836E+02  0.57731288435E+02  0.00000000000E+00 0. -1.
         13    1    4    4    0    0  0.39403146020E+02 -0.23910109888E+02 -0.71862478124E+02  0.85372812027E+02  0.00000000000E+00 0.  1.
         21    1    1    2  502  501 -0.16135172167E+02 -0.14381482436E+02 -0.10698752578E+03  0.10914898759E+03  0.00000000000E+00 0. -1.
<scales pt_clust_5="13000.00000" pt_clust_6="13000.00000" pt_clust_7="13000.00000" pt_clust_8="13000.00000" pt_clust_9="21.61413"></scales>
<clustering>
<clus scale="   21.614">  2  9  1 -1</clus>
<clus scale="   90.758">  5  6 -1 -1</clus>
<clus scale="   92.494">  7  8 -1 -1</clus>
<clus scale="   92.533">  1  5  2 -1</clus>
<clus scale="   21.614">  2  5  1 -1</clus>
</clustering>
</event>
<event>
 9    1  0.2075077E-005  0.1161894E+03  0.7546771E-02  0.1250762E+00
         -1   -1    0    0    0  501 -0.00000000000E+00  0.00000000000E+00  0.11134582604E+03  0.11134582604E+03  0.00000000000E+00 0.  1.
          1   -1    0    0  502    0  0.00000000000E+00 -0.00000000000E+00 -0.21248282378E+03  0.21248282378E+03  0.00000000000E+00 0. -1.
         23    2    1    2    0    0  0.48622232784E+02  0.59213063664E+02  0.26381277327E+02  0.12193579204E+03  0.91115625216E+02 0.  0.
         23    2    1    2    0    0 -0.53440898336E+02 -0.13344478966E+02 -0.79520377290E+02  0.13532751552E+03  0.94636363615E+02 0.  0.
        -11    1    4    4    0    0 -0.15854733528E+02 -0.45978386271E+02 -0.69054929804E+02  0.84462819687E+02  0.00000000000E+00 0.  1.
         11    1    4    4    0    0 -0.37586164808E+02  0.32633907304E+02 -0.10465447487E+02  0.50864695831E+02  0.00000000000E+00 0. -1.
        -13    1    3    3    0    0  0.20261645929E+02  0.30322033953E+01  0.50532310707E+02  0.54527451605E+02  0.00000000000E+00 0.  1.
         13    1    3    3    0    0  0.28360586855E+02  0.56180860269E+02 -0.24151033380E+02  0.67408340438E+02  0.00000000000E+00 0. -1.
         21    1    1    2  502  501  0.48186655521E+01 -0.45868584698E+02 -0.47997897775E+02  0.66565342264E+02  0.00000000000E+00 0.  1.
<scales pt_clust_5="13000.00000" pt_clust_6="13000.00000" pt_clust_7="13000.00000" pt_clust_8="13000.00000" pt_clust_9="46.12100"></scales>
<clustering>
<clus scale="   46.121">  2  9  1 -1</clus>
<clus scale="   91.116">  7  8 -1 -1</clus>
<clus scale="   94.636">  5  6 -1 -1</clus>
<clus scale="  113.340">  1  7  2 -1</clus>
<clus scale="   46.121">  2  5  1 -1</clus>
</clustering>
</event>
<event>
 9    1  0.2075077E-005  0.1837647E+03  0.7546771E-02  0.1164427E+00
         -1   -1    0    0    0  501 -0.00000000000E+00  0.00000000000E+00  0.55285475079E+02  0.55285475079E+02  0.00000000000E+00 0.  1.
          1   -1    0    0  502    0  0.00000000000E+00 -0.00000000000E+00 -0.12535069094E+04  0.12535069094E+04  0.00000000000E+00 0. -1.
         23    2    1    2    0    0  0.10126381574E+03 -0.89571727588E+02 -0.12579216751E+03  0.20725736330E+03  0.94098302175E+02 0.  0.
         23    2    1    2    0    0 -0.14274914685E+03  0.79248803506E+02 -0.99996904112E+03  0.10174036967E+04  0.92274086213E+02 0.  0.
        -11    1    3    3    0    0  0.77154417732E+02 -0.31346273496E+02 -0.11702286623E+03  0.14363058260E+03  0.00000000000E+00 0. -1.
         11    1    3    3    0    0  0.24109398009E+02 -0.58225454092E+02 -0.87693012792E+01  0.63626780695E+02  0.00000000000E+00 0.  1.
        -11    1    4    4    0    0 -0.10893067652E+03  0.97836087637E+02 -0.85177894948E+03  0.86427146841E+03  0.00000000000E+00 0. -1.
         11    1    4    4    0    0 -0.33818470336E+02 -0.18587284131E+02 -0.14819009163E+03  0.15313222824E+03  0.00000000000E+00 0.  1.
         21    1    1    2  502  501  0.41485331110E+02  0.10322924082E+02 -0.72460225663E+02  0.84131324500E+02  0.00000000000E+00 0. -1.
<scales pt_clust_5="13000.00000" pt_clust_6="13000.00000" pt_clust_7="13000.00000" pt_clust_8="13000.00000" pt_clust_9="42.75039"></scales>
<clustering>
<clus scale="   42.750">  1  9  2 -1</clus>
<clus scale="   92.274">  7  8 -1 -1</clus>
<clus scale="   94.098">  5  6 -1 -1</clus>
<clus scale="  182.837">  2  7  1 -1</clus>
<clus scale="  182.837">  2  5  1 -1</clus>
</clustering>
</event>
<event>
 9    1  0.2075077E-005  0.1296678E+03  0.7546771E-02  0.1228559E+00
         -1   -1    0    0    0  501 -0.00000000000E+00  0.00000000000E+00  0.13327754168E+03  0.13327754168E+03  0.00000000000E+00 0.  1.
          1   -1    0    0  502    0  0.00000000000E+00 -0.00000000000E+00 -0.28478347016E+03  0.28478347016E+03  0.00000000000E+00 0. -1.
         23    2    1    2    0    0 -0.50919918976E+02  0.82222737297E+02  0.70345794410E+02  0.15013976547E+03  0.90774455150E+02 0.  0.
         23    2    1    2    0    0  0.32215423693E+02 -0.69559817613E+02 -0.13734227997E+03  0.18044522897E+03  0.88437418774E+02 0.  0.
        -11    1    3    3    0    0 -0.37220848614E+02  0.34840093274E+02  0.84620926835E+02  0.98792332341E+02  0.00000000000E+00 0.  1.
         11    1    3    3    0    0 -0.13699070361E+02  0.47382644023E+02 -0.14275132426E+02  0.51347433131E+02  0.00000000000E+00 0. -1.
        -11    1    4    4    0    0  0.42098971365E+02 -0.14982439416E+02 -0.10974507988E+03  0.11849379494E+03  0.00000000000E+00 0.  1.
         11    1    4    4    0    0 -0.98835476726E+01 -0.54577378197E+02 -0.27597200090E+02  0.61951434030E+02  0.00000000000E+00 0. -1.
         21    1    1    2  502  501  0.18704495283E+02 -0.12662919684E+02 -0.84509442914E+02  0.87476017401E+02  0.00000000000E+00 0. -1.
<scales pt_clust_5="13000.00000" pt_clust_6="13000.00000" pt_clust_7="13000.00000" pt_clust_8="13000.00000" pt_clust_9="22.58778"></scales>
<clustering>
<clus scale="   22.588">  2  9  1 -1</clus>
<clus scale="   88.437">  7  8 -1 -1</clus>
<clus scale="   90.774">  5  6 -1 -1</clus>
<clus scale="  128.043">  2  7  1 -1</clus>
<clus scale="   22.588">  2  5  1 -1</clus>
</clustering>
</event>
<event>
 9    1  0.2075077E-005  0.1028535E+03  0.7546771E-02  0.1274824E+00
          1   -1    0    0  502    0  0.00000000000E+00  0.00000000000E+00  0.81238648615E+02  0.81238648615E+02  0.00000000000E+00 0. -1.
         -1   -1    0    0    0  501 -0.00000000000E+00 -0.00000000000E+00 -0.24762322914E+03  0.24762322914E+03  0.00000000000E+00 0.  1.
         23    2    1    2    0    0 -0.20872953041E+01  0.55280355515E+02 -0.12746098704E+03  0.16703420494E+03  0.92703009103E+02 0.  0.
         23    2    1    2    0    0 -0.34447570686E+02 -0.16415279687E+02 -0.39385613758E+02  0.10848440693E+03  0.93603116632E+02 0.  0.
        -11    1    4    4    0    0  0.10065769258E+02 -0.45270363660E+02 -0.86493712918E+01  0.47175599206E+02  0.00000000000E+00 0. -1.
         11    1    4    4    0    0 -0.44513339943E+02  0.28855083973E+02 -0.30736242466E+02  0.61308807727E+02  0.00000000000E+00 0.  1.
        -11    1    3    3    0    0 -0.33332594712E+01  0.80451715571E+02 -0.81206387847E+02  0.11435937471E+03  0.00000000000E+00 0.  1.
         11    1    3    3    0    0  0.12459641672E+01 -0.25171360056E+02 -0.46254599189E+02  0.52674830232E+02  0.00000000000E+00 0. -1.
         21    1    1    2  502  501  0.36534865990E+02 -0.38865075828E+02  0.46202026876E+00  0.53343265880E+02  0.00000000000E+00 0. -1.
<scales pt_clust_5="13000.00000" pt_clust_6="13000.00000" pt_clust_7="13000.00000" pt_clust_8="13000.00000" pt_clust_9="53.34127"></scales>
<clustering>
<clus scale="   53.341">  1  9  2 -1</clus>
<clus scale="   92.703">  7  8 -1 -1</clus>
<clus scale="   93.603">  5  6 -1 -1</clus>
<clus scale="  102.035">  2  7  1 -1</clus>
<clus scale="   53.341">  1  5  2 -1</clus>
</clustering>
</event>
<event>
 9    1  0.2075077E-005  0.1093662E+03  0.7546771E-02  0.1262137E+00
         -2   -1    0    0    0  501 -0.00000000000E+00  0.00000000000E+00  0.32987494651E+03  0.32987494651E+03  0.00000000000E+00 0.  1.
          2   -1    0    0  502    0  0.00000000000E+00 -0.00000000000E+00 -0.12882280044E+03  0.12882280044E+03  0.00000000000E+00 0. -1.
         23    2    1    2    0    0 -0.32729565609E+02  0.49395519681E+02  0.27574796963E+03  0.29666898001E+03  0.92002169082E+02 0.  0.
         23    2    1    2    0    0  0.57951342260E+02 -0.30193785650E+02 -0.59820318150E+02  0.12701269536E+03  0.91015007315E+02 0.  0.
        -11    1    4    4    0    0  0.25330613842E+02  0.16936305633E+02  0.14015996114E+02  0.33539925360E+02  0.00000000000E+00 0.  1.
         11    1    4    4    0    0  0.32620728418E+02 -0.47130091283E+02 -0.73836314264E+02  0.93472769997E+02  0.00000000000E+00 0. -1.
        -11    1    3    3    0    0 -0.36373340882E+01  0.58157383585E+02  0.25042976282E+03  0.25711977281E+03  0.00000000000E+00 0.  1.
         11    1    3    3    0    0 -0.29092231521E+02 -0.87618639042E+01  0.25318206809E+02  0.39549207197E+02  0.00000000000E+00 0. -1.
         21    1    1    2  502  501 -0.25221776651E+02 -0.19201734031E+02 -0.14875505411E+02  0.35016071574E+02  0.00000000000E+00 0.  1.
<scales pt_clust_5="13000.00000" pt_clust_6="13000.00000" pt_clust_7="13000.00000" pt_clust_8="13000.00000" pt_clust_9="31.69928"></scales>
<clustering>
<clus scale="   31.699">  2  9  1 -1</clus>
<clus scale="   91.015">  5  6 -1 -1</clus>
<clus scale="   92.002">  7  8 -1 -1</clus>
<clus scale="  108.537">  2  5  1 -1</clus>
<clus scale="   31.699">  2  5  1 -1</clus>
</clustering>
</event>
<event>
 9    1  0.2075077E-005  0.1169817E+03  0.7546771E-02  0.1254657E+00
         -1   -1    0    0    0  501 -0.00000000000E+00  0.00000000000E+00  0.21120789271E+03  0.21120789271E+03  0.00000000000E+00 0.  1.
          1   -1    0    0  502    0  0.00000000000E+00 -0.00000000000E+00 -0.77787375504E+02  0.77787375504E+02  0.00000000000E+00 0. -1.
         23    2    1    2    0    0 -0.14878448808E+02 -0.58923742193E+02  0.98187446583E+02  0.14578621069E+03  0.88991398049E+02 0.  0.
         23    2    1    2    0    0  0.41936563268E+01  0.33489235786E+02  0.21695272968E+02  0.11247876512E+03  0.10507936080E+03 0.  0.
        -11    1    3    3    0    0  0.26262532823E+01 -0.79940679631E+02  0.78634467173E+02  0.11216411589E+03  0.00000000000E+00 0.  1.
         11    1    3    3    0    0 -0.17504702090E+02  0.21016937438E+02  0.19552979410E+02  0.33622094794E+02  0.00000000000E+00 0. -1.
        -13    1    4    4    0    0 -0.53683723641E+01 -0.37386961591E+02  0.15028283663E+02  0.40650382885E+02  0.00000000000E+00 0.  1.
         13    1    4    4    0    0  0.95620286909E+01  0.70876197378E+02  0.66669893050E+01  0.71828382230E+02  0.00000000000E+00 0. -1.
         21    1    1    2  502  501  0.10684792481E+02  0.25434506406E+02  0.13537797657E+02  0.30730292415E+02  0.00000000000E+00 0.  1.
<scales pt_clust_5="13000.00000" pt_clust_6="13000.00000" pt_clust_7="13000.00000" pt_clust_8="13000.00000" pt_clust_9="27.58766"></scales>
<clustering>
<clus scale="   27.588">  2  9  1 -1</clus>
<clus scale="   88.991">  5  6 -1 -1</clus>
<clus scale="  102.774">  1  5  2 -1</clus>
<clus scale="  105.079">  7  8 -1 -1</clus>
<clus scale="   27.588">  2  5  1 -1</clus>
</clustering>
</event>
<event>
 9    1  0.2075077E-005  0.1105751E+03  0.7546771E-02  0.1265141E+00
          2   -1    0    0  502    0  0.00000000000E+00  0.00000000000E+00  0.22369489638E+03  0.22369489638E+03  0.00000000000E+00 0. -1.
         -2   -1    0    0    0  501 -0.00000000000E+00 -0.00000000000E+00 -0.26833482756E+03  0.26833482756E+03  0.00000000000E+00 0.  1.
         23    2    1    2    0    0  0.32031016513E+02  0.13647688178E+02 -0.20198284352E+03  0.23006572043E+03  0.10450321159E+03 0.  0.
         23    2    1    2    0    0 -0.21045302447E+02 -0.75783211190E+02  0.15767042152E+03  0.19886395283E+03  0.92200379934E+02 0.  0.
        -11    1    4    4    0    0 -0.33174248458E+02  0.13612544573E+01  0.15464931930E+02  0.36627146955E+02  0.00000000000E+00 0.  1.
         11    1    4    4    0    0  0.12128946011E+02 -0.77144465647E+02  0.14220548959E+03  0.16223680587E+03  0.00000000000E+00 0. -1.
        -13    1    3    3    0    0 -0.10467046612E+02 -0.28336463036E+02 -0.14912245867E+02  0.33688117771E+02  0.00000000000E+00 0. -1.
         13    1    3    3    0    0  0.42498063125E+02  0.41984151214E+02 -0.18707059765E+03  0.19637760266E+03  0.00000000000E+00 0.  1.
         21    1    1    2  502  501 -0.10985714065E+02  0.62135523011E+02 -0.32750917672E+00  0.63100050679E+02  0.00000000000E+00 0.  1.
<scales pt_clust_5="13000.00000" pt_clust_6="13000.00000" pt_clust_7="13000.00000" pt_clust_8="13000.00000" pt_clust_9="63.09920"></scales>
<clustering>
<clus scale="   63.099">  1  9  2 -1</clus>
<clus scale="   92.200">  5  6 -1 -1</clus>
<clus scale="   99.029">  1  5  2 -1</clus>
<clus scale="  104.503">  7  8 -1 -1</clus>
<clus scale="   63.099">  1  5  2 -1</clus>
</clustering>
</event>
<event>
 9    1  0.2075077E-005  0.3028865E+03  0.7546771E-02  0.1083968E+00
         -1   -1    0    0    0  501 -0.00000000000E+00  0.00000000000E+00  0.23393718044E+04  0.23393718044E+04  0.00000000000E+00 0.  1.
          1   -1    0    0  502    0  0.00000000000E+00 -0.00000000000E+00 -0.45253975160E+02  0.45253975160E+02  0.00000000000E+00 0. -1.
         23    2    1    2    0    0  0.23902030735E+03  0.13979032732E+03  0.10966759229E+04  0.11343374901E+04  0.85740414096E+02 0.  0.
         23    2    1    2    0    0 -0.25252034814E+03 -0.16782840812E+03  0.11557586235E+04  0.11982702047E+04  0.90225200921E+02 0.  0.
        -13    1    3    3    0    0  0.19382937925E+03  0.13095141649E+03  0.10035172988E+04  0.10304198517E+04  0.00000000000E+00 0.  1.
         13    1    3    3    0    0  0.45190928098E+02  0.88389108305E+01  0.93158624031E+02  0.10391763834E+03  0.00000000000E+00 0. -1.
        -13    1    4    4    0    0 -0.19363896039E+03 -0.15237161773E+03  0.10224247035E+04  0.10516964540E+04  0.00000000000E+00 0. -1.
         13    1    4    4    0    0 -0.58881387746E+02 -0.15456790387E+02  0.13333391991E+03  0.14657375069E+03  0.00000000000E+00 0.  1.
         21    1    1    2  502  501  0.13500040789E+02  0.28038080806E+02  0.41683282914E+02  0.52018084847E+02  0.00000000000E+00 0. -1.
<scales pt_clust_5="13000.00000" pt_clust_6="13000.00000" pt_clust_7="13000.00000" pt_clust_8="13000.00000" pt_clust_9="31.11889"></scales>
<clustering>
<clus scale="   31.119">  2  9  1 -1</clus>
<clus scale="   85.740">  5  6 -1 -1</clus>
<clus scale="   90.225">  7  8 -1 -1</clus>
<clus scale="  301.581">  1  5  2 -1</clus>
<clus scale="   31.119">  2  5  1 -1</clus>
</clustering>
</event>
<event>
 9    1  0.2075077E-005  0.1530111E+03  0.7546771E-02  0.1196957E+00
         -1   -1    0    0    0  501 -0.00000000000E+00  0.00000000000E+00  0.26817702671E+03  0.26817702671E+03  0.00000000000E+00 0.  1.
          1   -1    0    0  502    0  0.00000000000E+00 -0.00000000000E+00 -0.10724477729E+03  0.10724477729E+03  0.00000000000E+00 0. -1.
         23    2    1    2    0    0 -0.38253082636E+02 -0.11920317436E+03  0.10383236349E+03  0.18669472340E+03  0.91657323386E+02 0.  0.
         23    2    1    2    0    0  0.62225736071E+02  0.10359305375E+03  0.49754464473E+02  0.15919203033E+03  0.90901225354E+02 0.  0.
        -11    1    4    4    0    0 -0.16993992026E+02  0.32943863379E+02 -0.86132595207E+01  0.38056302223E+02  0.00000000000E+00 0. -1.
         11    1    4    4    0    0  0.79219728097E+02  0.70649190370E+02  0.58367723994E+02  0.12113572811E+03  0.00000000000E+00 0.  1.
        -13    1    3    3    0    0  0.14504843155E+02 -0.38908457733E+02  0.76107160407E+02  0.86698087772E+02  0.00000000000E+00 0.  1.
         13    1    3    3    0    0 -0.52757925791E+02 -0.80294716624E+02  0.27725203086E+02  0.99996635632E+02  0.00000000000E+00 0. -1.
         21    1    1    2  502  501 -0.23972653435E+02  0.15610120610E+02  0.73454214569E+01  0.29535050271E+02  0.00000000000E+00 0.  1.
<scales pt_clust_5="13000.00000" pt_clust_6="13000.00000" pt_clust_7="13000.00000" pt_clust_8="13000.00000" pt_clust_9="28.60706"></scales>
<clustering>
<clus scale="   28.607">  2  9  1 -1</clus>
<clus scale="   90.901">  5  6 -1 -1</clus>
<clus scale="   91.657">  7  8 -1 -1</clus>
<clus scale="  152.559">  2  5  1 -1</clus>
<clus scale="   28.607">  2  5  1 -1</clus>
</clustering>
</event>
<event>
 9    1  0.2075077E-005  0.1101984E+03  0.7546771E-02  0.1260585E+00
          3   -1    0    0  502    0  0.00000000000E+00  0.00000000000E+00  0.54842016167E+02  0.54842016167E+02  0.00000000000E+00 0. -1.
         -3   -1    0    0    0  501 -0.00000000000E+00 -0.00000000000E+00 -0.34744204531E+03  0.34744204531E+03  0.00000000000E+00 0.  1.
         23    2    1    2    0    0  0.20822317068E+02  0.65444822938E+02 -0.21729400629E+03  0.24557594418E+03  0.91511012747E+02 0.  0.
         23    2    1    2    0    0 -0.25365996387E+02 -0.42576901388E+02 -0.82703663503E+02  0.13224770142E+03  0.90517027515E+02 0.  0.
        -11    1    4    4    0    0  0.21339619828E+02  0.45821599350E+01  0.48707397189E+01  0.22362908341E+02  0.00000000000E+00 0. -1.
         11    1    4    4    0    0 -0.46705616215E+02 -0.47159061323E+02 -0.87574403222E+02  0.10988479308E+03  0.00000000000E+00 0.  1.
        -13    1    3    3    0    0  0.55305964548E+02  0.23438228480E+02 -0.11423790316E+03  0.12906741954E+03  0.00000000000E+00 0. -1.
         13    1    3    3    0    0 -0.34483647480E+02  0.42006594458E+02 -0.10305610313E+03  0.11650852464E+03  0.00000000000E+00 0.  1.
         21    1    1    2  502  501  0.45436793195E+01 -0.22867921550E+02  0.73976406446E+01  0.24460415877E+02  0.00000000000E+00 0.  1.
<scales pt_clust_5="13000.00000" pt_clust_6="13000.00000" pt_clust_7="13000.00000" pt_clust_8="13000.00000" pt_clust_9="23.31495"></scales>
<clustering>
<clus scale="   23.315">  1  9  2 -1</clus>
<clus scale="   90.517">  5  6 -1 -1</clus>
<clus scale="   91.511">  7  8 -1 -1</clus>
<clus scale="  109.374">  1  5  2 -1</clus>
<clus scale="   23.315">  1  5  2 -1</clus>
</clustering>
</event>
<event>
 9    1  0.2075077E-005  0.9576235E+02  0.7546771E-02  0.1289498E+00
          1   -1    0    0  502    0  0.00000000000E+00  0.00000000000E+00  0.40039069752E+03  0.40039069752E+03  0.00000000000E+00 0. -1.
         -1   -1    0    0    0  501 -0.00000000000E+00 -0.00000000000E+00 -0.11340501242E+03  0.11340501242E+03  0.00000000000E+00 0.  1.
         23    2    1    2    0    0 -0.15568144598E+02  0.24540614337E+02 -0.82016194678E+02  0.12640710929E+03  0.91692378153E+02 0.  0.
         23    2    1    2    0    0 -0.53391893903E+01 -0.99644221288E+01  0.29020220664E+03  0.30456969894E+03  0.91747393000E+02 0.  0.
        -11    1    3    3    0    0  0.19544737343E+02  0.36383836077E+02 -0.58611334651E+01  0.41714903464E+02  0.00000000000E+00 0.  1.
         11    1    3    3    0    0 -0.35112881941E+02 -0.11843221740E+02 -0.76155061213E+02  0.84692205826E+02  0.00000000000E+00 0. -1.
        -13    1    4    4    0    0  0.42021064938E+02 -0.13021982526E+02  0.16192869886E+03  0.16779822836E+03  0.00000000000E+00 0.  1.
         13    1    4    4    0    0 -0.47360254328E+02  0.30575603972E+01  0.12827350778E+03  0.13677147058E+03  0.00000000000E+00 0. -1.
         21    1    1    2  502  501  0.20907333988E+02 -0.14576192208E+02  0.78799673141E+02  0.82818901712E+02  0.00000000000E+00 0. -1.
<scales pt_clust_5="13000.00000" pt_clust_6="13000.00000" pt_clust_7="13000.00000" pt_clust_8="13000.00000" pt_clust_9="25.48690"></scales>
<clustering>
<clus scale="   25.487">  1  9  2 -1</clus>
<clus scale="   91.692">  5  6 -1 -1</clus>
<clus scale="   91.747">  7  8 -1 -1</clus>
<clus scale="   95.710">  2  5  1 -1</clus>
<clus scale="   25.487">  1  5  2 -1</clus>
</clustering>
</event>
<event>
 9    1  0.2075077E-005  0.1188689E+03  0.7546771E-02  0.1245817E+00
          2   -1    0    0  502    0  0.00000000000E+00  0.00000000000E+00  0.27409648540E+03  0.27409648540E+03  0.00000000000E+00 0. -1.
         -2   -1    0    0    0  501 -0.00000000000E+00 -0.00000000000E+00 -0.75111460423E+02  0.75111460423E+02  0.00000000000E+00 0.  1.
         23    2    1    2    0    0  0.76681216758E+02 -0.26918087439E+02  0.27419350340E+02  0.12666449380E+03  0.93206656312E+02 0.  0.
         23    2    1    2    0    0 -0.61274686406E+02 -0.11701762800E+01  0.13845874709E+03  0.17647415219E+03  0.90644057923E+02 0.  0.
        -11    1    4    4    0    0 -0.51667162697E+02 -0.21156938655E+02  0.14328582857E+03  0.15377886859E+03  0.00000000000E+00 0. -1.
         11    1    4    4    0    0 -0.96075237095E+01  0.19986762375E+02 -0.48270814791E+01  0.22695283599E+02  0.00000000000E+00 0.  1.
        -11    1    3    3    0    0 -0.72239630150E+01  0.19285337048E+02  0.22863396203E+02  0.30770842573E+02  0.00000000000E+00 0. -1.
         11    1    3    3    0    0  0.83905179773E+02 -0.46203424487E+02  0.45559541372E+01  0.95893651224E+02  0.00000000000E+00 0.  1.
         21    1    1    2  502  501 -0.15406530351E+02  0.28088263719E+02  0.33106927542E+02  0.46069299837E+02  0.00000000000E+00 0. -1.
<scales pt_clust_5="13000.00000" pt_clust_6="13000.00000" pt_clust_7="13000.00000" pt_clust_8="13000.00000" pt_clust_9="32.03610"></scales>
<clustering>
<clus scale="   32.036">  1  9  2 -1</clus>
<clus scale="   90.644">  5  6 -1 -1</clus>
<clus scale="   93.207">  7  8 -1 -1</clus>
<clus scale="  116.870">  1  5  2 -1</clus>
<clus scale="   32.036">  1  5  2 -1</clus>
</clustering>
</event>
<event>
 9    1  0.2075077E-005  0.1874444E+03  0.7546771E-02  0.1161208E+00
          2   -1    0    0  502    0  0.00000000000E+00  0.00000000000E+00  0.76518749661E+03  0.76518749661E+03  0.00000000000E+00 0. -1.
         -2   -1    0    0    0  501 -0.00000000000E+00 -0.00000000000E+00 -0.87147220774E+02  0.87147220774E+02  0.00000000000E+00 0.  1.
         23    2    1    2    0    0  0.14323634224E+03  0.39088082661E+02  0.13213901437E+03  0.22021627373E+03  0.94815400399E+02 0.  0.
         23    2    1    2    0    0 -0.18210477614E+03 -0.12011910896E+02  0.20954849043E+03  0.29244645362E+03  0.91147807955E+02 0.  0.
        -11    1    4    4    0    0 -0.11591859691E+03  0.10898301072E+02  0.68809446954E+02  0.13524287067E+03  0.00000000000E+00 0.  1.
         11    1    4    4    0    0 -0.66186179226E+02 -0.22910211967E+02  0.14073904348E+03  0.15720358295E+03  0.00000000000E+00 0. -1.
        -11    1    3    3    0    0  0.10872385165E+03  0.60589473929E+02  0.12927277854E+03  0.17945309008E+03  0.00000000000E+00 0.  1.
         11    1    3    3    0    0  0.34512490593E+02 -0.21501391268E+02  0.28662358275E+01  0.40763183649E+02  0.00000000000E+00 0. -1.
         21    1    1    2  502  501  0.38868433892E+02 -0.27076171765E+02  0.33635277104E+03  0.33967199004E+03  0.00000000000E+00 0. -1.
<scales pt_clust_5="13000.00000" pt_clust_6="13000.00000" pt_clust_7="13000.00000" pt_clust_8="13000.00000" pt_clust_9="47.36955"></scales>
<clustering>
<clus scale="   47.370">  1  9  2 -1</clus>
<clus scale="   91.148">  5  6 -1 -1</clus>
<clus scale="   94.815">  7  8 -1 -1</clus>
<clus scale="  185.616">  1  5  2 -1</clus>
<clus scale="   47.370">  1  5  2 -1</clus>
</clustering>
</event>
<event>
 9    1  0.2075077E-005  0.1395416E+03  0.7546771E-02  0.1214718E+00
         -1   -1    0    0    0  501 -0.00000000000E+00  0.00000000000E+00  0.69588867512E+03  0.69588867512E+03  0.00000000000E+00 0.  1.
          1   -1    0    0  502    0  0.00000000000E+00 -0.00000000000E+00 -0.65043405893E+02  0.65043405893E+02  0.00000000000E+00 0. -1.
         23    2    1    2    0    0  0.97302219348E+02  0.24778986986E+02  0.48231277833E+03  0.50108010211E+03  0.91509193540E+02 0.  0.
         23    2    1    2    0    0 -0.12206385946E+03 -0.68917931365E+01  0.16640067858E+03  0.22446324262E+03  0.88019764021E+02 0.  0.
        -11    1    4    4    0    0 -0.62159373213E+02  0.40081495555E+02  0.91680641275E+02  0.11779496572E+03  0.00000000000E+00 0. -1.
         11    1    4    4    0    0 -0.59904486243E+02 -0.46973288691E+02  0.74720037307E+02  0.10666827690E+03  0.00000000000E+00 0.  1.
        -11    1    3    3    0    0  0.68690132556E+02 -0.20076494781E+02  0.36929858553E+03  0.37616863935E+03  0.00000000000E+00 0.  1.
         11    1    3    3    0    0  0.28612086792E+02  0.44855481766E+02  0.11301419280E+03  0.12491146276E+03  0.00000000000E+00 0. -1.
         21    1    1    2  502  501  0.24761640108E+02 -0.17887193849E+02 -0.17868187684E+02  0.35388736283E+02  0.00000000000E+00 0. -1.
<scales pt_clust_5="13000.00000" pt_clust_6="13000.00000" pt_clust_7="13000.00000" pt_clust_8="13000.00000" pt_clust_9="30.54653"></scales>
<clustering>
<clus scale="   30.547">  2  9  1 -1</clus>
<clus scale="   88.020">  5  6 -1 -1</clus>
<clus scale="   91.509">  7  8 -1 -1</clus>
<clus scale="  137.279">  2  5  1 -1</clus>
<clus scale="   30.547">  2  5  1 -1</clus>
</clustering>
</event>
<event>
 9    1  0.2075077E-005  0.1460230E+03  0.7546771E-02  0.1205511E+00
         -2   -1    0    0    0  501 -0.00000000000E+00  0.00000000000E+00  0.54420373650E+02  0.54420373650E+02  0.00000000000E+00 0.  1.
          2   -1    0    0  502    0  0.00000000000E+00 -0.00000000000E+00 -0.58387998068E+03  0.58387998068E+03  0.00000000000E+00 0. -1.
         23    2    1    2    0    0 -0.11932018330E+03  0.97822517276E+01 -0.10520414256E+03  0.18361809287E+03  0.91184942969E+02 0.  0.
         23    2    1    2    0    0  0.99957902812E+02  0.97733798668E+01 -0.36595702159E+03  0.39021499011E+03  0.90863059437E+02 0.  0.
        -13    1    3    3    0    0 -0.43544689595E+02 -0.36228702270E+02 -0.18432190481E+02  0.59568485846E+02  0.00000000000E+00 0.  1.
         13    1    3    3    0    0 -0.75775493710E+02  0.46010953997E+02 -0.86771952084E+02  0.12404960703E+03  0.00000000000E+00 0. -1.
        -13    1    4    4    0    0  0.36791622232E+02  0.37713691841E+01 -0.28092004546E+02  0.46443593868E+02  0.00000000000E+00 0.  1.
         13    1    4    4    0    0  0.63166280579E+02  0.60020106827E+01 -0.33786501704E+03  0.34377139624E+03  0.00000000000E+00 0. -1.
         21    1    1    2  502  501  0.19362280493E+02 -0.19555631594E+02 -0.58298442880E+02  0.64467271349E+02  0.00000000000E+00 0.  1.
<scales pt_clust_5="13000.00000" pt_clust_6="13000.00000" pt_clust_7="13000.00000" pt_clust_8="13000.00000" pt_clust_9="27.51946"></scales>
<clustering>
<clus scale="   27.519">  2  9  1 -1</clus>
<clus scale="   90.863">  7  8 -1 -1</clus>
<clus scale="   91.185">  5  6 -1 -1</clus>
<clus scale="  145.822">  2  7  1 -1</clus>
<clus scale="   27.519">  2  5  1 -1</clus>
</clustering>
</event>
<event>
 9    1  0.2075077E-005  0.1001152E+03  0.7546771E-02  0.1280286E+00
         -1   -1    0    0    0  501 -0.00000000000E+00  0.00000000000E+00  0.31695559431E+02  0.31695559431E+02  0.00000000000E+00 0.  1.
          1   -1    0    0  502    0  0.00000000000E+00 -0.00000000000E+00 -0.54110887913E+03  0.54110887913E+03  0.00000000000E+00 0. -1.
         23    2    1    2    0    0  0.37033762831E+02  0.28229660057E+02 -0.10804468363E+03  0.14956580362E+03  0.92346427414E+02 0.  0.
         23    2    1    2    0    0 -0.29804574877E+02  0.80315526963E+01 -0.27537037938E+03  0.29192718305E+03  0.91868470326E+02 0.  0.
        -11    1    3    3    0    0  0.40776773872E+02  0.52824328962E+02 -0.41649363868E+02  0.78662726423E+02  0.00000000000E+00 0.  1.
         11    1    3    3    0    0 -0.37430110407E+01 -0.24594668905E+02 -0.66395319758E+02  0.70903077197E+02  0.00000000000E+00 0. -1.
        -13    1    4    4    0    0  0.32162561972E+02 -0.16199430655E-01 -0.65810378813E+02  0.73249140709E+02  0.00000000000E+00 0.  1.
         13    1    4    4    0    0 -0.61967136849E+02  0.80477521269E+01 -0.20956000057E+03  0.21867804234E+03  0.00000000000E+00 0. -1.
         21    1    1    2  502  501 -0.72291879544E+01 -0.36261212753E+02 -0.12599825669E+03  0.13131145189E+03  0.00000000000E+00 0. -1.
<scales pt_clust_5="13000.00000" pt_clust_6="13000.00000" pt_clust_7="13000.00000" pt_clust_8="13000.00000" pt_clust_9="36.97481"></scales>
<clustering>
<clus scale="   36.975">  2  9  1 -1</clus>
<clus scale="   91.868">  7  8 -1 -1</clus>
<clus scale="   92.346">  5  6 -1 -1</clus>
<clus scale="   99.674">  2  7  1 -1</clus>
<clus scale="   36.975">  2  5  1 -1</clus>
</clustering>
</event>
<event>
 9    1  0.2075077E-005  0.9952201E+02  0.7546771E-02  0.1285495E+00
          1   -1    0    0  502    0  0.00000000000E+00  0.00000000000E+00  0.14703259077E+03  0.14703259077E+03  0.00000000000E+00 0. -1.
         -1   -1    0    0    0  501 -0.00000000000E+00 -0.00000000000E+00 -0.12396118200E+03  0.12396118200E+03  0.00000000000E+00 0.  1.
         23    2    1    2    0    0 -0.26944861203E+01  0.45441122360E+01 -0.63367689807E+02  0.11133365851E+03  0.91388238824E+02 0.  0.
         23    2    1    2    0    0  0.32378589813E+02 -0.71824475599E+01  0.68066177114E+02  0.12465052887E+03  0.99019135777E+02 0.  0.
        -11    1    4    4    0    0 -0.13185428980E+02  0.27414222645E+02 -0.60564487235E+01  0.31017345337E+02  0.00000000000E+00 0.  1.
         11    1    4    4    0    0  0.45564018793E+02 -0.34596670205E+02  0.74122625837E+02  0.93633183535E+02  0.00000000000E+00 0. -1.
        -13    1    3    3    0    0  0.14565191276E+02  0.41052520892E+02 -0.54884280678E+02  0.70069526429E+02  0.00000000000E+00 0.  1.
         13    1    3    3    0    0 -0.17259677396E+02 -0.36508408656E+02 -0.84834091292E+01  0.41264132086E+02  0.00000000000E+00 0. -1.
         21    1    1    2  502  501 -0.29684103693E+02  0.26383353239E+01  0.18372921467E+02  0.35009585381E+02  0.00000000000E+00 0.  1.
<scales pt_clust_5="13000.00000" pt_clust_6="13000.00000" pt_clust_7="13000.00000" pt_clust_8="13000.00000" pt_clust_9="29.80112"></scales>
<clustering>
<clus scale="   29.801">  1  9  2 -1</clus>
<clus scale="   91.388">  7  8 -1 -1</clus>
<clus scale="   91.933">  2  7  1 -1</clus>
<clus scale="   99.019">  5  6 -1 -1</clus>
<clus scale="   29.801">  1  5  2 -1</clus>
</clustering>
</event>
<event>
 9    1  0.2075077E-005  0.2198891E+03  0.7546771E-02  0.1134322E+00
          1   -1    0    0  502    0  0.00000000000E+00  0.00000000000E+00  0.83877921633E+03  0.83877921633E+03  0.00000000000E+00 0. -1.
         -1   -1    0    0    0  501 -0.00000000000E+00 -0.00000000000E+00 -0.73644733805E+02  0.73644733805E+02  0.00000000000E+00 0.  1.
         23    2    1    2    0    0 -0.16552283392E+03 -0.73634296354E+02  0.26972301242E+03  0.33661168791E+03  0.87960825688E+02 0.  0.
         23    2    1    2    0    0  0.20992998093E+03  0.78087324065E+02  0.36643684621E+03  0.43933414028E+03  0.92575901200E+02 0.  0.
        -11    1    3    3    0    0 -0.11958664701E+03 -0.86706722780E+02  0.23498172264E+03  0.27755257501E+03  0.00000000000E+00 0.  1.
         11    1    3    3    0    0 -0.45936186909E+02  0.13072426427E+02  0.34741289781E+02  0.59059112896E+02  0.00000000000E+00 0. -1.
        -13    1    4    4    0    0  0.77557474502E+02  0.42607626627E+02  0.70272762664E+02  0.11299926049E+03  0.00000000000E+00 0.  1.
         13    1    4    4    0    0  0.13237250643E+03  0.35479697438E+02  0.29616408355E+03  0.32633487980E+03  0.00000000000E+00 0. -1.
         21    1    1    2  502  501 -0.44407147011E+02 -0.44530277117E+01  0.12897462389E+03  0.13647812194E+03  0.00000000000E+00 0. -1.
<scales pt_clust_5="13000.00000" pt_clust_6="13000.00000" pt_clust_7="13000.00000" pt_clust_8="13000.00000" pt_clust_9="44.62986"></scales>
<clustering>
<clus scale="   44.630">  1  9  2 -1</clus>
<clus scale="   87.961">  5  6 -1 -1</clus>
<clus scale="   92.576">  7  8 -1 -1</clus>
<clus scale="  217.986">  2  5  1 -1</clus>
<clus scale="   44.630">  1  5  2 -1</clus>
</clustering>
</event>
<event>
 9    1  0.2821229E-005  0.9290013E+02  0.7546771E-02  0.1296225E+00
          2   -1    0    0  502    0  0.00000000000E+00  0.00000000000E+00  0.24232840391E+03  0.24232840391E+03  0.00000000000E+00 0. -1.
         -2   -1    0    0    0  501 -0.00000000000E+00 -0.00000000000E+00 -0.14173929989E+03  0.14173929989E+03  0.00000000000E+00 0.  1.
         23    2    1    2    0    0  0.10844971375E+02  0.20451005656E+02 -0.10879208901E+03  0.14305955225E+03  0.89969215972E+02 0.  0.
         23    2    1    2    0    0  0.10685711369E+02 -0.30653063495E+02  0.16041299434E+03  0.18655140940E+03  0.89528235022E+02 0.  0.
        -11    1    3    3    0    0  0.30362146477E+02  0.99271603792E+00 -0.11131377294E+03  0.11538458073E+03  0.00000000000E+00 0.  1.
         11    1    3    3    0    0 -0.19517175102E+02  0.19458289618E+02  0.25216839318E+01  0.27674971521E+02  0.00000000000E+00 0. -1.
        -13    1    4    4    0    0  0.44606286826E+02 -0.53092666496E+01  0.44860610235E+02  0.63485301349E+02  0.00000000000E+00 0.  1.
         13    1    4    4    0    0 -0.33920575457E+02 -0.25343796846E+02  0.11555238411E+03  0.12306610805E+03  0.00000000000E+00 0. -1.
         21    1    1    2  502  501 -0.21530682744E+02  0.10202057839E+02  0.48968198685E+02  0.54456742154E+02  0.00000000000E+00 0. -1.
<scales pt_clust_5="13000.00000" pt_clust_6="13000.00000" pt_clust_7="13000.00000" pt_clust_8="13000.00000" pt_clust_9="23.82545"></scales>
<clustering>
<clus scale="   23.825">  1  9  2 -1</clus>
<clus scale="   89.528">  7  8 -1 -1</clus>
<clus scale="   89.969">  5  6 -1 -1</clus>
<clus scale="   92.473">  1  7  2 -1</clus>
<clus scale="   23.825">  1  5  2 -1</clus>
</clustering>
</event>
<event>
 9    1  0.2075077E-005  0.1016172E+03  0.7546771E-02  0.1277436E+00
         -1   -1    0    0    0  501 -0.00000000000E+00  0.00000000000E+00  0.83662355967E+02  0.83662355967E+02  0.00000000000E+00 0.  1.
          1   -1    0    0  502    0  0.00000000000E+00 -0.00000000000E+00 -0.21596452331E+03  0.21596452331E+03  0.00000000000E+00 0. -1.
         23    2    1    2    0    0  0.59680272666E+02 -0.94682223940E+01 -0.25910067425E+02  0.11193576710E+03  0.90591954292E+02 0.  0.
         23    2    1    2    0    0 -0.29962974067E+02 -0.27434297916E+02 -0.39972509599E+02  0.10610388389E+03  0.89497553794E+02 0.  0.
        -11    1    3    3    0    0  0.37852637705E+02 -0.39698885416E+02  0.14715704318E+02  0.56792390671E+02  0.00000000000E+00 0. -1.
         11    1    3    3    0    0  0.21827634960E+02  0.30230663022E+02 -0.40625771743E+02  0.55143376433E+02  0.00000000000E+00 0.  1.
        -13    1    4    4    0    0 -0.36661414882E+02 -0.56477159627E+02 -0.20055351103E+02  0.70256288036E+02  0.00000000000E+00 0. -1.
         13    1    4    4    0    0  0.66984408157E+01  0.29042861711E+02 -0.19917158496E+02  0.35847595851E+02  0.00000000000E+00 0.  1.
         21    1    1    2  502  501 -0.29717298599E+02  0.36902520310E+02 -0.66419590317E+02  0.81587228285E+02  0.00000000000E+00 0.  1.
<scales pt_clust_5="13000.00000" pt_clust_6="13000.00000" pt_clust_7="13000.00000" pt_clust_8="13000.00000" pt_clust_9="47.38052"></scales>
<clustering>
<clus scale="   47.381">  2  9  1 -1</clus>
<clus scale="   89.498">  7  8 -1 -1</clus>
<clus scale="   90.592">  5  6 -1 -1</clus>
<clus scale="  100.643">  2  7  1 -1</clus>
<clus scale="   47.381">  2  5  1 -1</clus>
</clustering>
</event>
<event>
 9    1  0.2075077E-005  0.1099785E+03  0.7546771E-02  0.1269330E+00
         -3   -1    0    0    0  501 -0.00000000000E+00  0.00000000000E+00  0.12617755408E+03  0.12617755408E+03  0.00000000000E+00 0.  1.
          3   -1    0    0  502    0  0.00000000000E+00 -0.00000000000E+00 -0.12962454550E+03  0.12962454550E+03  0.00000000000E+00 0. -1.
         23    2    1    2    0    0 -0.34284114108E+01  0.18491615899E+02  0.54985454355E+02  0.10762255222E+03  0.90584323654E+02 0.  0.
         23    2    1    2    0    0 -0.18499436068E+02 -0.24558613828E+02 -0.41553227187E+02  0.11985028723E+03  0.10812985717E+03 0.  0.
        -13    1    4    4    0    0 -0.48835604901E+02 -0.21445021881E+02 -0.63016874322E+02  0.82558656232E+02  0.00000000000E+00 0.  1.
         13    1    4    4    0    0  0.30336168833E+02 -0.31135919468E+01  0.21463647135E+02  0.37291631000E+02  0.00000000000E+00 0. -1.
        -13    1    3    3    0    0 -0.67823115285E+01 -0.32968317735E+02  0.43128122782E+02  0.54707812044E+02  0.00000000000E+00 0.  1.
         13    1    3    3    0    0  0.33539001177E+01  0.51459933634E+02  0.11857331573E+02  0.52914740174E+02  0.00000000000E+00 0. -1.
         21    1    1    2  502  501  0.21927847479E+02  0.60669979286E+01 -0.16879218588E+02  0.28329260122E+02  0.00000000000E+00 0. -1.
<scales pt_clust_5="13000.00000" pt_clust_6="13000.00000" pt_clust_7="13000.00000" pt_clust_8="13000.00000" pt_clust_9="22.75168"></scales>
<clustering>
<clus scale="   22.752">  2  9  1 -1</clus>
<clus scale="   90.584">  7  8 -1 -1</clus>
<clus scale="   92.783">  1  7  2 -1</clus>
<clus scale="  108.130">  5  6 -1 -1</clus>
<clus scale="   22.752">  2  5  1 -1</clus>
</clustering>
</event>
<event>
 9    1  0.2075077E-005  0.9593214E+02  0.7546771E-02  0.1290828E+00
         -1   -1    0    0    0  501 -0.00000000000E+00  0.00000000000E+00  0.27088711045E+03  0.27088711045E+03  0.00000000000E+00 0.  1.
          1   -1    0    0  502    0  0.00000000000E+00 -0.00000000000E+00 -0.75186304399E+02  0.75186304399E+02  0.00000000000E+00 0. -1.
         23    2    1    2    0    0  0.32567165740E+02 -0.12837580639E+02  0.17039191238E+03  0.19619773528E+03  0.90745378753E+02 0.  0.
         23    2    1    2    0    0 -0.94620326365E+01  0.31215119327E+02 -0.20291054562E+02  0.95553157689E+02  0.87491515663E+02 0.  0.
        -11    1    3    3    0    0 -0.73472913877E+00  0.33590867639E+02  0.10024383275E+03  0.10572470014E+03  0.00000000000E+00 0.  1.
         11    1    3    3    0    0  0.33301894879E+02 -0.46428448278E+02  0.70148079628E+02  0.90473035141E+02  0.00000000000E+00 0. -1.
        -13    1    4    4    0    0  0.64645023233E+00  0.60367099461E+02 -0.36113103528E+01  0.60478476814E+02  0.00000000000E+00 0.  1.
         13    1    4    4    0    0 -0.10108482869E+02 -0.29151980134E+02 -0.16679744209E+02  0.35074680876E+02  0.00000000000E+00 0. -1.
         21    1    1    2  502  501 -0.23105133104E+02 -0.18377538688E+02  0.45599948229E+02  0.54322521871E+02  0.00000000000E+00 0.  1.
<scales pt_clust_5="13000.00000" pt_clust_6="13000.00000" pt_clust_7="13000.00000" pt_clust_8="13000.00000" pt_clust_9="29.52255"></scales>
<clustering>
<clus scale="   29.523">  1  9  2 -1</clus>
<clus scale="   87.492">  7  8 -1 -1</clus>
<clus scale="   90.745">  5  6 -1 -1</clus>
<clus scale="   92.860">  2  7  1 -1</clus>
<clus scale="   92.860">  2  5  1 -1</clus>
</clustering>
</event>
<event>
 9    1  0.2075077E-005  0.1105908E+03  0.7546771E-02  0.1260658E+00
          1   -1    0    0  502    0  0.00000000000E+00  0.00000000000E+00  0.41157157927E+03  0.41157157927E+03  0.00000000000E+00 0. -1.
         -1   -1    0    0    0  501 -0.00000000000E+00 -0.00000000000E+00 -0.16087171628E+03  0.16087171628E+03  0.00000000000E+00 0.  1.
         23    2    1    2    0    0  0.57608969084E+02 -0.96817750917E+01 -0.10100494419E+03  0.14796664832E+03  0.90992308346E+02 0.  0.
         23    2    1    2    0    0 -0.36114539707E+02  0.96100390226E+02  0.26932610182E+03  0.30316531786E+03  0.93984657527E+02 0.  0.
        -11    1    3    3    0    0 -0.18567179203E+02 -0.23999543727E+02 -0.33289914683E+02  0.45043719454E+02  0.00000000000E+00 0. -1.
         11    1    3    3    0    0  0.76176148287E+02  0.14317768635E+02 -0.67715029505E+02  0.10292292887E+03  0.00000000000E+00 0.  1.
        -13    1    4    4    0    0 -0.22001087359E+02 -0.15231819038E+02  0.45633290033E+02  0.52900409407E+02  0.00000000000E+00 0.  1.
         13    1    4    4    0    0 -0.14113452348E+02  0.11133220926E+03  0.22369281179E+03  0.25026490845E+03  0.00000000000E+00 0. -1.
         21    1    1    2  502  501 -0.21494429377E+02 -0.86418615134E+02  0.82378705350E+02  0.12131132936E+03  0.00000000000E+00 0. -1.
<scales pt_clust_5="13000.00000" pt_clust_6="13000.00000" pt_clust_7="13000.00000" pt_clust_8="13000.00000" pt_clust_9="89.05160"></scales>
<clustering>
<clus scale="   89.052">  1  9  2 -1</clus>
<clus scale="   90.992">  5  6 -1 -1</clus>
<clus scale="   93.985">  7  8 -1 -1</clus>
<clus scale="  108.059">  2  5  1 -1</clus>
<clus scale="   89.052">  1  5  2 -1</clus>
</clustering>
</event>
<event>
 9    1  0.2075077E-005  0.1374875E+03  0.7546771E-02  0.1216794E+00
         -1   -1    0    0    0  501 -0.00000000000E+00  0.00000000000E+00  0.20706496739E+03  0.20706496739E+03  0.00000000000E+00 0.  1.
          1   -1    0    0  502    0  0.00000000000E+00 -0.00000000000E+00 -0.42358311965E+03  0.42358311965E+03  0.00000000000E+00 0. -1.
         23    2    1    2    0    0 -0.86535149261E+02  0.11466612254E+03 -0.63056387134E+02  0.18150624426E+03  0.91278458734E+02 0.  0.
         23    2    1    2    0    0  0.50451077237E+02 -0.77881549783E+02 -0.28200730196E+03  0.31065314258E+03  0.91468079920E+02 0.  0.
        -11    1    4    4    0    0  0.48484741723E+02 -0.56973692214E+02 -0.27969358984E+03  0.28952595045E+03  0.00000000000E+00 0. -1.
         11    1    4    4    0    0  0.19663355138E+01 -0.20907857569E+02 -0.23137121165E+01  0.21127192129E+02  0.00000000000E+00 0.  1.
        -11    1    3    3    0    0 -0.58883454546E+02  0.99398791257E+02 -0.52705565332E+01  0.11565102545E+03  0.00000000000E+00 0.  1.
         11    1    3    3    0    0 -0.27651694715E+02  0.15267331288E+02 -0.57785830601E+02  0.65855218803E+02  0.00000000000E+00 0. -1.
         21    1    1    2  502  501  0.36084072024E+02 -0.36784572762E+02  0.12854553683E+03  0.13848870021E+03  0.00000000000E+00 0. -1.
<scales pt_clust_5="13000.00000" pt_clust_6="13000.00000" pt_clust_7="13000.00000" pt_clust_8="13000.00000" pt_clust_9="51.52829"></scales>
<clustering>
<clus scale="   51.528">  1  9  2 -1</clus>
<clus scale="   91.278">  7  8 -1 -1</clus>
<clus scale="   91.468">  5  6 -1 -1</clus>
<clus scale="  137.361">  1  7  2 -1</clus>
<clus scale="  137.488">  2  5  1 -1</clus>
</clustering>
</event>
<event>
 9    1  0.2075077E-005  0.9717840E+02  0.7546771E-02  0.1287418E+00
         -2   -1    0    0    0  501 -0.00000000000E+00  0.00000000000E+00  0.45204721303E+02  0.45204721303E+02  0.00000000000E+00 0.  1.
          2   -1    0    0  502    0  0.00000000000E+00 -0.00000000000E+00 -0.35092817276E+03  0.35092817276E+03  0.00000000000E+00 0. -1.
         23    2    1    2    0    0  0.43849983549E+02 -0.13488017029E+02 -0.72138650090E+02  0.12614507606E+03  0.92756928134E+02 0.  0.
         23    2    1    2    0    0 -0.10664623826E+01  0.37288683159E+01 -0.14408145372E+03  0.17030572379E+03  0.90716770489E+02 0.  0.
        -11    1    4    4    0    0 -0.12853604239E+02 -0.41759721070E+02 -0.65135472394E+02  0.78432896222E+02  0.00000000000E+00 0. -1.
         11    1    4    4    0    0  0.11787141856E+02  0.45488589386E+02 -0.78945981331E+02  0.91872827570E+02  0.00000000000E+00 0.  1.
        -11    1    3    3    0    0 -0.21058065953E+02  0.18880906494E+02 -0.81808747001E+01  0.29442443557E+02  0.00000000000E+00 0. -1.
         11    1    3    3    0    0  0.64908049502E+02 -0.32368923523E+02 -0.63957775390E+02  0.96702632503E+02  0.00000000000E+00 0.  1.
         21    1    1    2  502  501 -0.42783521166E+02  0.97591487126E+01 -0.89503347645E+02  0.99682094212E+02  0.00000000000E+00 0. -1.
<scales pt_clust_5="13000.00000" pt_clust_6="13000.00000" pt_clust_7="13000.00000" pt_clust_8="13000.00000" pt_clust_9="43.88246"></scales>
<clustering>
<clus scale="   43.882">  2  9  1 -1</clus>
<clus scale="   90.717">  5  6 -1 -1</clus>
<clus scale="   92.757">  7  8 -1 -1</clus>
<clus scale="   95.233">  2  5  1 -1</clus>
<clus scale="   43.882">  2  5  1 -1</clus>
</clustering>
</event>
<event>
 9    1  0.2075077E-005  0.1024804E+03  0.7546771E-02  0.1276193E+00
         -2   -1    0    0    0  501 -0.00000000000E+00  0.00000000000E+00  0.43779033061E+02  0.43779033061E+02  0.00000000000E+00 0.  1.
          2   -1    0    0  502    0  0.00000000000E+00 -0.00000000000E+00 -0.37998668718E+03  0.37998668718E+03  0.00000000000E+00 0. -1.
         23    2    1    2    0    0  0.13195898310E+02 -0.42388311812E+02 -0.57463852986E+02  0.11614950690E+03  0.90651601438E+02 0.  0.
         23    2    1    2    0    0  0.67674798735E+01  0.43598806533E+02 -0.18391416825E+03  0.21070047138E+03  0.92863408524E+02 0.  0.
        -11    1    4    4    0    0 -0.33528930320E+02  0.37502272900E+02 -0.50823861493E+02  0.71509961111E+02  0.00000000000E+00 0.  1.
         11    1    4    4    0    0  0.40296410194E+02  0.60965336329E+01 -0.13309030675E+03  0.13919051027E+03  0.00000000000E+00 0. -1.
        -13    1    3    3    0    0 -0.18875918238E+02 -0.46670310853E+02 -0.65691450903E+02  0.82763427468E+02  0.00000000000E+00 0.  1.
         13    1    3    3    0    0  0.32071816548E+02  0.42819990412E+01  0.82275979178E+01  0.33386079434E+02  0.00000000000E+00 0. -1.
         21    1    1    2  502  501 -0.19963378184E+02 -0.12104947205E+01 -0.94829632882E+02  0.96915741955E+02  0.00000000000E+00 0. -1.
<scales pt_clust_5="13000.00000" pt_clust_6="13000.00000" pt_clust_7="13000.00000" pt_clust_8="13000.00000" pt_clust_9="20.00004"></scales>
<clustering>
<clus scale="   20.000">  2  9  1 -1</clus>
<clus scale="   90.652">  7  8 -1 -1</clus>
<clus scale="   92.863">  5  6 -1 -1</clus>
<clus scale="  100.481">  1  7  2 -1</clus>
<clus scale="   20.000">  2  5  1 -1</clus>
</clustering>
</event>
<event>
 9    1  0.2075077E-005  0.1110654E+03  0.7546771E-02  0.1259461E+00
         -1   -1    0    0    0  501 -0.00000000000E+00  0.00000000000E+00  0.81096376616E+02  0.81096376616E+02  0.00000000000E+00 0.  1.
          1   -1    0    0  502    0  0.00000000000E+00 -0.00000000000E+00 -0.21110718840E+03  0.21110718840E+03  0.00000000000E+00 0. -1.
         23    2    1    2    0    0 -0.40661245475E+02  0.40693813691E+02 -0.39984996367E+02  0.11577758876E+03  0.92175521529E+02 0.  0.
         23    2    1    2    0    0  0.22918262091E+02 -0.66366211416E+02 -0.47304443943E+02  0.12352039011E+03  0.89943624574E+02 0.  0.
        -11    1    4    4    0    0  0.25053754943E+02 -0.44757386206E+02 -0.73416534303E+02  0.89559487302E+02  0.00000000000E+00 0. -1.
         11    1    4    4    0    0 -0.21354928527E+01 -0.21608825210E+02  0.26112090360E+02  0.33960902809E+02  0.00000000000E+00 0.  1.
        -11    1    3    3    0    0 -0.27035436156E+02 -0.27793864238E+02 -0.15962801006E+02  0.41931190222E+02  0.00000000000E+00 0.  1.
         11    1    3    3    0    0 -0.13625809319E+02  0.68487677929E+02 -0.24022195361E+02  0.73846398543E+02  0.00000000000E+00 0. -1.
         21    1    1    2  502  501  0.17742983385E+02  0.25672397725E+02 -0.42721371478E+02  0.52905586144E+02  0.00000000000E+00 0. -1.
<scales pt_clust_5="13000.00000" pt_clust_6="13000.00000" pt_clust_7="13000.00000" pt_clust_8="13000.00000" pt_clust_9="31.20714"></scales>
<clustering>
<clus scale="   31.207">  2  9  1 -1</clus>
<clus scale="   89.944">  5  6 -1 -1</clus>
<clus scale="   92.176">  7  8 -1 -1</clus>
<clus scale="  109.220">  2  5  1 -1</clus>
<clus scale="   31.207">  2  5  1 -1</clus>
</clustering>
</event>
<event>
 9    1  0.2075077E-005  0.1732608E+03  0.7546771E-02  0.1175330E+00
          1   -1    0    0  502    0  0.00000000000E+00  0.00000000000E+00  0.36813931626E+03  0.36813931626E+03  0.00000000000E+00 0. -1.
         -1   -1    0    0    0  501 -0.00000000000E+00 -0.00000000000E+00 -0.34544467408E+03  0.34544467408E+03  0.00000000000E+00 0.  1.
         23    2    1    2    0    0 -0.13899431863E+03  0.50250019277E+02 -0.29904218495E+03  0.34619673616E+03  0.92636206193E+02 0.  0.
         23    2    1    2    0    0  0.11721262626E+03 -0.53027457153E+02  0.28992205537E+03  0.32873061199E+03  0.86361485068E+02 0.  0.
        -11    1    4    4    0    0  0.79377963324E+02 -0.71043301433E+02  0.24574252811E+03  0.26783838758E+03  0.00000000000E+00 0.  1.
         11    1    4    4    0    0  0.37834662939E+02  0.18015844280E+02  0.44179527260E+02  0.60892224411E+02  0.00000000000E+00 0. -1.
        -13    1    3    3    0    0 -0.61663839199E+02  0.48714779316E+02 -0.22804862262E+03  0.24120889923E+03  0.00000000000E+00 0.  1.
         13    1    3    3    0    0 -0.77330479430E+02  0.15352399613E+01 -0.70993562331E+02  0.10498783693E+03  0.00000000000E+00 0. -1.
         21    1    1    2  502  501  0.21781692365E+02  0.27774378757E+01  0.31814771768E+02  0.38656642199E+02  0.00000000000E+00 0. -1.
<scales pt_clust_5="13000.00000" pt_clust_6="13000.00000" pt_clust_7="13000.00000" pt_clust_8="13000.00000" pt_clust_9="21.95806"></scales>
<clustering>
<clus scale="   21.958">  1  9  2 -1</clus>
<clus scale="   86.361">  5  6 -1 -1</clus>
<clus scale="   92.636">  7  8 -1 -1</clus>
<clus scale="  169.989">  1  5  2 -1</clus>
<clus scale="   21.958">  1  5  2 -1</clus>
</clustering>
</event>
<event>
 9    1  0.2075077E-005  0.9864310E+02  0.7546771E-02  0.1283458E+00
          1   -1    0    0  502    0  0.00000000000E+00  0.00000000000E+00  0.83807371418E+02  0.83807371418E+02  0.00000000000E+00 0. -1.
         -1   -1    0    0    0  501 -0.00000000000E+00 -0.00000000000E+00 -0.19521167487E+03  0.19521167487E+03  0.00000000000E+00 0.  1.
         23    2    1    2    0    0  0.33285669380E+02  0.27617676748E+02 -0.12213827177E+03  0.15829461814E+03  0.90932705030E+02 0.  0.
         23    2    1    2    0    0 -0.20023326068E+02 -0.75133938935E+01 -0.91595549462E+00  0.93970126367E+02  0.91499513662E+02 0.  0.
        -11    1    3    3    0    0 -0.18539325662E+02  0.40145726413E+02 -0.75307898802E+02  0.87330782472E+02  0.00000000000E+00 0. -1.
         11    1    3    3    0    0  0.51824995042E+02 -0.12528049664E+02 -0.46830372972E+02  0.70963835665E+02  0.00000000000E+00 0.  1.
        -11    1    4    4    0    0  0.26985227458E+02 -0.30857264828E+02  0.43425967724E+01  0.41221735048E+02  0.00000000000E+00 0.  1.
         11    1    4    4    0    0 -0.47008553526E+02  0.23343870935E+02 -0.52585522670E+01  0.52748391319E+02  0.00000000000E+00 0. -1.
         21    1    1    2  502  501 -0.13262343312E+02 -0.20104282855E+02  0.11649923814E+02  0.26754301787E+02  0.00000000000E+00 0. -1.
<scales pt_clust_5="13000.00000" pt_clust_6="13000.00000" pt_clust_7="13000.00000" pt_clust_8="13000.00000" pt_clust_9="24.08468"></scales>
<clustering>
<clus scale="   24.085">  1  9  2 -1</clus>
<clus scale="   90.933">  5  6 -1 -1</clus>
<clus scale="   91.500">  7  8 -1 -1</clus>
<clus scale="   98.118">  2  5  1 -1</clus>
<clus scale="   24.085">  1  5  2 -1</clus>
</clustering>
</event>
<event>
 9    1  0.2075077E-005  0.1093461E+03  0.7546771E-02  0.1267814E+00
         -2   -1    0    0    0  501 -0.00000000000E+00  0.00000000000E+00  0.11511281155E+03  0.11511281155E+03  0.00000000000E+00 0.  1.
          2   -1    0    0  502    0  0.00000000000E+00 -0.00000000000E+00 -0.19359606825E+03  0.19359606825E+03  0.00000000000E+00 0. -1.
         23    2    1    2    0    0 -0.10973518354E+02  0.33843449462E+02  0.48516100741E+02  0.12190464135E+03  0.10602420655E+03 0.  0.
         23    2    1    2    0    0  0.45048125073E+01  0.51897264639E+01 -0.10775012953E+03  0.14280462762E+03  0.93465740559E+02 0.  0.
        -11    1    4    4    0    0 -0.32888178974E+02  0.33365276979E+02 -0.56194092596E+02  0.73161807432E+02  0.00000000000E+00 0.  1.
         11    1    4    4    0    0  0.37392991481E+02 -0.28175550515E+02 -0.51556036935E+02  0.69642820184E+02  0.00000000000E+00 0. -1.
        -13    1    3    3    0    0 -0.43936437980E+02 -0.16667276179E+02  0.38531031319E+02  0.60768816444E+02  0.00000000000E+00 0.  1.
         13    1    3    3    0    0  0.32962919626E+02  0.50510725641E+02  0.99850694227E+01  0.61135824902E+02  0.00000000000E+00 0. -1.
         21    1    1    2  502  501  0.64687058467E+01 -0.39033175926E+02 -0.19249227916E+02  0.43999610834E+02  0.00000000000E+00 0. -1.
<scales pt_clust_5="13000.00000" pt_clust_6="13000.00000" pt_clust_7="13000.00000" pt_clust_8="13000.00000" pt_clust_9="39.56555"></scales>
<clustering>
<clus scale="   39.566">  2  9  1 -1</clus>
<clus scale="   93.466">  5  6 -1 -1</clus>
<clus scale="   97.218">  2  5  1 -1</clus>
<clus scale="  106.024">  7  8 -1 -1</clus>
<clus scale="   39.566">  2  5  1 -1</clus>
</clustering>
</event>
<event>
 9    1  0.2075077E-005  0.1176445E+03  0.7546771E-02  0.1247195E+00
          2   -1    0    0  502    0  0.00000000000E+00  0.00000000000E+00  0.16033951059E+03  0.16033951059E+03  0.00000000000E+00 0. -1.
         -2   -1    0    0    0  501 -0.00000000000E+00 -0.00000000000E+00 -0.15665953282E+03  0.15665953282E+03  0.00000000000E+00 0.  1.
         23    2    1    2    0    0  0.22049491777E+02  0.70728863707E+02 -0.57397701081E+02  0.13130347796E+03  0.91963878698E+02 0.  0.
         23    2    1    2    0    0  0.20335261552E+02 -0.77246835737E+02  0.14376849445E+02  0.12229273632E+03  0.91477992236E+02 0.  0.
        -13    1    4    4    0    0  0.53392369684E+02 -0.26469235681E+02 -0.16599772431E+01  0.59616449932E+02  0.00000000000E+00 0. -1.
         13    1    4    4    0    0 -0.33057108132E+02 -0.50777600056E+02  0.16036826688E+02  0.62676286391E+02  0.00000000000E+00 0.  1.
        -13    1    3    3    0    0  0.49276181209E+02  0.15061465163E+02 -0.44330174117E+02  0.67971715475E+02  0.00000000000E+00 0. -1.
         13    1    3    3    0    0 -0.27226689432E+02  0.55667398544E+02 -0.13067526965E+02  0.63331762481E+02  0.00000000000E+00 0.  1.
         21    1    1    2  502  501 -0.42384753330E+02  0.65179720306E+01  0.46700829403E+02  0.63402829125E+02  0.00000000000E+00 0.  1.
<scales pt_clust_5="13000.00000" pt_clust_6="13000.00000" pt_clust_7="13000.00000" pt_clust_8="13000.00000" pt_clust_9="42.88300"></scales>
<clustering>
<clus scale="   42.883">  1  9  2 -1</clus>
<clus scale="   91.478">  5  6 -1 -1</clus>
<clus scale="   91.964">  7  8 -1 -1</clus>
<clus scale="  117.265">  1  5  2 -1</clus>
<clus scale="   42.883">  1  5  2 -1</clus>
</clustering>
</event>
<event>
 9    1  0.2075077E-005  0.1062824E+03  0.7546771E-02  0.1271024E+00
         -1   -1    0    0    0  501 -0.00000000000E+00  0.00000000000E+00  0.12047748757E+03  0.12047748757E+03  0.00000000000E+00 0.  1.
          1   -1    0    0  502    0  0.00000000000E+00 -0.00000000000E+00 -0.25948401685E+03  0.25948401685E+03  0.00000000000E+00 0. -1.
         23    2    1    2    0    0  0.14404845772E+02  0.30757555482E+02  0.75195338326E+02  0.12422531900E+03  0.92865839648E+02 0.  0.
         23    2    1    2    0    0 -0.38151559212E+02 -0.34115795389E+02 -0.15193758455E+03  0.18901268792E+03  0.10010663131E+03 0.  0.
        -13    1    4    4    0    0 -0.22438180532E+01 -0.64727541314E+02 -0.79185709010E+02  0.10229890437E+03  0.00000000000E+00 0.  1.
         13    1    4    4    0    0 -0.35907741159E+02  0.30611745925E+02 -0.72751875539E+02  0.86713783553E+02  0.00000000000E+00 0. -1.
        -13    1    3    3    0    0  0.32240654613E+02 -0.23751009490E+02  0.20558063554E+02  0.45013378442E+02  0.00000000000E+00 0.  1.
         13    1    3    3    0    0 -0.17835808841E+02  0.54508564972E+02  0.54637274772E+02  0.79211940557E+02  0.00000000000E+00 0. -1.
         21    1    1    2  502  501  0.23746713440E+02  0.33582399071E+01 -0.62264283055E+02  0.66723497501E+02  0.00000000000E+00 0. -1.
<scales pt_clust_5="13000.00000" pt_clust_6="13000.00000" pt_clust_7="13000.00000" pt_clust_8="13000.00000" pt_clust_9="23.98300"></scales>
<clustering>
<clus scale="   23.983">  2  9  1 -1</clus>
<clus scale="   92.866">  7  8 -1 -1</clus>
<clus scale="   99.492">  1  7  2 -1</clus>
<clus scale="  100.107">  5  6 -1 -1</clus>
<clus scale="   23.983">  2  5  1 -1</clus>
</clustering>
</event>
<event>
 9    1  0.2075077E-005  0.1222272E+03  0.7546771E-02  0.1245169E+00
          1   -1    0    0  502    0  0.00000000000E+00  0.00000000000E+00  0.67518119323E+03  0.67518119323E+03  0.00000000000E+00 0. -1.
         -1   -1    0    0    0  501 -0.00000000000E+00 -0.00000000000E+00 -0.24253661784E+02  0.24253661784E+02  0.00000000000E+00 0.  1.
         23    2    1    2    0    0 -0.61816550413E+02 -0.13611448834E+02  0.26479100727E+03  0.28983043763E+03  0.99402452695E+02 0.  0.
         23    2    1    2    0    0  0.80623626969E+02  0.48005430228E+01  0.31444823290E+03  0.33496830484E+03  0.82479449767E+02 0.  0.
        -11    1    3    3    0    0 -0.82541519247E+02 -0.21829029343E+02  0.14740697277E+03  0.17034795139E+03  0.00000000000E+00 0.  1.
         11    1    3    3    0    0  0.20724968834E+02  0.82175805086E+01  0.11738403451E+03  0.11948248625E+03  0.00000000000E+00 0. -1.
        -11    1    4    4    0    0  0.72029373306E+02  0.32589468435E+02  0.27379422285E+03  0.28497996515E+03  0.00000000000E+00 0.  1.
         11    1    4    4    0    0  0.85942536628E+01 -0.27788925412E+02  0.40654010051E+02  0.49988339688E+02  0.00000000000E+00 0. -1.
         21    1    1    2  502  501 -0.18807076555E+02  0.88109058113E+01  0.71688291275E+02  0.74636112544E+02  0.00000000000E+00 0. -1.
<scales pt_clust_5="13000.00000" pt_clust_6="13000.00000" pt_clust_7="13000.00000" pt_clust_8="13000.00000" pt_clust_9="20.76868"></scales>
<clustering>
<clus scale="   20.769">  1  9  2 -1</clus>
<clus scale="   82.479">  7  8 -1 -1</clus>
<clus scale="   99.402">  5  6 -1 -1</clus>
<clus scale="  108.911">  1  7  2 -1</clus>
<clus scale="   20.769">  1  5  2 -1</clus>
</clustering>
</event>
<event>
 9    1  0.2075077E-005  0.1177089E+03  0.7546771E-02  0.1247017E+00
          1   -1    0    0  502    0  0.00000000000E+00  0.00000000000E+00  0.29114161139E+03  0.29114161139E+03  0.00000000000E+00 0. -1.
         -1   -1    0    0    0  501 -0.00000000000E+00 -0.00000000000E+00 -0.67260454073E+02  0.67260454073E+02  0.00000000000E+00 0.  1.
         23    2    1    2    0    0  0.56123013403E+01 -0.67412271445E+02  0.60284178816E+02  0.12863770751E+03  0.91310269470E+02 0.  0.
         23    2    1    2    0    0  0.24448083498E+02  0.83220693817E+02  0.11658671939E+03  0.17176869073E+03  0.91589449785E+02 0.  0.
        -11    1    4    4    0    0 -0.34715529183E+02  0.23883551595E+02  0.43777415558E+02  0.60762275436E+02  0.00000000000E+00 0. -1.
         11    1    4    4    0    0  0.59163612681E+02  0.59337142223E+02  0.72809303831E+02  0.11100641530E+03  0.00000000000E+00 0.  1.
        -13    1    3    3    0    0 -0.32574321136E+02 -0.97811392447E+00  0.35293818290E+02  0.48038492002E+02  0.00000000000E+00 0. -1.
         13    1    3    3    0    0  0.38186622476E+02 -0.66434157520E+02  0.24990360526E+02  0.80599215510E+02  0.00000000000E+00 0.  1.
         21    1    1    2  502  501 -0.30060384838E+02 -0.15808422373E+02  0.47010259113E+02  0.57995667221E+02  0.00000000000E+00 0. -1.
<scales pt_clust_5="13000.00000" pt_clust_6="13000.00000" pt_clust_7="13000.00000" pt_clust_8="13000.00000" pt_clust_9="33.96370"></scales>
<clustering>
<clus scale="   33.964">  1  9  2 -1</clus>
<clus scale="   91.310">  7  8 -1 -1</clus>
<clus scale="   91.589">  5  6 -1 -1</clus>
<clus scale="  117.492">  2  7  1 -1</clus>
<clus scale="   33.964">  1  5  2 -1</clus>
</clustering>
</event>
<event>
 9    1  0.2075077E-005  0.1107228E+03  0.7546771E-02  0.1259768E+00
          2   -1    0    0  502    0  0.00000000000E+00  0.00000000000E+00  0.10683862772E+03  0.10683862772E+03  0.00000000000E+00 0. -1.
         -2   -1    0    0    0  501 -0.00000000000E+00 -0.00000000000E+00 -0.27607766037E+03  0.27607766037E+03  0.00000000000E+00 0.  1.
         23    2    1    2    0    0  0.65738862756E+02  0.21561795670E+01 -0.18041614269E+03  0.21238656686E+03  0.90729389132E+02 0.  0.
         23    2    1    2    0    0 -0.46969425049E+02 -0.33708470744E+02 -0.32467635190E+02  0.11349725102E+03  0.92114552409E+02 0.  0.
        -11    1    3    3    0    0  0.85225690784E+02 -0.83296146220E+01 -0.16337507111E+03  0.18445653881E+03  0.00000000000E+00 0.  1.
         11    1    3    3    0    0 -0.19486828028E+02  0.10485794189E+02 -0.17041071586E+02  0.27930028055E+02  0.00000000000E+00 0. -1.
        -11    1    4    4    0    0 -0.41304443900E+02  0.10561154012E+02  0.17866873571E+02  0.46225752900E+02  0.00000000000E+00 0. -1.
         11    1    4    4    0    0 -0.56649811496E+01 -0.44269624756E+02 -0.50334508761E+02  0.67271498123E+02  0.00000000000E+00 0.  1.
         21    1    1    2  502  501 -0.18769437707E+02  0.31552291177E+02  0.43644745241E+02  0.57032470203E+02  0.00000000000E+00 0. -1.
<scales pt_clust_5="13000.00000" pt_clust_6="13000.00000" pt_clust_7="13000.00000" pt_clust_8="13000.00000" pt_clust_9="36.71293"></scales>
<clustering>
<clus scale="   36.713">  1  9  2 -1</clus>
<clus scale="   90.729">  5  6 -1 -1</clus>
<clus scale="   92.115">  7  8 -1 -1</clus>
<clus scale="  109.573">  2  5  1 -1</clus>
<clus scale="   36.713">  1  5  2 -1</clus>
</clustering>
</event>
<event>
 9    1  0.2075077E-005  0.1491749E+03  0.7546771E-02  0.1201533E+00
         -2   -1    0    0    0  501 -0.00000000000E+00  0.00000000000E+00  0.92064042689E+02  0.92064042689E+02  0.00000000000E+00 0.  1.
          2   -1    0    0  502    0  0.00000000000E+00 -0.00000000000E+00 -0.37233729578E+03  0.37233729578E+03  0.00000000000E+00 0. -1.
         23    2    1    2    0    0  0.27459097565E+02  0.11221346295E+03 -0.31806052920E+02  0.15008346443E+03  0.90374542796E+02 0.  0.
         23    2    1    2    0    0 -0.66709652902E+01 -0.12675507417E+03 -0.16402300829E+03  0.22614516601E+03  0.90148423468E+02 0.  0.
        -11    1    3    3    0    0  0.50935775019E+02  0.37663069938E+02  0.52879699048E+01  0.63568251822E+02  0.00000000000E+00 0. -1.
         11    1    3    3    0    0 -0.23476677455E+02  0.74550393015E+02 -0.37094022825E+02  0.86515212606E+02  0.00000000000E+00 0.  1.
        -13    1    4    4    0    0  0.32563776643E+00 -0.45742471817E+02 -0.31045049196E+01  0.45848857332E+02  0.00000000000E+00 0.  1.
         13    1    4    4    0    0 -0.69966030566E+01 -0.81012602350E+02 -0.16091850337E+03  0.18029630867E+03  0.00000000000E+00 0. -1.
         21    1    1    2  502  501 -0.20788132274E+02  0.14541611214E+02 -0.84444191878E+02  0.88172708034E+02  0.00000000000E+00 0. -1.
<scales pt_clust_5="13000.00000" pt_clust_6="13000.00000" pt_clust_7="13000.00000" pt_clust_8="13000.00000" pt_clust_9="25.36937"></scales>
<clustering>
<clus scale="   25.369">  2  9  1 -1</clus>
<clus scale="   90.148">  7  8 -1 -1</clus>
<clus scale="   90.375">  5  6 -1 -1</clus>
<clus scale="  149.038">  2  7  1 -1</clus>
<clus scale="   25.369">  2  5  1 -1</clus>
</clustering>
</event>
<event>
 9    1  0.2075077E-005  0.1447804E+03  0.7546771E-02  0.1207745E+00
          2   -1    0    0  502    0  0.00000000000E+00  0.00000000000E+00  0.41881620343E+03  0.41881620343E+03  0.00000000000E+00 0. -1.
         -2   -1    0    0    0  501 -0.00000000000E+00 -0.00000000000E+00 -0.69495557168E+02  0.69495557168E+02  0.00000000000E+00 0.  1.
         23    2    1    2    0    0 -0.10500252863E+03 -0.38441725982E+02  0.12152959313E+03  0.18686104617E+03  0.87431751975E+02 0.  0.
         23    2    1    2    0    0  0.90774996880E+02  0.73386912868E+02  0.13123626463E+03  0.19778579303E+03  0.90942419865E+02 0.  0.
        -11    1    4    4    0    0  0.37447273661E+02  0.83506661364E+02  0.65536200581E+02  0.11256400128E+03  0.00000000000E+00 0.  1.
         11    1    4    4    0    0  0.53327723219E+02 -0.10119748497E+02  0.65700064045E+02  0.85221791749E+02  0.00000000000E+00 0. -1.
        -13    1    3    3    0    0 -0.67348045997E+02 -0.60340639342E+02  0.50589501461E+02  0.10361491067E+03  0.00000000000E+00 0. -1.
         13    1    3    3    0    0 -0.37654482635E+02  0.21898913360E+02  0.70940091669E+02  0.83246135495E+02  0.00000000000E+00 0.  1.
         21    1    1    2  502  501  0.14227531753E+02 -0.34945186885E+02  0.96554788511E+02  0.10366492141E+03  0.00000000000E+00 0. -1.
<scales pt_clust_5="13000.00000" pt_clust_6="13000.00000" pt_clust_7="13000.00000" pt_clust_8="13000.00000" pt_clust_9="37.73048"></scales>
<clustering>
<clus scale="   37.730">  1  9  2 -1</clus>
<clus scale="   87.432">  7  8 -1 -1</clus>
<clus scale="   90.942">  5  6 -1 -1</clus>
<clus scale="  142.601">  2  7  1 -1</clus>
<clus scale="   37.730">  1  5  2 -1</clus>
</clustering>
</event>
<event>
 9    1  0.2075077E-005  0.1153057E+03  0.7546771E-02  0.1252212E+00
         -1   -1    0    0    0  501 -0.00000000000E+00  0.00000000000E+00  0.85028201848E+03  0.85028201848E+03  0.00000000000E+00 0.  1.
          1   -1    0    0  502    0  0.00000000000E+00 -0.00000000000E+00 -0.35911014592E+02  0.35911014592E+02  0.00000000000E+00 0. -1.
         23    2    1    2    0    0 -0.56992880323E+02  0.84131185267E+02  0.45148693297E+03  0.47145180539E+03  0.90000607891E+02 0.  0.
         23    2    1    2    0    0  0.44575973233E+02  0.11773426802E+02  0.18359449415E+03  0.21103401982E+03  0.93288736033E+02 0.  0.
        -11    1    3    3    0    0 -0.17921354459E+02 -0.15062895519E+02  0.39707064988E+02  0.46094650200E+02  0.00000000000E+00 0. -1.
         11    1    3    3    0    0 -0.39071525864E+02  0.99194080786E+02  0.41177986798E+03  0.42535715519E+03  0.00000000000E+00 0.  1.
        -11    1    4    4    0    0 -0.69324210976E+01 -0.28352185790E+02  0.21404430111E+02  0.36194675434E+02  0.00000000000E+00 0.  1.
         11    1    4    4    0    0  0.51508394331E+02  0.40125612592E+02  0.16219006404E+03  0.17483934438E+03  0.00000000000E+00 0. -1.
         21    1    1    2  502  501  0.12416907090E+02 -0.95904612069E+02  0.17928957677E+03  0.20370720787E+03  0.00000000000E+00 0. -1.
<scales pt_clust_5="13000.00000" pt_clust_6="13000.00000" pt_clust_7="13000.00000" pt_clust_8="13000.00000" pt_clust_9="96.70509"></scales>
<clustering>
<clus scale="   90.001">  5  6 -1 -1</clus>
<clus scale="   93.289">  7  8 -1 -1</clus>
<clus scale="   96.705">  2  9  1 -1</clus>
<clus scale="  112.662">  1  5  2 -1</clus>
<clus scale="   96.705">  2  5  1 -1</clus>
</clustering>
</event>
<event>
 9    1  0.2334056E-005  0.1620276E+03  0.7546771E-02  0.1186917E+00
         -1   -1    0    0    0  501 -0.00000000000E+00  0.00000000000E+00  0.81800421760E+03  0.81800421760E+03  0.00000000000E+00 0.  1.
          1   -1    0    0  502    0  0.00000000000E+00 -0.00000000000E+00 -0.16066568509E+03  0.16066568509E+03  0.00000000000E+00 0. -1.
         23    2    1    2    0    0  0.11060462058E+03 -0.81170677792E+02  0.74713192209E+03  0.76472274121E+03  0.88162922391E+02 0.  0.
         23    2    1    2    0    0 -0.70559092664E+02  0.46305133593E+02 -0.10037953658E+03  0.15980552329E+03  0.91318141437E+02 0.  0.
        -11    1    3    3    0    0  0.36218578010E+02  0.16298476464E+02  0.15299037397E+03  0.15806163436E+03  0.00000000000E+00 0. -1.
         11    1    3    3    0    0  0.74386042573E+02 -0.97469154256E+02  0.59414154812E+03  0.60666110685E+03  0.00000000000E+00 0.  1.
        -13    1    4    4    0    0  0.62811020420E+01  0.34394744780E+02 -0.66202930963E+02  0.74868409756E+02  0.00000000000E+00 0.  1.
         13    1    4    4    0    0 -0.76840194706E+02  0.11910388813E+02 -0.34176605619E+02  0.84937113536E+02  0.00000000000E+00 0. -1.
         21    1    1    2  502  501 -0.40045527919E+02  0.34865544199E+02  0.10586147000E+02  0.54141638199E+02  0.00000000000E+00 0.  1.
<scales pt_clust_5="13000.00000" pt_clust_6="13000.00000" pt_clust_7="13000.00000" pt_clust_8="13000.00000" pt_clust_9="53.09661"></scales>
<clustering>
<clus scale="   53.097">  2  9  1 -1</clus>
<clus scale="   88.163">  5  6 -1 -1</clus>
<clus scale="   91.318">  7  8 -1 -1</clus>
<clus scale="  160.271">  1  5  2 -1</clus>
<clus scale="   53.097">  2  5  1 -1</clus>
</clustering>
</event>
<event>
 9    1  0.2075077E-005  0.9137319E+02  0.7546771E-02  0.1299791E+00
          2   -1    0    0  502    0  0.00000000000E+00  0.00000000000E+00  0.34435212234E+03  0.34435212234E+03  0.00000000000E+00 0. -1.
         -2   -1    0    0    0  501 -0.00000000000E+00 -0.00000000000E+00 -0.53779246765E+02  0.53779246765E+02  0.00000000000E+00 0.  1.
         23    2    1    2    0    0  0.27605057008E+02  0.25085618299E+02  0.64120467355E+02  0.11672920108E+03  0.90127380039E+02 0.  0.
         23    2    1    2    0    0 -0.20325025099E+01  0.19704806067E+02  0.66750066070E+02  0.11357792739E+03  0.89732735502E+02 0.  0.
        -11    1    4    4    0    0  0.40680304179E+02  0.13109051728E+02  0.13136508073E+02  0.44713557560E+02  0.00000000000E+00 0.  1.
         11    1    4    4    0    0 -0.42712806689E+02  0.65957543392E+01  0.53613557998E+02  0.68864369827E+02  0.00000000000E+00 0. -1.
        -11    1    3    3    0    0  0.11549469134E+02 -0.33817352704E+02  0.16808680891E+02  0.39490952565E+02  0.00000000000E+00 0. -1.
         11    1    3    3    0    0  0.16055587874E+02  0.58902971003E+02  0.47311786464E+02  0.77238248513E+02  0.00000000000E+00 0.  1.
         21    1    1    2  502  501 -0.25572554498E+02 -0.44790424365E+02  0.15970234215E+03  0.16782424064E+03  0.00000000000E+00 0. -1.
<scales pt_clust_5="13000.00000" pt_clust_6="13000.00000" pt_clust_7="13000.00000" pt_clust_8="13000.00000" pt_clust_9="51.57652"></scales>
<clustering>
<clus scale="   51.577">  1  9  2 -1</clus>
<clus scale="   89.733">  5  6 -1 -1</clus>
<clus scale="   90.127">  7  8 -1 -1</clus>
<clus scale="   90.984">  1  5  2 -1</clus>
<clus scale="   51.577">  1  5  2 -1</clus>
</clustering>
</event>
<event>
 9    1  0.2075077E-005  0.9869049E+02  0.7546771E-02  0.1283356E+00
          1   -1    0    0  502    0  0.00000000000E+00  0.00000000000E+00  0.78008959653E+02  0.78008959653E+02  0.00000000000E+00 0. -1.
         -1   -1    0    0    0  501 -0.00000000000E+00 -0.00000000000E+00 -0.27763119009E+03  0.27763119009E+03  0.00000000000E+00 0.  1.
         23    2    1    2    0    0 -0.31110781460E+02 -0.24528660385E+02 -0.17894525627E+03  0.20452192849E+03  0.90764963442E+02 0.  0.
         23    2    1    2    0    0  0.44006434416E+02 -0.16355800358E+01 -0.47904953006E+02  0.11121548734E+03  0.90192897223E+02 0.  0.
        -13    1    4    4    0    0  0.48775231463E+02  0.19222315184E+02  0.64303960787E+01  0.52819225657E+02  0.00000000000E+00 0. -1.
         13    1    4    4    0    0 -0.47687970464E+01 -0.20857895220E+02 -0.54335349085E+02  0.58396261682E+02  0.00000000000E+00 0.  1.
        -13    1    3    3    0    0  0.32561752632E+01  0.27038211853E+02 -0.10280399182E+03  0.10635002732E+03  0.00000000000E+00 0. -1.
         13    1    3    3    0    0 -0.34366956723E+02 -0.51566872238E+02 -0.76141264452E+02  0.98171901169E+02  0.00000000000E+00 0.  1.
         21    1    1    2  502  501 -0.12895652956E+02  0.26164240421E+02  0.27227978840E+02  0.39902733913E+02  0.00000000000E+00 0. -1.
<scales pt_clust_5="13000.00000" pt_clust_6="13000.00000" pt_clust_7="13000.00000" pt_clust_8="13000.00000" pt_clust_9="29.16960"></scales>
<clustering>
<clus scale="   29.170">  1  9  2 -1</clus>
<clus scale="   90.193">  5  6 -1 -1</clus>
<clus scale="   90.765">  7  8 -1 -1</clus>
<clus scale="   98.165">  1  5  2 -1</clus>
<clus scale="   29.170">  1  5  2 -1</clus>
</clustering>
</event>
<event>
 9    1  0.2075077E-005  0.1063111E+03  0.7546771E-02  0.1269184E+00
          3   -1    0    0  502    0  0.00000000000E+00  0.00000000000E+00  0.16398071950E+03  0.16398071950E+03  0.00000000000E+00 0. -1.
         -3   -1    0    0    0  501 -0.00000000000E+00 -0.00000000000E+00 -0.10802196189E+03  0.10802196189E+03  0.00000000000E+00 0.  1.
         23    2    1    2    0    0 -0.40954144538E+01  0.56367676510E+02 -0.25418059762E+02  0.10986568856E+03  0.90721025049E+02 0.  0.
         23    2    1    2    0    0 -0.12537673961E+01 -0.36728746979E+02  0.28201268827E+02  0.10519895404E+03  0.94450704494E+02 0.  0.
        -11    1    4    4    0    0 -0.18817027446E+02  0.25310069389E+02 -0.61645025589E+01  0.32135357882E+02  0.00000000000E+00 0.  1.
         11    1    4    4    0    0  0.17563260050E+02 -0.62038816368E+02  0.34365771386E+02  0.73063596154E+02  0.00000000000E+00 0. -1.
        -13    1    3    3    0    0 -0.10396344363E+02  0.24442741560E+02 -0.58014888790E+02  0.63806417486E+02  0.00000000000E+00 0.  1.
         13    1    3    3    0    0  0.63009299091E+01  0.31924934950E+02  0.32596829027E+02  0.46059271074E+02  0.00000000000E+00 0. -1.
         21    1    1    2  502  501  0.53491818499E+01 -0.19638929531E+02  0.53175548536E+02  0.56938038794E+02  0.00000000000E+00 0. -1.
<scales pt_clust_5="13000.00000" pt_clust_6="13000.00000" pt_clust_7="13000.00000" pt_clust_8="13000.00000" pt_clust_9="20.35439"></scales>
<clustering>
<clus scale="   20.354">  1  9  2 -1</clus>
<clus scale="   90.721">  7  8 -1 -1</clus>
<clus scale="   94.451">  5  6 -1 -1</clus>
<clus scale="  103.012">  2  7  1 -1</clus>
<clus scale="   20.354">  1  5  2 -1</clus>
</clustering>
</event>
<event>
 9    1  0.2075077E-005  0.9517279E+02  0.7546771E-02  0.1291132E+00
         -1   -1    0    0    0  501 -0.00000000000E+00  0.00000000000E+00  0.19033925086E+03  0.19033925086E+03  0.00000000000E+00 0.  1.
          1   -1    0    0  502    0  0.00000000000E+00 -0.00000000000E+00 -0.11558488507E+03  0.11558488507E+03  0.00000000000E+00 0. -1.
         23    2    1    2    0    0 -0.21364791872E+02  0.91362561523E+01  0.13632561466E+03  0.16681943687E+03  0.93295904506E+02 0.  0.
         23    2    1    2    0    0 -0.25984380071E+01 -0.74686018974E+01 -0.26709338790E+02  0.96768305365E+02  0.92672456805E+02 0.  0.
        -11    1    4    4    0    0 -0.37470301856E+02 -0.25719936858E+02 -0.33975430086E+02  0.56743885333E+02  0.00000000000E+00 0. -1.
         11    1    4    4    0    0  0.34871863849E+02  0.18251334961E+02  0.72660912962E+01  0.40024420032E+02  0.00000000000E+00 0.  1.
        -13    1    3    3    0    0 -0.77797312286E+01  0.48550900933E+02  0.10036636552E+03  0.11176368609E+03  0.00000000000E+00 0.  1.
         13    1    3    3    0    0 -0.13585060643E+02 -0.39414644781E+02  0.35959249133E+02  0.55055750781E+02  0.00000000000E+00 0. -1.
         21    1    1    2  502  501  0.23963229879E+02 -0.16676542549E+01 -0.34861910081E+02  0.42336393699E+02  0.00000000000E+00 0.  1.
<scales pt_clust_5="13000.00000" pt_clust_6="13000.00000" pt_clust_7="13000.00000" pt_clust_8="13000.00000" pt_clust_9="24.02119"></scales>
<clustering>
<clus scale="   24.021">  2  9  1 -1</clus>
<clus scale="   92.672">  5  6 -1 -1</clus>
<clus scale="   93.296">  7  8 -1 -1</clus>
<clus scale="   94.562">  2  5  1 -1</clus>
<clus scale="   24.021">  2  5  1 -1</clus>
</clustering>
</event>
<event>
 9    1  0.2075077E-005  0.1682110E+03  0.7546771E-02  0.1179988E+00
          1   -1    0    0  502    0  0.00000000000E+00  0.00000000000E+00  0.22372799641E+03  0.22372799641E+03  0.00000000000E+00 0. -1.
         -1   -1    0    0    0  501 -0.00000000000E+00 -0.00000000000E+00 -0.15656033527E+03  0.15656033527E+03  0.00000000000E+00 0.  1.
         23    2    1    2    0    0  0.29806085982E+02  0.12217303061E+03 -0.21302797396E+02  0.15674058016E+03  0.91099660388E+02 0.  0.
         23    2    1    2    0    0 -0.37192062706E+02 -0.14600925456E+03  0.92839025790E+02  0.19821392819E+03  0.89262112203E+02 0.  0.
        -11    1    3    3    0    0 -0.28289831236E+02  0.67331086223E+02  0.34131740333E+01  0.73112512474E+02  0.00000000000E+00 0. -1.
         11    1    3    3    0    0  0.58095917218E+02  0.54841944383E+02 -0.24715971429E+02  0.83628067686E+02  0.00000000000E+00 0.  1.
        -13    1    4    4    0    0 -0.23260979551E+02 -0.14283782412E+02 -0.11475182148E+02  0.29610461242E+02  0.00000000000E+00 0.  1.
         13    1    4    4    0    0 -0.13931083155E+02 -0.13172547215E+03  0.10431420794E+03  0.16860346695E+03  0.00000000000E+00 0. -1.
         21    1    1    2  502  501  0.73859767240E+01  0.23836223952E+02 -0.43685672485E+01  0.25333823325E+02  0.00000000000E+00 0. -1.
<scales pt_clust_5="13000.00000" pt_clust_6="13000.00000" pt_clust_7="13000.00000" pt_clust_8="13000.00000" pt_clust_9="24.95432"></scales>
<clustering>
<clus scale="   24.954">  2  9  1 -1</clus>
<clus scale="   89.262">  7  8 -1 -1</clus>
<clus scale="   91.100">  5  6 -1 -1</clus>
<clus scale="  167.223">  1  7  2 -1</clus>
<clus scale="  167.223">  1  5  2 -1</clus>
</clustering>
</event>
<event>
 9    1  0.2075077E-005  0.9746815E+02  0.7546771E-02  0.1285762E+00
          1   -1    0    0  502    0  0.00000000000E+00  0.00000000000E+00  0.41046428871E+03  0.41046428871E+03  0.00000000000E+00 0. -1.
         -1   -1    0    0    0  501 -0.00000000000E+00 -0.00000000000E+00 -0.64830699935E+02  0.64830699935E+02  0.00000000000E+00 0.  1.
         23    2    1    2    0    0  0.18162259520E+02 -0.27132470198E+02  0.96599963968E+00  0.97299557347E+02  0.91652780071E+02 0.  0.
         23    2    1    2    0    0  0.22692251594E+02  0.50918683791E+02  0.22170570536E+03  0.24625895230E+03  0.91555454017E+02 0.  0.
        -13    1    4    4    0    0 -0.35476415938E+02  0.25614319334E+02  0.90145875920E+02  0.10020453277E+03  0.00000000000E+00 0. -1.
         13    1    4    4    0    0  0.58168667532E+02  0.25304364458E+02  0.13155982944E+03  0.14605441953E+03  0.00000000000E+00 0.  1.
        -13    1    3    3    0    0 -0.13690840934E+02 -0.28888107380E+02 -0.36216494563E+02  0.48307311578E+02  0.00000000000E+00 0.  1.
         13    1    3    3    0    0  0.31853100454E+02  0.17556371814E+01  0.37182494202E+02  0.48992245770E+02  0.00000000000E+00 0. -1.
         21    1    1    2  502  501 -0.40854511114E+02 -0.23786213593E+02  0.12296188378E+03  0.13173647900E+03  0.00000000000E+00 0.  1.
<scales pt_clust_5="13000.00000" pt_clust_6="13000.00000" pt_clust_7="13000.00000" pt_clust_8="13000.00000" pt_clust_9="47.27446"></scales>
<clustering>
<clus scale="   47.274">  1  9  2 -1</clus>
<clus scale="   91.555">  5  6 -1 -1</clus>
<clus scale="   91.653">  7  8 -1 -1</clus>
<clus scale="   97.377">  1  5  2 -1</clus>
<clus scale="   47.274">  1  5  2 -1</clus>
</clustering>
</event>
<event>
 9    1  0.2075077E-005  0.2350376E+03  0.7546771E-02  0.1123214E+00
          1   -1    0    0  502    0  0.00000000000E+00  0.00000000000E+00  0.11857330263E+03  0.11857330263E+03  0.00000000000E+00 0. -1.
         -1   -1    0    0    0  501 -0.00000000000E+00 -0.00000000000E+00 -0.68440849390E+03  0.68440849390E+03  0.00000000000E+00 0.  1.
         23    2    1    2    0    0 -0.38758664752E+02  0.24049543067E+03 -0.42459354888E+03  0.49806307047E+03  0.91906768774E+02 0.  0.
         23    2    1    2    0    0  0.14142326436E+02 -0.16913723992E+03 -0.83296692865E+02  0.20975795329E+03  0.90844089530E+02 0.  0.
        -13    1    4    4    0    0  0.90939361020E+01 -0.98950291254E+02 -0.96098673979E+02  0.13823463731E+03  0.00000000000E+00 0.  1.
         13    1    4    4    0    0  0.50483903337E+01 -0.70186948669E+02  0.12801981114E+02  0.71523315980E+02  0.00000000000E+00 0. -1.
        -13    1    3    3    0    0  0.29837584392E+02  0.79925222614E+02 -0.12604844827E+03  0.15220556483E+03  0.00000000000E+00 0. -1.
         13    1    3    3    0    0 -0.68596249143E+02  0.16057020806E+03 -0.29854510060E+03  0.34585750564E+03  0.00000000000E+00 0.  1.
         21    1    1    2  502  501  0.24616338316E+02 -0.71358190751E+02 -0.57944949531E+02  0.95160772777E+02  0.00000000000E+00 0. -1.
<scales pt_clust_5="13000.00000" pt_clust_6="13000.00000" pt_clust_7="13000.00000" pt_clust_8="13000.00000" pt_clust_9="75.48480"></scales>
<clustering>
<clus scale="   75.485">  1  9  2 -1</clus>
<clus scale="   90.844">  5  6 -1 -1</clus>
<clus scale="   91.907">  7  8 -1 -1</clus>
<clus scale="  234.624">  1  5  2 -1</clus>
<clus scale="   75.485">  1  5  2 -1</clus>
</clustering>
</event>
<event>
 9    1  0.2075077E-005  0.9998876E+02  0.7546771E-02  0.1282877E+00
         -1   -1    0    0    0  501 -0.00000000000E+00  0.00000000000E+00  0.77154561796E+02  0.77154561796E+02  0.00000000000E+00 0.  1.
          1   -1    0    0  502    0  0.00000000000E+00 -0.00000000000E+00 -0.27790519687E+03  0.27790519687E+03  0.00000000000E+00 0. -1.
         23    2    1    2    0    0 -0.21956586186E+02  0.36537091930E+02 -0.16781017744E+01  0.10306573721E+03  0.93822595347E+02 0.  0.
         23    2    1    2    0    0  0.23800937824E+02 -0.92076971060E+01 -0.59727871274E+02  0.10998264061E+03  0.88755260697E+02 0.  0.
        -11    1    4    4    0    0 -0.33486574910E+02 -0.75595249414E+01 -0.15893797504E+02  0.37830013423E+02  0.00000000000E+00 0. -1.
         11    1    4    4    0    0  0.57287512733E+02 -0.16481721646E+01 -0.43834073771E+02  0.72152627187E+02  0.00000000000E+00 0.  1.
        -13    1    3    3    0    0  0.22343608105E+02  0.48436081730E+02 -0.14798137846E+02  0.55355900500E+02  0.00000000000E+00 0.  1.
         13    1    3    3    0    0 -0.44300194291E+02 -0.11898989799E+02  0.13120036071E+02  0.47709836711E+02  0.00000000000E+00 0. -1.
         21    1    1    2  502  501 -0.18443516373E+01 -0.27329394824E+02 -0.13934466202E+03  0.14201138084E+03  0.00000000000E+00 0. -1.
<scales pt_clust_5="13000.00000" pt_clust_6="13000.00000" pt_clust_7="13000.00000" pt_clust_8="13000.00000" pt_clust_9="27.39156"></scales>
<clustering>
<clus scale="   27.392">  2  9  1 -1</clus>
<clus scale="   88.755">  5  6 -1 -1</clus>
<clus scale="   93.823">  7  8 -1 -1</clus>
<clus scale="   95.250">  2  5  1 -1</clus>
<clus scale="   27.392">  2  5  1 -1</clus>
</clustering>
</event>
