<event>
 9    1  0.6345107E-005  0.1676143E+03  0.7546771E-02  0.1181493E+00
         -2   -1    0    0    0  501 -0.00000000000E+00  0.00000000000E+00  0.66114479072E+03  0.66114479072E+03  0.00000000000E+00 0.  1.
         21   -1    0    0  501  502  0.00000000000E+00 -0.00000000000E+00 -0.28922264004E+03  0.28922264004E+03  0.00000000000E+00 0.  1.
         23    2    1    2    0    0 -0.10319718449E+03  0.74781775567E+02  0.38717864502E+03  0.41709105992E+03  0.88406313444E+02 0.  0.
        -24    2    1    2    0    0  0.12731310682E+03 -0.13241543478E+03  0.21545619239E+03  0.29425427940E+03  0.80135732185E+02 0.  0.
         11    1    4    4    0    0  0.23545976750E+02 -0.48534598047E+02  0.19866324101E+02  0.57486442419E+02  0.00000000000E+00 0. -1.
        -12    1    4    4    0    0  0.10376713007E+03 -0.83880836732E+02  0.19558986828E+03  0.23676783698E+03  0.00000000000E+00 0.  1.
        -11    1    3    3    0    0 -0.69955891433E+02  0.17228101807E+02  0.29360620210E+03  0.30231645035E+03  0.00000000000E+00 0.  1.
         11    1    3    3    0    0 -0.33241293060E+02  0.57553673760E+02  0.93572442920E+02  0.11477460957E+03  0.00000000000E+00 0. -1.
         -1    1    1    2    0  502 -0.24115922327E+02  0.57633659211E+02 -0.23071268673E+03  0.23902209145E+03  0.00000000000E+00 0.  1.
<scales pt_clust_5="13000.00000" pt_clust_6="13000.00000" pt_clust_7="13000.00000" pt_clust_8="13000.00000" pt_clust_9="62.47573"></scales>
<clustering>
<clus scale="   62.476">  2  9  1 -1</clus>
<clus scale="   80.136">  5  6 -1 -1</clus>
<clus scale="   88.406">  7  8 -1 -1</clus>
<clus scale="  163.403">  2  5  1 -1</clus>
<clus scale="   62.476">  2  5  1 -1</clus>
</clustering>
</event>
<event>
 9    1  0.6345107E-005  0.1089555E+03  0.7546771E-02  0.1267599E+00
         21   -1    0    0  501  502  0.00000000000E+00  0.00000000000E+00  0.82393313806E+02  0.82393313806E+02  0.00000000000E+00 0. -1.
          1   -1    0    0  502    0 -0.00000000000E+00 -0.00000000000E+00 -0.22961379991E+03  0.22961379991E+03  0.00000000000E+00 0. -1.
        -24    2    1    2    0    0 -0.24515957437E+02  0.55127441693E+02 -0.13817082447E+03  0.17012447650E+03  0.78810492790E+02 0.  0.
         23    2    1    2    0    0 -0.12986323602E+01 -0.60396762805E+02  0.90882025772E+01  0.10989606332E+03  0.91351485505E+02 0.  0.
         11    1    3    3    0    0 -0.10547252815E+02  0.72676435166E+02 -0.12227438951E+03  0.14263286823E+03  0.00000000000E+00 0. -1.
        -12    1    3    3    0    0 -0.13968704622E+02 -0.17548993473E+02 -0.15896434956E+02  0.27491608266E+02  0.00000000000E+00 0.  1.
        -11    1    4    4    0    0  0.24214688202E+02  0.42992596936E+01 -0.22665390797E+02  0.33444800771E+02  0.00000000000E+00 0.  1.
         11    1    4    4    0    0 -0.25513320562E+02 -0.64696022498E+02  0.31753593374E+02  0.76451262549E+02  0.00000000000E+00 0. -1.
          2    1    1    2  501    0  0.25814589797E+02  0.52693211115E+01 -0.18137864215E+02  0.31986573897E+02  0.00000000000E+00 0. -1.
<scales pt_clust_5="13000.00000" pt_clust_6="13000.00000" pt_clust_7="13000.00000" pt_clust_8="13000.00000" pt_clust_9="26.34691"></scales>
<clustering>
<clus scale="   26.347">  1  9  2 -1</clus>
<clus scale="   78.810">  5  6 -1 -1</clus>
<clus scale="   91.351">  7  8 -1 -1</clus>
<clus scale="   98.678">  2  5  1 -1</clus>
<clus scale="   26.347">  1  5  2 -1</clus>
</clustering>
</event>
<event>
 9    1  0.6345107E-005  0.1403490E+03  0.7546771E-02  0.1232189E+00
         -2   -1    0    0    0  501 -0.00000000000E+00  0.00000000000E+00  0.47796848822E+03  0.47796848822E+03  0.00000000000E+00 0.  1.
         21   -1    0    0  501  502  0.00000000000E+00 -0.00000000000E+00 -0.93184737567E+02  0.93184737567E+02  0.00000000000E+00 0.  1.
         23    2    1    2    0    0  0.10928736368E+02  0.17035611250E+02 -0.13687359831E+02  0.94683913449E+02  0.91477048037E+02 0.  0.
        -24    2    1    2    0    0  0.67844265275E+02 -0.98878557288E+02  0.26145676581E+03  0.29849070618E+03  0.79732351434E+02 0.  0.
         13    1    4    4    0    0 -0.14536464534E+02 -0.26637015403E+02  0.31361344660E+02  0.43639126133E+02  0.00000000000E+00 0. -1.
        -14    1    4    4    0    0  0.82380729810E+02 -0.72241541886E+02  0.23009542115E+03  0.25485158005E+03  0.00000000000E+00 0.  1.
        -13    1    3    3    0    0 -0.25867597414E+02  0.17498219682E+02 -0.39041746060E+02  0.49995782057E+02  0.00000000000E+00 0.  1.
         13    1    3    3    0    0  0.36796333781E+02 -0.46260843215E+00  0.25354386229E+02  0.44688131393E+02  0.00000000000E+00 0. -1.
         -1    1    1    2    0  502 -0.78773001643E+02  0.81842946038E+02  0.13701434468E+03  0.17797860616E+03  0.00000000000E+00 0.  1.
<scales pt_clust_5="13000.00000" pt_clust_6="13000.00000" pt_clust_7="13000.00000" pt_clust_8="13000.00000" pt_clust_9="115.50144"></scales>
<clustering>
<clus scale="   79.732">  5  6 -1 -1</clus>
<clus scale="   91.477">  7  8 -1 -1</clus>
<clus scale="   93.689">  1  7  2 -1</clus>
<clus scale="  115.501">  2  9  1 -1</clus>
<clus scale="  115.501">  2  5  1 -1</clus>
</clustering>
</event>
<event>
 9    1  0.6345107E-005  0.1354606E+03  0.7546771E-02  0.1221083E+00
          1   -1    0    0  502    0 -0.00000000000E+00  0.00000000000E+00  0.77968659588E+03  0.77968659588E+03  0.00000000000E+00 0. -1.
         21   -1    0    0  501  502  0.00000000000E+00 -0.00000000000E+00 -0.38158537210E+02  0.38158537210E+02  0.00000000000E+00 0. -1.
        -24    2    1    2    0    0  0.83176914171E+02 -0.13166117352E+02  0.19833520219E+03  0.23183397296E+03  0.85547606007E+02 0.  0.
         23    2    1    2    0    0 -0.11876264467E+03 -0.55876853413E+01  0.26266433209E+03  0.30261337904E+03  0.91904939065E+02 0.  0.
         11    1    3    3    0    0  0.68967854366E+02  0.27974247134E+02  0.10342961665E+03  0.12742373813E+03  0.00000000000E+00 0. -1.
        -12    1    3    3    0    0  0.14209059805E+02 -0.41140364486E+02  0.94905585539E+02  0.10441023483E+03  0.00000000000E+00 0.  1.
        -11    1    4    4    0    0 -0.70942857825E+02  0.40819316376E+02  0.16763397851E+03  0.18654826833E+03  0.00000000000E+00 0.  1.
         11    1    4    4    0    0 -0.47819786844E+02 -0.46407001717E+02  0.95030353577E+02  0.11606511071E+03  0.00000000000E+00 0. -1.
          2    1    1    2  501    0  0.35585730498E+02  0.18753802694E+02  0.28052852440E+03  0.28339778110E+03  0.00000000000E+00 0. -1.
<scales pt_clust_5="13000.00000" pt_clust_6="13000.00000" pt_clust_7="13000.00000" pt_clust_8="13000.00000" pt_clust_9="40.22500"></scales>
<clustering>
<clus scale="   40.225">  2  9  1 -1</clus>
<clus scale="   85.548">  5  6 -1 -1</clus>
<clus scale="   91.905">  7  8 -1 -1</clus>
<clus scale="  131.231">  1  5  2 -1</clus>
<clus scale="   40.225">  2  5  1 -1</clus>
</clustering>
</event>
<event>
 9    1  0.6345107E-005  0.1272843E+03  0.7546771E-02  0.1244505E+00
          1   -1    0    0  502    0 -0.00000000000E+00  0.00000000000E+00  0.11070136746E+03  0.11070136746E+03  0.00000000000E+00 0. -1.
         21   -1    0    0  501  502  0.00000000000E+00 -0.00000000000E+00 -0.25502914936E+03  0.25502914936E+03  0.00000000000E+00 0. -1.
        -24    2    1    2    0    0  0.53312966870E+02  0.18396800232E+02  0.15917992940E+01  0.97749296488E+02  0.79822781483E+02 0.  0.
         23    2    1    2    0    0  0.26607663418E+02 -0.79328939080E+02 -0.64999862939E+02  0.13895396162E+03  0.89900906215E+02 0.  0.
         13    1    3    3    0    0  0.63839486201E+02  0.38786189565E+02  0.30115935450E+01  0.74759067644E+02  0.00000000000E+00 0. -1.
        -14    1    3    3    0    0 -0.10526519331E+02 -0.20389389333E+02 -0.14197942510E+01  0.22990228844E+02  0.00000000000E+00 0.  1.
        -11    1    4    4    0    0  0.29073405867E+01 -0.82201888688E+02 -0.15087150464E+02  0.83625505931E+02  0.00000000000E+00 0. -1.
         11    1    4    4    0    0  0.23700322832E+02  0.28729496074E+01 -0.49912712475E+02  0.55328455684E+02  0.00000000000E+00 0.  1.
          2    1    1    2  501    0 -0.79920630288E+02  0.60932138848E+02 -0.80919718253E+02  0.12902725872E+03  0.00000000000E+00 0. -1.
<scales pt_clust_5="13000.00000" pt_clust_6="13000.00000" pt_clust_7="13000.00000" pt_clust_8="13000.00000" pt_clust_9="90.10617"></scales>
<clustering>
<clus scale="   79.823">  5  6 -1 -1</clus>
<clus scale="   89.901">  7  8 -1 -1</clus>
<clus scale="   97.736">  1  5  2 -1</clus>
<clus scale="   90.106">  2  9  1 -1</clus>
<clus scale="   90.106">  2  5  1 -1</clus>
</clustering>
</event>
<event>
 9    1  0.6345107E-005  0.1897760E+03  0.7546771E-02  0.1160121E+00
         21   -1    0    0  501  502  0.00000000000E+00  0.00000000000E+00  0.32540134650E+03  0.32540134650E+03  0.00000000000E+00 0.  1.
         -2   -1    0    0    0  501 -0.00000000000E+00 -0.00000000000E+00 -0.16039233603E+03  0.16039233603E+03  0.00000000000E+00 0.  1.
         23    2    1    2    0    0  0.97390409384E+02  0.15344464436E+03  0.44612634933E+00  0.20485289058E+03  0.94521727811E+02 0.  0.
        -24    2    1    2    0    0 -0.59439580969E+02 -0.11763663482E+03  0.16831728353E+03  0.22862851386E+03  0.81048428577E+02 0.  0.
         11    1    4    4    0    0 -0.44449753226E+02 -0.20602918506E+02  0.25266121961E+02  0.55123839958E+02  0.00000000000E+00 0. -1.
        -12    1    4    4    0    0 -0.14989827743E+02 -0.97033716318E+02  0.14305116157E+03  0.17350467390E+03  0.00000000000E+00 0.  1.
        -13    1    3    3    0    0 -0.96477075588E+01  0.62180702025E+02  0.10650093474E+02  0.63819608715E+02  0.00000000000E+00 0.  1.
         13    1    3    3    0    0  0.10703811694E+03  0.91263942334E+02 -0.10203967125E+02  0.14103328187E+03  0.00000000000E+00 0. -1.
         -1    1    1    2    0  502 -0.37950828415E+02 -0.35808009535E+02 -0.37543994025E+01  0.52312278092E+02  0.00000000000E+00 0.  1.
<scales pt_clust_5="13000.00000" pt_clust_6="13000.00000" pt_clust_7="13000.00000" pt_clust_8="13000.00000" pt_clust_9="52.17741"></scales>
<clustering>
<clus scale="   52.177">  1  9  2 -1</clus>
<clus scale="   81.048">  5  6 -1 -1</clus>
<clus scale="   94.522">  7  8 -1 -1</clus>
<clus scale="  183.438">  1  5  2 -1</clus>
<clus scale="   52.177">  1  5  2 -1</clus>
</clustering>
</event>
<event>
 9    1  0.6345107E-005  0.1414431E+03  0.7546771E-02  0.1215623E+00
         21   -1    0    0  501  502  0.00000000000E+00  0.00000000000E+00  0.11669222548E+03  0.11669222548E+03  0.00000000000E+00 0. -1.
          1   -1    0    0  502    0 -0.00000000000E+00 -0.00000000000E+00 -0.25179611167E+03  0.25179611167E+03  0.00000000000E+00 0. -1.
        -24    2    1    2    0    0  0.73915673724E+02 -0.92357199757E+02 -0.10637919183E+03  0.17801202642E+03  0.79864697629E+02 0.  0.
         23    2    1    2    0    0 -0.66316252514E+02  0.36629934758E+02  0.62258561272E+01  0.12425833548E+03  0.98294329358E+02 0.  0.
         11    1    3    3    0    0  0.39359434594E+02 -0.88387970450E+02 -0.43351633917E+02  0.10602340579E+03  0.00000000000E+00 0. -1.
        -12    1    3    3    0    0  0.34556239131E+02 -0.39692293071E+01 -0.63027557914E+02  0.71988620634E+02  0.00000000000E+00 0.  1.
        -13    1    4    4    0    0 -0.57778115082E+02  0.59750283758E+02 -0.22793025771E+02  0.86185433893E+02  0.00000000000E+00 0.  1.
         13    1    4    4    0    0 -0.85381374324E+01 -0.23120349000E+02  0.29018881898E+02  0.38072901588E+02  0.00000000000E+00 0. -1.
          2    1    1    2  501    0 -0.75994212103E+01  0.55727265000E+02 -0.34950550478E+02  0.66217975247E+02  0.00000000000E+00 0. -1.
<scales pt_clust_5="13000.00000" pt_clust_6="13000.00000" pt_clust_7="13000.00000" pt_clust_8="13000.00000" pt_clust_9="56.24307"></scales>
<clustering>
<clus scale="   56.243">  1  9  2 -1</clus>
<clus scale="   79.865">  5  6 -1 -1</clus>
<clus scale="   98.294">  7  8 -1 -1</clus>
<clus scale="  129.316">  2  5  1 -1</clus>
<clus scale="   56.243">  1  5  2 -1</clus>
</clustering>
</event>
<event>
 9    1  0.6345107E-005  0.1312291E+03  0.7546771E-02  0.1228480E+00
         21   -1    0    0  501  502  0.00000000000E+00  0.00000000000E+00  0.10129708069E+03  0.10129708069E+03  0.00000000000E+00 0. -1.
          1   -1    0    0  502    0 -0.00000000000E+00 -0.00000000000E+00 -0.41604269546E+03  0.41604269546E+03  0.00000000000E+00 0. -1.
         23    2    1    2    0    0  0.73115148605E+02 -0.12501533355E+02 -0.12806621205E+03  0.17359098517E+03  0.90723548059E+02 0.  0.
        -24    2    1    2    0    0 -0.11220788096E+03 -0.67244135468E+02 -0.20218589554E+03  0.25359301059E+03  0.79485195848E+02 0.  0.
         11    1    4    4    0    0 -0.67846473093E+02 -0.65261532880E+01 -0.14114064738E+03  0.15673677593E+03  0.00000000000E+00 0. -1.
        -12    1    4    4    0    0 -0.44361407871E+02 -0.60717982180E+02 -0.61045248161E+02  0.96856234654E+02  0.00000000000E+00 0.  1.
        -13    1    3    3    0    0  0.91098387125E+02  0.20939001651E+01 -0.84604293512E+02  0.12434302166E+03  0.00000000000E+00 0.  1.
         13    1    3    3    0    0 -0.17983238520E+02 -0.14595433520E+02 -0.43461918533E+02  0.49247963510E+02  0.00000000000E+00 0. -1.
          2    1    1    2  501    0  0.39092732359E+02  0.79745668823E+02  0.15506492807E+02  0.90155780394E+02  0.00000000000E+00 0. -1.
<scales pt_clust_5="13000.00000" pt_clust_6="13000.00000" pt_clust_7="13000.00000" pt_clust_8="13000.00000" pt_clust_9="88.81224"></scales>
<clustering>
<clus scale="   79.485">  5  6 -1 -1</clus>
<clus scale="   88.812">  1  9  2 -1</clus>
<clus scale="   90.724">  7  8 -1 -1</clus>
<clus scale="  123.726">  1  5  2 -1</clus>
<clus scale="   88.812">  1  5  2 -1</clus>
</clustering>
</event>
<event>
 9    1  0.6345107E-005  0.1143339E+03  0.7546771E-02  0.1256793E+00
         21   -1    0    0  501  502  0.00000000000E+00  0.00000000000E+00  0.21906828442E+03  0.21906828442E+03  0.00000000000E+00 0.  1.
         -2   -1    0    0    0  501 -0.00000000000E+00 -0.00000000000E+00 -0.24309094612E+03  0.24309094612E+03  0.00000000000E+00 0.  1.
        -24    2    1    2    0    0  0.38221770750E+02  0.59531592922E+02 -0.15199513427E+03  0.18581268763E+03  0.80118161042E+02 0.  0.
         23    2    1    2    0    0  0.33575525804E+02 -0.73955495955E+02  0.15575666272E+03  0.19802118307E+03  0.91408531590E+02 0.  0.
         11    1    3    3    0    0  0.19377261711E+02 -0.13580335829E+02 -0.72114503533E+02  0.75897334686E+02  0.00000000000E+00 0. -1.
        -12    1    3    3    0    0  0.18844509040E+02  0.73111928751E+02 -0.79880630738E+02  0.10991535295E+03  0.00000000000E+00 0.  1.
        -11    1    4    4    0    0  0.83820932595E+01 -0.80222225209E+02  0.15161026553E+03  0.17173100337E+03  0.00000000000E+00 0.  1.
         11    1    4    4    0    0  0.25193432545E+02  0.62667292542E+01  0.41463971926E+01  0.26290179699E+02  0.00000000000E+00 0. -1.
         -1    1    1    2    0  502 -0.71797296555E+02  0.14423903033E+02 -0.27784190146E+02  0.78325359835E+02  0.00000000000E+00 0.  1.
<scales pt_clust_5="13000.00000" pt_clust_6="13000.00000" pt_clust_7="13000.00000" pt_clust_8="13000.00000" pt_clust_9="73.23187"></scales>
<clustering>
<clus scale="   73.232">  1  9  2 -1</clus>
<clus scale="   80.118">  5  6 -1 -1</clus>
<clus scale="   91.409">  7  8 -1 -1</clus>
<clus scale="  105.526">  2  5  1 -1</clus>
<clus scale="   73.232">  1  5  2 -1</clus>
</clustering>
</event>
<event>
 9    1  0.6345107E-005  0.2348549E+03  0.7546771E-02  0.1144664E+00
         -2   -1    0    0    0  501 -0.00000000000E+00  0.00000000000E+00  0.98412271103E+03  0.98412271103E+03  0.00000000000E+00 0.  1.
         21   -1    0    0  501  502  0.00000000000E+00 -0.00000000000E+00 -0.28725833142E+03  0.28725833142E+03  0.00000000000E+00 0.  1.
        -24    2    1    2    0    0  0.76714523152E+02 -0.82140578809E+02  0.77289686957E+03  0.78536411231E+03  0.82431942661E+02 0.  0.
         23    2    1    2    0    0 -0.15992260130E+03  0.20464870361E+03 -0.15707188242E+03  0.31719984557E+03  0.92129449615E+02 0.  0.
         11    1    3    3    0    0  0.57634772951E+02 -0.34582963123E+01  0.28415641729E+03  0.28996309481E+03  0.00000000000E+00 0. -1.
        -12    1    3    3    0    0  0.19079750201E+02 -0.78682282497E+02  0.48874045227E+03  0.49540101750E+03  0.00000000000E+00 0.  1.
        -13    1    4    4    0    0 -0.25693373377E+02 -0.21195348498E+01 -0.30989371399E+02  0.40311077921E+02  0.00000000000E+00 0. -1.
         13    1    4    4    0    0 -0.13422922793E+03  0.20676823846E+03 -0.12608251102E+03  0.27688876765E+03  0.00000000000E+00 0.  1.
         -1    1    1    2    0  502  0.83208078151E+02 -0.12250812480E+03  0.81039392470E+02  0.16881708457E+03  0.00000000000E+00 0.  1.
<scales pt_clust_5="13000.00000" pt_clust_6="13000.00000" pt_clust_7="13000.00000" pt_clust_8="13000.00000" pt_clust_9="216.03021"></scales>
<clustering>
<clus scale="   82.432">  5  6 -1 -1</clus>
<clus scale="   92.129">  7  8 -1 -1</clus>
<clus scale="  139.382">  1  5  2 -1</clus>
<clus scale="  216.030">  2  9  1 -1</clus>
<clus scale="  216.030">  2  5  1 -1</clus>
</clustering>
</event>
<event>
 9    1  0.6345107E-005  0.1577624E+03  0.7546771E-02  0.1196790E+00
          1   -1    0    0  502    0 -0.00000000000E+00  0.00000000000E+00  0.41993825171E+03  0.41993825171E+03  0.00000000000E+00 0. -1.
         21   -1    0    0  501  502  0.00000000000E+00 -0.00000000000E+00 -0.10577700025E+03  0.10577700025E+03  0.00000000000E+00 0.  1.
        -24    2    1    2    0    0 -0.92151299844E+02 -0.32911852381E+02  0.12161446793E+03  0.17568432527E+03  0.80621654936E+02 0.  0.
         23    2    1    2    0    0  0.12994866130E+03  0.92677136374E+02  0.64473274004E+02  0.20373207657E+03  0.10896903130E+03 0.  0.
         13    1    3    3    0    0 -0.83093002197E+02  0.90614313390E+01  0.74918473352E+02  0.11224675586E+03  0.00000000000E+00 0. -1.
        -14    1    3    3    0    0 -0.90582976472E+01 -0.41973283720E+02  0.46695994578E+02  0.63437569406E+02  0.00000000000E+00 0.  1.
        -13    1    4    4    0    0  0.13398014068E+03  0.39730721593E+02  0.40696554979E+02  0.14555211411E+03  0.00000000000E+00 0.  1.
         13    1    4    4    0    0 -0.40314793805E+01  0.52946414782E+02  0.23776719025E+02  0.58179962459E+02  0.00000000000E+00 0. -1.
          2    1    1    2  501    0 -0.37797361458E+02 -0.59765283993E+02  0.12807350953E+03  0.14629885012E+03  0.00000000000E+00 0. -1.
<scales pt_clust_5="13000.00000" pt_clust_6="13000.00000" pt_clust_7="13000.00000" pt_clust_8="13000.00000" pt_clust_9="70.71446"></scales>
<clustering>
<clus scale="   70.714">  2  9  1 -1</clus>
<clus scale="   80.622">  5  6 -1 -1</clus>
<clus scale="  108.969">  7  8 -1 -1</clus>
<clus scale="  139.695">  1  5  2 -1</clus>
<clus scale="   70.714">  2  5  1 -1</clus>
</clustering>
</event>
<event>
 9    1  0.6345107E-005  0.8708634E+02  0.7546771E-02  0.1311282E+00
         21   -1    0    0  501  502  0.00000000000E+00  0.00000000000E+00  0.12864209069E+03  0.12864209069E+03  0.00000000000E+00 0. -1.
          1   -1    0    0  502    0 -0.00000000000E+00 -0.00000000000E+00 -0.15800363684E+03  0.15800363684E+03  0.00000000000E+00 0. -1.
         23    2    1    2    0    0 -0.26050110851E+02 -0.25124354107E+02 -0.99272489239E+02  0.13449937097E+03  0.83217860017E+02 0.  0.
        -24    2    1    2    0    0  0.18944690380E+01 -0.18894974001E+02  0.32475230149E+02  0.89515462573E+02  0.81226648405E+02 0.  0.
         11    1    4    4    0    0 -0.32684007435E+02 -0.52201977207E+01 -0.85112107569E+01  0.34175071541E+02  0.00000000000E+00 0. -1.
        -12    1    4    4    0    0  0.34578476473E+02 -0.13674776280E+02  0.40986440906E+02  0.55340391033E+02  0.00000000000E+00 0.  1.
        -13    1    3    3    0    0 -0.17864586608E+02 -0.52624190562E+02 -0.87127950121E+02  0.10334277226E+03  0.00000000000E+00 0. -1.
         13    1    3    3    0    0 -0.81855242437E+01  0.27499836455E+02 -0.12144539117E+02  0.31156598701E+02  0.00000000000E+00 0.  1.
          2    1    1    2  501    0  0.24155641813E+02  0.44019328108E+02  0.37435712939E+02  0.62630893988E+02  0.00000000000E+00 0. -1.
<scales pt_clust_5="13000.00000" pt_clust_6="13000.00000" pt_clust_7="13000.00000" pt_clust_8="13000.00000" pt_clust_9="50.21152"></scales>
<clustering>
<clus scale="   50.212">  1  9  2 -1</clus>
<clus scale="   81.227">  5  6 -1 -1</clus>
<clus scale="   83.218">  7  8 -1 -1</clus>
<clus scale="   85.186">  1  5  2 -1</clus>
<clus scale="   50.212">  1  5  2 -1</clus>
</clustering>
</event>
<event>
 9    1  0.6345107E-005  0.2863856E+03  0.7546771E-02  0.1092251E+00
         21   -1    0    0  501  502  0.00000000000E+00  0.00000000000E+00  0.97453360122E+03  0.97453360122E+03  0.00000000000E+00 0. -1.
          1   -1    0    0  502    0 -0.00000000000E+00 -0.00000000000E+00 -0.73095538289E+02  0.73095538289E+02  0.00000000000E+00 0. -1.
        -24    2    1    2    0    0  0.34718932999E+01  0.59524988579E+02  0.80897263504E+02  0.12867384660E+03  0.80357409419E+02 0.  0.
         23    2    1    2    0    0  0.28259286672E+02  0.15448511186E+03  0.25096830421E+03  0.30967701643E+03  0.90832415573E+02 0.  0.
         13    1    3    3    0    0 -0.24635818422E+02  0.78167372596E+01 -0.31836942255E+01  0.26041521453E+02  0.00000000000E+00 0. -1.
        -14    1    3    3    0    0  0.28107711722E+02  0.51708251319E+02  0.84080957730E+02  0.10263232515E+03  0.00000000000E+00 0.  1.
        -13    1    4    4    0    0 -0.50489700474E+01  0.13138389173E+03  0.14254127489E+03  0.19392069037E+03  0.00000000000E+00 0.  1.
         13    1    4    4    0    0  0.33308256719E+02  0.23101220130E+02  0.10842702932E+03  0.11575632606E+03  0.00000000000E+00 0. -1.
          2    1    1    2  501    0 -0.31731179972E+02 -0.21401010044E+03  0.56957249522E+03  0.60927827647E+03  0.00000000000E+00 0. -1.
<scales pt_clust_5="13000.00000" pt_clust_6="13000.00000" pt_clust_7="13000.00000" pt_clust_8="13000.00000" pt_clust_9="216.34970"></scales>
<clustering>
<clus scale="   80.357">  5  6 -1 -1</clus>
<clus scale="   90.832">  7  8 -1 -1</clus>
<clus scale="   99.953">  5  7 -1 -1</clus>
<clus scale="  216.350">  1  9  2 -1</clus>
<clus scale="  216.350">  1  5  2 -1</clus>
</clustering>
</event>
<event>
 9    1  0.6345107E-005  0.1195630E+03  0.7546771E-02  0.1249759E+00
         21   -1    0    0  501  502  0.00000000000E+00  0.00000000000E+00  0.21205624473E+03  0.21205624473E+03  0.00000000000E+00 0. -1.
          1   -1    0    0  502    0 -0.00000000000E+00 -0.00000000000E+00 -0.18304942753E+03  0.18304942753E+03  0.00000000000E+00 0. -1.
        -24    2    1    2    0    0 -0.73123210031E+02  0.23585613727E+02  0.58738707641E+02  0.12467857507E+03  0.78684345882E+02 0.  0.
         23    2    1    2    0    0  0.66272676725E+02  0.24125442663E+01  0.90205219965E+02  0.14751353212E+03  0.96048802179E+02 0.  0.
         13    1    3    3    0    0 -0.69273379675E+02  0.48195131796E+02  0.50964503851E+02  0.98584747873E+02  0.00000000000E+00 0. -1.
        -14    1    3    3    0    0 -0.38498303554E+01 -0.24609518069E+02  0.77742037901E+01  0.26093827200E+02  0.00000000000E+00 0.  1.
        -11    1    4    4    0    0  0.34115986323E+02  0.49240015259E+02  0.47230754453E+02  0.76283837028E+02  0.00000000000E+00 0. -1.
         11    1    4    4    0    0  0.32156690402E+02 -0.46827470993E+02  0.42974465512E+02  0.71229695094E+02  0.00000000000E+00 0.  1.
          2    1    1    2  501    0  0.68505333057E+01 -0.25998157993E+02 -0.11993711040E+03  0.12291356507E+03  0.00000000000E+00 0. -1.
<scales pt_clust_5="13000.00000" pt_clust_6="13000.00000" pt_clust_7="13000.00000" pt_clust_8="13000.00000" pt_clust_9="26.88559"></scales>
<clustering>
<clus scale="   26.886">  1  9  2 -1</clus>
<clus scale="   78.684">  5  6 -1 -1</clus>
<clus scale="   96.049">  7  8 -1 -1</clus>
<clus scale="  106.119">  2  5  1 -1</clus>
<clus scale="   26.886">  1  5  2 -1</clus>
</clustering>
</event>
<event>
 9    1  0.6345107E-005  0.1972086E+03  0.7546771E-02  0.1153475E+00
         21   -1    0    0  501  502  0.00000000000E+00  0.00000000000E+00  0.29792284400E+03  0.29792284400E+03  0.00000000000E+00 0. -1.
          1   -1    0    0  502    0 -0.00000000000E+00 -0.00000000000E+00 -0.20155595336E+03  0.20155595336E+03  0.00000000000E+00 0. -1.
         23    2    1    2    0    0 -0.61124445801E+02 -0.13792608582E+03  0.67468563074E+02  0.18931961988E+03  0.92358586202E+02 0.  0.
        -24    2    1    2    0    0  0.49468716793E+02  0.19778802724E+03  0.77987673346E+02  0.23187078805E+03  0.78196723070E+02 0.  0.
         11    1    4    4    0    0  0.50151730691E+02  0.20404885104E+03  0.80603447333E+02  0.22505120623E+03  0.00000000000E+00 0. -1.
        -12    1    4    4    0    0 -0.68301389758E+00 -0.62608238054E+01 -0.26157739869E+01  0.68195818242E+01  0.00000000000E+00 0.  1.
        -13    1    3    3    0    0 -0.28868071557E+02 -0.10250327242E+03  0.87070716549E+02  0.13755579265E+03  0.00000000000E+00 0. -1.
         13    1    3    3    0    0 -0.32256374244E+02 -0.35422813399E+02 -0.19602153475E+02  0.51763827228E+02  0.00000000000E+00 0.  1.
          2    1    1    2  501    0  0.11655729008E+02 -0.59861941419E+02 -0.49089345776E+02  0.78288389419E+02  0.00000000000E+00 0. -1.
<scales pt_clust_5="13000.00000" pt_clust_6="13000.00000" pt_clust_7="13000.00000" pt_clust_8="13000.00000" pt_clust_9="60.98616"></scales>
<clustering>
<clus scale="   60.986">  1  9  2 -1</clus>
<clus scale="   78.197">  5  6 -1 -1</clus>
<clus scale="   92.359">  7  8 -1 -1</clus>
<clus scale="  190.987">  1  5  2 -1</clus>
<clus scale="   60.986">  1  5  2 -1</clus>
</clustering>
</event>
<event>
 9    1  0.6345107E-005  0.9214043E+02  0.7546771E-02  0.1302586E+00
          1   -1    0    0  502    0 -0.00000000000E+00  0.00000000000E+00  0.52332589939E+02  0.52332589939E+02  0.00000000000E+00 0. -1.
         21   -1    0    0  501  502  0.00000000000E+00 -0.00000000000E+00 -0.35836682312E+03  0.35836682312E+03  0.00000000000E+00 0. -1.
         23    2    1    2    0    0  0.27129817204E+01  0.18166888495E+02 -0.82094649926E+02  0.12436592276E+03  0.91596698025E+02 0.  0.
        -24    2    1    2    0    0  0.78497660502E+01  0.95041758201E+01 -0.23869653541E+03  0.25324229694E+03  0.83687972610E+02 0.  0.
         13    1    4    4    0    0  0.28450330835E+02  0.38612149947E+02 -0.11759806836E+03  0.12700246112E+03  0.00000000000E+00 0. -1.
        -14    1    4    4    0    0 -0.20600564785E+02 -0.29107974127E+02 -0.12109846705E+03  0.12623983583E+03  0.00000000000E+00 0.  1.
        -11    1    3    3    0    0  0.60002763773E+01  0.55089448497E+02 -0.40416384455E+02  0.68588153385E+02  0.00000000000E+00 0.  1.
         11    1    3    3    0    0 -0.32872946569E+01 -0.36922560003E+02 -0.41678265472E+02  0.55777769371E+02  0.00000000000E+00 0. -1.
          2    1    1    2  501    0 -0.10562747771E+02 -0.27671064315E+02  0.14756952158E+02  0.33091193357E+02  0.00000000000E+00 0. -1.
<scales pt_clust_5="13000.00000" pt_clust_6="13000.00000" pt_clust_7="13000.00000" pt_clust_8="13000.00000" pt_clust_9="29.61858"></scales>
<clustering>
<clus scale="   29.619">  2  9  1 -1</clus>
<clus scale="   83.688">  5  6 -1 -1</clus>
<clus scale="   84.283">  2  5  1 -1</clus>
<clus scale="   91.597">  7  8 -1 -1</clus>
<clus scale="   29.619">  2  5  1 -1</clus>
</clustering>
</event>
<event>
 9    1  0.6345107E-005  0.2058179E+03  0.7546771E-02  0.1145960E+00
         21   -1    0    0  501  502  0.00000000000E+00  0.00000000000E+00  0.76627549674E+03  0.76627549674E+03  0.00000000000E+00 0. -1.
         -2   -1    0    0    0  501 -0.00000000000E+00 -0.00000000000E+00 -0.34364430616E+03  0.34364430616E+03  0.00000000000E+00 0.  1.
         23    2    1    2    0    0 -0.17984795600E+03 -0.45087294817E+02 -0.29503052292E+03  0.36041267178E+03  0.92065917121E+02 0.  0.
        -24    2    1    2    0    0  0.15796826835E+03  0.17390396186E+02  0.63825136167E+03  0.66260579107E+03  0.80157557357E+02 0.  0.
         11    1    4    4    0    0  0.11632275774E+03  0.48294336898E+02  0.43812389822E+03  0.45586826731E+03  0.00000000000E+00 0. -1.
        -12    1    4    4    0    0  0.41645510610E+02 -0.30903940712E+02  0.20012746344E+03  0.20673752376E+03  0.00000000000E+00 0.  1.
        -11    1    3    3    0    0 -0.18543810586E+02  0.20952141542E+02 -0.18528133236E+02  0.33558260793E+02  0.00000000000E+00 0. -1.
         11    1    3    3    0    0 -0.16130414541E+03 -0.66039436358E+02 -0.27650238968E+03  0.32685441098E+03  0.00000000000E+00 0.  1.
         -1    1    1    2    0  502  0.21879687650E+02  0.27696898631E+02  0.79410351830E+02  0.86901340054E+02  0.00000000000E+00 0.  1.
<scales pt_clust_5="13000.00000" pt_clust_6="13000.00000" pt_clust_7="13000.00000" pt_clust_8="13000.00000" pt_clust_9="35.29644"></scales>
<clustering>
<clus scale="   35.296">  1  9  2 -1</clus>
<clus scale="   80.158">  5  6 -1 -1</clus>
<clus scale="   92.066">  7  8 -1 -1</clus>
<clus scale="  200.774">  1  5  2 -1</clus>
<clus scale="   35.296">  1  5  2 -1</clus>
</clustering>
</event>
<event>
 9    1  0.6345107E-005  0.1558638E+03  0.7546771E-02  0.1195468E+00
          1   -1    0    0  502    0 -0.00000000000E+00  0.00000000000E+00  0.10024055262E+04  0.10024055262E+04  0.00000000000E+00 0. -1.
         21   -1    0    0  501  502  0.00000000000E+00 -0.00000000000E+00 -0.11384057319E+03  0.11384057319E+03  0.00000000000E+00 0. -1.
        -24    2    1    2    0    0  0.75010143723E+01  0.10769162117E+03  0.48026803833E+03  0.49881692912E+03  0.80667153476E+02 0.  0.
         23    2    1    2    0    0 -0.34225967592E+02 -0.15369722160E+03  0.48830402068E+03  0.52134652144E+03  0.92558770612E+02 0.  0.
         13    1    3    3    0    0  0.29778994487E+02  0.63381580929E+01  0.91224549219E+02  0.96171093063E+02  0.00000000000E+00 0. -1.
        -14    1    3    3    0    0 -0.22277980115E+02  0.10135346308E+03  0.38904348911E+03  0.40264583606E+03  0.00000000000E+00 0.  1.
        -13    1    4    4    0    0 -0.26189019123E+02 -0.86327832465E+00  0.41723838558E+02  0.49269551207E+02  0.00000000000E+00 0.  1.
         13    1    4    4    0    0 -0.80369484692E+01 -0.15283394327E+03  0.44658018213E+03  0.47207697023E+03  0.00000000000E+00 0. -1.
          2    1    1    2  501    0  0.26724953220E+02  0.46005600428E+02 -0.80007106004E+02  0.96082648832E+02  0.00000000000E+00 0. -1.
<scales pt_clust_5="13000.00000" pt_clust_6="13000.00000" pt_clust_7="13000.00000" pt_clust_8="13000.00000" pt_clust_9="53.20468"></scales>
<clustering>
<clus scale="   53.205">  2  9  1 -1</clus>
<clus scale="   80.667">  5  6 -1 -1</clus>
<clus scale="   92.559">  7  8 -1 -1</clus>
<clus scale="  149.109">  1  5  2 -1</clus>
<clus scale="   53.205">  2  5  1 -1</clus>
</clustering>
</event>
<event>
 9    1  0.6345107E-005  0.1717074E+03  0.7546771E-02  0.1177731E+00
         -4   -1    0    0    0  501 -0.00000000000E+00  0.00000000000E+00  0.13835915967E+04  0.13835915967E+04  0.00000000000E+00 0.  1.
         21   -1    0    0  501  502  0.00000000000E+00 -0.00000000000E+00 -0.46379684766E+02  0.46379684766E+02  0.00000000000E+00 0.  1.
        -24    2    1    2    0    0  0.73001913708E+02  0.82147287052E+02  0.42211079877E+03  0.44326924873E+03  0.78947097835E+02 0.  0.
         23    2    1    2    0    0 -0.97337585400E+02 -0.16164191893E+03  0.86409379119E+03  0.88916553541E+03  0.91403248837E+02 0.  0.
         13    1    3    3    0    0  0.45757980693E+02  0.24667916917E+02  0.80772156864E+02  0.96054360893E+02  0.00000000000E+00 0. -1.
        -14    1    3    3    0    0  0.27243933014E+02  0.57479370135E+02  0.34133864191E+03  0.34721488784E+03  0.00000000000E+00 0.  1.
        -13    1    4    4    0    0 -0.37185370842E+02 -0.13614509477E+03  0.65795584375E+03  0.67292208387E+03  0.00000000000E+00 0.  1.
         13    1    4    4    0    0 -0.60152214558E+02 -0.25496824156E+02  0.20613794744E+03  0.21624345154E+03  0.00000000000E+00 0. -1.
         -3    1    1    2    0  502  0.24335671692E+02  0.79494631875E+02  0.51007321949E+02  0.97536497302E+02  0.00000000000E+00 0.  1.
<scales pt_clust_5="13000.00000" pt_clust_6="13000.00000" pt_clust_7="13000.00000" pt_clust_8="13000.00000" pt_clust_9="83.13616"></scales>
<clustering>
<clus scale="   78.947">  5  6 -1 -1</clus>
<clus scale="   83.136">  2  9  1 -1</clus>
<clus scale="   91.403">  7  8 -1 -1</clus>
<clus scale="  165.413">  1  5  2 -1</clus>
<clus scale="   83.136">  2  5  1 -1</clus>
</clustering>
</event>
<event>
 9    1  0.6345107E-005  0.1701968E+03  0.7546771E-02  0.1178714E+00
         21   -1    0    0  501  502  0.00000000000E+00  0.00000000000E+00  0.51929438559E+02  0.51929438559E+02  0.00000000000E+00 0.  1.
          1   -1    0    0  502    0 -0.00000000000E+00 -0.00000000000E+00 -0.15316692510E+04  0.15316692510E+04  0.00000000000E+00 0. -1.
         23    2    1    2    0    0  0.73416867169E+02  0.14428761614E+03 -0.73523497438E+03  0.75791383542E+03  0.87486923697E+02 0.  0.
        -24    2    1    2    0    0 -0.95895703902E+02 -0.52997708749E+02 -0.85505360639E+02  0.16001267015E+03  0.79297823110E+02 0.  0.
         11    1    4    4    0    0  0.18902893286E+01 -0.29322997676E+02 -0.23364255660E+01  0.29476605484E+02  0.00000000000E+00 0. -1.
        -12    1    4    4    0    0 -0.97785993231E+02 -0.23674711073E+02 -0.83168935073E+02  0.13053606466E+03  0.00000000000E+00 0.  1.
        -13    1    3    3    0    0  0.46055900333E+02  0.14666344875E+03 -0.66413513534E+03  0.68169405979E+03  0.00000000000E+00 0. -1.
         13    1    3    3    0    0  0.27360966837E+02 -0.23758326036E+01 -0.71099839035E+02  0.76219775634E+02  0.00000000000E+00 0.  1.
          2    1    1    2  501    0  0.22478836733E+02 -0.91289907395E+02 -0.65899947741E+03  0.66567218397E+03  0.00000000000E+00 0. -1.
<scales pt_clust_5="13000.00000" pt_clust_6="13000.00000" pt_clust_7="13000.00000" pt_clust_8="13000.00000" pt_clust_9="94.01678"></scales>
<clustering>
<clus scale="   79.298">  5  6 -1 -1</clus>
<clus scale="   87.487">  7  8 -1 -1</clus>
<clus scale="   94.017">  1  9  2 -1</clus>
<clus scale="  166.136">  1  5  2 -1</clus>
<clus scale="   94.017">  1  5  2 -1</clus>
</clustering>
</event>
<event>
 9    1  0.6345107E-005  0.1001482E+03  0.7546771E-02  0.1300137E+00
         21   -1    0    0  501  502  0.00000000000E+00  0.00000000000E+00  0.17242894184E+03  0.17242894184E+03  0.00000000000E+00 0.  1.
         -2   -1    0    0    0  501 -0.00000000000E+00 -0.00000000000E+00 -0.10699979983E+03  0.10699979983E+03  0.00000000000E+00 0.  1.
        -24    2    1    2    0    0 -0.84179426657E+01 -0.50156088452E+02 -0.49032137340E+02  0.89337623756E+02  0.54686063660E+02 0.  0.
         23    2    1    2    0    0 -0.20275571926E+02 -0.59865259780E+00  0.73771664757E+02  0.11899255075E+03  0.91134578565E+02 0.  0.
         13    1    3    3    0    0  0.17605534997E+02 -0.31326412351E+02 -0.44024541358E+02  0.56828331096E+02  0.00000000000E+00 0. -1.
        -14    1    3    3    0    0 -0.26023477663E+02 -0.18829676102E+02 -0.50075959815E+01  0.32509292660E+02  0.00000000000E+00 0.  1.
        -11    1    4    4    0    0 -0.32169133689E+02  0.39555880130E+02  0.34342645378E+02  0.61473068141E+02  0.00000000000E+00 0. -1.
         11    1    4    4    0    0  0.11893561763E+02 -0.40154532727E+02  0.39429019379E+02  0.57519482605E+02  0.00000000000E+00 0.  1.
         -1    1    1    2    0  502  0.28693514592E+02  0.50754741050E+02  0.40689614594E+02  0.71098567176E+02  0.00000000000E+00 0.  1.
<scales pt_clust_5="13000.00000" pt_clust_6="13000.00000" pt_clust_7="13000.00000" pt_clust_8="13000.00000" pt_clust_9="58.30404"></scales>
<clustering>
<clus scale="   54.686">  5  6 -1 -1</clus>
<clus scale="   58.304">  1  9  2 -1</clus>
<clus scale="   68.664">  2  5  1 -1</clus>
<clus scale="   91.135">  7  8 -1 -1</clus>
<clus scale="   58.304">  1  5  2 -1</clus>
</clustering>
</event>
<event>
 9    1  0.6345107E-005  0.1207897E+03  0.7546771E-02  0.1244734E+00
          1   -1    0    0  502    0 -0.00000000000E+00  0.00000000000E+00  0.59027332961E+03  0.59027332961E+03  0.00000000000E+00 0. -1.
         21   -1    0    0  501  502  0.00000000000E+00 -0.00000000000E+00 -0.50927739136E+02  0.50927739136E+02  0.00000000000E+00 0. -1.
        -24    2    1    2    0    0  0.77950054981E+02 -0.21253157640E+02  0.34982998607E+03  0.36813080544E+03  0.81310288269E+02 0.  0.
         23    2    1    2    0    0 -0.82183980021E+02 -0.26381523373E+02  0.68118077068E+02  0.14259287599E+03  0.90788019658E+02 0.  0.
         13    1    3    3    0    0  0.20965640142E+02 -0.35893861891E+02  0.23962711181E+03  0.24320583895E+03  0.00000000000E+00 0. -1.
        -14    1    3    3    0    0  0.56984414840E+02  0.14640704252E+02  0.11020287426E+03  0.12492496648E+03  0.00000000000E+00 0.  1.
        -11    1    4    4    0    0 -0.65321765272E+02 -0.56749494768E+02  0.63974470035E+02  0.10761120291E+03  0.00000000000E+00 0. -1.
         11    1    4    4    0    0 -0.16862214749E+02  0.30367971395E+02  0.41436070338E+01  0.34981673089E+02  0.00000000000E+00 0.  1.
          2    1    1    2  501    0  0.42339250401E+01  0.47634681013E+02  0.12139752734E+03  0.13047738731E+03  0.00000000000E+00 0. -1.
<scales pt_clust_5="13000.00000" pt_clust_6="13000.00000" pt_clust_7="13000.00000" pt_clust_8="13000.00000" pt_clust_9="47.82250"></scales>
<clustering>
<clus scale="   47.822">  2  9  1 -1</clus>
<clus scale="   81.310">  5  6 -1 -1</clus>
<clus scale="   90.788">  7  8 -1 -1</clus>
<clus scale="  113.838">  1  5  2 -1</clus>
<clus scale="   47.822">  2  5  1 -1</clus>
</clustering>
</event>
<event>
 9    1  0.6345107E-005  0.1138651E+03  0.7546771E-02  0.1256081E+00
         21   -1    0    0  501  502  0.00000000000E+00  0.00000000000E+00  0.85372449970E+02  0.85372449970E+02  0.00000000000E+00 0.  1.
         -4   -1    0    0    0  501 -0.00000000000E+00 -0.00000000000E+00 -0.32756078767E+03  0.32756078767E+03  0.00000000000E+00 0.  1.
        -24    2    1    2    0    0  0.52656862786E+02  0.25549966287E+02 -0.19304423376E+03  0.21950539161E+03  0.86550533120E+02 0.  0.
         23    2    1    2    0    0 -0.98466207785E+02 -0.28751890342E+01 -0.31279429124E+02  0.13928185616E+03  0.93365796635E+02 0.  0.
         13    1    3    3    0    0  0.72542558938E+02  0.95993008464E+01 -0.10599558793E+03  0.12880075347E+03  0.00000000000E+00 0. -1.
        -14    1    3    3    0    0 -0.19885696153E+02  0.15950665441E+02 -0.87048645831E+02  0.90704638142E+02  0.00000000000E+00 0.  1.
        -11    1    4    4    0    0 -0.10825755039E+03  0.20535609840E+02 -0.22760741427E+02  0.11251426505E+03  0.00000000000E+00 0.  1.
         11    1    4    4    0    0  0.97913426073E+01 -0.23410798874E+02 -0.85186876970E+01  0.26767591114E+02  0.00000000000E+00 0. -1.
         -3    1    1    2    0  502  0.45809344999E+02 -0.22674777253E+02 -0.17864674820E+02  0.54145989871E+02  0.00000000000E+00 0.  1.
<scales pt_clust_5="13000.00000" pt_clust_6="13000.00000" pt_clust_7="13000.00000" pt_clust_8="13000.00000" pt_clust_9="51.11401"></scales>
<clustering>
<clus scale="   51.114">  1  9  2 -1</clus>
<clus scale="   86.551">  5  6 -1 -1</clus>
<clus scale="   93.366">  7  8 -1 -1</clus>
<clus scale="  108.347">  2  5  1 -1</clus>
<clus scale="   51.114">  1  5  2 -1</clus>
</clustering>
</event>
<event>
 9    1  0.6345107E-005  0.1110686E+03  0.7546771E-02  0.1266819E+00
         21   -1    0    0  501  502  0.00000000000E+00  0.00000000000E+00  0.25153249062E+02  0.25153249062E+02  0.00000000000E+00 0. -1.
          1   -1    0    0  502    0 -0.00000000000E+00 -0.00000000000E+00 -0.11241027358E+04  0.11241027358E+04  0.00000000000E+00 0. -1.
        -24    2    1    2    0    0 -0.55191014323E+02  0.27538569295E+02 -0.56105970371E+03  0.56876402041E+03  0.70000706666E+02 0.  0.
         23    2    1    2    0    0  0.85279026649E+02  0.14485577066E+02 -0.18357912338E+03  0.22243140965E+03  0.91060930846E+02 0.  0.
         13    1    3    3    0    0 -0.60641003075E+02  0.18142349334E+02 -0.26311850898E+03  0.27062488035E+03  0.00000000000E+00 0. -1.
        -14    1    3    3    0    0  0.54499887517E+01  0.93962199610E+01 -0.29794119472E+03  0.29813914007E+03  0.00000000000E+00 0.  1.
        -13    1    4    4    0    0  0.27968756736E+02  0.70627674009E+01 -0.15555276582E+03  0.15820492089E+03  0.00000000000E+00 0.  1.
         13    1    4    4    0    0  0.57310269912E+02  0.74228096650E+01 -0.28026357560E+02  0.64226488763E+02  0.00000000000E+00 0. -1.
          2    1    1    2  501    0 -0.30088012325E+02 -0.42024146360E+02 -0.35431065967E+03  0.35806055482E+03  0.00000000000E+00 0. -1.
<scales pt_clust_5="13000.00000" pt_clust_6="13000.00000" pt_clust_7="13000.00000" pt_clust_8="13000.00000" pt_clust_9="51.68481"></scales>
<clustering>
<clus scale="   51.685">  1  9  2 -1</clus>
<clus scale="   70.001">  5  6 -1 -1</clus>
<clus scale="   91.061">  7  8 -1 -1</clus>
<clus scale="   94.574">  2  5  1 -1</clus>
<clus scale="   51.685">  1  5  2 -1</clus>
</clustering>
</event>
<event>
 9    1  0.6345107E-005  0.1028446E+03  0.7546771E-02  0.1280146E+00
         -2   -1    0    0    0  501 -0.00000000000E+00  0.00000000000E+00  0.14957446996E+03  0.14957446996E+03  0.00000000000E+00 0.  1.
         21   -1    0    0  501  502  0.00000000000E+00 -0.00000000000E+00 -0.30100457427E+03  0.30100457427E+03  0.00000000000E+00 0.  1.
         23    2    1    2    0    0 -0.43973771869E+02 -0.37472520047E+02  0.10010981717E+03  0.14778191208E+03  0.92084937287E+02 0.  0.
        -24    2    1    2    0    0 -0.39142825146E+01 -0.30094000075E+02 -0.12095239984E+03  0.14816336739E+03  0.80012061354E+02 0.  0.
         11    1    4    4    0    0 -0.18515317966E+02  0.20017013156E+02 -0.70419925100E+02  0.75514658618E+02  0.00000000000E+00 0. -1.
        -12    1    4    4    0    0  0.14601035452E+02 -0.50111013231E+02 -0.50532474736E+02  0.72648708772E+02  0.00000000000E+00 0.  1.
        -13    1    3    3    0    0 -0.16767032214E+02 -0.25020811546E+02  0.11170396639E+03  0.11569334678E+03  0.00000000000E+00 0.  1.
         13    1    3    3    0    0 -0.27206739655E+02 -0.12451708501E+02 -0.11594149229E+02  0.32088565309E+02  0.00000000000E+00 0. -1.
         -1    1    1    2    0  502  0.47888054384E+02  0.67566520123E+02 -0.13058752164E+03  0.15463376475E+03  0.00000000000E+00 0.  1.
<scales pt_clust_5="13000.00000" pt_clust_6="13000.00000" pt_clust_7="13000.00000" pt_clust_8="13000.00000" pt_clust_9="82.81606"></scales>
<clustering>
<clus scale="   80.012">  5  6 -1 -1</clus>
<clus scale="   82.816">  2  9  1 -1</clus>
<clus scale="   92.085">  7  8 -1 -1</clus>
<clus scale="   92.192">  2  5  1 -1</clus>
<clus scale="   82.816">  2  5  1 -1</clus>
</clustering>
</event>
<event>
 9    1  0.6345107E-005  0.1217705E+03  0.7546771E-02  0.1243190E+00
          1   -1    0    0  502    0 -0.00000000000E+00  0.00000000000E+00  0.18595722568E+03  0.18595722568E+03  0.00000000000E+00 0. -1.
         21   -1    0    0  501  502  0.00000000000E+00 -0.00000000000E+00 -0.34936626478E+03  0.34936626478E+03  0.00000000000E+00 0. -1.
        -24    2    1    2    0    0  0.52100855326E+02  0.79314218988E+02  0.10148995270E+03  0.16111981997E+03  0.81572920925E+02 0.  0.
         23    2    1    2    0    0 -0.16230697711E+02 -0.53675548914E+02 -0.15520132768E+01  0.10719123501E+03  0.91340308834E+02 0.  0.
         11    1    3    3    0    0  0.31197904410E+02  0.69969913365E+02  0.11218581296E+03  0.13584827804E+03  0.00000000000E+00 0. -1.
        -12    1    3    3    0    0  0.20902950916E+02  0.93443056222E+01 -0.10695860266E+02  0.25271541927E+02  0.00000000000E+00 0.  1.
        -13    1    4    4    0    0  0.34611484124E+01 -0.64495377621E+02  0.27724054633E+02  0.70286958165E+02  0.00000000000E+00 0.  1.
         13    1    4    4    0    0 -0.19691846124E+02  0.10819828707E+02 -0.29276067910E+02  0.36904276843E+02  0.00000000000E+00 0. -1.
          2    1    1    2  501    0 -0.35870157614E+02 -0.25638670073E+02 -0.26334697852E+03  0.26701243548E+03  0.00000000000E+00 0. -1.
<scales pt_clust_5="13000.00000" pt_clust_6="13000.00000" pt_clust_7="13000.00000" pt_clust_8="13000.00000" pt_clust_9="44.09092"></scales>
<clustering>
<clus scale="   44.091">  2  9  1 -1</clus>
<clus scale="   81.573">  5  6 -1 -1</clus>
<clus scale="   91.340">  7  8 -1 -1</clus>
<clus scale="  114.626">  1  5  2 -1</clus>
<clus scale="   44.091">  2  5  1 -1</clus>
</clustering>
</event>
<event>
 9    1  0.6345107E-005  0.1782176E+03  0.7546771E-02  0.1171214E+00
          1   -1    0    0  502    0 -0.00000000000E+00  0.00000000000E+00  0.35368794856E+02  0.35368794856E+02  0.00000000000E+00 0. -1.
         21   -1    0    0  501  502  0.00000000000E+00 -0.00000000000E+00 -0.10542455724E+04  0.10542455724E+04  0.00000000000E+00 0. -1.
        -24    2    1    2    0    0  0.30226891615E+02 -0.16101472638E+03 -0.43721725915E+03  0.47382752630E+03  0.80710506730E+02 0.  0.
         23    2    1    2    0    0 -0.10971248079E+02  0.13648270340E+03 -0.53013174932E+03  0.55555635909E+03  0.94102602903E+02 0.  0.
         13    1    3    3    0    0  0.37322896905E+01 -0.73629869413E+02 -0.98602519601E+02  0.12311679222E+03  0.00000000000E+00 0. -1.
        -14    1    3    3    0    0  0.26494601924E+02 -0.87384856967E+02 -0.33861473955E+03  0.35071073408E+03  0.00000000000E+00 0.  1.
        -11    1    4    4    0    0 -0.46200404523E+02  0.43758144113E+02 -0.26341800677E+03  0.27099501627E+03  0.00000000000E+00 0.  1.
         11    1    4    4    0    0  0.35229156444E+02  0.92724559289E+02 -0.26671374255E+03  0.28456134281E+03  0.00000000000E+00 0. -1.
          2    1    1    2  501    0 -0.19255643536E+02  0.24532022979E+02 -0.51527769047E+02  0.60230481838E+02  0.00000000000E+00 0. -1.
<scales pt_clust_5="13000.00000" pt_clust_6="13000.00000" pt_clust_7="13000.00000" pt_clust_8="13000.00000" pt_clust_9="31.18655"></scales>
<clustering>
<clus scale="   31.187">  2  9  1 -1</clus>
<clus scale="   80.711">  5  6 -1 -1</clus>
<clus scale="   94.103">  7  8 -1 -1</clus>
<clus scale="  171.524">  1  5  2 -1</clus>
<clus scale="   31.187">  2  5  1 -1</clus>
</clustering>
</event>
<event>
 9    1  0.6345107E-005  0.9962642E+02  0.7546771E-02  0.1286695E+00
         21   -1    0    0  501  502  0.00000000000E+00  0.00000000000E+00  0.32649329215E+03  0.32649329215E+03  0.00000000000E+00 0. -1.
         -2   -1    0    0    0  501 -0.00000000000E+00 -0.00000000000E+00 -0.16850213557E+03  0.16850213557E+03  0.00000000000E+00 0.  1.
         23    2    1    2    0    0 -0.39743800361E+02  0.67771825304E+01 -0.13671914147E+03  0.16864014985E+03  0.90121454872E+02 0.  0.
        -24    2    1    2    0    0  0.67624291176E+02 -0.17713631421E+02  0.18812026658E+03  0.21563778833E+03  0.78889819119E+02 0.  0.
         11    1    4    4    0    0  0.69714925276E+02 -0.78834506191E+01  0.77413130108E+02  0.10447541487E+03  0.00000000000E+00 0. -1.
        -12    1    4    4    0    0 -0.20906341000E+01 -0.98301808016E+01  0.11070713648E+03  0.11116237346E+03  0.00000000000E+00 0.  1.
        -13    1    3    3    0    0 -0.46889634015E+02  0.29367877530E+02 -0.13377394675E+03  0.14476387269E+03  0.00000000000E+00 0.  1.
         13    1    3    3    0    0  0.71458336538E+01 -0.22590695000E+02 -0.29451947251E+01  0.23876277163E+02  0.00000000000E+00 0. -1.
         -1    1    1    2    0  502 -0.27880490815E+02  0.10936448890E+02  0.10659003147E+03  0.11071748954E+03  0.00000000000E+00 0.  1.
<scales pt_clust_5="13000.00000" pt_clust_6="13000.00000" pt_clust_7="13000.00000" pt_clust_8="13000.00000" pt_clust_9="29.94875"></scales>
<clustering>
<clus scale="   29.949">  1  9  2 -1</clus>
<clus scale="   78.890">  5  6 -1 -1</clus>
<clus scale="   89.594">  1  5  2 -1</clus>
<clus scale="   90.121">  7  8 -1 -1</clus>
<clus scale="   29.949">  1  5  2 -1</clus>
</clustering>
</event>
<event>
 9    1  0.6345107E-005  0.9894170E+02  0.7546771E-02  0.1286938E+00
         21   -1    0    0  501  502  0.00000000000E+00  0.00000000000E+00  0.27499021934E+03  0.27499021934E+03  0.00000000000E+00 0. -1.
          3   -1    0    0  502    0 -0.00000000000E+00 -0.00000000000E+00 -0.62434489049E+02  0.62434489049E+02  0.00000000000E+00 0. -1.
         23    2    1    2    0    0 -0.19931113930E+02  0.24628065576E+02  0.18354658335E+02  0.97505106134E+02  0.90369028562E+02 0.  0.
        -24    2    1    2    0    0  0.27820910729E+02 -0.59675747726E+02  0.14776030499E+03  0.18120560262E+03  0.81652708144E+02 0.  0.
         11    1    4    4    0    0  0.54049966584E+02 -0.40140597041E+02  0.71396297467E+02  0.98133061252E+02  0.00000000000E+00 0. -1.
        -12    1    4    4    0    0 -0.26229055855E+02 -0.19535150685E+02  0.76364007525E+02  0.83072541364E+02  0.00000000000E+00 0.  1.
        -11    1    3    3    0    0  0.82818054179E+01 -0.28794953227E+02 -0.88578631874E+01  0.31244189421E+02  0.00000000000E+00 0.  1.
         11    1    3    3    0    0 -0.28212919348E+02  0.53423018803E+02  0.27212521523E+02  0.66260916714E+02  0.00000000000E+00 0. -1.
          4    1    1    2  501    0 -0.78897967990E+01  0.35047682150E+02  0.46440766967E+02  0.58713999643E+02  0.00000000000E+00 0. -1.
<scales pt_clust_5="13000.00000" pt_clust_6="13000.00000" pt_clust_7="13000.00000" pt_clust_8="13000.00000" pt_clust_9="35.92477"></scales>
<clustering>
<clus scale="   35.925">  1  9  2 -1</clus>
<clus scale="   81.653">  5  6 -1 -1</clus>
<clus scale="   90.369">  7  8 -1 -1</clus>
<clus scale="   91.050">  1  5  2 -1</clus>
<clus scale="   35.925">  1  5  2 -1</clus>
</clustering>
</event>
<event>
 9    1  0.6345107E-005  0.1138732E+03  0.7546771E-02  0.1257321E+00
         21   -1    0    0  501  502  0.00000000000E+00  0.00000000000E+00  0.11389182831E+03  0.11389182831E+03  0.00000000000E+00 0.  1.
          3   -1    0    0  502    0 -0.00000000000E+00 -0.00000000000E+00 -0.22372884354E+03  0.22372884354E+03  0.00000000000E+00 0. -1.
         23    2    1    2    0    0 -0.35507446170E+02  0.70533641569E+02 -0.90463819603E+02  0.15018463219E+03  0.90199488705E+02 0.  0.
        -24    2    1    2    0    0 -0.38634154492E+02 -0.67209679964E+02 -0.21457907799E+02  0.11319069170E+03  0.79636373004E+02 0.  0.
         13    1    4    4    0    0 -0.16035030970E+02  0.16882139453E+02  0.86343363865E+00  0.23299664555E+02  0.00000000000E+00 0. -1.
        -14    1    4    4    0    0 -0.22599123523E+02 -0.84091819417E+02 -0.22321341438E+02  0.89891027141E+02  0.00000000000E+00 0.  1.
        -11    1    3    3    0    0  0.20583919308E+02 -0.83116426994E+01 -0.10037673996E+02  0.24362595052E+02  0.00000000000E+00 0.  1.
         11    1    3    3    0    0 -0.56091365478E+02  0.78845284268E+02 -0.80426145608E+02  0.12582203714E+03  0.00000000000E+00 0. -1.
          4    1    1    2  501    0  0.74141600662E+02 -0.33239616042E+01  0.20847121672E+01  0.74245347964E+02  0.00000000000E+00 0. -1.
<scales pt_clust_5="13000.00000" pt_clust_6="13000.00000" pt_clust_7="13000.00000" pt_clust_8="13000.00000" pt_clust_9="74.21607"></scales>
<clustering>
<clus scale="   74.216">  1  9  2 -1</clus>
<clus scale="   79.636">  5  6 -1 -1</clus>
<clus scale="   90.199">  7  8 -1 -1</clus>
<clus scale="  105.703">  1  5  2 -1</clus>
<clus scale="   74.216">  1  5  2 -1</clus>
</clustering>
</event>
<event>
 9    1  0.6345107E-005  0.1604552E+03  0.7546771E-02  0.1190219E+00
          1   -1    0    0  502    0 -0.00000000000E+00  0.00000000000E+00  0.12637659051E+04  0.12637659051E+04  0.00000000000E+00 0. -1.
         21   -1    0    0  501  502  0.00000000000E+00 -0.00000000000E+00 -0.45462670072E+02  0.45462670072E+02  0.00000000000E+00 0. -1.
        -24    2    1    2    0    0 -0.10152018467E+03  0.11707082779E+03  0.86935117930E+03  0.88665636863E+03  0.79850588404E+02 0.  0.
         23    2    1    2    0    0  0.70237153794E+02 -0.65283445551E+02  0.33486884071E+03  0.36045217819E+03  0.92700842727E+02 0.  0.
         11    1    3    3    0    0 -0.93781331753E+02  0.11896941448E+03  0.86370754499E+03  0.87689188789E+03  0.00000000000E+00 0. -1.
        -12    1    3    3    0    0 -0.77388529205E+01 -0.18985866886E+01  0.56436343011E+01  0.97644807370E+01  0.00000000000E+00 0.  1.
        -11    1    4    4    0    0  0.15119651330E+02 -0.53724896503E+02  0.69311634553E+02  0.88989162514E+02  0.00000000000E+00 0. -1.
         11    1    4    4    0    0  0.55117502464E+02 -0.11558549048E+02  0.26555720616E+03  0.27146301567E+03  0.00000000000E+00 0.  1.
          2    1    1    2  501    0  0.31283030879E+02 -0.51787382242E+02  0.14083215044E+02  0.62120028384E+02  0.00000000000E+00 0. -1.
<scales pt_clust_5="13000.00000" pt_clust_6="13000.00000" pt_clust_7="13000.00000" pt_clust_8="13000.00000" pt_clust_9="60.50257"></scales>
<clustering>
<clus scale="   60.503">  2  9  1 -1</clus>
<clus scale="   79.851">  5  6 -1 -1</clus>
<clus scale="   92.701">  7  8 -1 -1</clus>
<clus scale="  153.390">  1  5  2 -1</clus>
<clus scale="   60.503">  2  5  1 -1</clus>
</clustering>
</event>
<event>
 9    1  0.6345107E-005  0.1370425E+03  0.7546771E-02  0.1224929E+00
         -2   -1    0    0    0  501 -0.00000000000E+00  0.00000000000E+00  0.28421227566E+03  0.28421227566E+03  0.00000000000E+00 0.  1.
         21   -1    0    0  501  502  0.00000000000E+00 -0.00000000000E+00 -0.13769058283E+03  0.13769058283E+03  0.00000000000E+00 0. -1.
         23    2    1    2    0    0 -0.96205123609E+02  0.10327514853E+02  0.82932502193E+02  0.16639226575E+03  0.10698833025E+03 0.  0.
        -24    2    1    2    0    0  0.61343488794E+02  0.37485898209E+01 -0.66170130807E+02  0.12041450914E+03  0.79649810150E+02 0.  0.
         11    1    4    4    0    0  0.32118426482E+02  0.16154844016E+02 -0.78510824546E+02  0.86351154456E+02  0.00000000000E+00 0. -1.
        -12    1    4    4    0    0  0.29225062312E+02 -0.12406254196E+02  0.12340693739E+02  0.34063354683E+02  0.00000000000E+00 0.  1.
        -13    1    3    3    0    0 -0.66302928082E+02  0.47579836725E+02  0.85958453083E+02  0.11852752757E+03  0.00000000000E+00 0.  1.
         13    1    3    3    0    0 -0.29902195527E+02 -0.37252321872E+02 -0.30259508899E+01  0.47864738179E+02  0.00000000000E+00 0. -1.
         -1    1    1    2    0  502  0.34861634815E+02 -0.14076104674E+02  0.12975932144E+03  0.13509608360E+03  0.00000000000E+00 0.  1.
<scales pt_clust_5="13000.00000" pt_clust_6="13000.00000" pt_clust_7="13000.00000" pt_clust_8="13000.00000" pt_clust_9="37.59617"></scales>
<clustering>
<clus scale="   37.596">  2  9  1 -1</clus>
<clus scale="   79.650">  5  6 -1 -1</clus>
<clus scale="  106.988">  7  8 -1 -1</clus>
<clus scale="  116.954">  2  5  1 -1</clus>
<clus scale="   37.596">  2  5  1 -1</clus>
</clustering>
</event>
<event>
 9    1  0.6345107E-005  0.1061749E+03  0.7546771E-02  0.1278285E+00
         21   -1    0    0  501  502  0.00000000000E+00  0.00000000000E+00  0.20010687425E+03  0.20010687425E+03  0.00000000000E+00 0.  1.
          3   -1    0    0  502    0 -0.00000000000E+00 -0.00000000000E+00 -0.14383095643E+03  0.14383095643E+03  0.00000000000E+00 0. -1.
         23    2    1    2    0    0 -0.44413782981E+02  0.34138179352E+02 -0.21227383037E+02  0.10859950969E+03  0.90582847744E+02 0.  0.
        -24    2    1    2    0    0  0.67444720144E+02  0.80588826137E+01  0.13191119908E+03  0.16273504632E+03  0.66846054451E+02 0.  0.
         13    1    4    4    0    0  0.58619335184E+02 -0.17451637564E+02  0.58974650764E+02  0.84963495360E+02  0.00000000000E+00 0. -1.
        -14    1    4    4    0    0  0.88253849602E+01  0.25510520178E+02  0.72936548312E+02  0.77771550962E+02  0.00000000000E+00 0.  1.
        -11    1    3    3    0    0 -0.66492880298E+02  0.83330311615E+00 -0.14833532030E+02  0.68132453330E+02  0.00000000000E+00 0.  1.
         11    1    3    3    0    0  0.22079097317E+02  0.33304876236E+02 -0.63938510070E+01  0.40467056356E+02  0.00000000000E+00 0. -1.
          4    1    1    2  501    0 -0.23030937163E+02 -0.42197061966E+02 -0.54407898215E+02  0.72603274674E+02  0.00000000000E+00 0. -1.
<scales pt_clust_5="13000.00000" pt_clust_6="13000.00000" pt_clust_7="13000.00000" pt_clust_8="13000.00000" pt_clust_9="48.07305"></scales>
<clustering>
<clus scale="   48.073">  1  9  2 -1</clus>
<clus scale="   66.846">  5  6 -1 -1</clus>
<clus scale="   86.812">  1  5  2 -1</clus>
<clus scale="   90.583">  7  8 -1 -1</clus>
<clus scale="   48.073">  1  5  2 -1</clus>
</clustering>
</event>
<event>
 9    1  0.6345107E-005  0.2378906E+03  0.7546771E-02  0.1132472E+00
         21   -1    0    0  501  502  0.00000000000E+00  0.00000000000E+00  0.46194274308E+03  0.46194274308E+03  0.00000000000E+00 0. -1.
          1   -1    0    0  502    0 -0.00000000000E+00 -0.00000000000E+00 -0.33915143981E+03  0.33915143981E+03  0.00000000000E+00 0. -1.
        -24    2    1    2    0    0 -0.14170066843E+03 -0.76049977929E+02  0.67426232924E+02  0.19231209109E+03  0.81086157372E+02 0.  0.
         23    2    1    2    0    0 -0.15366146866E+03  0.13962945963E+03  0.17300416587E+03  0.28455979257E+03  0.89081991390E+02 0.  0.
         13    1    3    3    0    0 -0.39280767381E+02  0.24432752019E+01 -0.11558605321E+02  0.41018893655E+02  0.00000000000E+00 0. -1.
        -14    1    3    3    0    0 -0.10241990105E+03 -0.78493253131E+02  0.78984838245E+02  0.15129319744E+03  0.00000000000E+00 0.  1.
        -13    1    4    4    0    0 -0.92053267889E+02  0.78228350324E+02  0.43175644460E+02  0.12828723708E+03  0.00000000000E+00 0.  1.
         13    1    4    4    0    0 -0.61608200774E+02  0.61401109302E+02  0.12982852141E+03  0.15627255549E+03  0.00000000000E+00 0. -1.
          2    1    1    2  501    0  0.29536213709E+03 -0.63579481696E+02 -0.11763909553E+03  0.32422229923E+03  0.00000000000E+00 0. -1.
<scales pt_clust_5="13000.00000" pt_clust_6="13000.00000" pt_clust_7="13000.00000" pt_clust_8="13000.00000" pt_clust_9="220.58188"></scales>
<clustering>
<clus scale="   81.086">  5  6 -1 -1</clus>
<clus scale="   89.082">  7  8 -1 -1</clus>
<clus scale="  180.105">  2  5  1 -1</clus>
<clus scale="  220.582">  1  9  2 -1</clus>
<clus scale="  220.582">  1  5  2 -1</clus>
</clustering>
</event>
<event>
 9    1  0.6345107E-005  0.1554110E+03  0.7546771E-02  0.1195953E+00
         21   -1    0    0  501  502  0.00000000000E+00  0.00000000000E+00  0.63068580559E+03  0.63068580559E+03  0.00000000000E+00 0. -1.
          3   -1    0    0  502    0 -0.00000000000E+00 -0.00000000000E+00 -0.89893893721E+02  0.89893893721E+02  0.00000000000E+00 0. -1.
         23    2    1    2    0    0  0.11017047677E+03 -0.52100863617E+02  0.95547720174E+02  0.18037607760E+03  0.92488532256E+02 0.  0.
        -24    2    1    2    0    0 -0.14281949225E+03  0.80938951607E+01  0.45568673851E+03  0.48442174053E+03  0.80938869129E+02 0.  0.
         11    1    4    4    0    0 -0.11677941699E+03 -0.18067806069E+02  0.26438869415E+03  0.28959499209E+03  0.00000000000E+00 0. -1.
        -12    1    4    4    0    0 -0.26040075257E+02  0.26161701230E+02  0.19129804436E+03  0.19482674844E+03  0.00000000000E+00 0.  1.
        -13    1    3    3    0    0  0.70315653132E+02 -0.75214127005E+02  0.83993731359E+02  0.13287739794E+03  0.00000000000E+00 0.  1.
         13    1    3    3    0    0  0.39854823640E+02  0.23113263388E+02  0.11553988815E+02  0.47498679659E+02  0.00000000000E+00 0. -1.
          4    1    1    2  501    0  0.32649015476E+02  0.44006968456E+02 -0.10442546815E+02  0.55781881182E+02  0.00000000000E+00 0. -1.
<scales pt_clust_5="13000.00000" pt_clust_6="13000.00000" pt_clust_7="13000.00000" pt_clust_8="13000.00000" pt_clust_9="54.79575"></scales>
<clustering>
<clus scale="   54.796">  1  9  2 -1</clus>
<clus scale="   80.939">  5  6 -1 -1</clus>
<clus scale="   92.489">  7  8 -1 -1</clus>
<clus scale="  148.827">  1  5  2 -1</clus>
<clus scale="   54.796">  1  5  2 -1</clus>
</clustering>
</event>
<event>
 9    1  0.6345107E-005  0.1037360E+03  0.7546771E-02  0.1274671E+00
          1   -1    0    0  502    0 -0.00000000000E+00  0.00000000000E+00  0.48616431212E+03  0.48616431212E+03  0.00000000000E+00 0. -1.
         21   -1    0    0  501  502  0.00000000000E+00 -0.00000000000E+00 -0.11382863211E+03  0.11382863211E+03  0.00000000000E+00 0. -1.
        -24    2    1    2    0    0  0.53702804139E+02 -0.13011470198E+02  0.43253562504E+03  0.44419278188E+03  0.84657374273E+02 0.  0.
         23    2    1    2    0    0 -0.11191542903E+02  0.32951780269E+02 -0.48374103118E+02  0.10737833014E+03  0.89325144696E+02 0.  0.
         11    1    3    3    0    0  0.71462976314E+02  0.98571486143E+01  0.30896841299E+03  0.31727842755E+03  0.00000000000E+00 0. -1.
        -12    1    3    3    0    0 -0.17760172175E+02 -0.22868618812E+02  0.12356721205E+03  0.12691435433E+03  0.00000000000E+00 0.  1.
        -11    1    4    4    0    0 -0.51506306591E+01 -0.31101968198E+02 -0.16162289046E+02  0.35427122508E+02  0.00000000000E+00 0.  1.
         11    1    4    4    0    0 -0.60409122437E+01  0.64053748467E+02 -0.32211814072E+02  0.71951207628E+02  0.00000000000E+00 0. -1.
          2    1    1    2  501    0 -0.42511261236E+02 -0.19940310071E+02 -0.11825841913E+02  0.48421832210E+02  0.00000000000E+00 0. -1.
<scales pt_clust_5="13000.00000" pt_clust_6="13000.00000" pt_clust_7="13000.00000" pt_clust_8="13000.00000" pt_clust_9="46.95555"></scales>
<clustering>
<clus scale="   46.956">  2  9  1 -1</clus>
<clus scale="   84.657">  5  6 -1 -1</clus>
<clus scale="   89.325">  7  8 -1 -1</clus>
<clus scale="   99.745">  1  5  2 -1</clus>
<clus scale="   46.956">  2  5  1 -1</clus>
</clustering>
</event>
<event>
 9    1  0.6345107E-005  0.9514069E+02  0.7546771E-02  0.1293360E+00
         -2   -1    0    0    0  501 -0.00000000000E+00  0.00000000000E+00  0.56693119572E+03  0.56693119572E+03  0.00000000000E+00 0.  1.
         21   -1    0    0  501  502  0.00000000000E+00 -0.00000000000E+00 -0.71861735936E+02  0.71861735936E+02  0.00000000000E+00 0. -1.
         23    2    1    2    0    0 -0.51958455602E+02 -0.23300436708E+02  0.17549630839E+03  0.19911320259E+03  0.74863353691E+02 0.  0.
        -24    2    1    2    0    0 -0.10021836323E+02  0.66244854796E+02 -0.68807316500E+01  0.10463060225E+03  0.80071221223E+02 0.  0.
         11    1    4    4    0    0 -0.22354536208E+01  0.41399995388E+02 -0.43243309682E+02  0.59907768305E+02  0.00000000000E+00 0. -1.
        -12    1    4    4    0    0 -0.77863827018E+01  0.24844859408E+02  0.36362578032E+02  0.44722833941E+02  0.00000000000E+00 0.  1.
        -11    1    3    3    0    0 -0.44031178854E+02  0.12510093196E+02  0.14287269685E+03  0.15002617987E+03  0.00000000000E+00 0.  1.
         11    1    3    3    0    0 -0.79272767480E+01 -0.35810529904E+02  0.32623611545E+02  0.49087022713E+02  0.00000000000E+00 0. -1.
         -1    1    1    2    0  502  0.61980291925E+02 -0.42944418088E+02  0.32645388304E+03  0.33504912682E+03  0.00000000000E+00 0.  1.
<scales pt_clust_5="13000.00000" pt_clust_6="13000.00000" pt_clust_7="13000.00000" pt_clust_8="13000.00000" pt_clust_9="75.40415"></scales>
<clustering>
<clus scale="   74.863">  7  8 -1 -1</clus>
<clus scale="   75.404">  2  9  1 -1</clus>
<clus scale="   80.071">  5  6 -1 -1</clus>
<clus scale="   90.801">  1  7  2 -1</clus>
<clus scale="   75.404">  2  5  1 -1</clus>
</clustering>
</event>
<event>
 9    1  0.6345107E-005  0.1532923E+03  0.7546771E-02  0.1197868E+00
          1   -1    0    0  502    0 -0.00000000000E+00  0.00000000000E+00  0.10012001551E+04  0.10012001551E+04  0.00000000000E+00 0. -1.
         21   -1    0    0  501  502  0.00000000000E+00 -0.00000000000E+00 -0.48996916243E+02  0.48996916243E+02  0.00000000000E+00 0. -1.
         23    2    1    2    0    0 -0.14038840258E+03  0.70115229382E+01  0.64840229632E+03  0.66938161707E+03  0.88815237198E+02 0.  0.
        -24    2    1    2    0    0  0.73913289206E+02 -0.58603126939E+02  0.96958077774E+02  0.15751161417E+03  0.80694107252E+02 0.  0.
         11    1    4    4    0    0  0.75147610695E+02 -0.75155044149E+02  0.75425240029E+02  0.13032425288E+03  0.00000000000E+00 0. -1.
        -12    1    4    4    0    0 -0.12343214890E+01  0.16551917210E+02  0.21532837745E+02  0.27187361296E+02  0.00000000000E+00 0.  1.
        -13    1    3    3    0    0 -0.42119704566E+02 -0.39162186963E+02  0.20982749683E+03  0.21756682842E+03  0.00000000000E+00 0.  1.
         13    1    3    3    0    0 -0.98268698019E+02  0.46173709901E+02  0.43857479949E+03  0.45181478865E+03  0.00000000000E+00 0. -1.
          2    1    1    2  501    0  0.66475113378E+02  0.51591604000E+02  0.20684286475E+03  0.22330384009E+03  0.00000000000E+00 0. -1.
<scales pt_clust_5="13000.00000" pt_clust_6="13000.00000" pt_clust_7="13000.00000" pt_clust_8="13000.00000" pt_clust_9="84.14655"></scales>
<clustering>
<clus scale="   80.694">  5  6 -1 -1</clus>
<clus scale="   84.147">  2  9  1 -1</clus>
<clus scale="   88.815">  7  8 -1 -1</clus>
<clus scale="  148.734">  2  5  1 -1</clus>
<clus scale="   84.147">  2  5  1 -1</clus>
</clustering>
</event>
<event>
 9    1  0.6345107E-005  0.9782042E+02  0.7546771E-02  0.1291474E+00
         -4   -1    0    0    0  501 -0.00000000000E+00  0.00000000000E+00  0.10239874658E+03  0.10239874658E+03  0.00000000000E+00 0.  1.
         21   -1    0    0  501  502  0.00000000000E+00 -0.00000000000E+00 -0.73973560897E+03  0.73973560897E+03  0.00000000000E+00 0.  1.
         23    2    1    2    0    0 -0.25932691940E+02  0.20794090099E+02  0.70254145551E+02  0.12114679757E+03  0.92930096854E+02 0.  0.
        -24    2    1    2    0    0  0.31797528426E+01  0.26741631334E+02 -0.41349812341E+03  0.42221010605E+03  0.80965732959E+02 0.  0.
         13    1    4    4    0    0 -0.80351167177E+01 -0.28094614590E+02 -0.13078338018E+03  0.13400807065E+03  0.00000000000E+00 0. -1.
        -14    1    4    4    0    0  0.11214869560E+02  0.54836245924E+02 -0.28271474323E+03  0.28820203540E+03  0.00000000000E+00 0.  1.
        -13    1    3    3    0    0 -0.42572244587E+02 -0.25413855289E+02  0.34858497727E+02  0.60608373296E+02  0.00000000000E+00 0.  1.
         13    1    3    3    0    0  0.16639552647E+02  0.46207945388E+02  0.35395647824E+02  0.60538424279E+02  0.00000000000E+00 0. -1.
         -3    1    1    2    0  502  0.22752939097E+02 -0.47535721433E+02 -0.29409288453E+03  0.29877745193E+03  0.00000000000E+00 0.  1.
<scales pt_clust_5="13000.00000" pt_clust_6="13000.00000" pt_clust_7="13000.00000" pt_clust_8="13000.00000" pt_clust_9="52.70048"></scales>
<clustering>
<clus scale="   52.700">  2  9  1 -1</clus>
<clus scale="   80.966">  5  6 -1 -1</clus>
<clus scale="   86.535">  2  5  1 -1</clus>
<clus scale="   92.930">  7  8 -1 -1</clus>
<clus scale="   52.700">  2  5  1 -1</clus>
</clustering>
</event>
<event>
 9    1  0.6345107E-005  0.2594640E+03  0.7546771E-02  0.1107937E+00
         21   -1    0    0  501  502  0.00000000000E+00  0.00000000000E+00  0.11100980499E+03  0.11100980499E+03  0.00000000000E+00 0. -1.
          1   -1    0    0  502    0 -0.00000000000E+00 -0.00000000000E+00 -0.10033940310E+04  0.10033940310E+04  0.00000000000E+00 0. -1.
         23    2    1    2    0    0 -0.13617442107E+03  0.19567633854E+03 -0.60956853958E+03  0.66060297300E+03  0.89385575270E+02 0.  0.
        -24    2    1    2    0    0  0.20225197234E+03 -0.17141900894E+03 -0.18394947215E+03  0.33243699216E+03  0.79916259348E+02 0.  0.
         11    1    4    4    0    0  0.16881871750E+03 -0.97321490601E+02 -0.14076670521E+03  0.24038822185E+03  0.00000000000E+00 0. -1.
        -12    1    4    4    0    0  0.33433254839E+02 -0.74097518340E+02 -0.43182766940E+02  0.92048770301E+02  0.00000000000E+00 0.  1.
        -11    1    3    3    0    0  0.26545092912E+01  0.45058348411E+02 -0.16589499701E+03  0.17192571424E+03  0.00000000000E+00 0.  1.
         11    1    3    3    0    0 -0.13882893036E+03  0.15061799013E+03 -0.44367354257E+03  0.48867725876E+03  0.00000000000E+00 0. -1.
          2    1    1    2  501    0 -0.66077551265E+02 -0.24257329595E+02 -0.98866214305E+02  0.12136387086E+03  0.00000000000E+00 0. -1.
<scales pt_clust_5="13000.00000" pt_clust_6="13000.00000" pt_clust_7="13000.00000" pt_clust_8="13000.00000" pt_clust_9="70.38939"></scales>
<clustering>
<clus scale="   70.389">  1  9  2 -1</clus>
<clus scale="   79.916">  5  6 -1 -1</clus>
<clus scale="   89.386">  7  8 -1 -1</clus>
<clus scale="  256.356">  1  5  2 -1</clus>
<clus scale="   70.389">  1  5  2 -1</clus>
</clustering>
</event>
<event>
 9    1  0.6345107E-005  0.1210628E+03  0.7546771E-02  0.1245724E+00
         -2   -1    0    0    0  501 -0.00000000000E+00  0.00000000000E+00  0.23087278588E+03  0.23087278588E+03  0.00000000000E+00 0.  1.
         21   -1    0    0  501  502  0.00000000000E+00 -0.00000000000E+00 -0.19192069171E+03  0.19192069171E+03  0.00000000000E+00 0. -1.
         23    2    1    2    0    0  0.31185830917E+02 -0.72091030744E+02  0.18292191584E+03  0.21876186947E+03  0.90700912219E+02 0.  0.
        -24    2    1    2    0    0 -0.22058291206E+02  0.90939131780E+02 -0.10648580342E+03  0.16109427565E+03  0.76522189062E+02 0.  0.
         11    1    4    4    0    0 -0.69889312094E+01  0.94442841892E+02 -0.11008111857E+03  0.14521070281E+03  0.00000000000E+00 0. -1.
        -12    1    4    4    0    0 -0.15069359997E+02 -0.35037101117E+01  0.35953151540E+01  0.15883572845E+02  0.00000000000E+00 0.  1.
        -13    1    3    3    0    0  0.55699783362E+02 -0.28433540314E+02  0.13794119010E+03  0.15145528716E+03  0.00000000000E+00 0.  1.
         13    1    3    3    0    0 -0.24513952444E+02 -0.43657490429E+02  0.44980725736E+02  0.67306582314E+02  0.00000000000E+00 0. -1.
         -1    1    1    2    0  502 -0.91275397110E+01 -0.18848101036E+02 -0.37484018255E+02  0.42937332456E+02  0.00000000000E+00 0.  1.
<scales pt_clust_5="13000.00000" pt_clust_6="13000.00000" pt_clust_7="13000.00000" pt_clust_8="13000.00000" pt_clust_9="20.94189"></scales>
<clustering>
<clus scale="   20.942">  2  9  1 -1</clus>
<clus scale="   76.522">  5  6 -1 -1</clus>
<clus scale="   90.701">  7  8 -1 -1</clus>
<clus scale="  110.839">  2  5  1 -1</clus>
<clus scale="   20.942">  2  5  1 -1</clus>
</clustering>
</event>
<event>
 9    1  0.6345107E-005  0.9834019E+02  0.7546771E-02  0.1289291E+00
          1   -1    0    0  502    0 -0.00000000000E+00  0.00000000000E+00  0.81667132445E+02  0.81667132445E+02  0.00000000000E+00 0. -1.
         21   -1    0    0  501  502  0.00000000000E+00 -0.00000000000E+00 -0.74047477019E+03  0.74047477019E+03  0.00000000000E+00 0. -1.
        -24    2    1    2    0    0  0.24265712053E+02 -0.13765684559E+02  0.29908272434E+02  0.91439036237E+02  0.81781866786E+02 0.  0.
         23    2    1    2    0    0 -0.98821051768E+02 -0.28203057846E+01 -0.23909399738E+03  0.27463986831E+03  0.92127972331E+02 0.  0.
         13    1    3    3    0    0 -0.91244287883E+01 -0.40705785959E+02  0.24011050720E+02  0.48132595691E+02  0.00000000000E+00 0. -1.
        -14    1    3    3    0    0  0.33390140841E+02  0.26940101399E+02  0.58972217140E+01  0.43306440546E+02  0.00000000000E+00 0.  1.
        -13    1    4    4    0    0 -0.25072031474E+02  0.16704454795E+02 -0.78451725362E+01  0.31131853532E+02  0.00000000000E+00 0.  1.
         13    1    4    4    0    0 -0.73749020294E+02 -0.19524760579E+02 -0.23124882485E+03  0.24350801478E+03  0.00000000000E+00 0. -1.
          2    1    1    2  501    0  0.74555339715E+02  0.16585990344E+02 -0.44962191280E+03  0.45606299809E+03  0.00000000000E+00 0. -1.
<scales pt_clust_5="13000.00000" pt_clust_6="13000.00000" pt_clust_7="13000.00000" pt_clust_8="13000.00000" pt_clust_9="76.37797"></scales>
<clustering>
<clus scale="   76.378">  2  9  1 -1</clus>
<clus scale="   81.782">  5  6 -1 -1</clus>
<clus scale="   88.721">  1  5  2 -1</clus>
<clus scale="   92.128">  7  8 -1 -1</clus>
<clus scale="   76.378">  2  5  1 -1</clus>
</clustering>
</event>
<event>
 9    1  0.6345107E-005  0.3024987E+03  0.7546771E-02  0.1120315E+00
         -2   -1    0    0    0  501 -0.00000000000E+00  0.00000000000E+00  0.24804952666E+03  0.24804952666E+03  0.00000000000E+00 0.  1.
         21   -1    0    0  501  502  0.00000000000E+00 -0.00000000000E+00 -0.54383670216E+03  0.54383670216E+03  0.00000000000E+00 0.  1.
        -24    2    1    2    0    0 -0.64147451224E+02  0.56818470489E+02 -0.86048609605E+01  0.11861814425E+03  0.81565841054E+02 0.  0.
         23    2    1    2    0    0 -0.17760681652E+02  0.26103902224E+03 -0.16451245487E+03  0.32285372643E+03  0.93345422591E+02 0.  0.
         13    1    3    3    0    0 -0.73894180010E+02  0.69252362361E+02 -0.13285055849E+02  0.10214074721E+03  0.00000000000E+00 0. -1.
        -14    1    3    3    0    0  0.97467287866E+01 -0.12433891872E+02  0.46801948884E+01  0.16477397043E+02  0.00000000000E+00 0.  1.
        -13    1    4    4    0    0 -0.54822160722E+02  0.12010663736E+03 -0.81083648733E+02  0.15493750913E+03  0.00000000000E+00 0.  1.
         13    1    4    4    0    0  0.37061479070E+02  0.14093238488E+03 -0.83428806135E+02  0.16791621730E+03  0.00000000000E+00 0. -1.
         -1    1    1    2    0  502  0.81908132876E+02 -0.31785749273E+03 -0.12266985967E+03  0.35041435814E+03  0.00000000000E+00 0.  1.
<scales pt_clust_5="13000.00000" pt_clust_6="13000.00000" pt_clust_7="13000.00000" pt_clust_8="13000.00000" pt_clust_9="287.73627"></scales>
<clustering>
<clus scale="   81.566">  5  6 -1 -1</clus>
<clus scale="   93.345">  7  8 -1 -1</clus>
<clus scale="  118.306">  1  5  2 -1</clus>
<clus scale="  287.736">  2  9  1 -1</clus>
<clus scale="  287.736">  2  5  1 -1</clus>
</clustering>
</event>
<event>
 9    1  0.6345107E-005  0.1048822E+03  0.7546771E-02  0.1275002E+00
          1   -1    0    0  502    0 -0.00000000000E+00  0.00000000000E+00  0.63885390209E+03  0.63885390209E+03  0.00000000000E+00 0. -1.
         21   -1    0    0  501  502  0.00000000000E+00 -0.00000000000E+00 -0.62187722236E+02  0.62187722236E+02  0.00000000000E+00 0. -1.
        -24    2    1    2    0    0  0.51315371123E+02 -0.16635945545E+02  0.44256393259E+03  0.45305650663E+03  0.80544036262E+02 0.  0.
         23    2    1    2    0    0 -0.54969796506E+02 -0.63439185513E+02  0.10609621735E+03  0.16307505262E+03  0.91054141399E+02 0.  0.
         13    1    3    3    0    0  0.16859151752E+02 -0.47633031829E+02  0.23906632028E+03  0.24434778945E+03  0.00000000000E+00 0. -1.
        -14    1    3    3    0    0  0.34456219371E+02  0.30997086284E+02  0.20349761231E+03  0.20870871718E+03  0.00000000000E+00 0.  1.
        -11    1    4    4    0    0 -0.73459137745E+02 -0.43730964407E+02  0.10583495801E+03  0.13605028667E+03  0.00000000000E+00 0. -1.
         11    1    4    4    0    0  0.18489341239E+02 -0.19708221107E+02  0.26125934547E+00  0.27024765958E+02  0.00000000000E+00 0.  1.
          2    1    1    2  501    0  0.36544253832E+01  0.80075131059E+02  0.28006029920E+02  0.84910065074E+02  0.00000000000E+00 0. -1.
<scales pt_clust_5="13000.00000" pt_clust_6="13000.00000" pt_clust_7="13000.00000" pt_clust_8="13000.00000" pt_clust_9="80.15848"></scales>
<clustering>
<clus scale="   80.158">  2  9  1 -1</clus>
<clus scale="   80.544">  5  6 -1 -1</clus>
<clus scale="   91.054">  7  8 -1 -1</clus>
<clus scale="   95.900">  1  5  2 -1</clus>
<clus scale="   80.158">  2  5  1 -1</clus>
</clustering>
</event>
<event>
 9    1  0.6345107E-005  0.1022100E+03  0.7546771E-02  0.1280271E+00
         21   -1    0    0  501  502  0.00000000000E+00  0.00000000000E+00  0.59636685325E+02  0.59636685325E+02  0.00000000000E+00 0. -1.
         -2   -1    0    0    0  501 -0.00000000000E+00 -0.00000000000E+00 -0.74286437072E+03  0.74286437072E+03  0.00000000000E+00 0.  1.
        -24    2    1    2    0    0  0.76551092430E+00  0.50768714229E+02 -0.65422187264E+03  0.66114839018E+03  0.80826275780E+02 0.  0.
         23    2    1    2    0    0  0.99209782704E+01 -0.19247655854E+02 -0.46143265916E+02  0.10391644713E+03  0.90556771857E+02 0.  0.
         13    1    3    3    0    0 -0.34740526400E+02  0.55611075375E+01 -0.17584491802E+03  0.17933004568E+03  0.00000000000E+00 0. -1.
        -14    1    3    3    0    0  0.35506037324E+02  0.45207606692E+02 -0.47837695462E+03  0.48181834450E+03  0.00000000000E+00 0.  1.
        -13    1    4    4    0    0  0.31619497310E+02  0.18030352801E+02 -0.48592886575E+02  0.60713712273E+02  0.00000000000E+00 0.  1.
         13    1    4    4    0    0 -0.21698519039E+02 -0.37278008656E+02  0.24496206587E+01  0.43202734858E+02  0.00000000000E+00 0. -1.
         -1    1    1    2    0  502 -0.10686489195E+02 -0.31521058375E+02  0.17137453154E+02  0.37436218732E+02  0.00000000000E+00 0.  1.
<scales pt_clust_5="13000.00000" pt_clust_6="13000.00000" pt_clust_7="13000.00000" pt_clust_8="13000.00000" pt_clust_9="33.28330"></scales>
<clustering>
<clus scale="   33.283">  1  9  2 -1</clus>
<clus scale="   80.826">  5  6 -1 -1</clus>
<clus scale="   90.557">  7  8 -1 -1</clus>
<clus scale="   93.698">  2  5  1 -1</clus>
<clus scale="   33.283">  1  5  2 -1</clus>
</clustering>
</event>
<event>
 9    1  0.6345107E-005  0.9161056E+02  0.7546771E-02  0.1306786E+00
         21   -1    0    0  501  502  0.00000000000E+00  0.00000000000E+00  0.63718564121E+03  0.63718564121E+03  0.00000000000E+00 0.  1.
         -2   -1    0    0    0  501 -0.00000000000E+00 -0.00000000000E+00 -0.40033085365E+02  0.40033085365E+02  0.00000000000E+00 0.  1.
        -24    2    1    2    0    0  0.41119293840E+01  0.34503544570E+01  0.36650127868E+02  0.86666221316E+02  0.78351701546E+02 0.  0.
         23    2    1    2    0    0  0.16429743996E+02 -0.70166213254E+02  0.36666292700E+03  0.38452649161E+03  0.90695571807E+02 0.  0.
         13    1    3    3    0    0 -0.20284910534E+02  0.19897445317E+02  0.47463753784E+02  0.55319018870E+02  0.00000000000E+00 0. -1.
        -14    1    3    3    0    0  0.24396839918E+02 -0.16447090860E+02 -0.10813625915E+02  0.31347202446E+02  0.00000000000E+00 0.  1.
        -13    1    4    4    0    0 -0.22809419095E+02 -0.68263825445E+02  0.18166098162E+03  0.19539941583E+03  0.00000000000E+00 0. -1.
         13    1    4    4    0    0  0.39239163091E+02 -0.19023878089E+01  0.18500194538E+03  0.18912707578E+03  0.00000000000E+00 0.  1.
         -1    1    1    2    0  502 -0.20541673380E+02  0.66715858797E+02  0.19383950098E+03  0.20602601365E+03  0.00000000000E+00 0.  1.
<scales pt_clust_5="13000.00000" pt_clust_6="13000.00000" pt_clust_7="13000.00000" pt_clust_8="13000.00000" pt_clust_9="69.80663"></scales>
<clustering>
<clus scale="   69.807">  1  9  2 -1</clus>
<clus scale="   78.352">  5  6 -1 -1</clus>
<clus scale="   79.409">  2  5  1 -1</clus>
<clus scale="   90.696">  7  8 -1 -1</clus>
<clus scale="   69.807">  1  5  2 -1</clus>
</clustering>
</event>
<event>
 9    1  0.6345107E-005  0.1065889E+03  0.7546771E-02  0.1275660E+00
          1   -1    0    0  502    0 -0.00000000000E+00  0.00000000000E+00  0.24973394983E+03  0.24973394983E+03  0.00000000000E+00 0. -1.
         21   -1    0    0  501  502  0.00000000000E+00 -0.00000000000E+00 -0.10560291848E+03  0.10560291848E+03  0.00000000000E+00 0.  1.
        -24    2    1    2    0    0  0.39181046360E+02  0.75485704795E+01  0.97655473994E+02  0.13382767825E+03  0.82347559487E+02 0.  0.
         23    2    1    2    0    0 -0.24654804008E+02  0.13491864307E+02 -0.54522869010E+02  0.11732476828E+03  0.10001234046E+03 0.  0.
         13    1    3    3    0    0  0.49638201074E+02 -0.29682939820E+01  0.10580302247E+03  0.11690612190E+03  0.00000000000E+00 0. -1.
        -14    1    3    3    0    0 -0.10457154715E+02  0.10516864462E+02 -0.81475484758E+01  0.16921556341E+02  0.00000000000E+00 0.  1.
        -11    1    4    4    0    0 -0.47273300089E+02 -0.29205943602E+02 -0.29145973226E+02  0.62747428619E+02  0.00000000000E+00 0.  1.
         11    1    4    4    0    0  0.22618496081E+02  0.42697807908E+02 -0.25376895784E+02  0.54577339664E+02  0.00000000000E+00 0. -1.
          2    1    1    2  501    0 -0.14526242351E+02 -0.21040434786E+02  0.10099842637E+03  0.10418442178E+03  0.00000000000E+00 0. -1.
<scales pt_clust_5="13000.00000" pt_clust_6="13000.00000" pt_clust_7="13000.00000" pt_clust_8="13000.00000" pt_clust_9="25.56780"></scales>
<clustering>
<clus scale="   25.568">  2  9  1 -1</clus>
<clus scale="   82.348">  5  6 -1 -1</clus>
<clus scale="   90.221">  1  5  2 -1</clus>
<clus scale="  100.012">  7  8 -1 -1</clus>
<clus scale="   25.568">  2  5  1 -1</clus>
</clustering>
</event>
<event>
 9    1  0.6345107E-005  0.1126550E+03  0.7546771E-02  0.1261268E+00
         -2   -1    0    0    0  501 -0.00000000000E+00  0.00000000000E+00  0.53561066931E+02  0.53561066931E+02  0.00000000000E+00 0.  1.
         21   -1    0    0  501  502  0.00000000000E+00 -0.00000000000E+00 -0.43033237268E+03  0.43033237268E+03  0.00000000000E+00 0.  1.
        -24    2    1    2    0    0  0.47953518908E+02 -0.51877099793E+02 -0.41230762183E+02  0.11393432351E+03  0.79311290903E+02 0.  0.
         23    2    1    2    0    0  0.12734589128E+01  0.46450515936E+02 -0.25202979182E+03  0.27286746448E+03  0.93692929712E+02 0.  0.
         13    1    3    3    0    0  0.38234983120E+02 -0.33967573043E+02 -0.64946879120E+02  0.82666843777E+02  0.00000000000E+00 0. -1.
        -14    1    3    3    0    0  0.97185357872E+01 -0.17909526750E+02  0.23716116936E+02  0.31267479732E+02  0.00000000000E+00 0.  1.
        -11    1    4    4    0    0 -0.45034946438E+02  0.34397515223E+02 -0.14136021024E+03  0.15229591096E+03  0.00000000000E+00 0. -1.
         11    1    4    4    0    0  0.46308405351E+02  0.12053000713E+02 -0.11066958158E+03  0.12057155353E+03  0.00000000000E+00 0.  1.
         -1    1    1    2    0  502 -0.49226977820E+02  0.54265838574E+01 -0.83510751737E+02  0.97091651615E+02  0.00000000000E+00 0.  1.
<scales pt_clust_5="13000.00000" pt_clust_6="13000.00000" pt_clust_7="13000.00000" pt_clust_8="13000.00000" pt_clust_9="49.52518"></scales>
<clustering>
<clus scale="   49.525">  2  9  1 -1</clus>
<clus scale="   79.311">  5  6 -1 -1</clus>
<clus scale="   93.693">  7  8 -1 -1</clus>
<clus scale="  101.010">  1  5  2 -1</clus>
<clus scale="   49.525">  2  5  1 -1</clus>
</clustering>
</event>
<event>
 9    1  0.6345107E-005  0.1002123E+03  0.7546771E-02  0.1288813E+00
         21   -1    0    0  501  502  0.00000000000E+00  0.00000000000E+00  0.26116492591E+03  0.26116492591E+03  0.00000000000E+00 0.  1.
          3   -1    0    0  502    0 -0.00000000000E+00 -0.00000000000E+00 -0.15873992605E+03  0.15873992605E+03  0.00000000000E+00 0. -1.
         23    2    1    2    0    0 -0.16662855483E+02  0.34516964220E+02 -0.11071034340E+03  0.14969373600E+03  0.93179197734E+02 0.  0.
        -24    2    1    2    0    0 -0.21725770328E+02 -0.31653060977E+02  0.21538633820E+03  0.23165005384E+03  0.76135060217E+02 0.  0.
         11    1    4    4    0    0  0.26334807808E+02 -0.25853689486E+01  0.98134666077E+02  0.10163965231E+03  0.00000000000E+00 0. -1.
        -12    1    4    4    0    0 -0.48060578137E+02 -0.29067692029E+02  0.11725167213E+03  0.13001040153E+03  0.00000000000E+00 0.  1.
        -11    1    3    3    0    0  0.22894407418E+02  0.38895046763E+02 -0.17615976506E+02  0.48448954395E+02  0.00000000000E+00 0.  1.
         11    1    3    3    0    0 -0.39557262902E+02 -0.43780825427E+01 -0.93094366895E+02  0.10124478161E+03  0.00000000000E+00 0. -1.
          4    1    1    2  501    0  0.38388625812E+02 -0.28639032430E+01 -0.22509949329E+01  0.38561062118E+02  0.00000000000E+00 0. -1.
<scales pt_clust_5="13000.00000" pt_clust_6="13000.00000" pt_clust_7="13000.00000" pt_clust_8="13000.00000" pt_clust_9="38.49532"></scales>
<clustering>
<clus scale="   38.495">  1  9  2 -1</clus>
<clus scale="   76.135">  5  6 -1 -1</clus>
<clus scale="   84.597">  1  5  2 -1</clus>
<clus scale="   93.179">  7  8 -1 -1</clus>
<clus scale="   38.495">  1  5  2 -1</clus>
</clustering>
</event>
<event>
 9    1  0.6345107E-005  0.8674727E+02  0.7546771E-02  0.1312313E+00
         -2   -1    0    0    0  501 -0.00000000000E+00  0.00000000000E+00  0.30124178941E+03  0.30124178941E+03  0.00000000000E+00 0.  1.
         21   -1    0    0  501  502  0.00000000000E+00 -0.00000000000E+00 -0.39482291336E+02  0.39482291336E+02  0.00000000000E+00 0.  1.
         23    2    1    2    0    0  0.19696908432E+02  0.17597564577E+02  0.18418559954E+03  0.20382157720E+03  0.83194096984E+02 0.  0.
        -24    2    1    2    0    0 -0.28081274050E+02  0.55868297672E+01  0.70924540028E+02  0.11136767055E+03  0.80948730976E+02 0.  0.
         11    1    4    4    0    0  0.26519322658E+02 -0.11086693616E+02  0.22372386162E+02  0.36424070505E+02  0.00000000000E+00 0. -1.
        -12    1    4    4    0    0 -0.54600596708E+02  0.16673523383E+02  0.48552153865E+02  0.74943600046E+02  0.00000000000E+00 0.  1.
        -13    1    3    3    0    0  0.14609077575E+02  0.37800618537E+02  0.17731039216E+03  0.18188261896E+03  0.00000000000E+00 0.  1.
         13    1    3    3    0    0  0.50878308570E+01 -0.20203053960E+02  0.68752073722E+01  0.21938958238E+02  0.00000000000E+00 0. -1.
         -1    1    1    2    0  502  0.83843656175E+01 -0.23184394344E+02  0.66493585137E+01  0.25534833004E+02  0.00000000000E+00 0.  1.
<scales pt_clust_5="13000.00000" pt_clust_6="13000.00000" pt_clust_7="13000.00000" pt_clust_8="13000.00000" pt_clust_9="24.65388"></scales>
<clustering>
<clus scale="   24.654">  2  9  1 -1</clus>
<clus scale="   80.949">  5  6 -1 -1</clus>
<clus scale="   83.194">  7  8 -1 -1</clus>
<clus scale="   84.596">  2  5  1 -1</clus>
<clus scale="   24.654">  2  5  1 -1</clus>
</clustering>
</event>
<event>
 9    1  0.6345107E-005  0.1162199E+03  0.7546771E-02  0.1255327E+00
         21   -1    0    0  501  502  0.00000000000E+00  0.00000000000E+00  0.20016861631E+03  0.20016861631E+03  0.00000000000E+00 0.  1.
          3   -1    0    0  502    0 -0.00000000000E+00 -0.00000000000E+00 -0.13853964108E+03  0.13853964108E+03  0.00000000000E+00 0. -1.
         23    2    1    2    0    0 -0.75601651504E+02 -0.59621765943E+02 -0.46083397478E+02  0.14402084496E+03  0.96684846669E+02 0.  0.
        -24    2    1    2    0    0  0.15896073618E+02  0.77323287019E+01  0.49098675229E+02  0.96235214584E+02  0.80858286855E+02 0.  0.
         13    1    4    4    0    0  0.28786003493E+02  0.56378195976E+01 -0.13498935109E+02  0.32289940477E+02  0.00000000000E+00 0. -1.
        -14    1    4    4    0    0 -0.12889929875E+02  0.20945091043E+01  0.62597610339E+02  0.63945274107E+02  0.00000000000E+00 0.  1.
        -11    1    3    3    0    0 -0.50868434559E+01 -0.35276263861E+02  0.22941867684E+02  0.42386555193E+02  0.00000000000E+00 0. -1.
         11    1    3    3    0    0 -0.70514808048E+02 -0.24345502081E+02 -0.69025265161E+02  0.10163428977E+03  0.00000000000E+00 0.  1.
          4    1    1    2  501    0  0.59705577886E+02  0.51889437241E+02  0.58613697483E+02  0.98452197844E+02  0.00000000000E+00 0. -1.
<scales pt_clust_5="13000.00000" pt_clust_6="13000.00000" pt_clust_7="13000.00000" pt_clust_8="13000.00000" pt_clust_9="79.10291"></scales>
<clustering>
<clus scale="   79.103">  1  9  2 -1</clus>
<clus scale="   80.858">  5  6 -1 -1</clus>
<clus scale="   96.685">  7  8 -1 -1</clus>
<clus scale="  103.427">  1  5  2 -1</clus>
<clus scale="   79.103">  1  5  2 -1</clus>
</clustering>
</event>
<event>
 9    1  0.6345107E-005  0.2096420E+03  0.7546771E-02  0.1142741E+00
         21   -1    0    0  501  502  0.00000000000E+00  0.00000000000E+00  0.16622497302E+03  0.16622497302E+03  0.00000000000E+00 0. -1.
          1   -1    0    0  502    0 -0.00000000000E+00 -0.00000000000E+00 -0.74341905074E+03  0.74341905074E+03  0.00000000000E+00 0. -1.
         23    2    1    2    0    0  0.20137251755E+03  0.11630142373E+02 -0.42886745646E+03  0.48255452315E+03  0.90804303645E+02 0.  0.
        -24    2    1    2    0    0 -0.12361728951E+03 -0.37941664025E+02  0.88844270219E+02  0.17611499309E+03  0.80014888025E+02 0.  0.
         13    1    4    4    0    0 -0.98889840697E+02  0.81178688489E+01  0.65287397734E+02  0.11877518550E+03  0.00000000000E+00 0. -1.
        -14    1    4    4    0    0 -0.24727448817E+02 -0.46059532874E+02  0.23556872485E+02  0.57339807593E+02  0.00000000000E+00 0.  1.
        -11    1    3    3    0    0  0.93770392970E+02 -0.22356046683E+02 -0.27741508276E+03  0.29368658049E+03  0.00000000000E+00 0.  1.
         11    1    3    3    0    0  0.10760212458E+03  0.33986189056E+02 -0.15145237371E+03  0.18886794265E+03  0.00000000000E+00 0. -1.
          2    1    1    2  501    0 -0.77755228037E+02  0.26311521652E+02 -0.23717089148E+03  0.25097450752E+03  0.00000000000E+00 0. -1.
<scales pt_clust_5="13000.00000" pt_clust_6="13000.00000" pt_clust_7="13000.00000" pt_clust_8="13000.00000" pt_clust_9="82.08641"></scales>
<clustering>
<clus scale="   80.015">  5  6 -1 -1</clus>
<clus scale="   82.086">  1  9  2 -1</clus>
<clus scale="   90.804">  7  8 -1 -1</clus>
<clus scale="  205.199">  1  5  2 -1</clus>
<clus scale="   82.086">  1  5  2 -1</clus>
</clustering>
</event>
<event>
 9    1  0.6345107E-005  0.1132627E+03  0.7546771E-02  0.1260603E+00
          1   -1    0    0  502    0 -0.00000000000E+00  0.00000000000E+00  0.53506696343E+03  0.53506696343E+03  0.00000000000E+00 0. -1.
         21   -1    0    0  501  502  0.00000000000E+00 -0.00000000000E+00 -0.15480586034E+03  0.15480586034E+03  0.00000000000E+00 0. -1.
        -24    2    1    2    0    0 -0.84686546939E+02  0.15155989323E+02  0.40484729054E+03  0.42151233226E+03  0.79811041527E+02 0.  0.
         23    2    1    2    0    0 -0.12245012743E+01  0.12249065645E+02  0.83773371359E+02  0.12738695063E+03  0.95173097197E+02 0.  0.
         11    1    3    3    0    0 -0.47033684204E+02 -0.22948963497E+02  0.10971168507E+03  0.12155441668E+03  0.00000000000E+00 0. -1.
        -12    1    3    3    0    0 -0.37652862735E+02  0.38104952820E+02  0.29513560547E+03  0.29995791558E+03  0.00000000000E+00 0.  1.
        -13    1    4    4    0    0  0.33553712533E+02 -0.25624846360E+02  0.24091462334E+02  0.48609494269E+02  0.00000000000E+00 0.  1.
         13    1    4    4    0    0 -0.34778213807E+02  0.37873912005E+02  0.59681909025E+02  0.78777456363E+02  0.00000000000E+00 0. -1.
          2    1    1    2  501    0  0.85911048213E+02 -0.27405054968E+02 -0.10835955881E+03  0.14097354088E+03  0.00000000000E+00 0. -1.
<scales pt_clust_5="13000.00000" pt_clust_6="13000.00000" pt_clust_7="13000.00000" pt_clust_8="13000.00000" pt_clust_9="90.17619"></scales>
<clustering>
<clus scale="   79.811">  5  6 -1 -1</clus>
<clus scale="   90.176">  2  9  1 -1</clus>
<clus scale="   95.173">  7  8 -1 -1</clus>
<clus scale="  100.699">  1  5  2 -1</clus>
<clus scale="   90.176">  2  5  1 -1</clus>
</clustering>
</event>
<event>
 9    1  0.6345107E-005  0.1109903E+03  0.7546771E-02  0.1261170E+00
         -2   -1    0    0    0  501 -0.00000000000E+00  0.00000000000E+00  0.12693143299E+03  0.12693143299E+03  0.00000000000E+00 0.  1.
         21   -1    0    0  501  502  0.00000000000E+00 -0.00000000000E+00 -0.20354152439E+03  0.20354152439E+03  0.00000000000E+00 0.  1.
         23    2    1    2    0    0 -0.20870374150E+02  0.21941411119E+02 -0.37027963568E+02  0.10208348867E+03  0.90182983615E+02 0.  0.
        -24    2    1    2    0    0  0.36305756401E+02 -0.10524947751E+03 -0.34421900416E+02  0.14350653228E+03  0.83747818574E+02 0.  0.
         11    1    4    4    0    0  0.35084927093E+02 -0.40319581142E+02 -0.53699332045E+02  0.75764364939E+02  0.00000000000E+00 0. -1.
        -12    1    4    4    0    0  0.12208293079E+01 -0.64929896364E+02  0.19277431628E+02  0.67742167342E+02  0.00000000000E+00 0.  1.
        -13    1    3    3    0    0  0.26365092908E+02  0.18237516195E+01 -0.42921365967E+02  0.50405236340E+02  0.00000000000E+00 0. -1.
         13    1    3    3    0    0 -0.47235467058E+02  0.20117659499E+02  0.58934023986E+01  0.51678252329E+02  0.00000000000E+00 0.  1.
         -1    1    1    2    0  502 -0.15435382251E+02  0.83308066387E+02 -0.51602274207E+01  0.84882936433E+02  0.00000000000E+00 0.  1.
<scales pt_clust_5="13000.00000" pt_clust_6="13000.00000" pt_clust_7="13000.00000" pt_clust_8="13000.00000" pt_clust_9="84.72598"></scales>
<clustering>
<clus scale="   83.748">  5  6 -1 -1</clus>
<clus scale="   84.726">  2  9  1 -1</clus>
<clus scale="   90.183">  7  8 -1 -1</clus>
<clus scale="  105.828">  2  5  1 -1</clus>
<clus scale="   84.726">  2  5  1 -1</clus>
</clustering>
</event>
<event>
 9    1  0.6345107E-005  0.1783874E+03  0.7546771E-02  0.1196693E+00
         21   -1    0    0  501  502  0.00000000000E+00  0.00000000000E+00  0.93805523491E+03  0.93805523491E+03  0.00000000000E+00 0. -1.
          3   -1    0    0  502    0 -0.00000000000E+00 -0.00000000000E+00 -0.51615342274E+02  0.51615342274E+02  0.00000000000E+00 0. -1.
         23    2    1    2    0    0 -0.21364293482E+02  0.30058534402E+02  0.26075355927E+03  0.27815183515E+03  0.89532542691E+02 0.  0.
        -24    2    1    2    0    0  0.13392914923E+03  0.84340764325E+02  0.32773900732E+03  0.37309496125E+03  0.82076864282E+02 0.  0.
         13    1    4    4    0    0  0.98436376974E+02  0.91149002779E+02  0.20378449024E+03  0.24397946529E+03  0.00000000000E+00 0. -1.
        -14    1    4    4    0    0  0.35492772257E+02 -0.68082384539E+01  0.12395451708E+03  0.12911549596E+03  0.00000000000E+00 0.  1.
        -11    1    3    3    0    0  0.11160274627E+02 -0.17467160000E+02  0.14606213970E+02  0.25357344000E+02  0.00000000000E+00 0. -1.
         11    1    3    3    0    0 -0.32524568108E+02  0.47525694401E+02  0.24614734530E+03  0.25279449115E+03  0.00000000000E+00 0.  1.
          4    1    1    2  501    0 -0.11256485575E+03 -0.11439929873E+03  0.29794732604E+03  0.33842378078E+03  0.00000000000E+00 0. -1.
<scales pt_clust_5="13000.00000" pt_clust_6="13000.00000" pt_clust_7="13000.00000" pt_clust_8="13000.00000" pt_clust_9="158.38392"></scales>
<clustering>
<clus scale="   82.077">  5  6 -1 -1</clus>
<clus scale="   89.533">  7  8 -1 -1</clus>
<clus scale="   96.830">  2  7  1 -1</clus>
<clus scale="  158.384">  1  9  2 -1</clus>
<clus scale="  158.384">  1  5  2 -1</clus>
</clustering>
</event>
<event>
 9    1  0.6345107E-005  0.1182008E+03  0.7546771E-02  0.1250044E+00
          1   -1    0    0  502    0 -0.00000000000E+00  0.00000000000E+00  0.10609572929E+04  0.10609572929E+04  0.00000000000E+00 0. -1.
         21   -1    0    0  501  502  0.00000000000E+00 -0.00000000000E+00 -0.22440470252E+02  0.22440470252E+02  0.00000000000E+00 0.  1.
        -24    2    1    2    0    0  0.70351412126E+02  0.42342837949E+01  0.61278280155E+03  0.62197678187E+03  0.79906851765E+02 0.  0.
         23    2    1    2    0    0 -0.83513839025E+02  0.39464237303E+02  0.34366007323E+03  0.36751175306E+03  0.91818600343E+02 0.  0.
         13    1    3    3    0    0  0.60474192529E+02  0.36397309437E+02  0.34976288825E+03  0.35681363496E+03  0.00000000000E+00 0. -1.
        -14    1    3    3    0    0  0.98772195967E+01 -0.32163025642E+02  0.26301991330E+03  0.26516314691E+03  0.00000000000E+00 0.  1.
        -11    1    4    4    0    0 -0.77119989712E+02  0.66685197254E+02  0.25851230242E+03  0.27789030003E+03  0.00000000000E+00 0.  1.
         11    1    4    4    0    0 -0.63938493136E+01 -0.27220959952E+02  0.85147770812E+02  0.89621453034E+02  0.00000000000E+00 0. -1.
          2    1    1    2  501    0  0.13162426899E+02 -0.43698521098E+02  0.82073947882E+02  0.93909228242E+02  0.00000000000E+00 0. -1.
<scales pt_clust_5="13000.00000" pt_clust_6="13000.00000" pt_clust_7="13000.00000" pt_clust_8="13000.00000" pt_clust_9="45.63782"></scales>
<clustering>
<clus scale="   45.638">  2  9  1 -1</clus>
<clus scale="   79.907">  5  6 -1 -1</clus>
<clus scale="   91.819">  7  8 -1 -1</clus>
<clus scale="  109.206">  1  5  2 -1</clus>
<clus scale="   45.638">  2  5  1 -1</clus>
</clustering>
</event>
<event>
 9    1  0.6345107E-005  0.1611706E+03  0.7546771E-02  0.1188559E+00
         21   -1    0    0  501  502  0.00000000000E+00  0.00000000000E+00  0.19069890753E+03  0.19069890753E+03  0.00000000000E+00 0. -1.
          1   -1    0    0  502    0 -0.00000000000E+00 -0.00000000000E+00 -0.73597725750E+03  0.73597725750E+03  0.00000000000E+00 0. -1.
         23    2    1    2    0    0  0.88043489717E+02 -0.92306971116E+02 -0.36952276571E+03  0.39784314402E+03  0.73890864560E+02 0.  0.
        -24    2    1    2    0    0 -0.12417012889E+03  0.95990889601E+02 -0.32772678034E+03  0.37258338181E+03  0.82347204253E+02 0.  0.
         11    1    4    4    0    0 -0.47275483542E+02  0.33846309197E+02 -0.21462503466E+03  0.22236107909E+03  0.00000000000E+00 0. -1.
        -12    1    4    4    0    0 -0.76894645350E+02  0.62144580404E+02 -0.11310174568E+03  0.15022230272E+03  0.00000000000E+00 0.  1.
        -13    1    3    3    0    0  0.73852474366E+02 -0.57132003900E+02 -0.16285178872E+03  0.18772042758E+03  0.00000000000E+00 0.  1.
         13    1    3    3    0    0  0.14191015351E+02 -0.35174967216E+02 -0.20667097698E+03  0.21012271644E+03  0.00000000000E+00 0. -1.
          2    1    1    2  501    0  0.36126639175E+02 -0.36839184851E+01  0.15197119609E+03  0.15624963921E+03  0.00000000000E+00 0. -1.
<scales pt_clust_5="13000.00000" pt_clust_6="13000.00000" pt_clust_7="13000.00000" pt_clust_8="13000.00000" pt_clust_9="36.31398"></scales>
<clustering>
<clus scale="   36.314">  1  9  2 -1</clus>
<clus scale="   73.891">  7  8 -1 -1</clus>
<clus scale="   82.347">  5  6 -1 -1</clus>
<clus scale="  157.018">  2  7  1 -1</clus>
<clus scale="   36.314">  1  5  2 -1</clus>
</clustering>
</event>
<event>
 9    1  0.6345107E-005  0.9621387E+02  0.7546771E-02  0.1294783E+00
         -2   -1    0    0    0  501 -0.00000000000E+00  0.00000000000E+00  0.73352371400E+02  0.73352371400E+02  0.00000000000E+00 0.  1.
         21   -1    0    0  501  502  0.00000000000E+00 -0.00000000000E+00 -0.48997932771E+03  0.48997932771E+03  0.00000000000E+00 0.  1.
        -24    2    1    2    0    0  0.12198053038E+01 -0.37045947368E+02  0.22590909641E+02  0.91307038479E+02  0.80328923409E+02 0.  0.
         23    2    1    2    0    0  0.31833250916E+02 -0.14339872087E+02 -0.17280033105E+03  0.19869096372E+03  0.91646914057E+02 0.  0.
         13    1    3    3    0    0 -0.32710818689E+02  0.61146210373E+01  0.12123804782E+02  0.35417127102E+02  0.00000000000E+00 0. -1.
        -14    1    3    3    0    0  0.33930623993E+02 -0.43160568405E+02  0.10467104859E+02  0.55889911377E+02  0.00000000000E+00 0.  1.
        -13    1    4    4    0    0  0.64024407320E+02 -0.15448096972E+02 -0.11622337748E+03  0.13358758140E+03  0.00000000000E+00 0.  1.
         13    1    4    4    0    0 -0.32191156405E+02  0.11082248859E+01 -0.56576953574E+02  0.65103382315E+02  0.00000000000E+00 0. -1.
         -1    1    1    2    0  502 -0.33053056219E+02  0.51385819454E+02 -0.26641753490E+03  0.27333369692E+03  0.00000000000E+00 0.  1.
<scales pt_clust_5="13000.00000" pt_clust_6="13000.00000" pt_clust_7="13000.00000" pt_clust_8="13000.00000" pt_clust_9="61.09834"></scales>
<clustering>
<clus scale="   61.098">  2  9  1 -1</clus>
<clus scale="   80.329">  5  6 -1 -1</clus>
<clus scale="   85.503">  1  5  2 -1</clus>
<clus scale="   91.647">  7  8 -1 -1</clus>
<clus scale="   61.098">  2  5  1 -1</clus>
</clustering>
</event>
<event>
 9    1  0.6345107E-005  0.1672538E+03  0.7546771E-02  0.1195145E+00
         21   -1    0    0  501  502  0.00000000000E+00  0.00000000000E+00  0.50333484201E+03  0.50333484201E+03  0.00000000000E+00 0. -1.
         -2   -1    0    0    0  501 -0.00000000000E+00 -0.00000000000E+00 -0.21186512923E+03  0.21186512923E+03  0.00000000000E+00 0.  1.
        -24    2    1    2    0    0  0.39784879286E+02 -0.88588367326E+02 -0.13362477720E+03  0.18062332993E+03  0.73064839621E+02 0.  0.
         23    2    1    2    0    0 -0.15874124329E+03  0.61616998002E+02  0.31921285413E+03  0.37305576924E+03  0.90985295280E+02 0.  0.
         11    1    3    3    0    0 -0.12019243955E+02 -0.18607640381E+02 -0.68217242408E+02  0.71723766406E+02  0.00000000000E+00 0. -1.
        -12    1    3    3    0    0  0.51804123241E+02 -0.69980726945E+02 -0.65407534791E+02  0.10889956352E+03  0.00000000000E+00 0.  1.
        -13    1    4    4    0    0 -0.13804983087E+03  0.18620955158E+02  0.27372672908E+03  0.30713322514E+03  0.00000000000E+00 0.  1.
         13    1    4    4    0    0 -0.20691412426E+02  0.42996042844E+02  0.45486125050E+02  0.65922544098E+02  0.00000000000E+00 0. -1.
         -1    1    1    2    0  502  0.11895636401E+03  0.26971369324E+02  0.10588163585E+03  0.16152087206E+03  0.00000000000E+00 0.  1.
<scales pt_clust_5="13000.00000" pt_clust_6="13000.00000" pt_clust_7="13000.00000" pt_clust_8="13000.00000" pt_clust_9="140.34080"></scales>
<clustering>
<clus scale="   73.065">  5  6 -1 -1</clus>
<clus scale="   90.985">  7  8 -1 -1</clus>
<clus scale="  121.529">  2  5  1 -1</clus>
<clus scale="  140.341">  1  9  2 -1</clus>
<clus scale="  140.341">  1  5  2 -1</clus>
</clustering>
</event>
<event>
 9    1  0.6345107E-005  0.2187332E+03  0.7546771E-02  0.1135606E+00
         21   -1    0    0  501  502  0.00000000000E+00  0.00000000000E+00  0.41477805015E+03  0.41477805015E+03  0.00000000000E+00 0.  1.
          1   -1    0    0  502    0 -0.00000000000E+00 -0.00000000000E+00 -0.82251104373E+03  0.82251104373E+03  0.00000000000E+00 0. -1.
         23    2    1    2    0    0 -0.20903797945E+02  0.20756070710E+03 -0.72629903927E+03  0.76103402920E+03  0.90244574674E+02 0.  0.
        -24    2    1    2    0    0 -0.12092547774E+03 -0.10238255000E+03  0.15668093485E+03  0.23670386495E+03  0.79841384180E+02 0.  0.
         13    1    4    4    0    0 -0.91610044246E+02 -0.33403969352E+02  0.11560191780E+03  0.15123501173E+03  0.00000000000E+00 0. -1.
        -14    1    4    4    0    0 -0.29315433497E+02 -0.68978580646E+02  0.41079017049E+02  0.85468853221E+02  0.00000000000E+00 0.  1.
        -13    1    3    3    0    0 -0.52837137757E+02  0.15499415693E+03 -0.47967113569E+03  0.50685239490E+03  0.00000000000E+00 0. -1.
         13    1    3    3    0    0  0.31933339813E+02  0.52566550169E+02 -0.24662790358E+03  0.25418163430E+03  0.00000000000E+00 0.  1.
          2    1    1    2  501    0  0.14182927569E+03 -0.10517815711E+03  0.16188511084E+03  0.23955119972E+03  0.00000000000E+00 0. -1.
<scales pt_clust_5="13000.00000" pt_clust_6="13000.00000" pt_clust_7="13000.00000" pt_clust_8="13000.00000" pt_clust_9="176.57290"></scales>
<clustering>
<clus scale="   79.841">  5  6 -1 -1</clus>
<clus scale="   90.245">  7  8 -1 -1</clus>
<clus scale="  176.573">  1  9  2 -1</clus>
<clus scale="  214.650">  1  5  2 -1</clus>
<clus scale="  176.573">  1  5  2 -1</clus>
</clustering>
</event>
<event>
 9    1  0.6345107E-005  0.9402694E+02  0.7546771E-02  0.1298307E+00
          1   -1    0    0  502    0 -0.00000000000E+00  0.00000000000E+00  0.25838610640E+03  0.25838610640E+03  0.00000000000E+00 0. -1.
         21   -1    0    0  501  502  0.00000000000E+00 -0.00000000000E+00 -0.70649026041E+02  0.70649026041E+02  0.00000000000E+00 0. -1.
        -24    2    1    2    0    0  0.32148639640E+01 -0.32274092362E+02  0.50745808259E+02  0.10067497535E+03  0.80674414892E+02 0.  0.
         23    2    1    2    0    0  0.39916350973E+02  0.16140188648E+02  0.18056131103E+02  0.10082125199E+03  0.89359276054E+02 0.  0.
         13    1    3    3    0    0  0.31667836650E+02 -0.22590956564E+02  0.57924260194E+02  0.69774086276E+02  0.00000000000E+00 0. -1.
        -14    1    3    3    0    0 -0.28452972686E+02 -0.96831357975E+01 -0.71784519350E+01  0.30900889076E+02  0.00000000000E+00 0.  1.
        -11    1    4    4    0    0  0.61134632478E+02  0.21339358810E+02  0.34601325188E+02  0.73417049977E+02  0.00000000000E+00 0.  1.
         11    1    4    4    0    0 -0.21218281504E+02 -0.51991701625E+01 -0.16545194085E+02  0.27404202008E+02  0.00000000000E+00 0. -1.
          2    1    1    2  501    0 -0.43131214937E+02  0.16133903714E+02  0.11893514100E+03  0.12753890510E+03  0.00000000000E+00 0. -1.
<scales pt_clust_5="13000.00000" pt_clust_6="13000.00000" pt_clust_7="13000.00000" pt_clust_8="13000.00000" pt_clust_9="46.05005"></scales>
<clustering>
<clus scale="   46.050">  2  9  1 -1</clus>
<clus scale="   80.674">  5  6 -1 -1</clus>
<clus scale="   85.816">  1  5  2 -1</clus>
<clus scale="   89.359">  7  8 -1 -1</clus>
<clus scale="   46.050">  2  5  1 -1</clus>
</clustering>
</event>
<event>
 9    1  0.6345107E-005  0.2782869E+03  0.7546771E-02  0.1097400E+00
         21   -1    0    0  501  502  0.00000000000E+00  0.00000000000E+00  0.65179493384E+02  0.65179493384E+02  0.00000000000E+00 0.  1.
          1   -1    0    0  502    0 -0.00000000000E+00 -0.00000000000E+00 -0.23249713263E+04  0.23249713263E+04  0.00000000000E+00 0. -1.
         23    2    1    2    0    0 -0.44181530755E+02 -0.27213457554E+03 -0.99921164738E+03  0.10411693330E+04  0.97981778412E+02 0.  0.
        -24    2    1    2    0    0 -0.12575637511E+03  0.23950768473E+03 -0.55755276796E+03  0.62497115820E+03  0.80902797203E+02 0.  0.
         13    1    4    4    0    0 -0.40038860404E+02  0.12590512693E+03 -0.19553551920E+03  0.23598591187E+03  0.00000000000E+00 0. -1.
        -14    1    4    4    0    0 -0.85717514706E+02  0.11360255780E+03 -0.36201724876E+03  0.38898524634E+03  0.00000000000E+00 0.  1.
        -13    1    3    3    0    0 -0.50331673115E+02 -0.53345703976E+02 -0.22859348607E+03  0.24007087146E+03  0.00000000000E+00 0. -1.
         13    1    3    3    0    0  0.61501423595E+01 -0.21878887157E+03 -0.77061816130E+03  0.80109846155E+03  0.00000000000E+00 0.  1.
          2    1    1    2  501    0  0.16993790587E+03  0.32626890809E+02 -0.70302741754E+03  0.72401032843E+03  0.00000000000E+00 0. -1.
<scales pt_clust_5="13000.00000" pt_clust_6="13000.00000" pt_clust_7="13000.00000" pt_clust_8="13000.00000" pt_clust_9="173.04172"></scales>
<clustering>
<clus scale="   80.903">  5  6 -1 -1</clus>
<clus scale="   97.982">  7  8 -1 -1</clus>
<clus scale="  173.042">  1  9  2 -1</clus>
<clus scale="  272.742">  1  5  2 -1</clus>
<clus scale="  173.042">  1  5  2 -1</clus>
</clustering>
</event>
<event>
 9    1  0.6345107E-005  0.9710209E+02  0.7546771E-02  0.1291830E+00
          3   -1    0    0  502    0 -0.00000000000E+00  0.00000000000E+00  0.28767524014E+03  0.28767524014E+03  0.00000000000E+00 0. -1.
         21   -1    0    0  501  502  0.00000000000E+00 -0.00000000000E+00 -0.16299371740E+03  0.16299371740E+03  0.00000000000E+00 0. -1.
         23    2    1    2    0    0  0.15910685029E+02 -0.32454159739E+02  0.24719768029E+03  0.26575695393E+03  0.90629151145E+02 0.  0.
        -24    2    1    2    0    0 -0.45152570836E+02  0.43392676290E+00 -0.65605816446E+02  0.11336362745E+03  0.80673700377E+02 0.  0.
         11    1    4    4    0    0 -0.45402249056E+02  0.31922802386E+02 -0.59350831944E+02  0.81258542836E+02  0.00000000000E+00 0. -1.
        -12    1    4    4    0    0  0.24967821990E+00 -0.31488875623E+02 -0.62549845024E+01  0.32105084618E+02  0.00000000000E+00 0.  1.
        -13    1    3    3    0    0 -0.33426732360E+02  0.77303203017E+00  0.13124629289E+03  0.13543830113E+03  0.00000000000E+00 0.  1.
         13    1    3    3    0    0  0.49337417389E+02 -0.33227191769E+02  0.11595138740E+03  0.13031865280E+03  0.00000000000E+00 0. -1.
          4    1    1    2  501    0  0.29241885807E+02  0.32020232976E+02 -0.56910341108E+02  0.71548376155E+02  0.00000000000E+00 0. -1.
<scales pt_clust_5="13000.00000" pt_clust_6="13000.00000" pt_clust_7="13000.00000" pt_clust_8="13000.00000" pt_clust_9="43.36339"></scales>
<clustering>
<clus scale="   43.363">  2  9  1 -1</clus>
<clus scale="   80.674">  5  6 -1 -1</clus>
<clus scale="   87.883">  2  5  1 -1</clus>
<clus scale="   90.629">  7  8 -1 -1</clus>
<clus scale="   43.363">  2  5  1 -1</clus>
</clustering>
</event>
<event>
 9    1  0.6345107E-005  0.1305031E+03  0.7546771E-02  0.1229254E+00
          1   -1    0    0  502    0 -0.00000000000E+00  0.00000000000E+00  0.75201565564E+02  0.75201565564E+02  0.00000000000E+00 0. -1.
         21   -1    0    0  501  502  0.00000000000E+00 -0.00000000000E+00 -0.32415242480E+03  0.32415242480E+03  0.00000000000E+00 0. -1.
         23    2    1    2    0    0 -0.61705511691E+02  0.58221238030E+02 -0.73191017643E+02  0.14419616951E+03  0.90765232926E+02 0.  0.
        -24    2    1    2    0    0  0.59733379937E+02 -0.94397435743E+02 -0.16931251744E+03  0.21835870981E+03  0.80838388366E+02 0.  0.
         11    1    4    4    0    0  0.26482509810E+02 -0.85789835770E+02 -0.71765113567E+02  0.11494107522E+03  0.00000000000E+00 0. -1.
        -12    1    4    4    0    0  0.33250870127E+02 -0.86075999728E+01 -0.97547403875E+02  0.10341763459E+03  0.00000000000E+00 0.  1.
        -11    1    3    3    0    0 -0.45171598283E+01  0.58336882002E+02 -0.10690761237E+02  0.59480155602E+02  0.00000000000E+00 0.  1.
         11    1    3    3    0    0 -0.57188351863E+02 -0.11564397213E+00 -0.62500256406E+02  0.84716013912E+02  0.00000000000E+00 0. -1.
          2    1    1    2  501    0  0.19721317542E+01  0.36176197713E+02 -0.64473241511E+01  0.36799111040E+02  0.00000000000E+00 0. -1.
<scales pt_clust_5="13000.00000" pt_clust_6="13000.00000" pt_clust_7="13000.00000" pt_clust_8="13000.00000" pt_clust_9="36.22993"></scales>
<clustering>
<clus scale="   36.230">  2  9  1 -1</clus>
<clus scale="   80.838">  5  6 -1 -1</clus>
<clus scale="   90.765">  7  8 -1 -1</clus>
<clus scale="  123.805">  2  5  1 -1</clus>
<clus scale="   36.230">  2  5  1 -1</clus>
</clustering>
</event>
<event>
 9    1  0.6345107E-005  0.2293779E+03  0.7546771E-02  0.1127880E+00
         21   -1    0    0  501  502  0.00000000000E+00  0.00000000000E+00  0.73901507681E+02  0.73901507681E+02  0.00000000000E+00 0.  1.
          1   -1    0    0  502    0 -0.00000000000E+00 -0.00000000000E+00 -0.11676438850E+04  0.11676438850E+04  0.00000000000E+00 0. -1.
         23    2    1    2    0    0 -0.14953277673E+03  0.17656794991E+03 -0.76428656496E+03  0.80379221713E+03  0.91715226100E+02 0.  0.
        -24    2    1    2    0    0  0.11726936813E+03 -0.13806182440E+03 -0.33299889001E+03  0.38739245045E+03  0.79821537544E+02 0.  0.
         11    1    4    4    0    0  0.14267377118E+02 -0.75613924503E+02 -0.11594411914E+03  0.13915481447E+03  0.00000000000E+00 0. -1.
        -12    1    4    4    0    0  0.10300199101E+03 -0.62447899894E+02 -0.21705477088E+03  0.24823763598E+03  0.00000000000E+00 0.  1.
        -13    1    3    3    0    0 -0.12955357030E+03  0.11272046822E+03 -0.64006220607E+03  0.66269876956E+03  0.00000000000E+00 0. -1.
         13    1    3    3    0    0 -0.19979206428E+02  0.63847481695E+02 -0.12422435889E+03  0.14109344758E+03  0.00000000000E+00 0.  1.
          2    1    1    2  501    0  0.32263408600E+02 -0.38506125518E+02  0.35430776161E+01  0.50360725133E+02  0.00000000000E+00 0. -1.
<scales pt_clust_5="13000.00000" pt_clust_6="13000.00000" pt_clust_7="13000.00000" pt_clust_8="13000.00000" pt_clust_9="50.23594"></scales>
<clustering>
<clus scale="   50.236">  1  9  2 -1</clus>
<clus scale="   79.822">  5  6 -1 -1</clus>
<clus scale="   91.715">  7  8 -1 -1</clus>
<clus scale="  224.887">  1  5  2 -1</clus>
<clus scale="   50.236">  1  5  2 -1</clus>
</clustering>
</event>
<event>
 9    1  0.6345107E-005  0.1905474E+03  0.7546771E-02  0.1175438E+00
          1   -1    0    0  502    0 -0.00000000000E+00  0.00000000000E+00  0.10419197972E+03  0.10419197972E+03  0.00000000000E+00 0. -1.
         21   -1    0    0  501  502  0.00000000000E+00 -0.00000000000E+00 -0.76644347390E+03  0.76644347390E+03  0.00000000000E+00 0. -1.
         23    2    1    2    0    0  0.56160071754E+02 -0.69162884619E+02 -0.34593503981E+03  0.36867737047E+03  0.91183844270E+02 0.  0.
        -24    2    1    2    0    0  0.38813322931E+02 -0.10752214848E+03 -0.17251963853E+02  0.14185099338E+03  0.82198464808E+02 0.  0.
         11    1    4    4    0    0  0.23791083895E+02 -0.81892670329E+02  0.26201722691E+02  0.89212977747E+02  0.00000000000E+00 0. -1.
        -12    1    4    4    0    0  0.15022239036E+02 -0.25629478149E+02 -0.43453686544E+02  0.52638015636E+02  0.00000000000E+00 0.  1.
        -13    1    3    3    0    0  0.37342128031E+02 -0.83542249877E+02 -0.32298857174E+03  0.33570129508E+03  0.00000000000E+00 0. -1.
         13    1    3    3    0    0  0.18817943722E+02  0.14379365258E+02 -0.22946468069E+02  0.32976075388E+02  0.00000000000E+00 0.  1.
          2    1    1    2  501    0 -0.94973394685E+02  0.17668503310E+03 -0.29906449051E+03  0.36010708977E+03  0.00000000000E+00 0. -1.
<scales pt_clust_5="13000.00000" pt_clust_6="13000.00000" pt_clust_7="13000.00000" pt_clust_8="13000.00000" pt_clust_9="171.90615"></scales>
<clustering>
<clus scale="   82.198">  5  6 -1 -1</clus>
<clus scale="   91.184">  7  8 -1 -1</clus>
<clus scale="  127.483">  1  7  2 -1</clus>
<clus scale="  171.906">  2  9  1 -1</clus>
<clus scale="  171.906">  2  5  1 -1</clus>
</clustering>
</event>
<event>
 9    1  0.6345107E-005  0.9500500E+02  0.7546771E-02  0.1297519E+00
         21   -1    0    0  501  502  0.00000000000E+00  0.00000000000E+00  0.41255778041E+02  0.41255778041E+02  0.00000000000E+00 0.  1.
         -2   -1    0    0    0  501 -0.00000000000E+00 -0.00000000000E+00 -0.34949587616E+03  0.34949587616E+03  0.00000000000E+00 0.  1.
        -24    2    1    2    0    0  0.25047768901E+01 -0.15155853457E+02 -0.21584382658E+03  0.23129789222E+03  0.81695677192E+02 0.  0.
         23    2    1    2    0    0  0.60603901034E+01  0.41941207559E+02 -0.72396846838E+02  0.12494587493E+03  0.92597921202E+02 0.  0.
         11    1    3    3    0    0 -0.14141302793E+02 -0.45770183773E+02 -0.11395920246E+03  0.12361871215E+03  0.00000000000E+00 0. -1.
        -12    1    3    3    0    0  0.16646079683E+02  0.30614330316E+02 -0.10188462412E+03  0.10767918007E+03  0.00000000000E+00 0.  1.
        -13    1    4    4    0    0 -0.17976622197E+02 -0.11848378472E+02 -0.61330181674E+02  0.64999493861E+02  0.00000000000E+00 0. -1.
         13    1    4    4    0    0  0.24037012301E+02  0.53789586032E+02 -0.11066665164E+02  0.59946381072E+02  0.00000000000E+00 0.  1.
         -1    1    1    2    0  502 -0.85651669935E+01 -0.26785354103E+02 -0.19999424699E+02  0.34507887045E+02  0.00000000000E+00 0.  1.
<scales pt_clust_5="13000.00000" pt_clust_6="13000.00000" pt_clust_7="13000.00000" pt_clust_8="13000.00000" pt_clust_9="28.12147"></scales>
<clustering>
<clus scale="   28.121">  1  9  2 -1</clus>
<clus scale="   81.696">  5  6 -1 -1</clus>
<clus scale="   84.414">  2  5  1 -1</clus>
<clus scale="   92.598">  7  8 -1 -1</clus>
<clus scale="   28.121">  1  5  2 -1</clus>
</clustering>
</event>
<event>
 9    1  0.6345107E-005  0.9393143E+02  0.7546771E-02  0.1298838E+00
         21   -1    0    0  501  502  0.00000000000E+00  0.00000000000E+00  0.92749506340E+02  0.92749506340E+02  0.00000000000E+00 0. -1.
          1   -1    0    0  502    0 -0.00000000000E+00 -0.00000000000E+00 -0.38138745224E+03  0.38138745224E+03  0.00000000000E+00 0. -1.
        -24    2    1    2    0    0  0.36355548991E+02  0.26628185468E+02 -0.31891318219E+03  0.33333402740E+03  0.85878809071E+02 0.  0.
         23    2    1    2    0    0  0.15556823401E+02 -0.18193483352E+02 -0.35363430845E+00  0.79941068558E+02  0.76272090533E+02 0.  0.
         13    1    3    3    0    0  0.14155938007E+02  0.54182364853E+02 -0.24592990344E+03  0.25222536877E+03  0.00000000000E+00 0. -1.
        -14    1    3    3    0    0  0.22199610984E+02 -0.27554179385E+02 -0.72983278746E+02  0.81108658637E+02  0.00000000000E+00 0.  1.
        -11    1    4    4    0    0  0.18013240208E+01 -0.39540566245E+02 -0.23116445219E+02  0.45837443065E+02  0.00000000000E+00 0. -1.
         11    1    4    4    0    0  0.13755499380E+02  0.21347082893E+02  0.22762810910E+02  0.34103625493E+02  0.00000000000E+00 0.  1.
          2    1    1    2  501    0 -0.51912372392E+02 -0.84347021162E+01  0.30628870598E+02  0.60861862618E+02  0.00000000000E+00 0. -1.
<scales pt_clust_5="13000.00000" pt_clust_6="13000.00000" pt_clust_7="13000.00000" pt_clust_8="13000.00000" pt_clust_9="52.59314"></scales>
<clustering>
<clus scale="   52.593">  1  9  2 -1</clus>
<clus scale="   76.272">  7  8 -1 -1</clus>
<clus scale="   85.237">  1  7  2 -1</clus>
<clus scale="   85.879">  5  6 -1 -1</clus>
<clus scale="   52.593">  1  5  2 -1</clus>
</clustering>
</event>
<event>
 9    1  0.6345107E-005  0.2520464E+03  0.7546771E-02  0.1112203E+00
          1   -1    0    0  502    0 -0.00000000000E+00  0.00000000000E+00  0.68424868867E+03  0.68424868867E+03  0.00000000000E+00 0. -1.
         21   -1    0    0  501  502  0.00000000000E+00 -0.00000000000E+00 -0.14046357683E+03  0.14046357683E+03  0.00000000000E+00 0.  1.
         23    2    1    2    0    0 -0.20217163009E+03 -0.90775820798E+02  0.28588747418E+03  0.37317694582E+03  0.91737491481E+02 0.  0.
        -24    2    1    2    0    0  0.25909349138E+03  0.41829284184E+02  0.14118500056E+03  0.31276319928E+03  0.94913055744E+02 0.  0.
         11    1    4    4    0    0  0.12142104628E+03  0.67618181364E+02  0.72865625706E+02  0.15692255523E+03  0.00000000000E+00 0. -1.
        -12    1    4    4    0    0  0.13767244510E+03 -0.25788897180E+02  0.68319374851E+02  0.15584064405E+03  0.00000000000E+00 0.  1.
        -13    1    3    3    0    0 -0.14492614147E+03 -0.51339691385E+02  0.12583412341E+03  0.19867958377E+03  0.00000000000E+00 0. -1.
         13    1    3    3    0    0 -0.57245488627E+02 -0.39436129412E+02  0.16005335076E+03  0.17449736205E+03  0.00000000000E+00 0.  1.
          2    1    1    2  501    0 -0.56921861286E+02  0.48946536614E+02  0.11671263710E+03  0.13877212039E+03  0.00000000000E+00 0. -1.
<scales pt_clust_5="13000.00000" pt_clust_6="13000.00000" pt_clust_7="13000.00000" pt_clust_8="13000.00000" pt_clust_9="75.07241"></scales>
<clustering>
<clus scale="   75.072">  2  9  1 -1</clus>
<clus scale="   91.737">  7  8 -1 -1</clus>
<clus scale="   94.913">  5  6 -1 -1</clus>
<clus scale="  250.868">  1  7  2 -1</clus>
<clus scale="   75.072">  2  5  1 -1</clus>
</clustering>
</event>
<event>
 9    1  0.6345107E-005  0.1763711E+03  0.7546771E-02  0.1174697E+00
          1   -1    0    0  502    0 -0.00000000000E+00  0.00000000000E+00  0.76460649400E+03  0.76460649400E+03  0.00000000000E+00 0. -1.
         21   -1    0    0  501  502  0.00000000000E+00 -0.00000000000E+00 -0.10233320250E+03  0.10233320250E+03  0.00000000000E+00 0.  1.
        -24    2    1    2    0    0 -0.14433818017E+03 -0.16756345232E+02  0.65515678153E+03  0.67629092728E+03  0.83813630023E+02 0.  0.
         23    2    1    2    0    0  0.10528686420E+03  0.79606730260E+01  0.11910453967E+01  0.15018297800E+03  0.10679331536E+03 0.  0.
         13    1    3    3    0    0 -0.47166094954E+02 -0.44107355869E+02  0.20393478822E+03  0.21391469609E+03  0.00000000000E+00 0. -1.
        -14    1    3    3    0    0 -0.97172085214E+02  0.27351010637E+02  0.45122199330E+03  0.46237623119E+03  0.00000000000E+00 0.  1.
        -11    1    4    4    0    0  0.71613386971E+02  0.26027563070E+02  0.47771181478E+02  0.89933292015E+02  0.00000000000E+00 0. -1.
         11    1    4    4    0    0  0.33673477226E+02 -0.18066890044E+02 -0.46580136081E+02  0.60249685988E+02  0.00000000000E+00 0.  1.
          2    1    1    2  501    0  0.39051315971E+02  0.87956722060E+01  0.59254645818E+01  0.40465791221E+02  0.00000000000E+00 0. -1.
<scales pt_clust_5="13000.00000" pt_clust_6="13000.00000" pt_clust_7="13000.00000" pt_clust_8="13000.00000" pt_clust_9="40.02960"></scales>
<clustering>
<clus scale="   40.030">  2  9  1 -1</clus>
<clus scale="   83.814">  5  6 -1 -1</clus>
<clus scale="  106.793">  7  8 -1 -1</clus>
<clus scale="  163.483">  1  5  2 -1</clus>
<clus scale="   40.030">  2  5  1 -1</clus>
</clustering>
</event>
<event>
 9    1  0.6345107E-005  0.9522934E+02  0.7546771E-02  0.1299240E+00
         21   -1    0    0  501  502  0.00000000000E+00  0.00000000000E+00  0.38855263476E+02  0.38855263476E+02  0.00000000000E+00 0.  1.
          3   -1    0    0  502    0 -0.00000000000E+00 -0.00000000000E+00 -0.50125479023E+03  0.50125479023E+03  0.00000000000E+00 0. -1.
         23    2    1    2    0    0 -0.35283768506E+02  0.29484924867E+01 -0.33419039130E+03  0.34755017750E+03  0.88624321266E+02 0.  0.
        -24    2    1    2    0    0  0.27886226498E+02  0.44442386899E+02 -0.10751248035E+03  0.14032032596E+03  0.73335482997E+02 0.  0.
         13    1    4    4    0    0  0.33446040080E+02  0.19324398010E+02 -0.10788503643E+03  0.11459167091E+03  0.00000000000E+00 0. -1.
        -14    1    4    4    0    0 -0.55598135818E+01  0.25117988888E+02  0.37255608628E+00  0.25728655054E+02  0.00000000000E+00 0.  1.
        -11    1    3    3    0    0 -0.12660693256E+02  0.40765238785E+02 -0.92485439943E+02  0.10186095645E+03  0.00000000000E+00 0.  1.
         11    1    3    3    0    0 -0.22623075250E+02 -0.37816746299E+02 -0.24170495135E+03  0.24568922106E+03  0.00000000000E+00 0. -1.
          4    1    1    2  501    0  0.73975420074E+01 -0.47390879385E+02 -0.20696655115E+02  0.52239550243E+02  0.00000000000E+00 0. -1.
<scales pt_clust_5="13000.00000" pt_clust_6="13000.00000" pt_clust_7="13000.00000" pt_clust_8="13000.00000" pt_clust_9="47.96477"></scales>
<clustering>
<clus scale="   47.965">  1  9  2 -1</clus>
<clus scale="   73.335">  5  6 -1 -1</clus>
<clus scale="   81.194">  1  5  2 -1</clus>
<clus scale="   88.624">  7  8 -1 -1</clus>
<clus scale="   47.965">  1  5  2 -1</clus>
</clustering>
</event>
<event>
 9    1  0.6345107E-005  0.2556097E+03  0.7546771E-02  0.1126060E+00
         21   -1    0    0  501  502  0.00000000000E+00  0.00000000000E+00  0.36588207642E+03  0.36588207642E+03  0.00000000000E+00 0.  1.
          3   -1    0    0  502    0 -0.00000000000E+00 -0.00000000000E+00 -0.65546928869E+03  0.65546928869E+03  0.00000000000E+00 0. -1.
        -24    2    1    2    0    0 -0.13462411728E+03 -0.65336005785E+02 -0.15893551497E+03  0.23271152066E+03  0.80633165159E+02 0.  0.
         23    2    1    2    0    0 -0.10751945332E+03  0.12815849604E+03 -0.38608631015E+03  0.43111080298E+03  0.93855487892E+02 0.  0.
         13    1    3    3    0    0 -0.16069854170E+02 -0.41025628655E+02 -0.19792686512E+02  0.48302099943E+02  0.00000000000E+00 0. -1.
        -14    1    3    3    0    0 -0.11855426311E+03 -0.24310377131E+02 -0.13914282845E+03  0.18440942071E+03  0.00000000000E+00 0.  1.
        -11    1    4    4    0    0 -0.47184759094E+02  0.10726430454E+03 -0.17525461092E+03  0.21082270079E+03  0.00000000000E+00 0.  1.
         11    1    4    4    0    0 -0.60334694229E+02  0.20894191509E+02 -0.21083169923E+03  0.22028810219E+03  0.00000000000E+00 0. -1.
          4    1    1    2  501    0  0.24214357060E+03 -0.62822490259E+02  0.25543461284E+03  0.35752904148E+03  0.00000000000E+00 0. -1.
<scales pt_clust_5="13000.00000" pt_clust_6="13000.00000" pt_clust_7="13000.00000" pt_clust_8="13000.00000" pt_clust_9="237.75501"></scales>
<clustering>
<clus scale="   80.633">  5  6 -1 -1</clus>
<clus scale="   93.855">  7  8 -1 -1</clus>
<clus scale="  169.983">  2  5  1 -1</clus>
<clus scale="  237.755">  1  9  2 -1</clus>
<clus scale="  237.755">  1  5  2 -1</clus>
</clustering>
</event>
<event>
 9    1  0.6345107E-005  0.2021732E+03  0.7546771E-02  0.1149314E+00
          1   -1    0    0  502    0 -0.00000000000E+00  0.00000000000E+00  0.16364157663E+04  0.16364157663E+04  0.00000000000E+00 0. -1.
         21   -1    0    0  501  502  0.00000000000E+00 -0.00000000000E+00 -0.48286651490E+02  0.48286651490E+02  0.00000000000E+00 0. -1.
         23    2    1    2    0    0 -0.12988956887E+03  0.34437861069E+02  0.50550478751E+03  0.53161810067E+03  0.95002359903E+02 0.  0.
        -24    2    1    2    0    0  0.21337939393E+03 -0.78440356997E+02  0.99679030121E+03  0.10255137462E+04  0.80024269306E+02 0.  0.
         13    1    4    4    0    0  0.21738027592E+03 -0.84780369301E+02  0.95793917458E+03  0.98594592021E+03  0.00000000000E+00 0. -1.
        -14    1    4    4    0    0 -0.40008819850E+01  0.63400123035E+01  0.38851126627E+02  0.39567825981E+02  0.00000000000E+00 0.  1.
        -11    1    3    3    0    0 -0.90455510781E+02 -0.17641863175E+02  0.21607958974E+03  0.23491237487E+03  0.00000000000E+00 0. -1.
         11    1    3    3    0    0 -0.39434058086E+02  0.52079724244E+02  0.28942519777E+03  0.29670572580E+03  0.00000000000E+00 0.  1.
          2    1    1    2  501    0 -0.83489825064E+02  0.44002495928E+02  0.85834026139E+02  0.12757057098E+03  0.00000000000E+00 0. -1.
<scales pt_clust_5="13000.00000" pt_clust_6="13000.00000" pt_clust_7="13000.00000" pt_clust_8="13000.00000" pt_clust_9="94.37569"></scales>
<clustering>
<clus scale="   80.024">  5  6 -1 -1</clus>
<clus scale="   94.376">  2  9  1 -1</clus>
<clus scale="   95.002">  7  8 -1 -1</clus>
<clus scale="  195.582">  2  5  1 -1</clus>
<clus scale="   94.376">  2  5  1 -1</clus>
</clustering>
</event>
<event>
 9    1  0.6345107E-005  0.1212633E+03  0.7546771E-02  0.1244926E+00
         21   -1    0    0  501  502  0.00000000000E+00  0.00000000000E+00  0.16130927302E+03  0.16130927302E+03  0.00000000000E+00 0.  1.
         -2   -1    0    0    0  501 -0.00000000000E+00 -0.00000000000E+00 -0.28765662316E+03  0.28765662316E+03  0.00000000000E+00 0.  1.
        -24    2    1    2    0    0  0.76919493518E+02  0.38226314862E+02 -0.22619621669E+03  0.25494212629E+03  0.80329942641E+02 0.  0.
         23    2    1    2    0    0 -0.42148588332E+02  0.14238024541E+02  0.54008607396E+02  0.11615945126E+03  0.92719273097E+02 0.  0.
         11    1    3    3    0    0  0.70451524702E+02  0.44960573230E+02 -0.10889454817E+03  0.13726941793E+03  0.00000000000E+00 0. -1.
        -12    1    3    3    0    0  0.64679688159E+01 -0.67342583682E+01 -0.11730166852E+03  0.11767270836E+03  0.00000000000E+00 0.  1.
        -13    1    4    4    0    0 -0.25809766632E+02  0.39764878091E+02  0.67906251271E+02  0.82816958076E+02  0.00000000000E+00 0.  1.
         13    1    4    4    0    0 -0.16338821700E+02 -0.25526853549E+02 -0.13897643875E+02  0.33342493188E+02  0.00000000000E+00 0. -1.
         -1    1    1    2    0  502 -0.34770905186E+02 -0.52464339403E+02  0.45840259153E+02  0.77864318630E+02  0.00000000000E+00 0.  1.
<scales pt_clust_5="13000.00000" pt_clust_6="13000.00000" pt_clust_7="13000.00000" pt_clust_8="13000.00000" pt_clust_9="62.94063"></scales>
<clustering>
<clus scale="   62.941">  1  9  2 -1</clus>
<clus scale="   80.330">  5  6 -1 -1</clus>
<clus scale="   92.719">  7  8 -1 -1</clus>
<clus scale="  112.075">  2  5  1 -1</clus>
<clus scale="   62.941">  1  5  2 -1</clus>
</clustering>
</event>
<event>
 9    1  0.6345107E-005  0.9147171E+02  0.7546771E-02  0.1306522E+00
         21   -1    0    0  501  502  0.00000000000E+00  0.00000000000E+00  0.25894087950E+02  0.25894087950E+02  0.00000000000E+00 0.  1.
          3   -1    0    0  502    0 -0.00000000000E+00 -0.00000000000E+00 -0.55881237010E+03  0.55881237010E+03  0.00000000000E+00 0. -1.
        -24    2    1    2    0    0 -0.68992489841E+01 -0.43342042309E+01 -0.35891068567E+03  0.36761891756E+03  0.79122710394E+02 0.  0.
         23    2    1    2    0    0  0.34475710276E+02 -0.12100847441E+02 -0.13322041392E+03  0.16518218043E+03  0.90567482797E+02 0.  0.
         13    1    3    3    0    0  0.22360243674E+02  0.24840820505E+02 -0.10014175025E+03  0.10557185706E+03  0.00000000000E+00 0. -1.
        -14    1    3    3    0    0 -0.29259492658E+02 -0.29175024736E+02 -0.25876893542E+03  0.26204706051E+03  0.00000000000E+00 0.  1.
        -11    1    4    4    0    0  0.43628731607E+02  0.18210908849E+02 -0.27218589035E+02  0.54552314450E+02  0.00000000000E+00 0.  1.
         11    1    4    4    0    0 -0.91530213313E+01 -0.30311756291E+02 -0.10600182488E+03  0.11062986598E+03  0.00000000000E+00 0. -1.
          4    1    1    2  501    0 -0.27576461292E+02  0.16435051672E+02 -0.40787182564E+02  0.51905360054E+02  0.00000000000E+00 0. -1.
<scales pt_clust_5="13000.00000" pt_clust_6="13000.00000" pt_clust_7="13000.00000" pt_clust_8="13000.00000" pt_clust_9="32.10253"></scales>
<clustering>
<clus scale="   32.103">  1  9  2 -1</clus>
<clus scale="   79.123">  5  6 -1 -1</clus>
<clus scale="   80.156">  2  5  1 -1</clus>
<clus scale="   90.567">  7  8 -1 -1</clus>
<clus scale="   32.103">  1  5  2 -1</clus>
</clustering>
</event>
<event>
 9    1  0.6345107E-005  0.9491639E+02  0.7546771E-02  0.1296054E+00
         -2   -1    0    0    0  501 -0.00000000000E+00  0.00000000000E+00  0.48439927313E+03  0.48439927313E+03  0.00000000000E+00 0.  1.
         21   -1    0    0  501  502  0.00000000000E+00 -0.00000000000E+00 -0.31769889451E+02  0.31769889451E+02  0.00000000000E+00 0.  1.
        -24    2    1    2    0    0  0.22383421268E+02 -0.35149377132E+02  0.31325180066E+03  0.32600956612E+03  0.80118976054E+02 0.  0.
         23    2    1    2    0    0 -0.15016891265E+02  0.10575694315E+02  0.13723214204E+03  0.16441596485E+03  0.88671282589E+02 0.  0.
         11    1    3    3    0    0  0.67479810134E+01 -0.57115465632E+02  0.26042276114E+03  0.26669781811E+03  0.00000000000E+00 0. -1.
        -12    1    3    3    0    0  0.15635440255E+02  0.21966088499E+02  0.52829039521E+02  0.59311748015E+02  0.00000000000E+00 0.  1.
        -13    1    4    4    0    0 -0.17329637633E+02 -0.35467066280E+02  0.90681242753E+02  0.98900540536E+02  0.00000000000E+00 0.  1.
         13    1    4    4    0    0  0.23127463680E+01  0.46042760595E+02  0.46550899288E+02  0.65515424317E+02  0.00000000000E+00 0. -1.
         -1    1    1    2    0  502 -0.73665300029E+01  0.24573682817E+02  0.21454409791E+01  0.25743631610E+02  0.00000000000E+00 0.  1.
<scales pt_clust_5="13000.00000" pt_clust_6="13000.00000" pt_clust_7="13000.00000" pt_clust_8="13000.00000" pt_clust_9="25.65408"></scales>
<clustering>
<clus scale="   25.654">  2  9  1 -1</clus>
<clus scale="   80.119">  5  6 -1 -1</clus>
<clus scale="   86.980">  1  5  2 -1</clus>
<clus scale="   88.671">  7  8 -1 -1</clus>
<clus scale="   25.654">  2  5  1 -1</clus>
</clustering>
</event>
<event>
 9    1  0.6345107E-005  0.2835510E+03  0.7546771E-02  0.1133252E+00
          1   -1    0    0  502    0 -0.00000000000E+00  0.00000000000E+00  0.22747865683E+03  0.22747865683E+03  0.00000000000E+00 0. -1.
         21   -1    0    0  501  502  0.00000000000E+00 -0.00000000000E+00 -0.52731163014E+03  0.52731163014E+03  0.00000000000E+00 0. -1.
         23    2    1    2    0    0  0.11526779899E+02  0.50099505686E+02 -0.44702332173E+02  0.11351966941E+03  0.90805229567E+02 0.  0.
        -24    2    1    2    0    0  0.20322336717E+03 -0.19044696609E+03 -0.25082164597E+03  0.38469002058E+03  0.86632153338E+02 0.  0.
         13    1    4    4    0    0  0.19830311584E+03 -0.18906144419E+03 -0.25769001479E+03  0.37612830146E+03  0.00000000000E+00 0. -1.
        -14    1    4    4    0    0  0.49202513267E+01 -0.13855219038E+01  0.68683688261E+01  0.85617191262E+01  0.00000000000E+00 0.  1.
        -11    1    3    3    0    0  0.43894988814E+02  0.22765207358E+01 -0.68810858343E+01  0.44489346274E+02  0.00000000000E+00 0.  1.
         11    1    3    3    0    0 -0.32368208915E+02  0.47822984950E+02 -0.37821246339E+02  0.69030323138E+02  0.00000000000E+00 0. -1.
          2    1    1    2  501    0 -0.21475014707E+03  0.14034746041E+03 -0.43089951654E+01  0.25658059698E+03  0.00000000000E+00 0. -1.
<scales pt_clust_5="13000.00000" pt_clust_6="13000.00000" pt_clust_7="13000.00000" pt_clust_8="13000.00000" pt_clust_9="269.99277"></scales>
<clustering>
<clus scale="   86.632">  5  6 -1 -1</clus>
<clus scale="   90.805">  7  8 -1 -1</clus>
<clus scale="  104.348">  1  7  2 -1</clus>
<clus scale="  269.993">  2  9  1 -1</clus>
<clus scale="  269.993">  2  5  1 -1</clus>
</clustering>
</event>
<event>
 9    1  0.6345107E-005  0.1465023E+03  0.7546771E-02  0.1221280E+00
          1   -1    0    0  502    0 -0.00000000000E+00  0.00000000000E+00  0.11389463632E+04  0.11389463632E+04  0.00000000000E+00 0. -1.
         21   -1    0    0  501  502  0.00000000000E+00 -0.00000000000E+00 -0.41781403794E+02  0.41781403794E+02  0.00000000000E+00 0. -1.
        -24    2    1    2    0    0 -0.59816222423E+02  0.16161933762E+02  0.18755613107E+03  0.21412685737E+03  0.82666923101E+02 0.  0.
         23    2    1    2    0    0 -0.80455547605E+02 -0.80878401572E+02  0.22353056677E+03  0.26334578404E+03  0.79816519037E+02 0.  0.
         13    1    3    3    0    0 -0.65244694779E+02  0.40807636557E+02  0.15381729725E+03  0.17199387876E+03  0.00000000000E+00 0. -1.
        -14    1    3    3    0    0  0.54284723568E+01 -0.24645702795E+02  0.33738833818E+02  0.42132978601E+02  0.00000000000E+00 0.  1.
        -13    1    4    4    0    0 -0.73851148433E+02 -0.51183721135E+02  0.21296208580E+03  0.23114198109E+03  0.00000000000E+00 0.  1.
         13    1    4    4    0    0 -0.66043991719E+01 -0.29694680437E+02  0.10568480973E+02  0.32203802955E+02  0.00000000000E+00 0. -1.
          2    1    1    2  501    0  0.14027177003E+03  0.64716467810E+02  0.68607826158E+03  0.70325512560E+03  0.00000000000E+00 0. -1.
<scales pt_clust_5="13000.00000" pt_clust_6="13000.00000" pt_clust_7="13000.00000" pt_clust_8="13000.00000" pt_clust_9="122.85055"></scales>
<clustering>
<clus scale="   79.817">  7  8 -1 -1</clus>
<clus scale="   82.667">  5  6 -1 -1</clus>
<clus scale="  103.310">  1  5  2 -1</clus>
<clus scale="  122.851">  2  9  1 -1</clus>
<clus scale="  122.851">  2  5  1 -1</clus>
</clustering>
</event>
<event>
 9    1  0.6345107E-005  0.1637386E+03  0.7546771E-02  0.1186270E+00
          1   -1    0    0  502    0 -0.00000000000E+00  0.00000000000E+00  0.44257708490E+03  0.44257708490E+03  0.00000000000E+00 0. -1.
         21   -1    0    0  501  502  0.00000000000E+00 -0.00000000000E+00 -0.99379634890E+02  0.99379634890E+02  0.00000000000E+00 0.  1.
         23    2    1    2    0    0 -0.55827717507E+02  0.11944194497E+03  0.17946673477E+03  0.24066773721E+03  0.91266305855E+02 0.  0.
        -24    2    1    2    0    0  0.29056403670E+02 -0.14468188535E+03  0.40253635999E+02  0.17244664896E+03  0.79626433950E+02 0.  0.
         13    1    4    4    0    0  0.38811038700E+02 -0.22106861395E+02  0.12677950005E+02  0.46429952208E+02  0.00000000000E+00 0. -1.
        -14    1    4    4    0    0 -0.97546350299E+01 -0.12257502395E+03  0.27575685994E+02  0.12601669675E+03  0.00000000000E+00 0.  1.
        -13    1    3    3    0    0 -0.61966974562E+02  0.43368341630E+02  0.12779537538E+03  0.14850042747E+03  0.00000000000E+00 0. -1.
         13    1    3    3    0    0  0.61392570551E+01  0.76073603345E+02  0.51671359396E+02  0.92167309741E+02  0.00000000000E+00 0.  1.
          2    1    1    2  501    0  0.26771313836E+02  0.25239940375E+02  0.12347707924E+03  0.12884233362E+03  0.00000000000E+00 0. -1.
<scales pt_clust_5="13000.00000" pt_clust_6="13000.00000" pt_clust_7="13000.00000" pt_clust_8="13000.00000" pt_clust_9="36.79347"></scales>
<clustering>
<clus scale="   36.793">  2  9  1 -1</clus>
<clus scale="   79.626">  5  6 -1 -1</clus>
<clus scale="   91.266">  7  8 -1 -1</clus>
<clus scale="  157.547">  2  5  1 -1</clus>
<clus scale="   36.793">  2  5  1 -1</clus>
</clustering>
</event>
<event>
 9    1  0.6345107E-005  0.1002418E+03  0.7546771E-02  0.1286889E+00
         21   -1    0    0  501  502  0.00000000000E+00  0.00000000000E+00  0.36862962287E+03  0.36862962287E+03  0.00000000000E+00 0.  1.
          3   -1    0    0  502    0 -0.00000000000E+00 -0.00000000000E+00 -0.68714305072E+02  0.68714305072E+02  0.00000000000E+00 0. -1.
        -24    2    1    2    0    0 -0.89330499343E+01 -0.54705581523E+01  0.37736820162E+02  0.89801833261E+02  0.80811974815E+02 0.  0.
         23    2    1    2    0    0  0.76782335236E+02 -0.38173014050E+02  0.86020793649E+02  0.15379013060E+03  0.94335154235E+02 0.  0.
         13    1    3    3    0    0  0.30796289470E+02 -0.14047319565E+02 -0.70714643736E+00  0.33856146978E+02  0.00000000000E+00 0. -1.
        -14    1    3    3    0    0 -0.39729339405E+02  0.85767614122E+01  0.38443966599E+02  0.55945686284E+02  0.00000000000E+00 0.  1.
        -13    1    4    4    0    0  0.12673075899E+02 -0.25215143784E+02 -0.16121834686E+02  0.32501136634E+02  0.00000000000E+00 0. -1.
         13    1    4    4    0    0  0.64109259336E+02 -0.12957870265E+02  0.10214262834E+03  0.12128899397E+03  0.00000000000E+00 0.  1.
          4    1    1    2  501    0 -0.67849285301E+02  0.43643572202E+02  0.17615770398E+03  0.19375196408E+03  0.00000000000E+00 0. -1.
<scales pt_clust_5="13000.00000" pt_clust_6="13000.00000" pt_clust_7="13000.00000" pt_clust_8="13000.00000" pt_clust_9="80.67395"></scales>
<clustering>
<clus scale="   80.674">  1  9  2 -1</clus>
<clus scale="   80.812">  5  6 -1 -1</clus>
<clus scale="   87.635">  2  5  1 -1</clus>
<clus scale="   94.335">  7  8 -1 -1</clus>
<clus scale="   80.674">  1  5  2 -1</clus>
</clustering>
</event>
<event>
 9    1  0.6345107E-005  0.1681866E+03  0.7546771E-02  0.1206754E+00
          3   -1    0    0  502    0 -0.00000000000E+00  0.00000000000E+00  0.41025738214E+03  0.41025738214E+03  0.00000000000E+00 0. -1.
         21   -1    0    0  501  502  0.00000000000E+00 -0.00000000000E+00 -0.11353544340E+03  0.11353544340E+03  0.00000000000E+00 0.  1.
         23    2    1    2    0    0  0.50036454482E+01 -0.17844503386E+02  0.60959572005E+02  0.11113141908E+03  0.91053062106E+02 0.  0.
        -24    2    1    2    0    0 -0.15326233415E+03  0.33320517875E+02  0.57769811721E+02  0.18049445050E+03  0.68127054329E+02 0.  0.
         11    1    4    4    0    0 -0.30358223450E+02  0.17296577592E+02 -0.13573494693E+02  0.37483770963E+02  0.00000000000E+00 0. -1.
        -12    1    4    4    0    0 -0.12290411070E+03  0.16023940283E+02  0.71343306414E+02  0.14301067953E+03  0.00000000000E+00 0.  1.
        -13    1    3    3    0    0  0.47498519952E+02 -0.10928359230E+02  0.40931965469E+02  0.63647185564E+02  0.00000000000E+00 0.  1.
         13    1    3    3    0    0 -0.42494874504E+02 -0.69161441564E+01  0.20027606535E+02  0.47484233516E+02  0.00000000000E+00 0. -1.
          4    1    1    2  501    0  0.14825868871E+03 -0.15476014489E+02  0.17799255502E+03  0.23216695597E+03  0.00000000000E+00 0. -1.
<scales pt_clust_5="13000.00000" pt_clust_6="13000.00000" pt_clust_7="13000.00000" pt_clust_8="13000.00000" pt_clust_9="153.77080"></scales>
<clustering>
<clus scale="   68.127">  5  6 -1 -1</clus>
<clus scale="   91.053">  7  8 -1 -1</clus>
<clus scale="   92.920">  1  7  2 -1</clus>
<clus scale="  153.771">  2  9  1 -1</clus>
<clus scale="  153.771">  2  5  1 -1</clus>
</clustering>
</event>
<event>
 9    1  0.6345107E-005  0.1206393E+03  0.7546771E-02  0.1245109E+00
          3   -1    0    0  502    0 -0.00000000000E+00  0.00000000000E+00  0.61078908232E+03  0.61078908232E+03  0.00000000000E+00 0. -1.
         21   -1    0    0  501  502  0.00000000000E+00 -0.00000000000E+00 -0.49489287816E+02  0.49489287816E+02  0.00000000000E+00 0.  1.
        -24    2    1    2    0    0 -0.61275582999E+02  0.39718986309E+02  0.27163170848E+03  0.29250430827E+03  0.80266371299E+02 0.  0.
         23    2    1    2    0    0  0.82424810485E+02 -0.66761396711E+02  0.91397570256E+02  0.16655333926E+03  0.90197369662E+02 0.  0.
         13    1    3    3    0    0 -0.46232356461E+02 -0.11172350521E+02  0.18407549528E+03  0.19012111972E+03  0.00000000000E+00 0. -1.
        -14    1    3    3    0    0 -0.15043226538E+02  0.50891336829E+02  0.87556213200E+02  0.10238318856E+03  0.00000000000E+00 0.  1.
        -13    1    4    4    0    0  0.50811787921E+02 -0.54410914041E+02  0.60354605778E+01  0.74691446249E+02  0.00000000000E+00 0.  1.
         13    1    4    4    0    0  0.31613022565E+02 -0.12350482670E+02  0.85362109679E+02  0.91861893006E+02  0.00000000000E+00 0. -1.
          4    1    1    2  501    0 -0.21149227486E+02  0.27042410402E+02  0.19827051576E+03  0.20122072260E+03  0.00000000000E+00 0. -1.
<scales pt_clust_5="13000.00000" pt_clust_6="13000.00000" pt_clust_7="13000.00000" pt_clust_8="13000.00000" pt_clust_9="34.33050"></scales>
<clustering>
<clus scale="   34.330">  2  9  1 -1</clus>
<clus scale="   80.266">  5  6 -1 -1</clus>
<clus scale="   90.197">  7  8 -1 -1</clus>
<clus scale="  113.406">  1  5  2 -1</clus>
<clus scale="   34.330">  2  5  1 -1</clus>
</clustering>
</event>
<event>
 9    1  0.6345107E-005  0.1450077E+03  0.7546771E-02  0.1208813E+00
         21   -1    0    0  501  502  0.00000000000E+00  0.00000000000E+00  0.21219714991E+03  0.21219714991E+03  0.00000000000E+00 0.  1.
          1   -1    0    0  502    0 -0.00000000000E+00 -0.00000000000E+00 -0.13093622174E+03  0.13093622174E+03  0.00000000000E+00 0. -1.
         23    2    1    2    0    0 -0.66737965209E+02 -0.90211354995E+02 -0.17613289118E+02  0.14531450230E+03  0.90631297329E+02 0.  0.
        -24    2    1    2    0    0  0.85550621057E+02  0.78561776751E+02  0.60585022870E+02  0.15359567292E+03  0.80188678831E+02 0.  0.
         11    1    4    4    0    0  0.51667215833E+02  0.65283331800E+01  0.51891570525E+02  0.73517721793E+02  0.00000000000E+00 0. -1.
        -12    1    4    4    0    0  0.33883405223E+02  0.72033443571E+02  0.86934523441E+01  0.80077951122E+02  0.00000000000E+00 0.  1.
        -13    1    3    3    0    0  0.98141214861E+01 -0.57608669433E+02  0.62046417519E+01  0.58767111156E+02  0.00000000000E+00 0. -1.
         13    1    3    3    0    0 -0.76552086695E+02 -0.32602685562E+02 -0.23817930870E+02  0.86547391146E+02  0.00000000000E+00 0.  1.
          2    1    1    2  501    0 -0.18812655848E+02  0.11649578243E+02  0.38289194420E+02  0.44223196431E+02  0.00000000000E+00 0. -1.
<scales pt_clust_5="13000.00000" pt_clust_6="13000.00000" pt_clust_7="13000.00000" pt_clust_8="13000.00000" pt_clust_9="22.12756"></scales>
<clustering>
<clus scale="   22.128">  1  9  2 -1</clus>
<clus scale="   80.189">  5  6 -1 -1</clus>
<clus scale="   90.631">  7  8 -1 -1</clus>
<clus scale="  138.721">  1  5  2 -1</clus>
<clus scale="   22.128">  1  5  2 -1</clus>
</clustering>
</event>
<event>
 9    1  0.6345107E-005  0.1373226E+03  0.7546771E-02  0.1231771E+00
         21   -1    0    0  501  502  0.00000000000E+00  0.00000000000E+00  0.10387032585E+03  0.10387032585E+03  0.00000000000E+00 0.  1.
          1   -1    0    0  502    0 -0.00000000000E+00 -0.00000000000E+00 -0.55224475645E+03  0.55224475645E+03  0.00000000000E+00 0. -1.
        -24    2    1    2    0    0 -0.36911460338E+02 -0.44663561277E+02 -0.21848549382E+03  0.24065254193E+03  0.82585987409E+02 0.  0.
         23    2    1    2    0    0 -0.60461341449E+02 -0.67570388088E+02  0.13320902137E+02  0.13045561473E+03  0.92843361767E+02 0.  0.
         13    1    3    3    0    0  0.25299400623E+02 -0.69493952457E+01 -0.80439577486E+02  0.84610161283E+02  0.00000000000E+00 0. -1.
        -14    1    3    3    0    0 -0.62210860961E+02 -0.37714166031E+02 -0.13804591634E+03  0.15604238065E+03  0.00000000000E+00 0.  1.
        -13    1    4    4    0    0 -0.59508865789E+02  0.20662411143E+01  0.12316731840E+02  0.60805232859E+02  0.00000000000E+00 0. -1.
         13    1    4    4    0    0 -0.95247566015E+00 -0.69636629202E+02  0.10041702969E+01  0.69650381869E+02  0.00000000000E+00 0.  1.
          2    1    1    2  501    0  0.97372801786E+02  0.11223394936E+03 -0.24320983892E+03  0.28500692564E+03  0.00000000000E+00 0. -1.
<scales pt_clust_5="13000.00000" pt_clust_6="13000.00000" pt_clust_7="13000.00000" pt_clust_8="13000.00000" pt_clust_9="101.18114"></scales>
<clustering>
<clus scale="   82.586">  5  6 -1 -1</clus>
<clus scale="   92.843">  7  8 -1 -1</clus>
<clus scale="  100.885">  2  5  1 -1</clus>
<clus scale="  101.181">  1  9  2 -1</clus>
<clus scale="  101.181">  1  5  2 -1</clus>
</clustering>
</event>
<event>
 9    1  0.6345107E-005  0.9404272E+02  0.7546771E-02  0.1297917E+00
         21   -1    0    0  501  502  0.00000000000E+00  0.00000000000E+00  0.28036292649E+03  0.28036292649E+03  0.00000000000E+00 0.  1.
          1   -1    0    0  502    0 -0.00000000000E+00 -0.00000000000E+00 -0.66476411633E+02  0.66476411633E+02  0.00000000000E+00 0. -1.
        -24    2    1    2    0    0 -0.26977811163E+02 -0.47638912321E+01  0.72493444148E+02  0.11372143530E+03  0.83227209774E+02 0.  0.
         23    2    1    2    0    0  0.17338689040E+01  0.32274478552E+02  0.16333097444E+03  0.18981246835E+03  0.91143390671E+02 0.  0.
         13    1    3    3    0    0  0.92143434877E+01  0.20604190617E+02 -0.62519272282E+01  0.23420576230E+02  0.00000000000E+00 0. -1.
        -14    1    3    3    0    0 -0.36192154651E+02 -0.25368081849E+02  0.78745371377E+02  0.90300859067E+02  0.00000000000E+00 0.  1.
        -13    1    4    4    0    0  0.46187078211E+02  0.11929358026E+02  0.76059476131E+02  0.89780842533E+02  0.00000000000E+00 0.  1.
         13    1    4    4    0    0 -0.44453209307E+02  0.20345120525E+02  0.87271498309E+02  0.10003162582E+03  0.00000000000E+00 0. -1.
          2    1    1    2  501    0  0.25243942259E+02 -0.27510587320E+02 -0.21937903727E+02  0.43305434479E+02  0.00000000000E+00 0. -1.
<scales pt_clust_5="13000.00000" pt_clust_6="13000.00000" pt_clust_7="13000.00000" pt_clust_8="13000.00000" pt_clust_9="37.33752"></scales>
<clustering>
<clus scale="   37.338">  1  9  2 -1</clus>
<clus scale="   83.227">  5  6 -1 -1</clus>
<clus scale="   86.393">  2  5  1 -1</clus>
<clus scale="   91.143">  7  8 -1 -1</clus>
<clus scale="   37.338">  1  5  2 -1</clus>
</clustering>
</event>
<event>
 9    1  0.6345107E-005  0.1132226E+03  0.7546771E-02  0.1260240E+00
          1   -1    0    0  502    0 -0.00000000000E+00  0.00000000000E+00  0.81779765233E+03  0.81779765233E+03  0.00000000000E+00 0. -1.
         21   -1    0    0  501  502  0.00000000000E+00 -0.00000000000E+00 -0.36796932235E+02  0.36796932235E+02  0.00000000000E+00 0. -1.
         23    2    1    2    0    0 -0.35561134778E+01  0.69133439996E+02  0.60507017856E+03  0.61599560117E+03  0.92458537833E+02 0.  0.
        -24    2    1    2    0    0  0.43213074310E+02 -0.42280211983E+02  0.65546600455E+02  0.11827282312E+03  0.77698891501E+02 0.  0.
         13    1    4    4    0    0  0.29840322338E+02  0.12509995757E+02  0.74427027389E+00  0.32365085653E+02  0.00000000000E+00 0. -1.
        -14    1    4    4    0    0  0.13372751972E+02 -0.54790207740E+02  0.64802330181E+02  0.85907737465E+02  0.00000000000E+00 0.  1.
        -11    1    3    3    0    0 -0.44237468514E+02  0.15481503020E+02  0.20414990199E+03  0.20946076730E+03  0.00000000000E+00 0.  1.
         11    1    3    3    0    0  0.40681355036E+02  0.53651936975E+02  0.40092027657E+03  0.40653483387E+03  0.00000000000E+00 0. -1.
          2    1    1    2  501    0 -0.39656960832E+02 -0.26853228012E+02  0.11038394108E+03  0.12032616027E+03  0.00000000000E+00 0. -1.
<scales pt_clust_5="13000.00000" pt_clust_6="13000.00000" pt_clust_7="13000.00000" pt_clust_8="13000.00000" pt_clust_9="47.89335"></scales>
<clustering>
<clus scale="   47.893">  2  9  1 -1</clus>
<clus scale="   77.699">  5  6 -1 -1</clus>
<clus scale="   92.459">  7  8 -1 -1</clus>
<clus scale="  101.528">  2  5  1 -1</clus>
<clus scale="   47.893">  2  5  1 -1</clus>
</clustering>
</event>
<event>
 9    1  0.6345107E-005  0.9605528E+02  0.7546771E-02  0.1293914E+00
         21   -1    0    0  501  502  0.00000000000E+00  0.00000000000E+00  0.19339643194E+03  0.19339643194E+03  0.00000000000E+00 0. -1.
         -2   -1    0    0    0  501 -0.00000000000E+00 -0.00000000000E+00 -0.74154414072E+02  0.74154414072E+02  0.00000000000E+00 0.  1.
        -24    2    1    2    0    0  0.89998678593E+01 -0.26256154718E+02 -0.82194120400E+01  0.86307804395E+02  0.81308640889E+02 0.  0.
         23    2    1    2    0    0  0.53990694971E+01  0.45997605909E+02  0.86572528375E+02  0.13360947613E+03  0.90618760435E+02 0.  0.
         13    1    3    3    0    0  0.18125417266E+02  0.26154255344E+02 -0.91170190802E+01  0.33101296962E+02  0.00000000000E+00 0. -1.
        -14    1    3    3    0    0 -0.91255494068E+01 -0.52410410062E+02  0.89760704020E+00  0.53206507433E+02  0.00000000000E+00 0.  1.
        -11    1    4    4    0    0  0.42244480493E+02  0.10741614263E+01  0.25698328849E+02  0.49458609570E+02  0.00000000000E+00 0.  1.
         11    1    4    4    0    0 -0.36845410996E+02  0.44923444482E+02  0.60874199526E+02  0.84150866565E+02  0.00000000000E+00 0. -1.
         -1    1    1    2    0  502 -0.14398937356E+02 -0.19741451191E+02  0.40888901534E+02  0.47633565485E+02  0.00000000000E+00 0.  1.
<scales pt_clust_5="13000.00000" pt_clust_6="13000.00000" pt_clust_7="13000.00000" pt_clust_8="13000.00000" pt_clust_9="24.43469"></scales>
<clustering>
<clus scale="   24.435">  1  9  2 -1</clus>
<clus scale="   81.309">  5  6 -1 -1</clus>
<clus scale="   87.327">  2  5  1 -1</clus>
<clus scale="   90.619">  7  8 -1 -1</clus>
<clus scale="   24.435">  1  5  2 -1</clus>
</clustering>
</event>
<event>
 9    1  0.6345107E-005  0.1104616E+03  0.7546771E-02  0.1263339E+00
         21   -1    0    0  501  502  0.00000000000E+00  0.00000000000E+00  0.63388587581E+03  0.63388587581E+03  0.00000000000E+00 0.  1.
         -2   -1    0    0    0  501 -0.00000000000E+00 -0.00000000000E+00 -0.47090950195E+02  0.47090950195E+02  0.00000000000E+00 0.  1.
         23    2    1    2    0    0 -0.17197380313E+02  0.66287306066E+02  0.72724732830E+02  0.13499382280E+03  0.90800267590E+02 0.  0.
        -24    2    1    2    0    0 -0.51611613120E+02 -0.50474926723E+02  0.36789652386E+03  0.38365170491E+03  0.81420523070E+02 0.  0.
         11    1    4    4    0    0 -0.47903290099E+02  0.96945176894E+00  0.10063571077E+03  0.11145946044E+03  0.00000000000E+00 0. -1.
        -12    1    4    4    0    0 -0.37083230212E+01 -0.51444378492E+02  0.26726081309E+03  0.27219224447E+03  0.00000000000E+00 0.  1.
        -13    1    3    3    0    0  0.24977412943E+02  0.21165612644E+02  0.64961021750E+02  0.72744681336E+02  0.00000000000E+00 0. -1.
         13    1    3    3    0    0 -0.42174793256E+02  0.45121693423E+02  0.77637110803E+01  0.62249141466E+02  0.00000000000E+00 0.  1.
         -1    1    1    2    0  502  0.68808993433E+02 -0.15812379344E+02  0.14617366892E+03  0.16233129829E+03  0.00000000000E+00 0.  1.
<scales pt_clust_5="13000.00000" pt_clust_6="13000.00000" pt_clust_7="13000.00000" pt_clust_8="13000.00000" pt_clust_9="70.60247"></scales>
<clustering>
<clus scale="   70.602">  1  9  2 -1</clus>
<clus scale="   81.421">  5  6 -1 -1</clus>
<clus scale="   90.800">  7  8 -1 -1</clus>
<clus scale="  102.890">  1  5  2 -1</clus>
<clus scale="   70.602">  1  5  2 -1</clus>
</clustering>
</event>
<event>
 9    1  0.6345107E-005  0.9493976E+02  0.7546771E-02  0.1298502E+00
          1   -1    0    0  502    0 -0.00000000000E+00  0.00000000000E+00  0.16260939007E+03  0.16260939007E+03  0.00000000000E+00 0. -1.
         21   -1    0    0  501  502  0.00000000000E+00 -0.00000000000E+00 -0.11521602843E+03  0.11521602843E+03  0.00000000000E+00 0.  1.
         23    2    1    2    0    0 -0.17102974838E+02  0.12946567673E+02  0.10224543876E+03  0.13851840627E+03  0.90956548774E+02 0.  0.
        -24    2    1    2    0    0  0.44611363156E+02 -0.13133023625E+02 -0.17450158424E+02  0.92878037274E+02  0.78480390841E+02 0.  0.
         11    1    4    4    0    0  0.40920480124E+02 -0.41349833060E+02  0.23305132200E+01  0.58221350719E+02  0.00000000000E+00 0. -1.
        -12    1    4    4    0    0  0.36908830315E+01  0.28216809435E+02 -0.19780671644E+02  0.34656686554E+02  0.00000000000E+00 0.  1.
        -13    1    3    3    0    0  0.24919912880E+02  0.24915086136E+02  0.10290670464E+02  0.36710509036E+02  0.00000000000E+00 0. -1.
         13    1    3    3    0    0 -0.42022887717E+02 -0.11968518463E+02  0.91954768298E+02  0.10180789723E+03  0.00000000000E+00 0.  1.
          2    1    1    2  501    0 -0.27508388318E+02  0.18645595236E+00 -0.37401918695E+02  0.46428974959E+02  0.00000000000E+00 0. -1.
<scales pt_clust_5="13000.00000" pt_clust_6="13000.00000" pt_clust_7="13000.00000" pt_clust_8="13000.00000" pt_clust_9="27.50902"></scales>
<clustering>
<clus scale="   27.509">  2  9  1 -1</clus>
<clus scale="   78.480">  5  6 -1 -1</clus>
<clus scale="   83.064">  2  5  1 -1</clus>
<clus scale="   90.957">  7  8 -1 -1</clus>
<clus scale="   27.509">  2  5  1 -1</clus>
</clustering>
</event>
<event>
 9    1  0.6345107E-005  0.9591816E+02  0.7546771E-02  0.1299003E+00
         21   -1    0    0  501  502  0.00000000000E+00  0.00000000000E+00  0.53066086032E+03  0.53066086032E+03  0.00000000000E+00 0. -1.
          3   -1    0    0  502    0 -0.00000000000E+00 -0.00000000000E+00 -0.20609913390E+02  0.20609913390E+02  0.00000000000E+00 0. -1.
        -24    2    1    2    0    0 -0.91817307724E+01  0.33735988791E+02  0.17089183586E+03  0.18747876644E+03  0.68715698247E+02 0.  0.
         23    2    1    2    0    0 -0.10296975214E+02 -0.52090492118E+02  0.29575620849E+03  0.31280063808E+03  0.86908326710E+02 0.  0.
         11    1    3    3    0    0  0.22461499125E+02  0.27605561509E+02  0.13326013808E+03  0.13793059983E+03  0.00000000000E+00 0. -1.
        -12    1    3    3    0    0 -0.31643229897E+02  0.61304272825E+01  0.37631697774E+02  0.49548166609E+02  0.00000000000E+00 0.  1.
        -13    1    4    4    0    0  0.38204087092E+02 -0.29689812624E+02  0.14477551462E+03  0.15264660781E+03  0.00000000000E+00 0.  1.
         13    1    4    4    0    0 -0.48501062306E+02 -0.22400679494E+02  0.15098069388E+03  0.16015403026E+03  0.00000000000E+00 0. -1.
          4    1    1    2  501    0  0.19478705987E+02  0.18354503327E+02  0.43402902588E+02  0.50991369194E+02  0.00000000000E+00 0. -1.
<scales pt_clust_5="13000.00000" pt_clust_6="13000.00000" pt_clust_7="13000.00000" pt_clust_8="13000.00000" pt_clust_9="26.76394"></scales>
<clustering>
<clus scale="   26.764">  1  9  2 -1</clus>
<clus scale="   68.716">  5  6 -1 -1</clus>
<clus scale="   79.807">  2  5  1 -1</clus>
<clus scale="   86.908">  7  8 -1 -1</clus>
<clus scale="   26.764">  1  5  2 -1</clus>
</clustering>
</event>
<event>
 9    1  0.6345107E-005  0.1283289E+03  0.7546771E-02  0.1234079E+00
         21   -1    0    0  501  502  0.00000000000E+00  0.00000000000E+00  0.15500108342E+03  0.15500108342E+03  0.00000000000E+00 0. -1.
          3   -1    0    0  502    0 -0.00000000000E+00 -0.00000000000E+00 -0.21400182110E+03  0.21400182110E+03  0.00000000000E+00 0. -1.
        -24    2    1    2    0    0  0.82217289390E+01  0.85495531105E+02 -0.10063793740E+03  0.15205644576E+03  0.74940547027E+02 0.  0.
         23    2    1    2    0    0  0.26560057328E+02 -0.11573460565E+03  0.67788508151E+02  0.16395527818E+03  0.90477156330E+02 0.  0.
         11    1    3    3    0    0  0.36250200116E+02  0.17441124596E+02 -0.31761920993E+02  0.51255140823E+02  0.00000000000E+00 0. -1.
        -12    1    3    3    0    0 -0.28028471177E+02  0.68054406509E+02 -0.68876016406E+02  0.10080130494E+03  0.00000000000E+00 0.  1.
        -13    1    4    4    0    0 -0.17113364814E+02 -0.71734508253E+02  0.70331829069E+02  0.10190816017E+03  0.00000000000E+00 0. -1.
         13    1    4    4    0    0  0.43673422142E+02 -0.44000097393E+02 -0.25433209182E+01  0.62047118011E+02  0.00000000000E+00 0.  1.
          4    1    1    2  501    0 -0.34781786267E+02  0.30239074541E+02 -0.26151308439E+02  0.52991180569E+02  0.00000000000E+00 0. -1.
<scales pt_clust_5="13000.00000" pt_clust_6="13000.00000" pt_clust_7="13000.00000" pt_clust_8="13000.00000" pt_clust_9="46.08879"></scales>
<clustering>
<clus scale="   46.089">  1  9  2 -1</clus>
<clus scale="   74.941">  5  6 -1 -1</clus>
<clus scale="   90.477">  7  8 -1 -1</clus>
<clus scale="  117.891">  2  5  1 -1</clus>
<clus scale="   46.089">  1  5  2 -1</clus>
</clustering>
</event>
<event>
 9    1  0.6345107E-005  0.1012153E+03  0.7546771E-02  0.1282482E+00
          1   -1    0    0  502    0 -0.00000000000E+00  0.00000000000E+00  0.86256614773E+02  0.86256614773E+02  0.00000000000E+00 0. -1.
         21   -1    0    0  501  502  0.00000000000E+00 -0.00000000000E+00 -0.35745787367E+03  0.35745787367E+03  0.00000000000E+00 0. -1.
        -24    2    1    2    0    0  0.12142449834E+02  0.41016088684E+02 -0.88663858797E+00  0.89637717983E+02  0.78767859805E+02 0.  0.
         23    2    1    2    0    0  0.34819128508E+02 -0.90774742378E+02 -0.25023617980E+03  0.28277139036E+03  0.88820537962E+02 0.  0.
         11    1    3    3    0    0  0.28584037666E+01  0.57698708218E+02  0.20193359482E+02  0.61197084647E+02  0.00000000000E+00 0. -1.
        -12    1    3    3    0    0  0.92840460672E+01 -0.16682619534E+02 -0.21079998070E+02  0.28440633336E+02  0.00000000000E+00 0.  1.
        -11    1    4    4    0    0 -0.78555442881E+01 -0.56261091366E+02 -0.51776876735E+02  0.76862636842E+02  0.00000000000E+00 0.  1.
         11    1    4    4    0    0  0.42674672796E+02 -0.34513651011E+02 -0.19845930306E+03  0.20590875352E+03  0.00000000000E+00 0. -1.
          2    1    1    2  501    0 -0.46961578342E+02  0.49758653694E+02 -0.20078440514E+02  0.71305380100E+02  0.00000000000E+00 0. -1.
<scales pt_clust_5="13000.00000" pt_clust_6="13000.00000" pt_clust_7="13000.00000" pt_clust_8="13000.00000" pt_clust_9="68.42016"></scales>
<clustering>
<clus scale="   68.420">  2  9  1 -1</clus>
<clus scale="   78.768">  5  6 -1 -1</clus>
<clus scale="   88.821">  7  8 -1 -1</clus>
<clus scale="   92.519">  1  5  2 -1</clus>
<clus scale="   68.420">  2  5  1 -1</clus>
</clustering>
</event>
<event>
 9    1  0.8436833E-005  0.2128276E+03  0.7546771E-02  0.1140163E+00
          1   -1    0    0  502    0 -0.00000000000E+00  0.00000000000E+00  0.76698131992E+03  0.76698131992E+03  0.00000000000E+00 0. -1.
         21   -1    0    0  501  502  0.00000000000E+00 -0.00000000000E+00 -0.12030794087E+03  0.12030794087E+03  0.00000000000E+00 0.  1.
        -24    2    1    2    0    0 -0.12262172008E+03  0.15252649672E+03  0.56763141465E+03  0.60582612150E+03  0.80743099722E+02 0.  0.
         23    2    1    2    0    0  0.91702876463E+02 -0.15118479234E+03  0.24496161012E+01  0.19885464773E+03  0.90944550782E+02 0.  0.
         11    1    3    3    0    0 -0.12206762745E+03  0.15707971841E+03  0.56736671272E+03  0.60123167773E+03  0.00000000000E+00 0. -1.
        -12    1    3    3    0    0 -0.55409262185E+00 -0.45532216940E+01  0.26470193875E+00  0.45944437688E+01  0.00000000000E+00 0.  1.
        -13    1    4    4    0    0  0.68736582909E+02 -0.41911558152E+02 -0.24186209859E+02  0.84061104467E+02  0.00000000000E+00 0. -1.
         13    1    4    4    0    0  0.22966293554E+02 -0.10927323419E+03  0.26635825961E+02  0.11479354326E+03  0.00000000000E+00 0.  1.
          2    1    1    2  501    0  0.30918843613E+02 -0.13417043734E+01  0.76592348289E+02  0.82608491558E+02  0.00000000000E+00 0. -1.
<scales pt_clust_5="13000.00000" pt_clust_6="13000.00000" pt_clust_7="13000.00000" pt_clust_8="13000.00000" pt_clust_9="30.94796"></scales>
<clustering>
<clus scale="   30.948">  2  9  1 -1</clus>
<clus scale="   80.743">  5  6 -1 -1</clus>
<clus scale="   90.945">  7  8 -1 -1</clus>
<clus scale="  208.672">  1  5  2 -1</clus>
<clus scale="   30.948">  2  5  1 -1</clus>
</clustering>
</event>
<event>
 9    1  0.6345107E-005  0.1056451E+03  0.7546771E-02  0.1270809E+00
         -2   -1    0    0    0  501 -0.00000000000E+00  0.00000000000E+00  0.17481470114E+03  0.17481470114E+03  0.00000000000E+00 0.  1.
         21   -1    0    0  501  502  0.00000000000E+00 -0.00000000000E+00 -0.92741878030E+02  0.92741878030E+02  0.00000000000E+00 0.  1.
        -24    2    1    2    0    0  0.47085048507E+02 -0.12729128925E+02  0.46896106041E+02  0.10470018320E+03  0.79899005527E+02 0.  0.
         23    2    1    2    0    0 -0.82110260853E+02  0.15152172559E+02  0.43573656144E+02  0.12675729313E+03  0.84835514860E+02 0.  0.
         13    1    3    3    0    0  0.62233698252E+02  0.11120262975E+02  0.21689318162E+02  0.66836516734E+02  0.00000000000E+00 0. -1.
        -14    1    3    3    0    0 -0.15148649744E+02 -0.23849391901E+02  0.25206787879E+02  0.37863666467E+02  0.00000000000E+00 0.  1.
        -13    1    4    4    0    0 -0.13356294439E+02  0.26422790003E+02  0.48596384406E+02  0.56904859283E+02  0.00000000000E+00 0. -1.
         13    1    4    4    0    0 -0.68753966414E+02 -0.11270617445E+02 -0.50227282621E+01  0.69852433848E+02  0.00000000000E+00 0.  1.
         -1    1    1    2    0  502  0.35025212346E+02 -0.24230436337E+01 -0.83969390713E+01  0.36099102843E+02  0.00000000000E+00 0.  1.
<scales pt_clust_5="13000.00000" pt_clust_6="13000.00000" pt_clust_7="13000.00000" pt_clust_8="13000.00000" pt_clust_9="35.10893"></scales>
<clustering>
<clus scale="   35.109">  2  9  1 -1</clus>
<clus scale="   79.899">  5  6 -1 -1</clus>
<clus scale="   84.836">  7  8 -1 -1</clus>
<clus scale="  101.723">  1  5  2 -1</clus>
<clus scale="   35.109">  2  5  1 -1</clus>
</clustering>
</event>
<event>
 9    1  0.6345107E-005  0.1172601E+03  0.7546771E-02  0.1247799E+00
          3   -1    0    0  502    0 -0.00000000000E+00  0.00000000000E+00  0.45258538614E+03  0.45258538614E+03  0.00000000000E+00 0. -1.
         21   -1    0    0  501  502  0.00000000000E+00 -0.00000000000E+00 -0.56870239364E+02  0.56870239364E+02  0.00000000000E+00 0. -1.
         23    2    1    2    0    0 -0.81187075422E+02  0.53978691499E+02  0.20329726822E+03  0.23888252584E+03  0.78930612133E+02 0.  0.
        -24    2    1    2    0    0  0.75041563254E+02 -0.38791061754E+00  0.52561816172E+02  0.12067494324E+03  0.78538593806E+02 0.  0.
         13    1    4    4    0    0  0.47041317840E+02  0.36494300490E+02  0.42867278075E+02  0.73364317498E+02  0.00000000000E+00 0. -1.
        -14    1    4    4    0    0  0.28000245414E+02 -0.36882211107E+02  0.96945380967E+01  0.47310625744E+02  0.00000000000E+00 0.  1.
        -13    1    3    3    0    0 -0.15871501442E+02 -0.20462736977E+02  0.33886391474E+02  0.42648747810E+02  0.00000000000E+00 0.  1.
         13    1    3    3    0    0 -0.65315573980E+02  0.74441428476E+02  0.16941087675E+03  0.19623377803E+03  0.00000000000E+00 0. -1.
          4    1    1    2  501    0  0.61455121683E+01 -0.53590780881E+02  0.13985606238E+03  0.14989815643E+03  0.00000000000E+00 0. -1.
<scales pt_clust_5="13000.00000" pt_clust_6="13000.00000" pt_clust_7="13000.00000" pt_clust_8="13000.00000" pt_clust_9="53.94202"></scales>
<clustering>
<clus scale="   53.942">  2  9  1 -1</clus>
<clus scale="   78.539">  5  6 -1 -1</clus>
<clus scale="   78.931">  7  8 -1 -1</clus>
<clus scale="  116.997">  2  5  1 -1</clus>
<clus scale="   53.942">  2  5  1 -1</clus>
</clustering>
</event>
<event>
 9    1  0.6345107E-005  0.1292929E+03  0.7546771E-02  0.1232149E+00
         21   -1    0    0  501  502  0.00000000000E+00  0.00000000000E+00  0.43071499020E+02  0.43071499020E+02  0.00000000000E+00 0.  1.
          1   -1    0    0  502    0 -0.00000000000E+00 -0.00000000000E+00 -0.71005047821E+03  0.71005047821E+03  0.00000000000E+00 0. -1.
         23    2    1    2    0    0 -0.38519021418E+02 -0.77961112873E+02 -0.53416251912E+03  0.54904486494E+03  0.92514954210E+02 0.  0.
        -24    2    1    2    0    0  0.59454166451E+02  0.85058504902E+02 -0.12504303161E+03  0.18064466766E+03  0.78911273194E+02 0.  0.
         11    1    4    4    0    0  0.27219263599E+02 -0.90306704630E+01 -0.43146515232E+02  0.51807944338E+02  0.00000000000E+00 0. -1.
        -12    1    4    4    0    0  0.32234902852E+02  0.94089175365E+02 -0.81896516377E+02  0.12883672333E+03  0.00000000000E+00 0.  1.
        -11    1    3    3    0    0 -0.42724339499E+02 -0.66351392799E+00 -0.11262578876E+03  0.12045902926E+03  0.00000000000E+00 0.  1.
         11    1    3    3    0    0  0.42053180810E+01 -0.77297598945E+02 -0.42153673036E+03  0.42858583568E+03  0.00000000000E+00 0. -1.
          2    1    1    2  501    0 -0.20935145033E+02 -0.70973920285E+01 -0.77734284609E+01  0.23432444627E+02  0.00000000000E+00 0. -1.
<scales pt_clust_5="13000.00000" pt_clust_6="13000.00000" pt_clust_7="13000.00000" pt_clust_8="13000.00000" pt_clust_9="22.10550"></scales>
<clustering>
<clus scale="   22.106">  1  9  2 -1</clus>
<clus scale="   78.911">  5  6 -1 -1</clus>
<clus scale="   92.515">  7  8 -1 -1</clus>
<clus scale="  119.936">  1  5  2 -1</clus>
<clus scale="   22.106">  1  5  2 -1</clus>
</clustering>
</event>
<event>
 9    1  0.6345107E-005  0.9824047E+02  0.7546771E-02  0.1288689E+00
          3   -1    0    0  502    0 -0.00000000000E+00  0.00000000000E+00  0.82356344722E+03  0.82356344722E+03  0.00000000000E+00 0. -1.
         21   -1    0    0  501  502  0.00000000000E+00 -0.00000000000E+00 -0.17086239348E+02  0.17086239348E+02  0.00000000000E+00 0.  1.
        -24    2    1    2    0    0 -0.46432423107E+02  0.18945718085E+01  0.51167830561E+03  0.52016358407E+03  0.81215186021E+02 0.  0.
         23    2    1    2    0    0  0.18341227754E+02 -0.66320815358E+01  0.18123762776E+03  0.20340611992E+03  0.90258444277E+02 0.  0.
         13    1    3    3    0    0 -0.60896229456E+02 -0.18794729577E+02  0.28251473017E+03  0.28961382113E+03  0.00000000000E+00 0. -1.
        -14    1    3    3    0    0  0.14463806349E+02  0.20689301386E+02  0.22916357544E+03  0.23054976294E+03  0.00000000000E+00 0.  1.
        -13    1    4    4    0    0  0.10962580679E+02 -0.27580958575E+02  0.17858894321E+03  0.18103838844E+03  0.00000000000E+00 0. -1.
         13    1    4    4    0    0  0.73786470744E+01  0.20948877039E+02  0.26486845516E+01  0.22367731483E+02  0.00000000000E+00 0.  1.
          4    1    1    2  501    0  0.28091195353E+02  0.47375097274E+01  0.11356127450E+03  0.11707998258E+03  0.00000000000E+00 0. -1.
<scales pt_clust_5="13000.00000" pt_clust_6="13000.00000" pt_clust_7="13000.00000" pt_clust_8="13000.00000" pt_clust_9="28.48789"></scales>
<clustering>
<clus scale="   28.488">  2  9  1 -1</clus>
<clus scale="   81.215">  5  6 -1 -1</clus>
<clus scale="   90.003">  1  5  2 -1</clus>
<clus scale="   90.258">  7  8 -1 -1</clus>
<clus scale="   28.488">  2  5  1 -1</clus>
</clustering>
</event>
<event>
 9    1  0.6345107E-005  0.9552465E+02  0.7546771E-02  0.1296507E+00
         21   -1    0    0  501  502  0.00000000000E+00  0.00000000000E+00  0.28131074668E+02  0.28131074668E+02  0.00000000000E+00 0.  1.
          1   -1    0    0  502    0 -0.00000000000E+00 -0.00000000000E+00 -0.48152627150E+03  0.48152627150E+03  0.00000000000E+00 0. -1.
         23    2    1    2    0    0  0.10562799654E+02  0.18899105428E+02 -0.29146041110E+03  0.30639843218E+03  0.91989559626E+02 0.  0.
        -24    2    1    2    0    0  0.12280443240E+02 -0.37444833764E+02 -0.14108594082E+03  0.16719740931E+03  0.80602767455E+02 0.  0.
         11    1    4    4    0    0  0.34429264209E+02  0.55007775496E+01 -0.91698095878E+02  0.98102872411E+02  0.00000000000E+00 0. -1.
        -12    1    4    4    0    0 -0.22148820969E+02 -0.42945611313E+02 -0.49387844942E+02  0.69094536900E+02  0.00000000000E+00 0.  1.
        -13    1    3    3    0    0  0.28464027861E+02  0.41257211842E+02 -0.25577753583E+03  0.26064248741E+03  0.00000000000E+00 0. -1.
         13    1    3    3    0    0 -0.17901228207E+02 -0.22358106414E+02 -0.35682875279E+02  0.45755944771E+02  0.00000000000E+00 0.  1.
          2    1    1    2  501    0 -0.22843242894E+02  0.18545728336E+02 -0.20848844910E+02  0.36061504676E+02  0.00000000000E+00 0. -1.
<scales pt_clust_5="13000.00000" pt_clust_6="13000.00000" pt_clust_7="13000.00000" pt_clust_8="13000.00000" pt_clust_9="29.42376"></scales>
<clustering>
<clus scale="   29.424">  1  9  2 -1</clus>
<clus scale="   80.603">  5  6 -1 -1</clus>
<clus scale="   84.615">  1  5  2 -1</clus>
<clus scale="   91.990">  7  8 -1 -1</clus>
<clus scale="   29.424">  1  5  2 -1</clus>
</clustering>
</event>
<event>
 9    1  0.6345107E-005  0.1166464E+03  0.7546771E-02  0.1249171E+00
         -4   -1    0    0    0  501 -0.00000000000E+00  0.00000000000E+00  0.22261770150E+03  0.22261770150E+03  0.00000000000E+00 0.  1.
         21   -1    0    0  501  502  0.00000000000E+00 -0.00000000000E+00 -0.17239125251E+03  0.17239125251E+03  0.00000000000E+00 0.  1.
         23    2    1    2    0    0  0.11458187556E+02  0.72616362169E+02  0.10755635316E+03  0.15836656239E+03  0.90039840413E+02 0.  0.
        -24    2    1    2    0    0 -0.39477037341E+02 -0.60794606553E+02 -0.11978974063E+03  0.16717267864E+03  0.91338392042E+02 0.  0.
         11    1    4    4    0    0  0.17771581158E+02  0.11124218987E+02 -0.41226942259E+02  0.46251898479E+02  0.00000000000E+00 0. -1.
        -12    1    4    4    0    0 -0.57248618499E+02 -0.71918825540E+02 -0.78562798375E+02  0.12092078016E+03  0.00000000000E+00 0.  1.
        -11    1    3    3    0    0 -0.17548408525E+02  0.18372415131E+02 -0.86874260807E+01  0.26850766310E+02  0.00000000000E+00 0. -1.
         11    1    3    3    0    0  0.29006596080E+02  0.54243947037E+02  0.11624377924E+03  0.13151579608E+03  0.00000000000E+00 0.  1.
         -3    1    1    2    0  502  0.28018849785E+02 -0.11821755616E+02  0.62459836464E+02  0.69469712970E+02  0.00000000000E+00 0.  1.
<scales pt_clust_5="13000.00000" pt_clust_6="13000.00000" pt_clust_7="13000.00000" pt_clust_8="13000.00000" pt_clust_9="30.41070"></scales>
<clustering>
<clus scale="   30.411">  2  9  1 -1</clus>
<clus scale="   90.040">  7  8 -1 -1</clus>
<clus scale="   91.338">  5  6 -1 -1</clus>
<clus scale="  115.632">  1  7  2 -1</clus>
<clus scale="   30.411">  2  5  1 -1</clus>
</clustering>
</event>
<event>
 9    1  0.6345107E-005  0.1509407E+03  0.7546771E-02  0.1225025E+00
          1   -1    0    0  502    0 -0.00000000000E+00  0.00000000000E+00  0.47736903758E+03  0.47736903758E+03  0.00000000000E+00 0. -1.
         21   -1    0    0  501  502  0.00000000000E+00 -0.00000000000E+00 -0.70566092642E+02  0.70566092642E+02  0.00000000000E+00 0.  1.
        -24    2    1    2    0    0  0.16210984575E+02  0.52124869082E+01  0.11615949428E+03  0.14534097385E+03  0.85679662267E+02 0.  0.
         23    2    1    2    0    0  0.78196597874E+02 -0.89400295535E+02  0.12351479840E+03  0.19299366699E+03  0.88789240983E+02 0.  0.
         13    1    3    3    0    0  0.93627649263E+01 -0.32049879043E+02  0.97599010335E+02  0.10315242572E+03  0.00000000000E+00 0. -1.
        -14    1    3    3    0    0  0.68482196485E+01  0.37262365951E+02  0.18560483946E+02  0.42188548126E+02  0.00000000000E+00 0.  1.
        -11    1    4    4    0    0  0.56413255298E+02 -0.88703413465E+02  0.50172999797E+02  0.11648210524E+03  0.00000000000E+00 0.  1.
         11    1    4    4    0    0  0.21783342576E+02 -0.69688206968E+00  0.73341798607E+02  0.76511561749E+02  0.00000000000E+00 0. -1.
          2    1    1    2  501    0 -0.94407582449E+02  0.84187808627E+02  0.16712865226E+03  0.20960048938E+03  0.00000000000E+00 0. -1.
<scales pt_clust_5="13000.00000" pt_clust_6="13000.00000" pt_clust_7="13000.00000" pt_clust_8="13000.00000" pt_clust_9="122.06387"></scales>
<clustering>
<clus scale="   85.680">  5  6 -1 -1</clus>
<clus scale="   87.355">  1  5  2 -1</clus>
<clus scale="   88.789">  7  8 -1 -1</clus>
<clus scale="  122.064">  2  9  1 -1</clus>
<clus scale="  122.064">  2  5  1 -1</clus>
</clustering>
</event>
<event>
 9    1  0.6345107E-005  0.1057248E+03  0.7546771E-02  0.1274139E+00
          1   -1    0    0  502    0 -0.00000000000E+00  0.00000000000E+00  0.19499866619E+03  0.19499866619E+03  0.00000000000E+00 0. -1.
         21   -1    0    0  501  502  0.00000000000E+00 -0.00000000000E+00 -0.13347049179E+03  0.13347049179E+03  0.00000000000E+00 0.  1.
         23    2    1    2    0    0 -0.55156638434E+02  0.11558946045E+02  0.12251252018E+03  0.16164369293E+03  0.89126325331E+02 0.  0.
        -24    2    1    2    0    0  0.61201744707E+02  0.21373599112E+02 -0.33860222991E+01  0.10020217551E+03  0.76331687625E+02 0.  0.
         13    1    4    4    0    0  0.42872492020E+02  0.30138063094E+02  0.30542009134E+02  0.60656143473E+02  0.00000000000E+00 0. -1.
        -14    1    4    4    0    0  0.18329252687E+02 -0.87644639816E+01 -0.33928031433E+02  0.39546032037E+02  0.00000000000E+00 0.  1.
        -13    1    3    3    0    0  0.17869057521E+02 -0.19135659734E+02  0.28261032797E+02  0.38524831796E+02  0.00000000000E+00 0.  1.
         13    1    3    3    0    0 -0.73025695955E+02  0.30694605779E+02  0.94251487383E+02  0.12311886114E+03  0.00000000000E+00 0. -1.
          2    1    1    2  501    0 -0.60451062732E+01 -0.32932545157E+02 -0.57598323485E+02  0.66623289537E+02  0.00000000000E+00 0. -1.
<scales pt_clust_5="13000.00000" pt_clust_6="13000.00000" pt_clust_7="13000.00000" pt_clust_8="13000.00000" pt_clust_9="33.48277"></scales>
<clustering>
<clus scale="   33.483">  2  9  1 -1</clus>
<clus scale="   76.332">  5  6 -1 -1</clus>
<clus scale="   89.126">  7  8 -1 -1</clus>
<clus scale="   95.188">  2  5  1 -1</clus>
<clus scale="   33.483">  2  5  1 -1</clus>
</clustering>
</event>
<event>
 9    1  0.6345107E-005  0.4309964E+03  0.7546771E-02  0.1033546E+00
         21   -1    0    0  501  502  0.00000000000E+00  0.00000000000E+00  0.43062697628E+03  0.43062697628E+03  0.00000000000E+00 0. -1.
          1   -1    0    0  502    0 -0.00000000000E+00 -0.00000000000E+00 -0.82132340576E+03  0.82132340576E+03  0.00000000000E+00 0. -1.
        -24    2    1    2    0    0  0.79028347640E+02  0.19882816387E+03 -0.51071217203E+03  0.55963571993E+03  0.81160938188E+02 0.  0.
         23    2    1    2    0    0  0.13380391040E+03  0.73466016012E+02 -0.16670033022E+03  0.24326255283E+03  0.89927346034E+02 0.  0.
         13    1    3    3    0    0  0.76282158303E+02  0.18242242316E+03 -0.50452586155E+03  0.54188859844E+03  0.00000000000E+00 0. -1.
        -14    1    3    3    0    0  0.27461893369E+01  0.16405740705E+02 -0.61863104832E+01  0.17747121495E+02  0.00000000000E+00 0.  1.
        -11    1    4    4    0    0  0.21020448326E+02 -0.19763504086E+02 -0.42293927946E+02  0.51197965611E+02  0.00000000000E+00 0.  1.
         11    1    4    4    0    0  0.11278346207E+03  0.93229520098E+02 -0.12440640228E+03  0.19206458722E+03  0.00000000000E+00 0. -1.
          2    1    1    2  501    0 -0.21283225804E+03 -0.27229417988E+03  0.28671607278E+03  0.44905210928E+03  0.00000000000E+00 0. -1.
<scales pt_clust_5="13000.00000" pt_clust_6="13000.00000" pt_clust_7="13000.00000" pt_clust_8="13000.00000" pt_clust_9="345.60337"></scales>
<clustering>
<clus scale="   81.161">  5  6 -1 -1</clus>
<clus scale="   89.927">  7  8 -1 -1</clus>
<clus scale="  173.654">  5  7 -1 -1</clus>
<clus scale="  345.603">  1  9  2 -1</clus>
<clus scale="  345.603">  1  5  2 -1</clus>
</clustering>
</event>
<event>
 9    1  0.6345107E-005  0.1222539E+03  0.7546771E-02  0.1244223E+00
         21   -1    0    0  501  502  0.00000000000E+00  0.00000000000E+00  0.77309119165E+02  0.77309119165E+02  0.00000000000E+00 0. -1.
          3   -1    0    0  502    0 -0.00000000000E+00 -0.00000000000E+00 -0.43606930622E+03  0.43606930622E+03  0.00000000000E+00 0. -1.
         23    2    1    2    0    0 -0.88719486110E+02  0.12478238593E+02 -0.11662039479E+03  0.17627442100E+03  0.97187969238E+02 0.  0.
        -24    2    1    2    0    0  0.52253846146E+02  0.31736398426E+02 -0.16128917151E+02  0.10393970031E+03  0.82496399373E+02 0.  0.
         13    1    4    4    0    0  0.17386140615E+02 -0.27817435913E+02  0.10602400106E+01  0.32820903936E+02  0.00000000000E+00 0. -1.
        -14    1    4    4    0    0  0.34867705531E+02  0.59553834340E+02 -0.17189157162E+02  0.71118796373E+02  0.00000000000E+00 0.  1.
        -13    1    3    3    0    0 -0.37199239438E+01 -0.34730785225E+02 -0.29354726333E+02  0.45626365564E+02  0.00000000000E+00 0.  1.
         13    1    3    3    0    0 -0.84999562167E+02  0.47209023819E+02 -0.87265668458E+02  0.13064805544E+03  0.00000000000E+00 0. -1.
          4    1    1    2  501    0  0.36465639964E+02 -0.44214637020E+02 -0.22601087512E+03  0.23316430408E+03  0.00000000000E+00 0. -1.
<scales pt_clust_5="13000.00000" pt_clust_6="13000.00000" pt_clust_7="13000.00000" pt_clust_8="13000.00000" pt_clust_9="57.31213"></scales>
<clustering>
<clus scale="   57.312">  1  9  2 -1</clus>
<clus scale="   82.496">  5  6 -1 -1</clus>
<clus scale="   97.188">  7  8 -1 -1</clus>
<clus scale="  110.933">  1  5  2 -1</clus>
<clus scale="   57.312">  1  5  2 -1</clus>
</clustering>
</event>
<event>
 9    1  0.6345107E-005  0.1592363E+03  0.7546771E-02  0.1191331E+00
          1   -1    0    0  502    0 -0.00000000000E+00  0.00000000000E+00  0.35028920458E+03  0.35028920458E+03  0.00000000000E+00 0. -1.
         21   -1    0    0  501  502  0.00000000000E+00 -0.00000000000E+00 -0.11622286924E+03  0.11622286924E+03  0.00000000000E+00 0. -1.
        -24    2    1    2    0    0  0.10568997504E+03 -0.33724913694E+02  0.88352638580E+02  0.16220275089E+03  0.78713423409E+02 0.  0.
         23    2    1    2    0    0 -0.13374840066E+03  0.10350334691E+03  0.97379718460E+02  0.21490866046E+03  0.90007473437E+02 0.  0.
         13    1    3    3    0    0  0.44719412859E+02  0.23397399026E+02  0.47061720892E+02  0.69007751311E+02  0.00000000000E+00 0. -1.
        -14    1    3    3    0    0  0.60970562183E+02 -0.57122312720E+02  0.41290917688E+02  0.93194999581E+02  0.00000000000E+00 0.  1.
        -11    1    4    4    0    0 -0.17458480192E+02  0.67047423065E+02  0.28463226050E+02  0.74902007366E+02  0.00000000000E+00 0.  1.
         11    1    4    4    0    0 -0.11628992046E+03  0.36455923845E+02  0.68916492410E+02  0.14000665310E+03  0.00000000000E+00 0. -1.
          2    1    1    2  501    0  0.28058425614E+02 -0.69778433215E+02  0.48333978302E+02  0.89400662461E+02  0.00000000000E+00 0. -1.
<scales pt_clust_5="13000.00000" pt_clust_6="13000.00000" pt_clust_7="13000.00000" pt_clust_8="13000.00000" pt_clust_9="75.20845"></scales>
<clustering>
<clus scale="   75.208">  2  9  1 -1</clus>
<clus scale="   78.713">  5  6 -1 -1</clus>
<clus scale="   90.007">  7  8 -1 -1</clus>
<clus scale="  153.136">  1  5  2 -1</clus>
<clus scale="   75.208">  2  5  1 -1</clus>
</clustering>
</event>
<event>
 9    1  0.6345107E-005  0.1567006E+03  0.7546771E-02  0.1192966E+00
          1   -1    0    0  502    0 -0.00000000000E+00  0.00000000000E+00  0.99060415405E+03  0.99060415405E+03  0.00000000000E+00 0. -1.
         21   -1    0    0  501  502  0.00000000000E+00 -0.00000000000E+00 -0.61190277519E+02  0.61190277519E+02  0.00000000000E+00 0. -1.
         23    2    1    2    0    0  0.95503149358E+02 -0.15743290393E+03  0.61530483539E+03  0.64785143476E+03  0.84885041591E+02 0.  0.
        -24    2    1    2    0    0 -0.83262957038E+02  0.36114921724E+02  0.21305568939E+03  0.24557742285E+03  0.81722311812E+02 0.  0.
         11    1    4    4    0    0  0.35292712523E+00  0.30298047271E+02  0.23592784101E+02  0.38402027129E+02  0.00000000000E+00 0. -1.
        -12    1    4    4    0    0 -0.83615884164E+02  0.58168744531E+01  0.18946290529E+03  0.20717539572E+03  0.00000000000E+00 0.  1.
        -13    1    3    3    0    0  0.37124568655E+02 -0.25342379678E+01  0.10999498033E+03  0.11611869642E+03  0.00000000000E+00 0.  1.
         13    1    3    3    0    0  0.58378580703E+02 -0.15489866596E+03  0.50530985505E+03  0.53173273833E+03  0.00000000000E+00 0. -1.
          2    1    1    2  501    0 -0.12240192319E+02  0.12131798221E+03  0.10105335175E+03  0.15836557396E+03  0.00000000000E+00 0. -1.
<scales pt_clust_5="13000.00000" pt_clust_6="13000.00000" pt_clust_7="13000.00000" pt_clust_8="13000.00000" pt_clust_9="121.93390"></scales>
<clustering>
<clus scale="   81.722">  5  6 -1 -1</clus>
<clus scale="   84.885">  7  8 -1 -1</clus>
<clus scale="  121.934">  2  9  1 -1</clus>
<clus scale="  155.010">  2  5  1 -1</clus>
<clus scale="  121.934">  2  5  1 -1</clus>
</clustering>
</event>
<event>
 9    1  0.6345107E-005  0.1098887E+03  0.7546771E-02  0.1265228E+00
         21   -1    0    0  501  502  0.00000000000E+00  0.00000000000E+00  0.69565075518E+02  0.69565075518E+02  0.00000000000E+00 0.  1.
          1   -1    0    0  502    0 -0.00000000000E+00 -0.00000000000E+00 -0.21065803122E+03  0.21065803122E+03  0.00000000000E+00 0. -1.
         23    2    1    2    0    0  0.33780826223E+02  0.49239266358E+02 -0.10047336005E+03  0.14801794488E+03  0.90822719372E+02 0.  0.
        -24    2    1    2    0    0 -0.18724942164E+02 -0.64469734774E+02 -0.37314317083E+02  0.11053555920E+03  0.79490763156E+02 0.  0.
         13    1    4    4    0    0  0.50986012614E+01 -0.43391246057E+02 -0.57983144350E+02  0.72600557835E+02  0.00000000000E+00 0. -1.
        -14    1    4    4    0    0 -0.23823543426E+02 -0.21078488717E+02  0.20668827266E+02  0.37935001364E+02  0.00000000000E+00 0.  1.
        -11    1    3    3    0    0  0.56570350061E+02  0.39454164573E+02 -0.33650672697E+02  0.76741145294E+02  0.00000000000E+00 0.  1.
         11    1    3    3    0    0 -0.22789523837E+02  0.97851017855E+01 -0.66822687354E+02  0.71276799584E+02  0.00000000000E+00 0. -1.
          2    1    1    2  501    0 -0.15055884059E+02  0.15230468416E+02 -0.33052785647E+01  0.21669602658E+02  0.00000000000E+00 0. -1.
<scales pt_clust_5="13000.00000" pt_clust_6="13000.00000" pt_clust_7="13000.00000" pt_clust_8="13000.00000" pt_clust_9="21.41604"></scales>
<clustering>
<clus scale="   21.416">  1  9  2 -1</clus>
<clus scale="   79.491">  5  6 -1 -1</clus>
<clus scale="   90.823">  7  8 -1 -1</clus>
<clus scale="  100.725">  1  5  2 -1</clus>
<clus scale="   21.416">  1  5  2 -1</clus>
</clustering>
</event>
<event>
 9    1  0.6345107E-005  0.8812095E+02  0.7546771E-02  0.1310946E+00
         -2   -1    0    0    0  501 -0.00000000000E+00  0.00000000000E+00  0.73450891712E+03  0.73450891712E+03  0.00000000000E+00 0.  1.
         21   -1    0    0  501  502  0.00000000000E+00 -0.00000000000E+00 -0.26433016580E+02  0.26433016580E+02  0.00000000000E+00 0.  1.
        -24    2    1    2    0    0 -0.58754552390E+01 -0.12226911398E+02  0.30764903332E+03  0.31814993934E+03  0.79921448071E+02 0.  0.
         23    2    1    2    0    0  0.50918019327E+02  0.23607937446E+02  0.11621727471E+03  0.15481030604E+03  0.85497347983E+02 0.  0.
         11    1    3    3    0    0 -0.34801306699E+02 -0.20325043749E+02  0.92286786128E+02  0.10070297535E+03  0.00000000000E+00 0. -1.
        -12    1    3    3    0    0  0.28925851460E+02  0.80981323510E+01  0.21536224720E+03  0.21744696399E+03  0.00000000000E+00 0.  1.
        -13    1    4    4    0    0  0.17832365484E+02 -0.20847187796E+02  0.15770155341E+01  0.27478818675E+02  0.00000000000E+00 0.  1.
         13    1    4    4    0    0  0.33085653844E+02  0.44455125242E+02  0.11464025917E+03  0.12733148736E+03  0.00000000000E+00 0. -1.
         -1    1    1    2    0  502 -0.45042564088E+02 -0.11381026048E+02  0.28420959251E+03  0.28798168832E+03  0.00000000000E+00 0.  1.
<scales pt_clust_5="13000.00000" pt_clust_6="13000.00000" pt_clust_7="13000.00000" pt_clust_8="13000.00000" pt_clust_9="46.45818"></scales>
<clustering>
<clus scale="   46.458">  2  9  1 -1</clus>
<clus scale="   79.921">  5  6 -1 -1</clus>
<clus scale="   82.722">  1  5  2 -1</clus>
<clus scale="   85.497">  7  8 -1 -1</clus>
<clus scale="   46.458">  2  5  1 -1</clus>
</clustering>
</event>
<event>
 9    1  0.6345107E-005  0.1177347E+03  0.7546771E-02  0.1250098E+00
          1   -1    0    0  502    0 -0.00000000000E+00  0.00000000000E+00  0.10974435470E+03  0.10974435470E+03  0.00000000000E+00 0. -1.
         21   -1    0    0  501  502  0.00000000000E+00 -0.00000000000E+00 -0.25014195147E+03  0.25014195147E+03  0.00000000000E+00 0. -1.
        -24    2    1    2    0    0  0.46323614793E+02  0.78422788782E+02 -0.82930854115E+01  0.12225349595E+03  0.81124169754E+02 0.  0.
         23    2    1    2    0    0 -0.44437688812E+02 -0.13531977108E+02 -0.13890128548E+03  0.17235976606E+03  0.90865280816E+02 0.  0.
         11    1    3    3    0    0  0.17835988774E+02  0.89526968151E+02 -0.84622283800E+01  0.91677749923E+02  0.00000000000E+00 0. -1.
        -12    1    3    3    0    0  0.28487626020E+02 -0.11104179369E+02  0.16914296843E+00  0.30575746026E+02  0.00000000000E+00 0.  1.
        -13    1    4    4    0    0  0.79700754822E+01  0.31751313202E+02 -0.42018470974E+02  0.53265560132E+02  0.00000000000E+00 0.  1.
         13    1    4    4    0    0 -0.52407764294E+02 -0.45283290310E+02 -0.96882814504E+02  0.11909420593E+03  0.00000000000E+00 0. -1.
          2    1    1    2  501    0 -0.18859259819E+01 -0.64890811674E+02  0.67967741176E+01  0.65273044168E+02  0.00000000000E+00 0. -1.
<scales pt_clust_5="13000.00000" pt_clust_6="13000.00000" pt_clust_7="13000.00000" pt_clust_8="13000.00000" pt_clust_9="64.91824"></scales>
<clustering>
<clus scale="   64.918">  2  9  1 -1</clus>
<clus scale="   81.124">  5  6 -1 -1</clus>
<clus scale="   90.865">  7  8 -1 -1</clus>
<clus scale="  110.391">  1  5  2 -1</clus>
<clus scale="   64.918">  2  5  1 -1</clus>
</clustering>
</event>
<event>
 9    1  0.6345107E-005  0.1736353E+03  0.7546771E-02  0.1175003E+00
          1   -1    0    0  502    0 -0.00000000000E+00  0.00000000000E+00  0.18394954341E+03  0.18394954341E+03  0.00000000000E+00 0. -1.
         21   -1    0    0  501  502  0.00000000000E+00 -0.00000000000E+00 -0.22235940697E+03  0.22235940697E+03  0.00000000000E+00 0. -1.
        -24    2    1    2    0    0 -0.16278282505E+03  0.10494751420E+02  0.50111506299E+02  0.18923553101E+03  0.81795691787E+02 0.  0.
         23    2    1    2    0    0  0.12210271032E+03 -0.98293031002E+01 -0.90552090138E+02  0.17633721458E+03  0.88822548659E+02 0.  0.
         13    1    3    3    0    0 -0.15842962958E+03  0.93281033782E+01  0.21362376697E+02  0.16013529336E+03  0.00000000000E+00 0. -1.
        -14    1    3    3    0    0 -0.43531954696E+01  0.11666480414E+01  0.28749129602E+02  0.29100237651E+02  0.00000000000E+00 0.  1.
        -13    1    4    4    0    0  0.92198633993E+02 -0.83975596416E+01 -0.10755095857E+03  0.14190953388E+03  0.00000000000E+00 0. -1.
         13    1    4    4    0    0  0.29904076331E+02 -0.14317434586E+01  0.16998868428E+02  0.34427680700E+02  0.00000000000E+00 0.  1.
          2    1    1    2  501    0  0.40680114724E+02 -0.66544831938E+00  0.20307202739E+01  0.40736204785E+02  0.00000000000E+00 0. -1.
<scales pt_clust_5="13000.00000" pt_clust_6="13000.00000" pt_clust_7="13000.00000" pt_clust_8="13000.00000" pt_clust_9="40.68558"></scales>
<clustering>
<clus scale="   40.686">  2  9  1 -1</clus>
<clus scale="   81.796">  5  6 -1 -1</clus>
<clus scale="   88.823">  7  8 -1 -1</clus>
<clus scale="  170.148">  1  5  2 -1</clus>
<clus scale="   40.686">  2  5  1 -1</clus>
</clustering>
</event>
<event>
 9    1  0.6345107E-005  0.2366191E+03  0.7546771E-02  0.1122802E+00
         21   -1    0    0  501  502  0.00000000000E+00  0.00000000000E+00  0.26861662905E+03  0.26861662905E+03  0.00000000000E+00 0. -1.
         -4   -1    0    0    0  501 -0.00000000000E+00 -0.00000000000E+00 -0.26626654889E+03  0.26626654889E+03  0.00000000000E+00 0.  1.
         23    2    1    2    0    0  0.20358088421E+03 -0.83549689510E+02 -0.77920485995E+02  0.25061298632E+03  0.91156676877E+02 0.  0.
        -24    2    1    2    0    0 -0.21082196386E+03  0.50304123513E+02  0.91733092966E+02  0.24836628635E+03  0.79337548254E+02 0.  0.
         13    1    4    4    0    0 -0.85975470344E+02  0.13995184996E+02  0.79225531844E+02  0.11774689635E+03  0.00000000000E+00 0. -1.
        -14    1    4    4    0    0 -0.12484649352E+03  0.36308938516E+02  0.12507561122E+02  0.13061939000E+03  0.00000000000E+00 0.  1.
        -13    1    3    3    0    0  0.18683120614E+03 -0.41421482910E+02 -0.73745068708E+02  0.20508528468E+03  0.00000000000E+00 0.  1.
         13    1    3    3    0    0  0.16749678075E+02 -0.42128206600E+02 -0.41754172867E+01  0.45527701638E+02  0.00000000000E+00 0. -1.
         -3    1    1    2    0  502  0.72410796484E+01  0.33245565998E+02 -0.11462526802E+02  0.35903905270E+02  0.00000000000E+00 0.  1.
<scales pt_clust_5="13000.00000" pt_clust_6="13000.00000" pt_clust_7="13000.00000" pt_clust_8="13000.00000" pt_clust_9="34.02502"></scales>
<clustering>
<clus scale="   34.025">  1  9  2 -1</clus>
<clus scale="   79.338">  5  6 -1 -1</clus>
<clus scale="   91.157">  7  8 -1 -1</clus>
<clus scale="  232.322">  1  5  2 -1</clus>
<clus scale="   34.025">  1  5  2 -1</clus>
</clustering>
</event>
<event>
 9    1  0.6345107E-005  0.9427765E+02  0.7546771E-02  0.1299009E+00
         -4   -1    0    0    0  501 -0.00000000000E+00  0.00000000000E+00  0.37686237639E+03  0.37686237639E+03  0.00000000000E+00 0.  1.
         21   -1    0    0  501  502  0.00000000000E+00 -0.00000000000E+00 -0.36118063220E+02  0.36118063220E+02  0.00000000000E+00 0. -1.
         23    2    1    2    0    0 -0.90600438423E+01  0.41961635095E+01  0.11981769611E+03  0.14985615577E+03  0.89447721820E+02 0.  0.
        -24    2    1    2    0    0  0.11063329373E+02 -0.51737028856E+02  0.13533312114E+03  0.16519372899E+03  0.78579876600E+02 0.  0.
         11    1    4    4    0    0  0.12286015999E+02 -0.55858643253E+02  0.40070010583E+02  0.69833659243E+02  0.00000000000E+00 0. -1.
        -12    1    4    4    0    0 -0.12226866258E+01  0.41216143967E+01  0.95263110562E+02  0.95360069745E+02  0.00000000000E+00 0.  1.
        -11    1    3    3    0    0  0.31533148977E+02  0.27440389359E+02  0.69910110811E+02  0.81453901357E+02  0.00000000000E+00 0. -1.
         11    1    3    3    0    0 -0.40593192819E+02 -0.23244225850E+02  0.49907585299E+02  0.68402254414E+02  0.00000000000E+00 0.  1.
         -3    1    1    2    0  502 -0.20032855304E+01  0.47540865346E+02  0.85593495920E+02  0.97930554857E+02  0.00000000000E+00 0.  1.
<scales pt_clust_5="13000.00000" pt_clust_6="13000.00000" pt_clust_7="13000.00000" pt_clust_8="13000.00000" pt_clust_9="47.58308"></scales>
<clustering>
<clus scale="   47.583">  2  9  1 -1</clus>
<clus scale="   78.580">  5  6 -1 -1</clus>
<clus scale="   84.037">  2  5  1 -1</clus>
<clus scale="   89.448">  7  8 -1 -1</clus>
<clus scale="   47.583">  2  5  1 -1</clus>
</clustering>
</event>
<event>
 9    1  0.6345107E-005  0.1773559E+03  0.7546771E-02  0.1190401E+00
         21   -1    0    0  501  502  0.00000000000E+00  0.00000000000E+00  0.16865606459E+03  0.16865606459E+03  0.00000000000E+00 0. -1.
          3   -1    0    0  502    0 -0.00000000000E+00 -0.00000000000E+00 -0.57044804496E+03  0.57044804496E+03  0.00000000000E+00 0. -1.
        -24    2    1    2    0    0 -0.78197705659E+02  0.12395767037E+02 -0.12543303142E+02  0.11382208341E+03  0.80805915672E+02 0.  0.
         23    2    1    2    0    0  0.21358570002E+03 -0.53603051124E+02 -0.41723808525E+03  0.48102060982E+03  0.93814012560E+02 0.  0.
         13    1    3    3    0    0 -0.60639541403E+02  0.10517052308E+02 -0.45428896127E+02  0.76495404921E+02  0.00000000000E+00 0. -1.
        -14    1    3    3    0    0 -0.17558164256E+02  0.18787147286E+01  0.32885592985E+02  0.37326678489E+02  0.00000000000E+00 0.  1.
        -13    1    4    4    0    0  0.99747054067E+02 -0.23705105596E+02 -0.10241140595E+03  0.14491205228E+03  0.00000000000E+00 0. -1.
         13    1    4    4    0    0  0.11383864595E+03 -0.29897945528E+02 -0.31482667930E+03  0.33610855755E+03  0.00000000000E+00 0.  1.
          4    1    1    2  501    0 -0.13538799436E+03  0.41207284088E+02  0.27989408021E+02  0.14426141632E+03  0.00000000000E+00 0. -1.
<scales pt_clust_5="13000.00000" pt_clust_6="13000.00000" pt_clust_7="13000.00000" pt_clust_8="13000.00000" pt_clust_9="150.51264"></scales>
<clustering>
<clus scale="   80.806">  5  6 -1 -1</clus>
<clus scale="   93.814">  7  8 -1 -1</clus>
<clus scale="  113.129">  2  5  1 -1</clus>
<clus scale="  150.513">  1  9  2 -1</clus>
<clus scale="  150.513">  1  5  2 -1</clus>
</clustering>
</event>
<event>
 9    1  0.6345107E-005  0.1033664E+03  0.7546771E-02  0.1284405E+00
         -2   -1    0    0    0  501 -0.00000000000E+00  0.00000000000E+00  0.17504456999E+03  0.17504456999E+03  0.00000000000E+00 0.  1.
         21   -1    0    0  501  502  0.00000000000E+00 -0.00000000000E+00 -0.17587882098E+03  0.17587882098E+03  0.00000000000E+00 0. -1.
         23    2    1    2    0    0  0.21591232775E+02  0.44564840388E+02  0.12447542889E+03  0.16159126121E+03  0.90362586130E+02 0.  0.
        -24    2    1    2    0    0  0.16634575343E+02 -0.65879804618E+02 -0.10215728071E+03  0.13981876092E+03  0.67054590822E+02 0.  0.
         11    1    4    4    0    0  0.18140932410E+02 -0.55386256405E+02 -0.11141914294E+03  0.12574162493E+03  0.00000000000E+00 0. -1.
        -12    1    4    4    0    0 -0.15063570673E+01 -0.10493548213E+02  0.92618622299E+01  0.14077135990E+02  0.00000000000E+00 0.  1.
        -11    1    3    3    0    0 -0.31975328253E+02 -0.18875484830E+01  0.35358503199E+02  0.47709623816E+02  0.00000000000E+00 0. -1.
         11    1    3    3    0    0  0.53566561028E+02  0.46452388871E+02  0.89116925686E+02  0.11388163740E+03  0.00000000000E+00 0.  1.
         -1    1    1    2    0  502 -0.38225808118E+02  0.21314964230E+02 -0.23152399168E+02  0.49513368837E+02  0.00000000000E+00 0.  1.
<scales pt_clust_5="13000.00000" pt_clust_6="13000.00000" pt_clust_7="13000.00000" pt_clust_8="13000.00000" pt_clust_9="43.76688"></scales>
<clustering>
<clus scale="   43.767">  2  9  1 -1</clus>
<clus scale="   67.055">  5  6 -1 -1</clus>
<clus scale="   83.759">  2  5  1 -1</clus>
<clus scale="   90.363">  7  8 -1 -1</clus>
<clus scale="   43.767">  2  5  1 -1</clus>
</clustering>
</event>
<event>
 9    1  0.6345107E-005  0.1417895E+03  0.7546771E-02  0.1216673E+00
         -2   -1    0    0    0  501 -0.00000000000E+00  0.00000000000E+00  0.74809428200E+02  0.74809428200E+02  0.00000000000E+00 0.  1.
         21   -1    0    0  501  502  0.00000000000E+00 -0.00000000000E+00 -0.83428192322E+03  0.83428192322E+03  0.00000000000E+00 0. -1.
        -24    2    1    2    0    0 -0.57567562915E+02  0.76267200239E+02 -0.13425733672E+03  0.18381775774E+03  0.81444615944E+02 0.  0.
         23    2    1    2    0    0  0.11522016134E+03  0.37600313003E+02 -0.56629892373E+03  0.58470063976E+03  0.80566109497E+02 0.  0.
         11    1    3    3    0    0 -0.74994463400E+02  0.66939968373E+02 -0.12866027887E+03  0.16327460386E+03  0.00000000000E+00 0. -1.
        -12    1    3    3    0    0  0.17426900485E+02  0.93272318662E+01 -0.55970578430E+01  0.20543153879E+02  0.00000000000E+00 0.  1.
        -13    1    4    4    0    0  0.97043034216E+02  0.61952291940E+02 -0.45137225734E+03  0.46582437857E+03  0.00000000000E+00 0. -1.
         13    1    4    4    0    0  0.18177127125E+02 -0.24351978937E+02 -0.11492666639E+03  0.11887626119E+03  0.00000000000E+00 0.  1.
         -1    1    1    2    0  502 -0.57652598426E+02 -0.11386751324E+03 -0.58916234572E+02  0.14057295392E+03  0.00000000000E+00 0.  1.
<scales pt_clust_5="13000.00000" pt_clust_6="13000.00000" pt_clust_7="13000.00000" pt_clust_8="13000.00000" pt_clust_9="116.67634"></scales>
<clustering>
<clus scale="   80.566">  7  8 -1 -1</clus>
<clus scale="   81.445">  5  6 -1 -1</clus>
<clus scale="  125.555">  1  5  2 -1</clus>
<clus scale="  116.676">  2  9  1 -1</clus>
<clus scale="  116.676">  2  5  1 -1</clus>
</clustering>
</event>
<event>
 9    1  0.6345107E-005  0.9336193E+02  0.7546771E-02  0.1299653E+00
          1   -1    0    0  502    0 -0.00000000000E+00  0.00000000000E+00  0.34013092750E+03  0.34013092750E+03  0.00000000000E+00 0. -1.
         21   -1    0    0  501  502  0.00000000000E+00 -0.00000000000E+00 -0.78849969764E+02  0.78849969764E+02  0.00000000000E+00 0. -1.
         23    2    1    2    0    0 -0.22131353264E+02 -0.10358921481E+02  0.24993871197E+03  0.26757873148E+03  0.92368359003E+02 0.  0.
        -24    2    1    2    0    0 -0.19100866221E+02 -0.23325131745E+02  0.30690342841E+02  0.94753598057E+02  0.84424181013E+02 0.  0.
         13    1    4    4    0    0 -0.19176830570E+02  0.19086018132E+02 -0.16194670184E+02  0.31532431895E+02  0.00000000000E+00 0. -1.
        -14    1    4    4    0    0  0.75964349896E-01 -0.42411149876E+02  0.46885013025E+02  0.63221166161E+02  0.00000000000E+00 0.  1.
        -13    1    3    3    0    0 -0.17276963613E+02 -0.48067300299E+02  0.93032644585E+02  0.10613214305E+03  0.00000000000E+00 0.  1.
         13    1    3    3    0    0 -0.48543896510E+01  0.37708378818E+02  0.15690606739E+03  0.16144658843E+03  0.00000000000E+00 0. -1.
          2    1    1    2  501    0  0.41232219485E+02  0.33684053225E+02 -0.19348097078E+02  0.56648567730E+02  0.00000000000E+00 0. -1.
<scales pt_clust_5="13000.00000" pt_clust_6="13000.00000" pt_clust_7="13000.00000" pt_clust_8="13000.00000" pt_clust_9="53.24201"></scales>
<clustering>
<clus scale="   53.242">  2  9  1 -1</clus>
<clus scale="   84.424">  5  6 -1 -1</clus>
<clus scale="   85.510">  2  5  1 -1</clus>
<clus scale="   92.368">  7  8 -1 -1</clus>
<clus scale="   53.242">  2  5  1 -1</clus>
</clustering>
</event>
<event>
 9    1  0.6345107E-005  0.1453879E+03  0.7546771E-02  0.1207465E+00
         -2   -1    0    0    0  501 -0.00000000000E+00  0.00000000000E+00  0.17530898546E+04  0.17530898546E+04  0.00000000000E+00 0.  1.
         21   -1    0    0  501  502  0.00000000000E+00 -0.00000000000E+00 -0.74775936523E+02  0.74775936523E+02  0.00000000000E+00 0.  1.
        -24    2    1    2    0    0 -0.10285074280E+03 -0.52510504019E+02  0.15813263990E+04  0.15878988841E+04  0.86568226188E+02 0.  0.
         23    2    1    2    0    0  0.89979451654E+02  0.97812576917E+01  0.13076937171E+03  0.18399662738E+03  0.92531916594E+02 0.  0.
         13    1    3    3    0    0 -0.32670797417E+02  0.44484651535E+01  0.14371288671E+03  0.14744681635E+03  0.00000000000E+00 0. -1.
        -14    1    3    3    0    0 -0.70179945380E+02 -0.56958969173E+02  0.14376135123E+04  0.14404520678E+04  0.00000000000E+00 0.  1.
        -11    1    4    4    0    0  0.56658558373E+02 -0.31595144873E+02  0.10845314049E+03  0.12637455874E+03  0.00000000000E+00 0.  1.
         11    1    4    4    0    0  0.33320893280E+02  0.41376402565E+02  0.22316231228E+02  0.57622068641E+02  0.00000000000E+00 0. -1.
         -1    1    1    2    0  502  0.12871291144E+02  0.42729246327E+02 -0.33781852649E+02  0.55970279576E+02  0.00000000000E+00 0.  1.
<scales pt_clust_5="13000.00000" pt_clust_6="13000.00000" pt_clust_7="13000.00000" pt_clust_8="13000.00000" pt_clust_9="44.62576"></scales>
<clustering>
<clus scale="   44.626">  2  9  1 -1</clus>
<clus scale="   86.568">  5  6 -1 -1</clus>
<clus scale="   92.532">  7  8 -1 -1</clus>
<clus scale="  141.667">  1  5  2 -1</clus>
<clus scale="   44.626">  2  5  1 -1</clus>
</clustering>
</event>
<event>
 9    1  0.6345107E-005  0.1026692E+03  0.7546771E-02  0.1280587E+00
         21   -1    0    0  501  502  0.00000000000E+00  0.00000000000E+00  0.46697019029E+03  0.46697019029E+03  0.00000000000E+00 0.  1.
          1   -1    0    0  502    0 -0.00000000000E+00 -0.00000000000E+00 -0.45469885212E+02  0.45469885212E+02  0.00000000000E+00 0. -1.
         23    2    1    2    0    0 -0.11312014782E+02 -0.34989291958E+02  0.61537955913E+02  0.11663188554E+03  0.91999263461E+02 0.  0.
        -24    2    1    2    0    0  0.61844174340E+02  0.43754224144E+02  0.20621145051E+03  0.23372900553E+03  0.79793180641E+02 0.  0.
         13    1    4    4    0    0  0.64407918089E+02  0.41644798936E+02  0.93344989492E+02  0.12081372544E+03  0.00000000000E+00 0. -1.
        -14    1    4    4    0    0 -0.25637437495E+01  0.21094252080E+01  0.11286646102E+03  0.11291528009E+03  0.00000000000E+00 0.  1.
        -11    1    3    3    0    0  0.22763211647E+02 -0.12182968500E+02  0.70135895785E+02  0.74737088540E+02  0.00000000000E+00 0.  1.
         11    1    3    3    0    0 -0.34075226429E+02 -0.22806323458E+02 -0.85979398721E+01  0.41894797003E+02  0.00000000000E+00 0. -1.
          2    1    1    2  501    0 -0.50532159557E+02 -0.87649321859E+01  0.15375089866E+03  0.16207918443E+03  0.00000000000E+00 0. -1.
<scales pt_clust_5="13000.00000" pt_clust_6="13000.00000" pt_clust_7="13000.00000" pt_clust_8="13000.00000" pt_clust_9="51.28668"></scales>
<clustering>
<clus scale="   51.287">  1  9  2 -1</clus>
<clus scale="   79.793">  5  6 -1 -1</clus>
<clus scale="   91.892">  1  5  2 -1</clus>
<clus scale="   91.999">  7  8 -1 -1</clus>
<clus scale="   51.287">  1  5  2 -1</clus>
</clustering>
</event>
<event>
 9    1  0.8443030E-005  0.9260492E+02  0.7546771E-02  0.1302375E+00
         21   -1    0    0  501  502  0.00000000000E+00  0.00000000000E+00  0.32723490673E+03  0.32723490673E+03  0.00000000000E+00 0.  1.
          3   -1    0    0  502    0 -0.00000000000E+00 -0.00000000000E+00 -0.27100015527E+03  0.27100015527E+03  0.00000000000E+00 0. -1.
        -24    2    1    2    0    0 -0.17236195663E+02 -0.11976711161E+02 -0.23795998562E+03  0.25230478840E+03  0.81192508536E+02 0.  0.
         23    2    1    2    0    0 -0.17821709757E+02 -0.53251397838E+02  0.19337232571E+03  0.22083462391E+03  0.90673866456E+02 0.  0.
         11    1    3    3    0    0 -0.39524908187E+02 -0.34281917161E+02 -0.15016065798E+03  0.15901475220E+03  0.00000000000E+00 0. -1.
        -12    1    3    3    0    0  0.22288712524E+02  0.22305206000E+02 -0.87799327632E+02  0.93290036195E+02  0.00000000000E+00 0.  1.
        -13    1    4    4    0    0  0.15020338841E+02 -0.44311058973E+02  0.33919370399E+02  0.57789308824E+02  0.00000000000E+00 0. -1.
         13    1    4    4    0    0 -0.32842048598E+02 -0.89403388656E+01  0.15945295531E+03  0.16304531509E+03  0.00000000000E+00 0.  1.
          4    1    1    2  501    0  0.35057905421E+02  0.65228108999E+02  0.10082241138E+03  0.12509564969E+03  0.00000000000E+00 0. -1.
<scales pt_clust_5="13000.00000" pt_clust_6="13000.00000" pt_clust_7="13000.00000" pt_clust_8="13000.00000" pt_clust_9="74.05243"></scales>
<clustering>
<clus scale="   74.052">  1  9  2 -1</clus>
<clus scale="   81.193">  5  6 -1 -1</clus>
<clus scale="   83.344">  2  5  1 -1</clus>
<clus scale="   90.674">  7  8 -1 -1</clus>
<clus scale="   74.052">  1  5  2 -1</clus>
</clustering>
</event>
<event>
 9    1  0.6345107E-005  0.1504572E+03  0.7546771E-02  0.1218531E+00
          3   -1    0    0  502    0 -0.00000000000E+00  0.00000000000E+00  0.27044126640E+03  0.27044126640E+03  0.00000000000E+00 0. -1.
         21   -1    0    0  501  502  0.00000000000E+00 -0.00000000000E+00 -0.66177360746E+03  0.66177360746E+03  0.00000000000E+00 0. -1.
         23    2    1    2    0    0  0.23196865660E+02 -0.35698902612E+02  0.20480584009E+03  0.22837554625E+03  0.91637611096E+02 0.  0.
        -24    2    1    2    0    0 -0.63364839054E+02 -0.89090230324E+02 -0.53802307424E+02  0.14588413790E+03  0.80220455246E+02 0.  0.
         13    1    4    4    0    0 -0.81962801020E+02 -0.62281506016E+02 -0.39508601448E+02  0.11026248832E+03  0.00000000000E+00 0. -1.
        -14    1    4    4    0    0  0.18597961965E+02 -0.26808724308E+02 -0.14293705976E+02  0.35621649580E+02  0.00000000000E+00 0.  1.
        -13    1    3    3    0    0  0.18446553943E+02 -0.64830298065E+02  0.16916819977E+03  0.18210195691E+03  0.00000000000E+00 0. -1.
         13    1    3    3    0    0  0.47503117167E+01  0.29131395454E+02  0.35637640322E+02  0.46273589338E+02  0.00000000000E+00 0.  1.
          4    1    1    2  501    0  0.40167973394E+02  0.12478913294E+03 -0.54233587372E+03  0.55795518970E+03  0.00000000000E+00 0. -1.
<scales pt_clust_5="13000.00000" pt_clust_6="13000.00000" pt_clust_7="13000.00000" pt_clust_8="13000.00000" pt_clust_9="127.28728"></scales>
<clustering>
<clus scale="   80.220">  5  6 -1 -1</clus>
<clus scale="   91.638">  7  8 -1 -1</clus>
<clus scale="  101.044">  1  7  2 -1</clus>
<clus scale="  127.287">  2  9  1 -1</clus>
<clus scale="  127.287">  2  5  1 -1</clus>
</clustering>
</event>
<event>
 9    1  0.6345107E-005  0.1044293E+03  0.7546771E-02  0.1272461E+00
         21   -1    0    0  501  502  0.00000000000E+00  0.00000000000E+00  0.52296092539E+02  0.52296092539E+02  0.00000000000E+00 0. -1.
          3   -1    0    0  502    0 -0.00000000000E+00 -0.00000000000E+00 -0.48157908114E+03  0.48157908114E+03  0.00000000000E+00 0. -1.
        -24    2    1    2    0    0  0.31361332813E+02 -0.52640551794E+02 -0.33900654892E+03  0.35384336589E+03  0.80778255022E+02 0.  0.
         23    2    1    2    0    0 -0.60490983010E+02  0.69498767405E+02 -0.59280599667E+02  0.13427726646E+03  0.77633479216E+02 0.  0.
         11    1    3    3    0    0  0.42436736560E+02 -0.67878401319E+02 -0.30044006731E+03  0.31092215750E+03  0.00000000000E+00 0. -1.
        -12    1    3    3    0    0 -0.11075403747E+02  0.15237849525E+02 -0.38566481604E+02  0.42921208390E+02  0.00000000000E+00 0.  1.
        -11    1    4    4    0    0 -0.65905989854E+02  0.41077046889E+02 -0.11622184793E+02  0.78523871906E+02  0.00000000000E+00 0. -1.
         11    1    4    4    0    0  0.54150068436E+01  0.28421720516E+02 -0.47658414874E+02  0.55753394556E+02  0.00000000000E+00 0.  1.
          4    1    1    2  501    0  0.29129650197E+02 -0.16858215611E+02 -0.30995840023E+02  0.45754541336E+02  0.00000000000E+00 0. -1.
<scales pt_clust_5="13000.00000" pt_clust_6="13000.00000" pt_clust_7="13000.00000" pt_clust_8="13000.00000" pt_clust_9="33.65614"></scales>
<clustering>
<clus scale="   33.656">  1  9  2 -1</clus>
<clus scale="   77.633">  7  8 -1 -1</clus>
<clus scale="   80.778">  5  6 -1 -1</clus>
<clus scale="  102.016">  1  7  2 -1</clus>
<clus scale="   33.656">  1  5  2 -1</clus>
</clustering>
</event>
<event>
 9    1  0.6345107E-005  0.9466538E+02  0.7546771E-02  0.1299488E+00
         21   -1    0    0  501  502  0.00000000000E+00  0.00000000000E+00  0.23622350357E+03  0.23622350357E+03  0.00000000000E+00 0.  1.
         -2   -1    0    0    0  501 -0.00000000000E+00 -0.00000000000E+00 -0.16931200346E+03  0.16931200346E+03  0.00000000000E+00 0.  1.
        -24    2    1    2    0    0  0.14402037597E+02  0.95151903432E+01 -0.13174547028E+03  0.15568291940E+03  0.81131651775E+02 0.  0.
         23    2    1    2    0    0  0.10713762931E+02  0.33305902336E+02  0.11333620281E+03  0.15114046682E+03  0.93671116126E+02 0.  0.
         13    1    3    3    0    0 -0.29418952110E+02 -0.90630664136E+01 -0.28309848015E+02  0.41821781534E+02  0.00000000000E+00 0. -1.
        -14    1    3    3    0    0  0.43820989707E+02  0.18578256757E+02 -0.10343562227E+03  0.11386113787E+03  0.00000000000E+00 0.  1.
        -13    1    4    4    0    0 -0.11587601101E+02  0.55455559813E+02  0.34651889356E+02  0.66410428770E+02  0.00000000000E+00 0.  1.
         13    1    4    4    0    0  0.22301364031E+02 -0.22149657477E+02  0.78684313454E+02  0.84730038048E+02  0.00000000000E+00 0. -1.
         -1    1    1    2    0  502 -0.25115800527E+02 -0.42821092680E+02  0.85320767584E+02  0.98712120813E+02  0.00000000000E+00 0.  1.
<scales pt_clust_5="13000.00000" pt_clust_6="13000.00000" pt_clust_7="13000.00000" pt_clust_8="13000.00000" pt_clust_9="49.64322"></scales>
<clustering>
<clus scale="   49.643">  1  9  2 -1</clus>
<clus scale="   81.132">  5  6 -1 -1</clus>
<clus scale="   82.278">  2  5  1 -1</clus>
<clus scale="   93.671">  7  8 -1 -1</clus>
<clus scale="   49.643">  1  5  2 -1</clus>
</clustering>
</event>
<event>
 9    1  0.6345107E-005  0.9885190E+02  0.7546771E-02  0.1288525E+00
          1   -1    0    0  502    0 -0.00000000000E+00  0.00000000000E+00  0.65044476738E+03  0.65044476738E+03  0.00000000000E+00 0. -1.
         21   -1    0    0  501  502  0.00000000000E+00 -0.00000000000E+00 -0.72580111454E+02  0.72580111454E+02  0.00000000000E+00 0. -1.
        -24    2    1    2    0    0 -0.12917888105E+02  0.35463804901E+02  0.54260966618E+03  0.54978726549E+03  0.80101399291E+02 0.  0.
         23    2    1    2    0    0  0.64323345625E+02 -0.15456236294E+02  0.35076089895E+02  0.11807552609E+03  0.91296822217E+02 0.  0.
         13    1    3    3    0    0  0.86132451197E+01  0.55017530235E+02  0.27359209779E+03  0.27920199246E+03  0.00000000000E+00 0. -1.
        -14    1    3    3    0    0 -0.21531133225E+02 -0.19553725335E+02  0.26901756840E+03  0.27058527303E+03  0.00000000000E+00 0.  1.
        -11    1    4    4    0    0 -0.33295399070E+01 -0.38066129994E+02 -0.82283927278E+00  0.38220323824E+02  0.00000000000E+00 0.  1.
         11    1    4    4    0    0  0.67652885532E+02  0.22609893700E+02  0.35898929168E+02  0.79855202268E+02  0.00000000000E+00 0. -1.
          2    1    1    2  501    0 -0.51405457519E+02 -0.20007568607E+02  0.17889984305E+00  0.55162087247E+02  0.00000000000E+00 0. -1.
<scales pt_clust_5="13000.00000" pt_clust_6="13000.00000" pt_clust_7="13000.00000" pt_clust_8="13000.00000" pt_clust_9="55.16180"></scales>
<clustering>
<clus scale="   55.162">  2  9  1 -1</clus>
<clus scale="   80.101">  5  6 -1 -1</clus>
<clus scale="   88.616">  1  5  2 -1</clus>
<clus scale="   91.297">  7  8 -1 -1</clus>
<clus scale="   55.162">  2  5  1 -1</clus>
</clustering>
</event>
<event>
 9    1  0.6345107E-005  0.1340708E+03  0.7546771E-02  0.1236965E+00
         21   -1    0    0  501  502  0.00000000000E+00  0.00000000000E+00  0.71355167082E+02  0.71355167082E+02  0.00000000000E+00 0. -1.
          3   -1    0    0  502    0 -0.00000000000E+00 -0.00000000000E+00 -0.42215013457E+03  0.42215013457E+03  0.00000000000E+00 0. -1.
         23    2    1    2    0    0 -0.29150459439E+02 -0.17129079805E+02 -0.15142436162E+03  0.18007447370E+03  0.91401991897E+02 0.  0.
        -24    2    1    2    0    0 -0.52867963766E+02  0.86362574231E+02 -0.13164595016E+03  0.18651775737E+03  0.84880514853E+02 0.  0.
         13    1    4    4    0    0  0.54667154072E+01  0.55451709653E+02 -0.24955846060E+02  0.61053839628E+02  0.00000000000E+00 0. -1.
        -14    1    4    4    0    0 -0.58334679173E+02  0.30910864578E+02 -0.10669010410E+03  0.12546391775E+03  0.00000000000E+00 0.  1.
        -11    1    3    3    0    0  0.15185462049E+01  0.31490409321E+02 -0.92628470649E+02  0.97846744639E+02  0.00000000000E+00 0.  1.
         11    1    3    3    0    0 -0.30669005644E+02 -0.48619489126E+02 -0.58795890976E+02  0.82227729056E+02  0.00000000000E+00 0. -1.
          4    1    1    2  501    0  0.82018423204E+02 -0.69233494426E+02 -0.67724655707E+02  0.12691307059E+03  0.00000000000E+00 0. -1.
<scales pt_clust_5="13000.00000" pt_clust_6="13000.00000" pt_clust_7="13000.00000" pt_clust_8="13000.00000" pt_clust_9="103.77994"></scales>
<clustering>
<clus scale="   84.881">  5  6 -1 -1</clus>
<clus scale="   91.402">  7  8 -1 -1</clus>
<clus scale="   97.455">  2  7  1 -1</clus>
<clus scale="  103.780">  1  9  2 -1</clus>
<clus scale="  103.780">  1  5  2 -1</clus>
</clustering>
</event>
<event>
 9    1  0.6345107E-005  0.3506538E+03  0.7546771E-02  0.1116407E+00
         21   -1    0    0  501  502  0.00000000000E+00  0.00000000000E+00  0.11542600125E+03  0.11542600125E+03  0.00000000000E+00 0. -1.
          1   -1    0    0  502    0 -0.00000000000E+00 -0.00000000000E+00 -0.14131212585E+04  0.14131212585E+04  0.00000000000E+00 0. -1.
        -24    2    1    2    0    0 -0.31868211171E+02  0.10433877060E+02 -0.45419104695E+02  0.95295048593E+02  0.76771104860E+02 0.  0.
         23    2    1    2    0    0 -0.30828053559E+03  0.10378928610E+03 -0.54993830866E+03  0.64456561442E+03  0.84991666755E+02 0.  0.
         13    1    3    3    0    0 -0.45185701389E+02  0.34062797167E+02 -0.32448783876E+02  0.65229942020E+02  0.00000000000E+00 0. -1.
        -14    1    3    3    0    0  0.13317490218E+02 -0.23628920107E+02 -0.12970320819E+02  0.30065106574E+02  0.00000000000E+00 0.  1.
        -11    1    4    4    0    0 -0.25266051495E+03  0.11029393082E+03 -0.49209478893E+03  0.56405617475E+03  0.00000000000E+00 0. -1.
         11    1    4    4    0    0 -0.55620020640E+02 -0.65046447187E+01 -0.57843519739E+02  0.80509439662E+02  0.00000000000E+00 0.  1.
          2    1    1    2  501    0  0.34014874676E+03 -0.11422316316E+03 -0.70233784389E+03  0.78868659675E+03  0.00000000000E+00 0. -1.
<scales pt_clust_5="13000.00000" pt_clust_6="13000.00000" pt_clust_7="13000.00000" pt_clust_8="13000.00000" pt_clust_9="340.19794"></scales>
<clustering>
<clus scale="   76.771">  5  6 -1 -1</clus>
<clus scale="   83.775">  2  5  1 -1</clus>
<clus scale="   84.992">  7  8 -1 -1</clus>
<clus scale="  340.198">  1  9  2 -1</clus>
<clus scale="  340.198">  1  5  2 -1</clus>
</clustering>
</event>
<event>
 9    1  0.6345107E-005  0.1347105E+03  0.7546771E-02  0.1222659E+00
         21   -1    0    0  501  502  0.00000000000E+00  0.00000000000E+00  0.35783569214E+03  0.35783569214E+03  0.00000000000E+00 0.  1.
         -2   -1    0    0    0  501 -0.00000000000E+00 -0.00000000000E+00 -0.87797755130E+02  0.87797755130E+02  0.00000000000E+00 0.  1.
        -24    2    1    2    0    0 -0.64725145738E+02  0.88183413416E+02  0.84943235313E+02  0.16040626440E+03  0.80926865393E+02 0.  0.
         23    2    1    2    0    0  0.80212592104E+02 -0.69660275087E+02  0.21292555872E+03  0.24838258691E+03  0.71203946962E+02 0.  0.
         11    1    3    3    0    0 -0.25921120045E+02 -0.11596532991E+02  0.11826477928E+02  0.30761170686E+02  0.00000000000E+00 0. -1.
        -12    1    3    3    0    0 -0.38804025693E+02  0.99779946407E+02  0.73116757384E+02  0.12964509372E+03  0.00000000000E+00 0.  1.
        -13    1    4    4    0    0  0.58351172766E+02 -0.68378465646E+02  0.20703121656E+03  0.22570422805E+03  0.00000000000E+00 0.  1.
         13    1    4    4    0    0  0.21861419339E+02 -0.12818094410E+01  0.58943421599E+01  0.22678358857E+02  0.00000000000E+00 0. -1.
         -1    1    1    2    0  502 -0.15487446367E+02 -0.18523138329E+02 -0.27830857027E+02  0.36844595959E+02  0.00000000000E+00 0.  1.
<scales pt_clust_5="13000.00000" pt_clust_6="13000.00000" pt_clust_7="13000.00000" pt_clust_8="13000.00000" pt_clust_9="24.14474"></scales>
<clustering>
<clus scale="   24.145">  1  9  2 -1</clus>
<clus scale="   71.204">  7  8 -1 -1</clus>
<clus scale="   80.927">  5  6 -1 -1</clus>
<clus scale="  129.104">  1  7  2 -1</clus>
<clus scale="   24.145">  1  5  2 -1</clus>
</clustering>
</event>
<event>
 9    1  0.6345107E-005  0.1191172E+03  0.7546771E-02  0.1248447E+00
         21   -1    0    0  501  502  0.00000000000E+00  0.00000000000E+00  0.30747815607E+03  0.30747815607E+03  0.00000000000E+00 0. -1.
          1   -1    0    0  502    0 -0.00000000000E+00 -0.00000000000E+00 -0.54447680335E+02  0.54447680335E+02  0.00000000000E+00 0. -1.
         23    2    1    2    0    0  0.16951703460E+02 -0.66882819741E+02  0.10242598903E+03  0.15325291932E+03  0.90745260060E+02 0.  0.
        -24    2    1    2    0    0 -0.14608324843E+02  0.86786743345E+02  0.14665829113E+03  0.18824670702E+03  0.78630950475E+02 0.  0.
         11    1    4    4    0    0 -0.60488269812E+01  0.92039256896E+02  0.15128761358E+03  0.17718847350E+03  0.00000000000E+00 0. -1.
        -12    1    4    4    0    0 -0.85594978619E+01 -0.52525135516E+01 -0.46293224528E+01  0.11058233522E+02  0.00000000000E+00 0.  1.
        -11    1    3    3    0    0  0.14673081110E+02  0.20495478513E+02  0.33579607613E+02  0.41987545727E+02  0.00000000000E+00 0.  1.
         11    1    3    3    0    0  0.22786223500E+01 -0.87378298254E+02  0.68846381417E+02  0.11126537359E+03  0.00000000000E+00 0. -1.
          2    1    1    2  501    0 -0.23433786173E+01 -0.19903923604E+02  0.39461955758E+01  0.20426210067E+02  0.00000000000E+00 0. -1.
<scales pt_clust_5="13000.00000" pt_clust_6="13000.00000" pt_clust_7="13000.00000" pt_clust_8="13000.00000" pt_clust_9="20.04141"></scales>
<clustering>
<clus scale="   20.041">  1  9  2 -1</clus>
<clus scale="   78.631">  5  6 -1 -1</clus>
<clus scale="   90.745">  7  8 -1 -1</clus>
<clus scale="  110.168">  1  5  2 -1</clus>
<clus scale="   20.041">  1  5  2 -1</clus>
</clustering>
</event>
<event>
 9    1  0.6345107E-005  0.1055186E+03  0.7546771E-02  0.1286018E+00
         21   -1    0    0  501  502  0.00000000000E+00  0.00000000000E+00  0.55089048568E+02  0.55089048568E+02  0.00000000000E+00 0. -1.
          1   -1    0    0  502    0 -0.00000000000E+00 -0.00000000000E+00 -0.54562973121E+03  0.54562973121E+03  0.00000000000E+00 0. -1.
        -24    2    1    2    0    0 -0.30768348263E+01 -0.17324253692E+02 -0.21487521564E+03  0.22804535671E+03  0.74321798585E+02 0.  0.
         23    2    1    2    0    0  0.71169999419E+02 -0.23102052063E+02 -0.22611826465E+02  0.10751854332E+03  0.73824581508E+02 0.  0.
         13    1    3    3    0    0 -0.22408860805E+02  0.20313994005E+02 -0.12646278832E+03  0.13002942830E+03  0.00000000000E+00 0. -1.
        -14    1    3    3    0    0  0.19332025978E+02 -0.37638247698E+02 -0.88412427318E+02  0.98015928412E+02  0.00000000000E+00 0.  1.
        -11    1    4    4    0    0  0.15151706396E+02  0.18781941548E+02 -0.28478603753E+02  0.37327823494E+02  0.00000000000E+00 0.  1.
         11    1    4    4    0    0  0.56018293023E+02 -0.41883993611E+02  0.58667772887E+01  0.70190719826E+02  0.00000000000E+00 0. -1.
          2    1    1    2  501    0 -0.68093164592E+02  0.40426305755E+02 -0.25305364054E+03  0.26515487975E+03  0.00000000000E+00 0. -1.
<scales pt_clust_5="13000.00000" pt_clust_6="13000.00000" pt_clust_7="13000.00000" pt_clust_8="13000.00000" pt_clust_9="75.39303"></scales>
<clustering>
<clus scale="   73.825">  7  8 -1 -1</clus>
<clus scale="   74.322">  5  6 -1 -1</clus>
<clus scale="   76.376">  2  5  1 -1</clus>
<clus scale="   75.393">  1  9  2 -1</clus>
<clus scale="   75.393">  1  5  2 -1</clus>
</clustering>
</event>
<event>
 9    1  0.6345107E-005  0.1510493E+03  0.7546771E-02  0.1200473E+00
         21   -1    0    0  501  502  0.00000000000E+00  0.00000000000E+00  0.59362109865E+02  0.59362109865E+02  0.00000000000E+00 0. -1.
          1   -1    0    0  502    0 -0.00000000000E+00 -0.00000000000E+00 -0.85415896712E+03  0.85415896712E+03  0.00000000000E+00 0. -1.
        -24    2    1    2    0    0  0.13254331122E+03 -0.78284158375E+01 -0.36592280419E+03  0.39814425006E+03  0.83608204058E+02 0.  0.
         23    2    1    2    0    0 -0.89219808959E+02 -0.86898805454E+02 -0.13957581468E+03  0.20789732674E+03  0.90710053039E+02 0.  0.
         11    1    3    3    0    0  0.14392325669E+03 -0.12489248239E+02 -0.34152969226E+03  0.37082666548E+03  0.00000000000E+00 0. -1.
        -12    1    3    3    0    0 -0.11379945468E+02  0.46608324017E+01 -0.24393111939E+02  0.27317584586E+02  0.00000000000E+00 0.  1.
        -11    1    4    4    0    0 -0.76755584165E+02 -0.10337528869E+03 -0.99182037071E+02  0.16252675622E+03  0.00000000000E+00 0. -1.
         11    1    4    4    0    0 -0.12464224793E+02  0.16476483231E+02 -0.40393777613E+02  0.45370570519E+02  0.00000000000E+00 0.  1.
          2    1    1    2  501    0 -0.43323502261E+02  0.94727221292E+02 -0.28929823838E+03  0.30747950018E+03  0.00000000000E+00 0. -1.
<scales pt_clust_5="13000.00000" pt_clust_6="13000.00000" pt_clust_7="13000.00000" pt_clust_8="13000.00000" pt_clust_9="104.16421"></scales>
<clustering>
<clus scale="   83.608">  5  6 -1 -1</clus>
<clus scale="   90.710">  7  8 -1 -1</clus>
<clus scale="  104.164">  1  9  2 -1</clus>
<clus scale="  146.894">  2  5  1 -1</clus>
<clus scale="  104.164">  1  5  2 -1</clus>
</clustering>
</event>
<event>
 9    1  0.1085965E-004  0.1784924E+03  0.7546771E-02  0.1195037E+00
          1   -1    0    0  502    0 -0.00000000000E+00  0.00000000000E+00  0.56253857189E+03  0.56253857189E+03  0.00000000000E+00 0. -1.
         21   -1    0    0  501  502  0.00000000000E+00 -0.00000000000E+00 -0.22978758417E+03  0.22978758417E+03  0.00000000000E+00 0. -1.
        -24    2    1    2    0    0  0.53214309404E+02  0.79980652494E+01  0.13005250805E+03  0.16419073908E+03  0.84553013997E+02 0.  0.
         23    2    1    2    0    0 -0.77108962123E+02  0.13533752871E+03 -0.15781450144E+03  0.23943803279E+03  0.90349963834E+02 0.  0.
         13    1    3    3    0    0  0.20329093815E+02  0.44816230612E+02  0.50106212671E+02  0.70231041070E+02  0.00000000000E+00 0. -1.
        -14    1    3    3    0    0  0.32885215589E+02 -0.36818165362E+02  0.79946295383E+02  0.93959698012E+02  0.00000000000E+00 0.  1.
        -13    1    4    4    0    0  0.17472911988E+02  0.13163352356E+02 -0.56758597674E+01  0.22600705358E+02  0.00000000000E+00 0.  1.
         13    1    4    4    0    0 -0.94581874111E+02  0.12217417635E+03 -0.15213864167E+03  0.21683732743E+03  0.00000000000E+00 0. -1.
          2    1    1    2  501    0  0.23894652719E+02 -0.14333559396E+03  0.36051298110E+03  0.38869738418E+03  0.00000000000E+00 0. -1.
<scales pt_clust_5="13000.00000" pt_clust_6="13000.00000" pt_clust_7="13000.00000" pt_clust_8="13000.00000" pt_clust_9="153.93653"></scales>
<clustering>
<clus scale="   84.553">  5  6 -1 -1</clus>
<clus scale="   90.350">  7  8 -1 -1</clus>
<clus scale="  100.224">  1  5  2 -1</clus>
<clus scale="  153.937">  2  9  1 -1</clus>
<clus scale="  153.937">  2  5  1 -1</clus>
</clustering>
</event>
<event>
 9    1  0.6345107E-005  0.1084299E+03  0.7546771E-02  0.1268437E+00
         21   -1    0    0  501  502  0.00000000000E+00  0.00000000000E+00  0.54510402892E+02  0.54510402892E+02  0.00000000000E+00 0. -1.
         -4   -1    0    0    0  501 -0.00000000000E+00 -0.00000000000E+00 -0.40482535893E+03  0.40482535893E+03  0.00000000000E+00 0.  1.
         23    2    1    2    0    0 -0.50140592819E+02  0.16201412244E+02 -0.13443760200E+03  0.17188780902E+03  0.93249049605E+02 0.  0.
        -24    2    1    2    0    0  0.63659262507E+02  0.10114814987E+02 -0.43656555272E+02  0.11270442138E+03  0.81495893115E+02 0.  0.
         13    1    4    4    0    0  0.60122907698E+02 -0.26604329294E+02 -0.19376554269E+02  0.68541996051E+02  0.00000000000E+00 0. -1.
        -14    1    4    4    0    0  0.35363548087E+01  0.36719144281E+02 -0.24280001002E+02  0.44162425326E+02  0.00000000000E+00 0.  1.
        -13    1    3    3    0    0 -0.32862739569E+01  0.32898023818E+02 -0.11297706144E+03  0.11771531752E+03  0.00000000000E+00 0.  1.
         13    1    3    3    0    0 -0.46854318862E+02 -0.16696611574E+02 -0.21460540556E+02  0.54172491497E+02  0.00000000000E+00 0. -1.
         -3    1    1    2    0  502 -0.13518669688E+02 -0.26316227231E+02 -0.17222079877E+03  0.17474353143E+03  0.00000000000E+00 0.  1.
<scales pt_clust_5="13000.00000" pt_clust_6="13000.00000" pt_clust_7="13000.00000" pt_clust_8="13000.00000" pt_clust_9="29.58545"></scales>
<clustering>
<clus scale="   29.585">  1  9  2 -1</clus>
<clus scale="   81.496">  5  6 -1 -1</clus>
<clus scale="   93.249">  7  8 -1 -1</clus>
<clus scale="   98.505">  1  5  2 -1</clus>
<clus scale="   29.585">  1  5  2 -1</clus>
</clustering>
</event>
<event>
 9    1  0.6345107E-005  0.9464324E+02  0.7546771E-02  0.1299407E+00
          1   -1    0    0  502    0 -0.00000000000E+00  0.00000000000E+00  0.16947453920E+03  0.16947453920E+03  0.00000000000E+00 0. -1.
         21   -1    0    0  501  502  0.00000000000E+00 -0.00000000000E+00 -0.19262200210E+03  0.19262200210E+03  0.00000000000E+00 0.  1.
         23    2    1    2    0    0  0.21894798689E+02  0.12961860768E+02  0.69918923573E+02  0.11919185228E+03  0.93116323664E+02 0.  0.
        -24    2    1    2    0    0  0.52969938364E+02 -0.12587306141E+02 -0.12756993704E+03  0.16047069029E+03  0.80700055503E+02 0.  0.
         13    1    4    4    0    0  0.28468223192E+02  0.28888914595E+02 -0.26334661902E+02  0.48358283010E+02  0.00000000000E+00 0. -1.
        -14    1    4    4    0    0  0.24501715172E+02 -0.41476220735E+02 -0.10123527514E+03  0.11211240728E+03  0.00000000000E+00 0.  1.
        -11    1    3    3    0    0  0.51970031670E+02  0.30142986280E+02  0.55093652621E+02  0.81515608155E+02  0.00000000000E+00 0. -1.
         11    1    3    3    0    0 -0.30075232981E+02 -0.17181125512E+02  0.14825270951E+02  0.37676244127E+02  0.00000000000E+00 0.  1.
          2    1    1    2  501    0 -0.74864737053E+02 -0.37455462722E+00  0.34503550571E+02  0.82433998733E+02  0.00000000000E+00 0. -1.
<scales pt_clust_5="13000.00000" pt_clust_6="13000.00000" pt_clust_7="13000.00000" pt_clust_8="13000.00000" pt_clust_9="74.86571"></scales>
<clustering>
<clus scale="   74.866">  2  9  1 -1</clus>
<clus scale="   80.700">  5  6 -1 -1</clus>
<clus scale="   82.457">  2  5  1 -1</clus>
<clus scale="   93.116">  7  8 -1 -1</clus>
<clus scale="   74.866">  2  5  1 -1</clus>
</clustering>
</event>
<event>
 9    1  0.6345107E-005  0.1040336E+03  0.7546771E-02  0.1275904E+00
         -4   -1    0    0    0  501 -0.00000000000E+00  0.00000000000E+00  0.33006877723E+03  0.33006877723E+03  0.00000000000E+00 0.  1.
         21   -1    0    0  501  502  0.00000000000E+00 -0.00000000000E+00 -0.10981353851E+03  0.10981353851E+03  0.00000000000E+00 0. -1.
         23    2    1    2    0    0  0.26168222946E+01 -0.47859330557E+02  0.22611166618E+03  0.24841826398E+03  0.91037272678E+02 0.  0.
        -24    2    1    2    0    0  0.65208923087E+02  0.61517203472E+02 -0.97732460176E+01  0.12216606697E+03  0.82416391615E+02 0.  0.
         13    1    4    4    0    0  0.39460557573E+02  0.69808225002E+02 -0.32803895799E+02  0.86639595229E+02  0.00000000000E+00 0. -1.
        -14    1    4    4    0    0  0.25748365514E+02 -0.82910215296E+01  0.23030649782E+02  0.35526471736E+02  0.00000000000E+00 0.  1.
        -13    1    3    3    0    0  0.26583441948E+02 -0.61750691887E+02  0.19734444821E+03  0.20848179435E+03  0.00000000000E+00 0.  1.
         13    1    3    3    0    0 -0.23966619653E+02  0.13891361330E+02  0.28767217966E+02  0.39936469632E+02  0.00000000000E+00 0. -1.
         -3    1    1    2    0  502 -0.67825745381E+02 -0.13657872915E+02  0.39168185578E+01  0.69297984795E+02  0.00000000000E+00 0.  1.
<scales pt_clust_5="13000.00000" pt_clust_6="13000.00000" pt_clust_7="13000.00000" pt_clust_8="13000.00000" pt_clust_9="69.18720"></scales>
<clustering>
<clus scale="   69.187">  2  9  1 -1</clus>
<clus scale="   82.416">  5  6 -1 -1</clus>
<clus scale="   91.037">  7  8 -1 -1</clus>
<clus scale="   96.580">  2  5  1 -1</clus>
<clus scale="   69.187">  2  5  1 -1</clus>
</clustering>
</event>
<event>
 9    1  0.6345107E-005  0.1640116E+03  0.7546771E-02  0.1212281E+00
         21   -1    0    0  501  502  0.00000000000E+00  0.00000000000E+00  0.18661863997E+03  0.18661863997E+03  0.00000000000E+00 0. -1.
         -4   -1    0    0    0  501 -0.00000000000E+00 -0.00000000000E+00 -0.24700602311E+03  0.24700602311E+03  0.00000000000E+00 0.  1.
        -24    2    1    2    0    0 -0.17989199447E+02  0.31108563703E+02 -0.16217827518E+02  0.90500102393E+02  0.81461012585E+02 0.  0.
         23    2    1    2    0    0  0.21284165182E+02 -0.14281281145E+03  0.67524503145E+02  0.18512374255E+03  0.94142056113E+02 0.  0.
         11    1    3    3    0    0 -0.38943098810E+02  0.41525331853E+02  0.72145380057E+01  0.57384385411E+02  0.00000000000E+00 0. -1.
        -12    1    3    3    0    0  0.20953899363E+02 -0.10416768149E+02 -0.23432365523E+02  0.33115716982E+02  0.00000000000E+00 0.  1.
        -13    1    4    4    0    0  0.43024564562E+02 -0.13965361474E+03  0.71681575252E+02  0.16276514829E+03  0.00000000000E+00 0. -1.
         13    1    4    4    0    0 -0.21740399380E+02 -0.31591967115E+01 -0.41570721075E+01  0.22358594266E+02  0.00000000000E+00 0.  1.
         -3    1    1    2    0  502 -0.32949657349E+01  0.11170424775E+03 -0.11169405877E+03  0.15800081813E+03  0.00000000000E+00 0.  1.
<scales pt_clust_5="13000.00000" pt_clust_6="13000.00000" pt_clust_7="13000.00000" pt_clust_8="13000.00000" pt_clust_9="134.30220"></scales>
<clustering>
<clus scale="   81.461">  5  6 -1 -1</clus>
<clus scale="   89.035">  2  5  1 -1</clus>
<clus scale="   94.142">  7  8 -1 -1</clus>
<clus scale="  134.302">  1  9  2 -1</clus>
<clus scale="  134.302">  1  5  2 -1</clus>
</clustering>
</event>
<event>
 9    1  0.6345107E-005  0.1134076E+03  0.7546771E-02  0.1256772E+00
          1   -1    0    0  502    0 -0.00000000000E+00  0.00000000000E+00  0.18044634159E+03  0.18044634159E+03  0.00000000000E+00 0. -1.
         21   -1    0    0  501  502  0.00000000000E+00 -0.00000000000E+00 -0.29317302171E+03  0.29317302171E+03  0.00000000000E+00 0. -1.
         23    2    1    2    0    0 -0.24344604485E+02 -0.76858009096E+02  0.13408772140E+03  0.17925749315E+03  0.87486676087E+02 0.  0.
        -24    2    1    2    0    0  0.38919488103E+02  0.14026083328E+02 -0.10571627221E+03  0.13922012779E+03  0.80590670707E+02 0.  0.
         11    1    4    4    0    0 -0.11694641864E+02 -0.21777140357E+02 -0.50388139139E+02  0.56124620768E+02  0.00000000000E+00 0. -1.
        -12    1    4    4    0    0  0.50614129966E+02  0.35803223685E+02 -0.55328133068E+02  0.83095507022E+02  0.00000000000E+00 0.  1.
        -13    1    3    3    0    0  0.51915421777E+01 -0.44601759680E+02  0.12731331741E+03  0.13499981432E+03  0.00000000000E+00 0. -1.
         13    1    3    3    0    0 -0.29536146662E+02 -0.32256249416E+02  0.67744039830E+01  0.44257678829E+02  0.00000000000E+00 0.  1.
          2    1    1    2  501    0 -0.14574883618E+02  0.62831925767E+02 -0.14109812931E+03  0.15514174236E+03  0.00000000000E+00 0. -1.
<scales pt_clust_5="13000.00000" pt_clust_6="13000.00000" pt_clust_7="13000.00000" pt_clust_8="13000.00000" pt_clust_9="64.50022"></scales>
<clustering>
<clus scale="   64.500">  2  9  1 -1</clus>
<clus scale="   80.591">  5  6 -1 -1</clus>
<clus scale="   87.487">  7  8 -1 -1</clus>
<clus scale="  108.177">  2  5  1 -1</clus>
<clus scale="   64.500">  2  5  1 -1</clus>
</clustering>
</event>
<event>
 9    1  0.6345107E-005  0.1619215E+03  0.7546771E-02  0.1207097E+00
         21   -1    0    0  501  502  0.00000000000E+00  0.00000000000E+00  0.57512778873E+02  0.57512778873E+02  0.00000000000E+00 0. -1.
          1   -1    0    0  502    0 -0.00000000000E+00 -0.00000000000E+00 -0.76508100197E+03  0.76508100197E+03  0.00000000000E+00 0. -1.
        -24    2    1    2    0    0 -0.61607369328E+02  0.69642595636E+01 -0.13029866582E+03  0.16631826452E+03  0.82704618564E+02 0.  0.
         23    2    1    2    0    0 -0.81973141786E+02  0.42046737521E+02 -0.41021773027E+03  0.43061259532E+03  0.93065014450E+02 0.  0.
         11    1    3    3    0    0 -0.73991148712E+02 -0.16429081956E+02 -0.10654683522E+03  0.13075485810E+03  0.00000000000E+00 0. -1.
        -12    1    3    3    0    0  0.12383779384E+02  0.23393341520E+02 -0.23751830597E+02  0.35563406417E+02  0.00000000000E+00 0.  1.
        -11    1    4    4    0    0 -0.18697374804E+02 -0.29379685298E+02 -0.90926648962E+02  0.97367413564E+02  0.00000000000E+00 0.  1.
         11    1    4    4    0    0 -0.63275766981E+02  0.71426422820E+02 -0.31929108131E+03  0.33324518176E+03  0.00000000000E+00 0. -1.
          2    1    1    2  501    0  0.14358051111E+03 -0.49010997085E+02 -0.16705182702E+03  0.22566292100E+03  0.00000000000E+00 0. -1.
<scales pt_clust_5="13000.00000" pt_clust_6="13000.00000" pt_clust_7="13000.00000" pt_clust_8="13000.00000" pt_clust_9="132.50466"></scales>
<clustering>
<clus scale="   82.705">  5  6 -1 -1</clus>
<clus scale="   93.065">  7  8 -1 -1</clus>
<clus scale="  103.364">  2  5  1 -1</clus>
<clus scale="  132.505">  1  9  2 -1</clus>
<clus scale="  132.505">  1  5  2 -1</clus>
</clustering>
</event>
<event>
 9    1  0.6345107E-005  0.1895445E+03  0.7546771E-02  0.1159180E+00
         21   -1    0    0  501  502  0.00000000000E+00  0.00000000000E+00  0.88327831625E+02  0.88327831625E+02  0.00000000000E+00 0.  1.
          1   -1    0    0  502    0 -0.00000000000E+00 -0.00000000000E+00 -0.57842131530E+03  0.57842131530E+03  0.00000000000E+00 0. -1.
         23    2    1    2    0    0  0.70207410557E+02  0.15588179164E+03 -0.24051820692E+03  0.30845376974E+03  0.89813733619E+02 0.  0.
        -24    2    1    2    0    0 -0.47771639502E+01 -0.16922091880E+03 -0.18480043492E+03  0.26526404042E+03  0.86921054627E+02 0.  0.
         11    1    4    4    0    0 -0.22918609956E+01 -0.63238319668E+02 -0.13297174439E+03  0.14726106922E+03  0.00000000000E+00 0. -1.
        -12    1    4    4    0    0 -0.24853029545E+01 -0.10598259914E+03 -0.51828690527E+02  0.11800297120E+03  0.00000000000E+00 0.  1.
        -11    1    3    3    0    0  0.68355318509E+02  0.56980607002E+02 -0.78708829449E+02  0.11880369934E+03  0.00000000000E+00 0. -1.
         11    1    3    3    0    0  0.18520920477E+01  0.98901184641E+02 -0.16180937747E+03  0.18965007040E+03  0.00000000000E+00 0.  1.
          2    1    1    2  501    0 -0.65430246606E+02  0.13339127162E+02 -0.64774841839E+02  0.93031336762E+02  0.00000000000E+00 0. -1.
<scales pt_clust_5="13000.00000" pt_clust_6="13000.00000" pt_clust_7="13000.00000" pt_clust_8="13000.00000" pt_clust_9="66.77611"></scales>
<clustering>
<clus scale="   66.776">  1  9  2 -1</clus>
<clus scale="   86.921">  5  6 -1 -1</clus>
<clus scale="   89.814">  7  8 -1 -1</clus>
<clus scale="  188.191">  1  5  2 -1</clus>
<clus scale="   66.776">  1  5  2 -1</clus>
</clustering>
</event>
<event>
 9    1  0.6345107E-005  0.1985288E+03  0.7546771E-02  0.1152316E+00
         21   -1    0    0  501  502  0.00000000000E+00  0.00000000000E+00  0.49495013942E+03  0.49495013942E+03  0.00000000000E+00 0.  1.
          3   -1    0    0  502    0 -0.00000000000E+00 -0.00000000000E+00 -0.26038250814E+03  0.26038250814E+03  0.00000000000E+00 0. -1.
         23    2    1    2    0    0 -0.45821998301E+02  0.17185061025E+03 -0.18406652841E+03  0.27320444916E+03  0.95540025058E+02 0.  0.
        -24    2    1    2    0    0  0.33746634477E+02 -0.14942958992E+03  0.21284891900E+03  0.27477323257E+03  0.82022127097E+02 0.  0.
         11    1    4    4    0    0 -0.34660617828E+01 -0.39725665314E+02  0.98959223564E+01  0.41086145453E+02  0.00000000000E+00 0. -1.
        -12    1    4    4    0    0  0.37212696260E+02 -0.10970392461E+03  0.20295299665E+03  0.23368708712E+03  0.00000000000E+00 0.  1.
        -13    1    3    3    0    0 -0.66492877573E+01  0.41668439070E+02  0.26045091554E+01  0.42275942452E+02  0.00000000000E+00 0.  1.
         13    1    3    3    0    0 -0.39172710543E+02  0.13018217118E+03 -0.18667103757E+03  0.23092850671E+03  0.00000000000E+00 0. -1.
          4    1    1    2  501    0  0.12075363824E+02 -0.22421020329E+02  0.20578524069E+03  0.20735496582E+03  0.00000000000E+00 0. -1.
<scales pt_clust_5="13000.00000" pt_clust_6="13000.00000" pt_clust_7="13000.00000" pt_clust_8="13000.00000" pt_clust_9="25.46599"></scales>
<clustering>
<clus scale="   25.466">  1  9  2 -1</clus>
<clus scale="   82.022">  5  6 -1 -1</clus>
<clus scale="   95.540">  7  8 -1 -1</clus>
<clus scale="  192.389">  1  5  2 -1</clus>
<clus scale="   25.466">  1  5  2 -1</clus>
</clustering>
</event>
<event>
 9    1  0.6345107E-005  0.9357563E+02  0.7546771E-02  0.1301156E+00
         -4   -1    0    0    0  501 -0.00000000000E+00  0.00000000000E+00  0.11977413516E+03  0.11977413516E+03  0.00000000000E+00 0.  1.
         21   -1    0    0  501  502  0.00000000000E+00 -0.00000000000E+00 -0.30231891478E+03  0.30231891478E+03  0.00000000000E+00 0.  1.
         23    2    1    2    0    0  0.30187688527E+02 -0.61646377857E+01  0.46548800903E+02  0.10686037854E+03  0.91121075162E+02 0.  0.
        -24    2    1    2    0    0  0.47165984111E+02 -0.15677333684E+02 -0.21359370526E+03  0.23337359419E+03  0.79815754627E+02 0.  0.
         11    1    4    4    0    0  0.15261644912E+02 -0.39294539048E+02 -0.16664123957E+03  0.17189031773E+03  0.00000000000E+00 0. -1.
        -12    1    4    4    0    0  0.31904339199E+02  0.23617205365E+02 -0.46952465696E+02  0.61483276458E+02  0.00000000000E+00 0.  1.
        -11    1    3    3    0    0  0.22276263168E+02 -0.40939494752E+02  0.53043033000E+02  0.70610462972E+02  0.00000000000E+00 0.  1.
         11    1    3    3    0    0  0.79114253592E+01  0.34774856966E+02 -0.64942320969E+01  0.36249915569E+02  0.00000000000E+00 0. -1.
         -3    1    1    2    0  502 -0.77353672638E+02  0.21841971469E+02 -0.15499875258E+02  0.81859077207E+02  0.00000000000E+00 0.  1.
<scales pt_clust_5="13000.00000" pt_clust_6="13000.00000" pt_clust_7="13000.00000" pt_clust_8="13000.00000" pt_clust_9="80.37829"></scales>
<clustering>
<clus scale="   79.816">  5  6 -1 -1</clus>
<clus scale="   80.378">  2  9  1 -1</clus>
<clus scale="   82.607">  2  5  1 -1</clus>
<clus scale="   91.121">  7  8 -1 -1</clus>
<clus scale="   80.378">  2  5  1 -1</clus>
</clustering>
</event>
<event>
 9    1  0.6345107E-005  0.1489546E+03  0.7546771E-02  0.1219276E+00
         -2   -1    0    0    0  501 -0.00000000000E+00  0.00000000000E+00  0.98120772159E+02  0.98120772159E+02  0.00000000000E+00 0.  1.
         21   -1    0    0  501  502  0.00000000000E+00 -0.00000000000E+00 -0.45249921968E+03  0.45249921968E+03  0.00000000000E+00 0.  1.
         23    2    1    2    0    0 -0.24683621826E+02 -0.39236266725E+02 -0.67464871508E+01  0.10273658807E+03  0.91435909939E+02 0.  0.
        -24    2    1    2    0    0 -0.23856369158E+02  0.14365657475E+03 -0.18807085189E+03  0.25111074613E+03  0.80496109677E+02 0.  0.
         11    1    4    4    0    0  0.19378789879E+02  0.20432965016E+02 -0.68448615972E+02  0.74015245626E+02  0.00000000000E+00 0. -1.
        -12    1    4    4    0    0 -0.43235159037E+02  0.12322360974E+03 -0.11962223592E+03  0.17709550051E+03  0.00000000000E+00 0.  1.
        -11    1    3    3    0    0 -0.48749582560E+02 -0.25552430433E+02  0.25139122512E+02  0.60509701549E+02  0.00000000000E+00 0. -1.
         11    1    3    3    0    0  0.24065960734E+02 -0.13683836292E+02 -0.31885609662E+02  0.42226886521E+02  0.00000000000E+00 0.  1.
         -1    1    1    2    0  502  0.48539990984E+02 -0.10442030803E+03 -0.15956110848E+03  0.19677265763E+03  0.00000000000E+00 0.  1.
<scales pt_clust_5="13000.00000" pt_clust_6="13000.00000" pt_clust_7="13000.00000" pt_clust_8="13000.00000" pt_clust_9="125.33090"></scales>
<clustering>
<clus scale="   80.496">  5  6 -1 -1</clus>
<clus scale="   91.436">  7  8 -1 -1</clus>
<clus scale="  102.515">  1  7  2 -1</clus>
<clus scale="  125.331">  2  9  1 -1</clus>
<clus scale="  125.331">  2  5  1 -1</clus>
</clustering>
</event>
<event>
 9    1  0.6345107E-005  0.1717290E+03  0.7546771E-02  0.1189787E+00
         21   -1    0    0  501  502  0.00000000000E+00  0.00000000000E+00  0.17241674496E+03  0.17241674496E+03  0.00000000000E+00 0. -1.
          3   -1    0    0  502    0 -0.00000000000E+00 -0.00000000000E+00 -0.51312940470E+03  0.51312940470E+03  0.00000000000E+00 0. -1.
         23    2    1    2    0    0  0.40411486951E+02 -0.78317517616E+02  0.78252121049E+02  0.14859506369E+03  0.90500699779E+02 0.  0.
        -24    2    1    2    0    0 -0.44036391070E+01 -0.10813510654E+03 -0.24486996498E+03  0.27932703615E+03  0.79685005293E+02 0.  0.
         13    1    4    4    0    0  0.27277763439E+02 -0.93258867928E+02 -0.15566817694E+03  0.18350442539E+03  0.00000000000E+00 0. -1.
        -14    1    4    4    0    0 -0.31681402546E+02 -0.14876238609E+02 -0.89201788043E+02  0.95822610758E+02  0.00000000000E+00 0.  1.
        -11    1    3    3    0    0  0.65876431317E+02 -0.72418929705E+02  0.49377748825E+02  0.10964655791E+03  0.00000000000E+00 0. -1.
         11    1    3    3    0    0 -0.25464944366E+02 -0.58985879107E+01  0.28874372225E+02  0.38948505777E+02  0.00000000000E+00 0.  1.
          4    1    1    2  501    0 -0.36007847844E+02  0.18645262415E+03 -0.17409481580E+03  0.25762404983E+03  0.00000000000E+00 0. -1.
<scales pt_clust_5="13000.00000" pt_clust_6="13000.00000" pt_clust_7="13000.00000" pt_clust_8="13000.00000" pt_clust_9="152.12211"></scales>
<clustering>
<clus scale="   79.685">  5  6 -1 -1</clus>
<clus scale="   90.501">  7  8 -1 -1</clus>
<clus scale="  126.321">  2  7  1 -1</clus>
<clus scale="  152.122">  1  9  2 -1</clus>
<clus scale="  152.122">  1  5  2 -1</clus>
</clustering>
</event>
<event>
 9    1  0.6345107E-005  0.1252911E+03  0.7546771E-02  0.1236561E+00
         -2   -1    0    0    0  501 -0.00000000000E+00  0.00000000000E+00  0.12461873847E+03  0.12461873847E+03  0.00000000000E+00 0.  1.
         21   -1    0    0  501  502  0.00000000000E+00 -0.00000000000E+00 -0.69358181626E+03  0.69358181626E+03  0.00000000000E+00 0.  1.
        -24    2    1    2    0    0 -0.10392367523E+03 -0.24824196645E+02  0.48632788961E+02  0.14392867045E+03  0.83270300843E+02 0.  0.
         23    2    1    2    0    0  0.23672813014E+02  0.52866215890E+02 -0.90279241354E+02  0.14014701204E+03  0.90197587027E+02 0.  0.
         11    1    3    3    0    0 -0.32705383205E+02 -0.10978623600E+02 -0.23404142166E+02  0.41688441291E+02  0.00000000000E+00 0. -1.
        -12    1    3    3    0    0 -0.71218292027E+02 -0.13845573044E+02  0.72036931128E+02  0.10224022916E+03  0.00000000000E+00 0.  1.
        -13    1    4    4    0    0 -0.15500123722E+02  0.62862263680E+02 -0.41992853531E+02  0.77170705440E+02  0.00000000000E+00 0.  1.
         13    1    4    4    0    0  0.39172936735E+02 -0.99960477902E+01 -0.48286387823E+02  0.62976306599E+02  0.00000000000E+00 0. -1.
         -1    1    1    2    0  502  0.80250862219E+02 -0.28042019246E+02 -0.52731662539E+03  0.53412487224E+03  0.00000000000E+00 0.  1.
<scales pt_clust_5="13000.00000" pt_clust_6="13000.00000" pt_clust_7="13000.00000" pt_clust_8="13000.00000" pt_clust_9="85.00915"></scales>
<clustering>
<clus scale="   83.270">  5  6 -1 -1</clus>
<clus scale="   85.009">  2  9  1 -1</clus>
<clus scale="   90.198">  7  8 -1 -1</clus>
<clus scale="  120.400">  1  5  2 -1</clus>
<clus scale="   85.009">  2  5  1 -1</clus>
</clustering>
</event>
<event>
 9    1  0.6345107E-005  0.9679308E+02  0.7546771E-02  0.1293316E+00
         21   -1    0    0  501  502  0.00000000000E+00  0.00000000000E+00  0.17811440079E+03  0.17811440079E+03  0.00000000000E+00 0. -1.
          1   -1    0    0  502    0 -0.00000000000E+00 -0.00000000000E+00 -0.12299515949E+03  0.12299515949E+03  0.00000000000E+00 0. -1.
         23    2    1    2    0    0 -0.27772207603E+02  0.19858774265E+01 -0.61942532911E+02  0.11426661722E+03  0.91895283903E+02 0.  0.
        -24    2    1    2    0    0  0.35852014040E+02  0.44063325757E+02  0.75761521867E+02  0.12446086847E+03  0.80769771553E+02 0.  0.
         11    1    4    4    0    0  0.31762113375E+02 -0.21455708075E-02  0.73591039550E+02  0.80152810011E+02  0.00000000000E+00 0. -1.
        -12    1    4    4    0    0  0.40899006658E+01  0.44065471328E+02  0.21704823173E+01  0.44308058458E+02  0.00000000000E+00 0.  1.
        -11    1    3    3    0    0  0.30536419659E+02  0.11837688172E+02 -0.38774876214E+02  0.50755244185E+02  0.00000000000E+00 0.  1.
         11    1    3    3    0    0 -0.58308627262E+02 -0.98518107459E+01 -0.23167656697E+02  0.63511373037E+02  0.00000000000E+00 0. -1.
          2    1    1    2  501    0 -0.80798064373E+01 -0.46049203183E+02  0.41300252351E+02  0.62382074590E+02  0.00000000000E+00 0. -1.
<scales pt_clust_5="13000.00000" pt_clust_6="13000.00000" pt_clust_7="13000.00000" pt_clust_8="13000.00000" pt_clust_9="46.75267"></scales>
<clustering>
<clus scale="   46.753">  1  9  2 -1</clus>
<clus scale="   80.770">  5  6 -1 -1</clus>
<clus scale="   86.301">  1  5  2 -1</clus>
<clus scale="   91.895">  7  8 -1 -1</clus>
<clus scale="   46.753">  1  5  2 -1</clus>
</clustering>
</event>
<event>
 9    1  0.6345107E-005  0.2347931E+03  0.7546771E-02  0.1135722E+00
         21   -1    0    0  501  502  0.00000000000E+00  0.00000000000E+00  0.81941885066E+03  0.81941885066E+03  0.00000000000E+00 0.  1.
          3   -1    0    0  502    0 -0.00000000000E+00 -0.00000000000E+00 -0.15041640137E+03  0.15041640137E+03  0.00000000000E+00 0. -1.
        -24    2    1    2    0    0 -0.69295244102E+02  0.13675363752E+03  0.34960596246E+03  0.39009375935E+03  0.80283397195E+02 0.  0.
         23    2    1    2    0    0  0.24334160648E+03 -0.93490778665E+02  0.28560322221E+03  0.39724273667E+03  0.90977624480E+02 0.  0.
         13    1    3    3    0    0 -0.33471127158E+02  0.74142428896E+02  0.93075869448E+02  0.12361445542E+03  0.00000000000E+00 0. -1.
        -14    1    3    3    0    0 -0.35824116944E+02  0.62611208621E+02  0.25653009302E+03  0.26647930393E+03  0.00000000000E+00 0.  1.
        -13    1    4    4    0    0  0.14482905476E+02 -0.36633371089E+02  0.30313394318E+02  0.49705737128E+02  0.00000000000E+00 0. -1.
         13    1    4    4    0    0  0.22885870100E+03 -0.56857407576E+02  0.25528982790E+03  0.34753699954E+03  0.00000000000E+00 0.  1.
          4    1    1    2  501    0 -0.17404636238E+03 -0.43262858853E+02  0.33793264612E+02  0.18249875601E+03  0.00000000000E+00 0. -1.
<scales pt_clust_5="13000.00000" pt_clust_6="13000.00000" pt_clust_7="13000.00000" pt_clust_8="13000.00000" pt_clust_9="216.45075"></scales>
<clustering>
<clus scale="   80.283">  5  6 -1 -1</clus>
<clus scale="   90.978">  7  8 -1 -1</clus>
<clus scale="  173.057">  2  5  1 -1</clus>
<clus scale="  216.451">  1  9  2 -1</clus>
<clus scale="  216.451">  1  5  2 -1</clus>
</clustering>
</event>
<event>
 9    1  0.6345107E-005  0.1237010E+03  0.7546771E-02  0.1240593E+00
         21   -1    0    0  501  502  0.00000000000E+00  0.00000000000E+00  0.27112651583E+02  0.27112651583E+02  0.00000000000E+00 0. -1.
          1   -1    0    0  502    0 -0.00000000000E+00 -0.00000000000E+00 -0.89601041334E+03  0.89601041334E+03  0.00000000000E+00 0. -1.
        -24    2    1    2    0    0  0.79804952491E+02  0.16059542118E+02 -0.58165918616E+03  0.59280266193E+03  0.80379399160E+02 0.  0.
         23    2    1    2    0    0 -0.89299094768E+02  0.81912477555E+01 -0.18814936145E+03  0.22786596479E+03  0.92093923959E+02 0.  0.
         13    1    3    3    0    0  0.91279274877E+02  0.20062072978E+02 -0.56179840983E+03  0.56951896025E+03  0.00000000000E+00 0. -1.
        -14    1    3    3    0    0 -0.11474322386E+02 -0.40025308599E+01 -0.19860776330E+02  0.23283701681E+02  0.00000000000E+00 0.  1.
        -13    1    4    4    0    0  0.48455109653E+01 -0.23227687103E+02 -0.68027241958E+02  0.72046582661E+02  0.00000000000E+00 0.  1.
         13    1    4    4    0    0 -0.94144605733E+02  0.31418934859E+02 -0.12012211949E+03  0.15581938213E+03  0.00000000000E+00 0. -1.
          2    1    1    2  501    0  0.94941422772E+01 -0.24250789874E+02 -0.99089214151E+02  0.10245443821E+03  0.00000000000E+00 0. -1.
<scales pt_clust_5="13000.00000" pt_clust_6="13000.00000" pt_clust_7="13000.00000" pt_clust_8="13000.00000" pt_clust_9="26.04305"></scales>
<clustering>
<clus scale="   26.043">  1  9  2 -1</clus>
<clus scale="   80.379">  5  6 -1 -1</clus>
<clus scale="   92.094">  7  8 -1 -1</clus>
<clus scale="  115.245">  2  5  1 -1</clus>
<clus scale="   26.043">  1  5  2 -1</clus>
</clustering>
</event>
<event>
 9    1  0.6345107E-005  0.1475479E+03  0.7546771E-02  0.1203795E+00
          1   -1    0    0  502    0 -0.00000000000E+00  0.00000000000E+00  0.50937658154E+02  0.50937658154E+02  0.00000000000E+00 0. -1.
         21   -1    0    0  501  502  0.00000000000E+00 -0.00000000000E+00 -0.18573497729E+04  0.18573497729E+04  0.00000000000E+00 0. -1.
        -24    2    1    2    0    0 -0.43956136332E+02  0.89741457844E+02 -0.12083619166E+03  0.18078970870E+03  0.89988123554E+02 0.  0.
         23    2    1    2    0    0  0.24855055068E+02 -0.21795268186E+03 -0.87842688151E+03  0.91000610491E+03  0.91412141020E+02 0.  0.
         13    1    3    3    0    0 -0.40293291077E+02  0.42437671345E+02 -0.88723510080E+01  0.59188038212E+02  0.00000000000E+00 0. -1.
        -14    1    3    3    0    0 -0.36628452549E+01  0.47303786499E+02 -0.11196384065E+03  0.12160167049E+03  0.00000000000E+00 0.  1.
        -11    1    4    4    0    0  0.18180312206E+02 -0.19341139916E+03 -0.84976427824E+03  0.87168676808E+03  0.00000000000E+00 0. -1.
         11    1    4    4    0    0  0.66747428620E+01 -0.24541282700E+02 -0.28662603268E+02  0.38319336828E+02  0.00000000000E+00 0.  1.
          2    1    1    2  501    0  0.19101081263E+02  0.12821122401E+03 -0.80714904155E+03  0.81749161741E+03  0.00000000000E+00 0. -1.
<scales pt_clust_5="13000.00000" pt_clust_6="13000.00000" pt_clust_7="13000.00000" pt_clust_8="13000.00000" pt_clust_9="129.62627"></scales>
<clustering>
<clus scale="   89.988">  5  6 -1 -1</clus>
<clus scale="   91.412">  7  8 -1 -1</clus>
<clus scale="  129.626">  2  9  1 -1</clus>
<clus scale="  146.670">  1  5  2 -1</clus>
<clus scale="  129.626">  2  5  1 -1</clus>
</clustering>
</event>
<event>
 9    1  0.6345107E-005  0.2121062E+03  0.7546771E-02  0.1143789E+00
          1   -1    0    0  502    0 -0.00000000000E+00  0.00000000000E+00  0.12215400414E+04  0.12215400414E+04  0.00000000000E+00 0. -1.
         21   -1    0    0  501  502  0.00000000000E+00 -0.00000000000E+00 -0.91784139575E+02  0.91784139575E+02  0.00000000000E+00 0. -1.
        -24    2    1    2    0    0  0.26795274887E+02  0.18741836991E+03  0.90706532065E+03  0.93001396373E+03  0.79465996988E+02 0.  0.
         23    2    1    2    0    0 -0.30956836717E+02 -0.13917781423E+03  0.26206403761E+03  0.32090237417E+03  0.11820314811E+03 0.  0.
         11    1    3    3    0    0  0.46018881542E+02  0.17247089863E+03  0.83743548779E+03  0.85624888003E+03  0.00000000000E+00 0. -1.
        -12    1    3    3    0    0 -0.19223606655E+02  0.14947471272E+02  0.69629832854E+02  0.73765083702E+02  0.00000000000E+00 0.  1.
        -13    1    4    4    0    0 -0.64011681457E+02 -0.77805448442E+02  0.89399794849E+02  0.13469783402E+03  0.00000000000E+00 0.  1.
         13    1    4    4    0    0  0.33054844740E+02 -0.61372365789E+02  0.17266424276E+03  0.18620454015E+03  0.00000000000E+00 0. -1.
          2    1    1    2  501    0  0.41615618302E+01 -0.48240555675E+02 -0.39373456420E+02  0.62407843090E+02  0.00000000000E+00 0. -1.
<scales pt_clust_5="13000.00000" pt_clust_6="13000.00000" pt_clust_7="13000.00000" pt_clust_8="13000.00000" pt_clust_9="48.41973"></scales>
<clustering>
<clus scale="   48.420">  2  9  1 -1</clus>
<clus scale="   79.466">  5  6 -1 -1</clus>
<clus scale="  118.203">  7  8 -1 -1</clus>
<clus scale="  193.215">  1  5  2 -1</clus>
<clus scale="   48.420">  2  5  1 -1</clus>
</clustering>
</event>
<event>
 9    1  0.6345107E-005  0.2048546E+03  0.7546771E-02  0.1177376E+00
          1   -1    0    0  502    0 -0.00000000000E+00  0.00000000000E+00  0.73807324351E+03  0.73807324351E+03  0.00000000000E+00 0. -1.
         21   -1    0    0  501  502  0.00000000000E+00 -0.00000000000E+00 -0.10764735176E+03  0.10764735176E+03  0.00000000000E+00 0. -1.
        -24    2    1    2    0    0  0.44579989175E+02 -0.35379238177E+02  0.10737251131E+03  0.14550181293E+03  0.80017844582E+02 0.  0.
         23    2    1    2    0    0  0.76643341732E+01  0.19155651170E+03  0.78467081815E+02  0.22611142424E+03  0.90645761362E+02 0.  0.
         11    1    3    3    0    0  0.62659537715E+02 -0.25689445158E+02  0.48885946847E+02  0.83522458407E+02  0.00000000000E+00 0. -1.
        -12    1    3    3    0    0 -0.18079548540E+02 -0.96897930188E+01  0.58486564463E+02  0.61979354521E+02  0.00000000000E+00 0.  1.
        -13    1    4    4    0    0  0.37806933774E+02  0.14493287271E+03  0.30755014383E+02  0.15290772624E+03  0.00000000000E+00 0. -1.
         13    1    4    4    0    0 -0.30142599601E+02  0.46623638988E+02  0.47712067432E+02  0.73203698006E+02  0.00000000000E+00 0.  1.
          2    1    1    2  501    0 -0.52244323348E+02 -0.15617727352E+03  0.44458629862E+03  0.47410735811E+03  0.00000000000E+00 0. -1.
<scales pt_clust_5="13000.00000" pt_clust_6="13000.00000" pt_clust_7="13000.00000" pt_clust_8="13000.00000" pt_clust_9="183.70845"></scales>
<clustering>
<clus scale="   80.018">  5  6 -1 -1</clus>
<clus scale="   90.646">  7  8 -1 -1</clus>
<clus scale="   98.193">  1  5  2 -1</clus>
<clus scale="  183.708">  2  9  1 -1</clus>
<clus scale="  183.708">  2  5  1 -1</clus>
</clustering>
</event>
<event>
 9    1  0.6345107E-005  0.1029406E+03  0.7546771E-02  0.1290723E+00
          1   -1    0    0  502    0 -0.00000000000E+00  0.00000000000E+00  0.49616131162E+03  0.49616131162E+03  0.00000000000E+00 0. -1.
         21   -1    0    0  501  502  0.00000000000E+00 -0.00000000000E+00 -0.23711443185E+02  0.23711443185E+02  0.00000000000E+00 0. -1.
         23    2    1    2    0    0  0.41365964606E+01 -0.17631595053E+01  0.23863933304E+03  0.25949268108E+03  0.10182092172E+03 0.  0.
        -24    2    1    2    0    0  0.46862182323E+01 -0.31065566479E+02  0.15369429497E+03  0.17335031278E+03  0.73765605638E+02 0.  0.
         13    1    4    4    0    0  0.32546374494E+02 -0.20938307346E+02  0.39215293683E+02  0.55095539437E+02  0.00000000000E+00 0. -1.
        -14    1    4    4    0    0 -0.27860156262E+02 -0.10127259133E+02  0.11447900128E+03  0.11825477335E+03  0.00000000000E+00 0.  1.
        -11    1    3    3    0    0 -0.31311208960E+02 -0.24288332895E+02  0.19476904225E+03  0.19875938906E+03  0.00000000000E+00 0. -1.
         11    1    3    3    0    0  0.35447805421E+02  0.22525173390E+02  0.43870290786E+02  0.60733292015E+02  0.00000000000E+00 0.  1.
          2    1    1    2  501    0 -0.88228146929E+01  0.32828725984E+02  0.80116240434E+02  0.87029760945E+02  0.00000000000E+00 0. -1.
<scales pt_clust_5="13000.00000" pt_clust_6="13000.00000" pt_clust_7="13000.00000" pt_clust_8="13000.00000" pt_clust_9="33.99365"></scales>
<clustering>
<clus scale="   33.994">  2  9  1 -1</clus>
<clus scale="   73.766">  5  6 -1 -1</clus>
<clus scale="   75.304">  2  5  1 -1</clus>
<clus scale="  101.821">  7  8 -1 -1</clus>
<clus scale="   33.994">  2  5  1 -1</clus>
</clustering>
</event>
<event>
 9    1  0.6345107E-005  0.1563387E+03  0.7546771E-02  0.1208993E+00
         21   -1    0    0  501  502  0.00000000000E+00  0.00000000000E+00  0.67553201194E+03  0.67553201194E+03  0.00000000000E+00 0.  1.
         -4   -1    0    0    0  501 -0.00000000000E+00 -0.00000000000E+00 -0.13108671824E+03  0.13108671824E+03  0.00000000000E+00 0.  1.
        -24    2    1    2    0    0 -0.66084867793E+02  0.19414315428E+02 -0.66754853387E+02  0.12889969966E+03  0.86109213952E+02 0.  0.
         23    2    1    2    0    0 -0.78087125502E+02 -0.44380080087E+02  0.17983931015E+03  0.22221818013E+03  0.94718274002E+02 0.  0.
         11    1    3    3    0    0 -0.48495985754E+02  0.46922629975E+02 -0.68561240588E+02  0.96198947754E+02  0.00000000000E+00 0. -1.
        -12    1    3    3    0    0 -0.17588882039E+02 -0.27508314547E+02  0.18063872010E+01  0.32700751908E+02  0.00000000000E+00 0.  1.
        -13    1    4    4    0    0 -0.77284706065E+02 -0.25191974720E+01  0.15581381171E+03  0.17394601481E+03  0.00000000000E+00 0.  1.
         13    1    4    4    0    0 -0.80241943669E+00 -0.41860882615E+02  0.24025498440E+02  0.48272165329E+02  0.00000000000E+00 0. -1.
         -3    1    1    2    0  502  0.14417199329E+03  0.24965764660E+02  0.43136083694E+03  0.45550085039E+03  0.00000000000E+00 0.  1.
<scales pt_clust_5="13000.00000" pt_clust_6="13000.00000" pt_clust_7="13000.00000" pt_clust_8="13000.00000" pt_clust_9="124.37941"></scales>
<clustering>
<clus scale="   86.109">  5  6 -1 -1</clus>
<clus scale="   94.718">  7  8 -1 -1</clus>
<clus scale="  110.268">  2  5  1 -1</clus>
<clus scale="  124.379">  1  9  2 -1</clus>
<clus scale="  124.379">  1  5  2 -1</clus>
</clustering>
</event>
<event>
 9    1  0.6345107E-005  0.9360532E+02  0.7546771E-02  0.1299842E+00
         21   -1    0    0  501  502  0.00000000000E+00  0.00000000000E+00  0.20227691137E+03  0.20227691137E+03  0.00000000000E+00 0. -1.
          1   -1    0    0  502    0 -0.00000000000E+00 -0.00000000000E+00 -0.10268579215E+03  0.10268579215E+03  0.00000000000E+00 0. -1.
         23    2    1    2    0    0  0.24504430949E+02  0.10291695133E+02 -0.55969875990E+02  0.10911670058E+03  0.89818935652E+02 0.  0.
        -24    2    1    2    0    0 -0.14130403989E+02 -0.27953493563E+02  0.80228867577E+02  0.11777879464E+03  0.80337457975E+02 0.  0.
         13    1    4    4    0    0  0.26595141925E+02  0.17598413288E+01  0.48427824475E+01  0.27089687288E+02  0.00000000000E+00 0. -1.
        -14    1    4    4    0    0 -0.40725545915E+02 -0.29713334892E+02  0.75386085129E+02  0.90689107348E+02  0.00000000000E+00 0.  1.
        -11    1    3    3    0    0  0.34916852692E+02 -0.23336212313E+02 -0.60474124531E+02  0.73626660557E+02  0.00000000000E+00 0. -1.
         11    1    3    3    0    0 -0.10412421743E+02  0.33627907445E+02  0.45042485415E+01  0.35490040020E+02  0.00000000000E+00 0.  1.
          2    1    1    2  501    0 -0.10374026960E+02  0.17661798431E+02  0.75332127637E+02  0.78067208312E+02  0.00000000000E+00 0. -1.
<scales pt_clust_5="13000.00000" pt_clust_6="13000.00000" pt_clust_7="13000.00000" pt_clust_8="13000.00000" pt_clust_9="20.48315"></scales>
<clustering>
<clus scale="   20.483">  1  9  2 -1</clus>
<clus scale="   80.337">  5  6 -1 -1</clus>
<clus scale="   84.550">  1  5  2 -1</clus>
<clus scale="   89.819">  7  8 -1 -1</clus>
<clus scale="   20.483">  1  5  2 -1</clus>
</clustering>
</event>
<event>
 9    1  0.6345107E-005  0.1393717E+03  0.7546771E-02  0.1217848E+00
          1   -1    0    0  502    0 -0.00000000000E+00  0.00000000000E+00  0.63732987724E+03  0.63732987724E+03  0.00000000000E+00 0. -1.
         21   -1    0    0  501  502  0.00000000000E+00 -0.00000000000E+00 -0.81799061684E+02  0.81799061684E+02  0.00000000000E+00 0. -1.
        -24    2    1    2    0    0 -0.88527032664E+01  0.11744595823E+03  0.16129255064E+03  0.21543441162E+03  0.80776081616E+02 0.  0.
         23    2    1    2    0    0  0.75516241237E+01 -0.66362236180E+02  0.11929648004E+02  0.11798593518E+03  0.96526633538E+02 0.  0.
         13    1    3    3    0    0  0.26302259958E+01  0.10213156524E+03  0.16672451992E+03  0.19553731165E+03  0.00000000000E+00 0. -1.
        -14    1    3    3    0    0 -0.11482929262E+02  0.15314392991E+02 -0.54319692773E+01  0.19897099973E+02  0.00000000000E+00 0.  1.
        -11    1    4    4    0    0  0.19443885055E+02 -0.83502397204E+02  0.29542618918E+02  0.90683412692E+02  0.00000000000E+00 0. -1.
         11    1    4    4    0    0 -0.11892260932E+02  0.17140161025E+02 -0.17612970914E+02  0.27302522492E+02  0.00000000000E+00 0.  1.
          2    1    1    2  501    0  0.13010791427E+01 -0.51083722047E+02  0.38230861691E+03  0.38570859211E+03  0.00000000000E+00 0. -1.
<scales pt_clust_5="13000.00000" pt_clust_6="13000.00000" pt_clust_7="13000.00000" pt_clust_8="13000.00000" pt_clust_9="51.10031"></scales>
<clustering>
<clus scale="   51.100">  2  9  1 -1</clus>
<clus scale="   80.776">  5  6 -1 -1</clus>
<clus scale="   96.527">  7  8 -1 -1</clus>
<clus scale="  128.965">  1  5  2 -1</clus>
<clus scale="   51.100">  2  5  1 -1</clus>
</clustering>
</event>
<event>
 9    1  0.6345107E-005  0.1150756E+03  0.7546771E-02  0.1254255E+00
         21   -1    0    0  501  502  0.00000000000E+00  0.00000000000E+00  0.48751944667E+03  0.48751944667E+03  0.00000000000E+00 0. -1.
          1   -1    0    0  502    0 -0.00000000000E+00 -0.00000000000E+00 -0.84974646275E+02  0.84974646275E+02  0.00000000000E+00 0. -1.
         23    2    1    2    0    0  0.71409150775E+02 -0.31615061734E+02 -0.94383658467E+01  0.12033834110E+03  0.91068406404E+02 0.  0.
        -24    2    1    2    0    0 -0.52725373692E+00  0.57202897361E+02  0.30545005445E+03  0.32166328246E+03  0.83036630791E+02 0.  0.
         11    1    4    4    0    0  0.36998580324E+02  0.31077829027E+02  0.21439533057E+03  0.21977280126E+03  0.00000000000E+00 0. -1.
        -12    1    4    4    0    0 -0.37525834061E+02  0.26125068335E+02  0.91054723882E+02  0.10189048120E+03  0.00000000000E+00 0.  1.
        -11    1    3    3    0    0 -0.58029224270E+01 -0.30839062930E+02 -0.26716604769E+02  0.41212846073E+02  0.00000000000E+00 0.  1.
         11    1    3    3    0    0  0.77212073203E+02 -0.77599880462E+00  0.17278238922E+02  0.79125495023E+02  0.00000000000E+00 0. -1.
          2    1    1    2  501    0 -0.70881897039E+02 -0.25587835627E+02  0.10653311178E+03  0.13049246938E+03  0.00000000000E+00 0. -1.
<scales pt_clust_5="13000.00000" pt_clust_6="13000.00000" pt_clust_7="13000.00000" pt_clust_8="13000.00000" pt_clust_9="75.35901"></scales>
<clustering>
<clus scale="   75.359">  1  9  2 -1</clus>
<clus scale="   83.037">  5  6 -1 -1</clus>
<clus scale="   91.068">  7  8 -1 -1</clus>
<clus scale="  108.830">  1  5  2 -1</clus>
<clus scale="   75.359">  1  5  2 -1</clus>
</clustering>
</event>
<event>
 9    1  0.6345107E-005  0.1356712E+03  0.7546771E-02  0.1222264E+00
         21   -1    0    0  501  502  0.00000000000E+00  0.00000000000E+00  0.21119284317E+03  0.21119284317E+03  0.00000000000E+00 0. -1.
          1   -1    0    0  502    0 -0.00000000000E+00 -0.00000000000E+00 -0.15887787206E+03  0.15887787206E+03  0.00000000000E+00 0. -1.
        -24    2    1    2    0    0  0.50305132732E+01  0.12480108721E+03 -0.51258625935E+02  0.15463323314E+03  0.75388146458E+02 0.  0.
         23    2    1    2    0    0 -0.37516212748E+02 -0.55182957992E+02  0.72784787439E+02  0.13267302485E+03  0.88610841143E+02 0.  0.
         11    1    3    3    0    0  0.28435539480E+02  0.65507097126E+02  0.21878452299E+01  0.71446107984E+02  0.00000000000E+00 0. -1.
        -12    1    3    3    0    0 -0.23405026206E+02  0.59293990079E+02 -0.53446471165E+02  0.83187125153E+02  0.00000000000E+00 0.  1.
        -11    1    4    4    0    0 -0.10661731062E+02 -0.42052783046E+02 -0.10116371863E+02  0.44547166586E+02  0.00000000000E+00 0.  1.
         11    1    4    4    0    0 -0.26854481687E+02 -0.13130174946E+02  0.82901159303E+02  0.88125858262E+02  0.00000000000E+00 0. -1.
          2    1    1    2  501    0  0.32485699475E+02 -0.69618129213E+02  0.30788809605E+02  0.82764457241E+02  0.00000000000E+00 0. -1.
<scales pt_clust_5="13000.00000" pt_clust_6="13000.00000" pt_clust_7="13000.00000" pt_clust_8="13000.00000" pt_clust_9="76.82451"></scales>
<clustering>
<clus scale="   75.388">  5  6 -1 -1</clus>
<clus scale="   76.825">  1  9  2 -1</clus>
<clus scale="   88.611">  7  8 -1 -1</clus>
<clus scale="  127.429">  2  5  1 -1</clus>
<clus scale="   76.825">  1  5  2 -1</clus>
</clustering>
</event>
<event>
 9    1  0.6345107E-005  0.1165581E+03  0.7546771E-02  0.1253252E+00
         21   -1    0    0  501  502  0.00000000000E+00  0.00000000000E+00  0.12163064183E+03  0.12163064183E+03  0.00000000000E+00 0.  1.
         -2   -1    0    0    0  501 -0.00000000000E+00 -0.00000000000E+00 -0.16671100538E+03  0.16671100538E+03  0.00000000000E+00 0.  1.
        -24    2    1    2    0    0  0.25316564330E+02  0.62736263709E+02 -0.51704330657E+02  0.11647719677E+03  0.79478502412E+02 0.  0.
         23    2    1    2    0    0  0.10798005283E+02 -0.83568842844E+02 -0.13476187500E+02  0.12557973690E+03  0.92132048048E+02 0.  0.
         13    1    3    3    0    0  0.53482659284E+02  0.50250298644E+02 -0.39475285771E+02  0.83329379840E+02  0.00000000000E+00 0. -1.
        -14    1    3    3    0    0 -0.28166094954E+02  0.12485965065E+02 -0.12229044886E+02  0.33147816932E+02  0.00000000000E+00 0.  1.
        -11    1    4    4    0    0 -0.35806293164E+02 -0.27136517103E+02  0.14525619375E+02  0.47217314714E+02  0.00000000000E+00 0. -1.
         11    1    4    4    0    0  0.46604298447E+02 -0.56432325741E+02 -0.28001806874E+02  0.78362422184E+02  0.00000000000E+00 0.  1.
         -1    1    1    2    0  502 -0.36114569613E+02  0.20832579135E+02  0.20100154608E+02  0.46284713535E+02  0.00000000000E+00 0.  1.
<scales pt_clust_5="13000.00000" pt_clust_6="13000.00000" pt_clust_7="13000.00000" pt_clust_8="13000.00000" pt_clust_9="41.69243"></scales>
<clustering>
<clus scale="   41.692">  1  9  2 -1</clus>
<clus scale="   79.479">  5  6 -1 -1</clus>
<clus scale="   92.132">  7  8 -1 -1</clus>
<clus scale="  106.838">  2  5  1 -1</clus>
<clus scale="   41.692">  1  5  2 -1</clus>
</clustering>
</event>
<event>
 9    1  0.6345107E-005  0.1109710E+03  0.7546771E-02  0.1261818E+00
          1   -1    0    0  502    0 -0.00000000000E+00  0.00000000000E+00  0.61373286736E+03  0.61373286736E+03  0.00000000000E+00 0. -1.
         21   -1    0    0  501  502  0.00000000000E+00 -0.00000000000E+00 -0.15520578127E+03  0.15520578127E+03  0.00000000000E+00 0. -1.
         23    2    1    2    0    0  0.11033926814E+02 -0.66574050891E+02  0.50686716204E+03  0.51951027396E+03  0.91775557744E+02 0.  0.
        -24    2    1    2    0    0 -0.23067597195E+02  0.39997357131E+02  0.75660203275E+02  0.12204235064E+03  0.83892588297E+02 0.  0.
         11    1    4    4    0    0  0.26954300630E+02 -0.44257894906E+01  0.12505914028E+02  0.30041967658E+02  0.00000000000E+00 0. -1.
        -12    1    4    4    0    0 -0.50021897825E+02  0.44423146622E+02  0.63154289247E+02  0.92000382978E+02  0.00000000000E+00 0.  1.
        -11    1    3    3    0    0  0.37424496751E+02  0.31159945726E+01  0.12852528640E+03  0.13389940860E+03  0.00000000000E+00 0.  1.
         11    1    3    3    0    0 -0.26390569937E+02 -0.69690045463E+02  0.37834187564E+03  0.38561086536E+03  0.00000000000E+00 0. -1.
          2    1    1    2  501    0  0.12033670382E+02  0.26576693760E+02 -0.12400027923E+03  0.12738602405E+03  0.00000000000E+00 0. -1.
<scales pt_clust_5="13000.00000" pt_clust_6="13000.00000" pt_clust_7="13000.00000" pt_clust_8="13000.00000" pt_clust_9="29.17413"></scales>
<clustering>
<clus scale="   29.174">  2  9  1 -1</clus>
<clus scale="   83.893">  5  6 -1 -1</clus>
<clus scale="   91.776">  7  8 -1 -1</clus>
<clus scale="  104.546">  2  5  1 -1</clus>
<clus scale="   29.174">  2  5  1 -1</clus>
</clustering>
</event>
<event>
 9    1  0.6345107E-005  0.1492854E+03  0.7546771E-02  0.1203063E+00
         -4   -1    0    0    0  501 -0.00000000000E+00  0.00000000000E+00  0.52850286192E+02  0.52850286192E+02  0.00000000000E+00 0.  1.
         21   -1    0    0  501  502  0.00000000000E+00 -0.00000000000E+00 -0.87959839078E+03  0.87959839078E+03  0.00000000000E+00 0. -1.
         23    2    1    2    0    0  0.65349374242E+02  0.97766801532E+02 -0.93116848878E+02  0.17555062567E+03  0.91205188619E+02 0.  0.
        -24    2    1    2    0    0 -0.41122469357E+02 -0.11642491652E+03 -0.50745868938E+03  0.52866768976E+03  0.82032835427E+02 0.  0.
         13    1    4    4    0    0 -0.80704468524E+01 -0.10845363078E+03 -0.43847253554E+03  0.45175821693E+03  0.00000000000E+00 0. -1.
        -14    1    4    4    0    0 -0.33052022505E+02 -0.79712857387E+01 -0.68986153840E+02  0.76909472821E+02  0.00000000000E+00 0.  1.
        -13    1    3    3    0    0  0.46357802834E+02  0.71842067649E+00 -0.48392823456E+02  0.67018112283E+02  0.00000000000E+00 0. -1.
         13    1    3    3    0    0  0.18991571408E+02  0.97048380856E+02 -0.44724025422E+02  0.10853251338E+03  0.00000000000E+00 0.  1.
         -3    1    1    2    0  502 -0.24226904885E+02  0.18658114986E+02 -0.22617256633E+03  0.22823036156E+03  0.00000000000E+00 0.  1.
<scales pt_clust_5="13000.00000" pt_clust_6="13000.00000" pt_clust_7="13000.00000" pt_clust_8="13000.00000" pt_clust_9="30.57888"></scales>
<clustering>
<clus scale="   30.579">  2  9  1 -1</clus>
<clus scale="   82.033">  5  6 -1 -1</clus>
<clus scale="   91.205">  7  8 -1 -1</clus>
<clus scale="  143.865">  2  5  1 -1</clus>
<clus scale="   30.579">  2  5  1 -1</clus>
</clustering>
</event>
<event>
 9    1  0.6345107E-005  0.1054662E+03  0.7546771E-02  0.1276279E+00
         21   -1    0    0  501  502  0.00000000000E+00  0.00000000000E+00  0.82572087904E+03  0.82572087904E+03  0.00000000000E+00 0. -1.
         -2   -1    0    0    0  501 -0.00000000000E+00 -0.00000000000E+00 -0.25333802257E+02  0.25333802257E+02  0.00000000000E+00 0.  1.
        -24    2    1    2    0    0 -0.19483565856E+02  0.19494205927E+02  0.17554046281E+03  0.19407123308E+03  0.78035607418E+02 0.  0.
         23    2    1    2    0    0  0.42305161453E+02 -0.83924502227E+02  0.36623464130E+03  0.38949094230E+03  0.93500443250E+02 0.  0.
         11    1    3    3    0    0  0.21475239813E+02  0.30897667286E+02  0.10690882139E+03  0.11333731892E+03  0.00000000000E+00 0. -1.
        -12    1    3    3    0    0 -0.40958805669E+02 -0.11403461359E+02  0.68631641414E+02  0.80733914162E+02  0.00000000000E+00 0.  1.
        -11    1    4    4    0    0  0.13750515294E+02 -0.32824070223E+02  0.25539922037E+02  0.43803925332E+02  0.00000000000E+00 0.  1.
         11    1    4    4    0    0  0.28554646159E+02 -0.51100432004E+02  0.34069471926E+03  0.34568701697E+03  0.00000000000E+00 0. -1.
         -1    1    1    2    0  502 -0.22821595597E+02  0.64430296299E+02  0.25861197268E+03  0.26749250592E+03  0.00000000000E+00 0.  1.
<scales pt_clust_5="13000.00000" pt_clust_6="13000.00000" pt_clust_7="13000.00000" pt_clust_8="13000.00000" pt_clust_9="68.35268"></scales>
<clustering>
<clus scale="   68.353">  1  9  2 -1</clus>
<clus scale="   78.036">  5  6 -1 -1</clus>
<clus scale="   92.034">  2  5  1 -1</clus>
<clus scale="   93.500">  7  8 -1 -1</clus>
<clus scale="   68.353">  1  5  2 -1</clus>
</clustering>
</event>
<event>
 9    1  0.6345107E-005  0.1432725E+03  0.7546771E-02  0.1211431E+00
          1   -1    0    0  502    0 -0.00000000000E+00  0.00000000000E+00  0.52097825107E+03  0.52097825107E+03  0.00000000000E+00 0. -1.
         21   -1    0    0  501  502  0.00000000000E+00 -0.00000000000E+00 -0.10615570192E+03  0.10615570192E+03  0.00000000000E+00 0. -1.
        -24    2    1    2    0    0 -0.10429503746E+03 -0.17740083567E+02  0.37043545352E+03  0.39376242920E+03  0.81450967010E+02 0.  0.
         23    2    1    2    0    0  0.11322470016E+03  0.50713692750E+02  0.87724098445E+02  0.17818915711E+03  0.93081399346E+02 0.  0.
         11    1    3    3    0    0 -0.11198232506E+03 -0.27201640955E+02  0.35901943681E+03  0.37706090543E+03  0.00000000000E+00 0. -1.
        -12    1    3    3    0    0  0.76872876028E+01  0.94615573879E+01  0.11416016706E+02  0.16701523772E+02  0.00000000000E+00 0.  1.
        -11    1    4    4    0    0  0.84365955711E+02  0.49664733640E+02  0.10578054929E+03  0.14413092957E+03  0.00000000000E+00 0. -1.
         11    1    4    4    0    0  0.28858744448E+02  0.10489591093E+01 -0.18056450840E+02  0.34058227541E+02  0.00000000000E+00 0.  1.
          2    1    1    2  501    0 -0.89296627039E+01 -0.32973609183E+02 -0.43337002816E+02  0.55182366673E+02  0.00000000000E+00 0. -1.
<scales pt_clust_5="13000.00000" pt_clust_6="13000.00000" pt_clust_7="13000.00000" pt_clust_8="13000.00000" pt_clust_9="34.16135"></scales>
<clustering>
<clus scale="   34.161">  2  9  1 -1</clus>
<clus scale="   81.451">  5  6 -1 -1</clus>
<clus scale="   93.081">  7  8 -1 -1</clus>
<clus scale="  136.004">  1  5  2 -1</clus>
<clus scale="   34.161">  2  5  1 -1</clus>
</clustering>
</event>
<event>
 9    1  0.6345107E-005  0.1962243E+03  0.7546771E-02  0.1185777E+00
          1   -1    0    0  502    0 -0.00000000000E+00  0.00000000000E+00  0.10981333330E+04  0.10981333330E+04  0.00000000000E+00 0. -1.
         21   -1    0    0  501  502  0.00000000000E+00 -0.00000000000E+00 -0.70880296872E+02  0.70880296872E+02  0.00000000000E+00 0. -1.
         23    2    1    2    0    0 -0.16475974405E+02 -0.66692245320E+01  0.13644988044E+03  0.16487509766E+03  0.90825611297E+02 0.  0.
        -24    2    1    2    0    0 -0.13273347306E+03  0.11829201939E+03  0.16603721833E+03  0.25580119417E+03  0.79086764675E+02 0.  0.
         11    1    4    4    0    0 -0.75644263340E+02  0.91516159310E+02  0.61489078868E+02  0.13370926973E+03  0.00000000000E+00 0. -1.
        -12    1    4    4    0    0 -0.57089209724E+02  0.26775860082E+02  0.10454813946E+03  0.12209192445E+03  0.00000000000E+00 0.  1.
        -11    1    3    3    0    0 -0.20779640512E+02  0.35276933017E+02  0.10368367384E+03  0.11147447996E+03  0.00000000000E+00 0.  1.
         11    1    3    3    0    0  0.43036661068E+01 -0.41946157549E+02  0.32766206603E+02  0.53400617695E+02  0.00000000000E+00 0. -1.
          2    1    1    2  501    0  0.14920944747E+03 -0.11162279486E+03  0.72476593734E+03  0.74833733802E+03  0.00000000000E+00 0. -1.
<scales pt_clust_5="13000.00000" pt_clust_6="13000.00000" pt_clust_7="13000.00000" pt_clust_8="13000.00000" pt_clust_9="179.58087"></scales>
<clustering>
<clus scale="   79.087">  5  6 -1 -1</clus>
<clus scale="   90.826">  7  8 -1 -1</clus>
<clus scale="   92.549">  1  7  2 -1</clus>
<clus scale="  179.581">  2  9  1 -1</clus>
<clus scale="  179.581">  2  5  1 -1</clus>
</clustering>
</event>
<event>
 9    1  0.6345107E-005  0.1710110E+03  0.7546771E-02  0.1203355E+00
          3   -1    0    0  502    0 -0.00000000000E+00  0.00000000000E+00  0.76025225997E+03  0.76025225997E+03  0.00000000000E+00 0. -1.
         21   -1    0    0  501  502  0.00000000000E+00 -0.00000000000E+00 -0.21806804312E+03  0.21806804312E+03  0.00000000000E+00 0. -1.
        -24    2    1    2    0    0  0.42680958921E+02 -0.18065033848E+02  0.23201830960E+03  0.25075322922E+03  0.83046229746E+02 0.  0.
         23    2    1    2    0    0 -0.72229740691E+01 -0.12330976506E+03  0.47982757550E+03  0.50389502794E+03  0.91750898937E+02 0.  0.
         13    1    3    3    0    0  0.69470972808E+01  0.28093786592E+02  0.13029961337E+03  0.13347476260E+03  0.00000000000E+00 0. -1.
        -14    1    3    3    0    0  0.35733861640E+02 -0.46158820440E+02  0.10171869622E+03  0.11727846662E+03  0.00000000000E+00 0.  1.
        -11    1    4    4    0    0  0.41653741587E+02 -0.47242789720E+02  0.17792343748E+03  0.18874232428E+03  0.00000000000E+00 0.  1.
         11    1    4    4    0    0 -0.48876715656E+02 -0.76066975341E+02  0.30190413802E+03  0.31515270366E+03  0.00000000000E+00 0. -1.
          4    1    1    2  501    0 -0.35457984851E+02  0.14137479891E+03 -0.16966166825E+03  0.22367204593E+03  0.00000000000E+00 0. -1.
<scales pt_clust_5="13000.00000" pt_clust_6="13000.00000" pt_clust_7="13000.00000" pt_clust_8="13000.00000" pt_clust_9="144.31404"></scales>
<clustering>
<clus scale="   83.046">  5  6 -1 -1</clus>
<clus scale="   91.751">  7  8 -1 -1</clus>
<clus scale="   95.104">  1  5  2 -1</clus>
<clus scale="  144.314">  2  9  1 -1</clus>
<clus scale="  144.314">  2  5  1 -1</clus>
</clustering>
</event>
<event>
 9    1  0.6345107E-005  0.1306424E+03  0.7546771E-02  0.1229076E+00
         21   -1    0    0  501  502  0.00000000000E+00  0.00000000000E+00  0.62386925392E+02  0.62386925392E+02  0.00000000000E+00 0. -1.
         -4   -1    0    0    0  501 -0.00000000000E+00 -0.00000000000E+00 -0.57095724134E+03  0.57095724134E+03  0.00000000000E+00 0.  1.
        -24    2    1    2    0    0 -0.89308813173E+02  0.34407971220E+02 -0.41104550310E+03  0.42976300726E+03  0.81104033210E+02 0.  0.
         23    2    1    2    0    0  0.90743386248E+02 -0.34874325476E+01 -0.11091295813E+03  0.16985609245E+03  0.91120159822E+02 0.  0.
         11    1    3    3    0    0 -0.37993684241E+02  0.52226234829E+02 -0.28973467582E+03  0.29684555246E+03  0.00000000000E+00 0. -1.
        -12    1    3    3    0    0 -0.51315128932E+02 -0.17818263610E+02 -0.12131082728E+03  0.13291745480E+03  0.00000000000E+00 0.  1.
        -13    1    4    4    0    0  0.60860382818E+02  0.69775517905E+01 -0.12183010786E+03  0.13636439274E+03  0.00000000000E+00 0.  1.
         13    1    4    4    0    0  0.29883003430E+02 -0.10464984338E+02  0.10917149727E+02  0.33491699708E+02  0.00000000000E+00 0. -1.
         -3    1    1    2    0  502 -0.14345730748E+01 -0.30920538672E+02  0.13388145280E+02  0.33725067023E+02  0.00000000000E+00 0.  1.
<scales pt_clust_5="13000.00000" pt_clust_6="13000.00000" pt_clust_7="13000.00000" pt_clust_8="13000.00000" pt_clust_9="30.95380"></scales>
<clustering>
<clus scale="   30.954">  1  9  2 -1</clus>
<clus scale="   81.104">  5  6 -1 -1</clus>
<clus scale="   91.120">  7  8 -1 -1</clus>
<clus scale="  123.864">  2  5  1 -1</clus>
<clus scale="   30.954">  1  5  2 -1</clus>
</clustering>
</event>
<event>
 9    1  0.6345107E-005  0.1988140E+03  0.7546771E-02  0.1151321E+00
          1   -1    0    0  502    0 -0.00000000000E+00  0.00000000000E+00  0.65900232244E+03  0.65900232244E+03  0.00000000000E+00 0. -1.
         21   -1    0    0  501  502  0.00000000000E+00 -0.00000000000E+00 -0.74811098431E+02  0.74811098431E+02  0.00000000000E+00 0. -1.
         23    2    1    2    0    0 -0.29069735928E+02 -0.16572875319E+03  0.28100679493E+03  0.33904926975E+03  0.87627160986E+02 0.  0.
        -24    2    1    2    0    0  0.51326980739E+02  0.18722488979E+03  0.21312930079E+03  0.29954128114E+03  0.81321964706E+02 0.  0.
         13    1    4    4    0    0  0.26192210867E+02  0.15451972909E+03  0.11903684787E+03  0.19680485192E+03  0.00000000000E+00 0. -1.
        -14    1    4    4    0    0  0.25134769873E+02  0.32705160703E+02  0.94092452920E+02  0.10273642922E+03  0.00000000000E+00 0.  1.
        -13    1    3    3    0    0 -0.46332952897E+02 -0.41259312072E+02  0.11705548418E+03  0.13248041264E+03  0.00000000000E+00 0.  1.
         13    1    3    3    0    0  0.17263216969E+02 -0.12446944112E+03  0.16395131076E+03  0.20656885712E+03  0.00000000000E+00 0. -1.
          2    1    1    2  501    0 -0.22257244811E+02 -0.21496136602E+02  0.90055128287E+02  0.95222869974E+02  0.00000000000E+00 0. -1.
<scales pt_clust_5="13000.00000" pt_clust_6="13000.00000" pt_clust_7="13000.00000" pt_clust_8="13000.00000" pt_clust_9="30.94301"></scales>
<clustering>
<clus scale="   30.943">  2  9  1 -1</clus>
<clus scale="   81.322">  5  6 -1 -1</clus>
<clus scale="   87.627">  7  8 -1 -1</clus>
<clus scale="  196.117">  2  5  1 -1</clus>
<clus scale="   30.943">  2  5  1 -1</clus>
</clustering>
</event>
<event>
 9    1  0.6345107E-005  0.1511423E+03  0.7546771E-02  0.1213747E+00
         21   -1    0    0  501  502  0.00000000000E+00  0.00000000000E+00  0.77499279630E+02  0.77499279630E+02  0.00000000000E+00 0. -1.
          1   -1    0    0  502    0 -0.00000000000E+00 -0.00000000000E+00 -0.77902786734E+03  0.77902786734E+03  0.00000000000E+00 0. -1.
        -24    2    1    2    0    0 -0.75803715490E+02  0.11613595283E+02 -0.16288419906E+03  0.19670619098E+03  0.79252661729E+02 0.  0.
         23    2    1    2    0    0  0.40203569071E+02 -0.11971221748E+03 -0.58728634655E+02  0.16659503059E+03  0.91419416479E+02 0.  0.
         13    1    3    3    0    0 -0.90461027941E+02  0.20908398141E+02 -0.13987871126E+03  0.16788809533E+03  0.00000000000E+00 0. -1.
        -14    1    3    3    0    0  0.14657312451E+02 -0.92948028580E+01 -0.23005487798E+02  0.28818095656E+02  0.00000000000E+00 0.  1.
        -13    1    4    4    0    0  0.18156861663E+02 -0.30180321664E+02  0.24077277983E+02  0.42664256190E+02  0.00000000000E+00 0.  1.
         13    1    4    4    0    0  0.22046707408E+02 -0.89531895816E+02 -0.82805912638E+02  0.12393077440E+03  0.00000000000E+00 0. -1.
          2    1    1    2  501    0  0.35600146419E+02  0.10809862220E+03 -0.47991575400E+03  0.49322592540E+03  0.00000000000E+00 0. -1.
<scales pt_clust_5="13000.00000" pt_clust_6="13000.00000" pt_clust_7="13000.00000" pt_clust_8="13000.00000" pt_clust_9="120.35992"></scales>
<clustering>
<clus scale="   79.253">  5  6 -1 -1</clus>
<clus scale="   91.419">  7  8 -1 -1</clus>
<clus scale="  110.282">  2  5  1 -1</clus>
<clus scale="  120.360">  1  9  2 -1</clus>
<clus scale="  120.360">  1  5  2 -1</clus>
</clustering>
</event>
<event>
 9    1  0.6345107E-005  0.1531210E+03  0.7546771E-02  0.1198590E+00
         21   -1    0    0  501  502  0.00000000000E+00  0.00000000000E+00  0.52797899763E+03  0.52797899763E+03  0.00000000000E+00 0.  1.
          3   -1    0    0  502    0 -0.00000000000E+00 -0.00000000000E+00 -0.80217197221E+02  0.80217197221E+02  0.00000000000E+00 0. -1.
         23    2    1    2    0    0 -0.12815772545E+03 -0.70107315698E+01  0.48759130720E+02  0.16479071894E+03  0.91131637048E+02 0.  0.
        -24    2    1    2    0    0  0.10541370578E+03 -0.32239774317E+02  0.35466983030E+03  0.37997604038E+03  0.80247431882E+02 0.  0.
         13    1    4    4    0    0  0.76619402180E+00 -0.26153121005E+02  0.35966940963E+02  0.44476888760E+02  0.00000000000E+00 0. -1.
        -14    1    4    4    0    0  0.10464751176E+03 -0.60866533121E+01  0.31870288934E+03  0.33549915162E+03  0.00000000000E+00 0.  1.
        -11    1    3    3    0    0 -0.10257658783E+03  0.18047668322E+02 -0.17651438486E+00  0.10415232047E+03  0.00000000000E+00 0. -1.
         11    1    3    3    0    0 -0.25581137623E+02 -0.25058399892E+02  0.48935645105E+02  0.60638398471E+02  0.00000000000E+00 0.  1.
          4    1    1    2  501    0  0.22744019668E+02  0.39250505887E+02  0.44332839391E+02  0.63429435529E+02  0.00000000000E+00 0. -1.
<scales pt_clust_5="13000.00000" pt_clust_6="13000.00000" pt_clust_7="13000.00000" pt_clust_8="13000.00000" pt_clust_9="45.36402"></scales>
<clustering>
<clus scale="   45.364">  1  9  2 -1</clus>
<clus scale="   80.247">  5  6 -1 -1</clus>
<clus scale="   91.132">  7  8 -1 -1</clus>
<clus scale="  146.904">  1  5  2 -1</clus>
<clus scale="   45.364">  1  5  2 -1</clus>
</clustering>
</event>
<event>
 9    1  0.6345107E-005  0.2348855E+03  0.7546771E-02  0.1123998E+00
         21   -1    0    0  501  502  0.00000000000E+00  0.00000000000E+00  0.93194406737E+03  0.93194406737E+03  0.00000000000E+00 0. -1.
         -4   -1    0    0    0  501 -0.00000000000E+00 -0.00000000000E+00 -0.80767294427E+02  0.80767294427E+02  0.00000000000E+00 0.  1.
         23    2    1    2    0    0 -0.17590986930E+03 -0.13770069203E+03  0.19093259261E+03  0.30812394497E+03  0.92624769043E+02 0.  0.
        -24    2    1    2    0    0  0.16646713034E+03  0.10749258079E+03  0.58608928286E+03  0.62396084476E+03  0.80997085781E+02 0.  0.
         11    1    4    4    0    0  0.10779621493E+03  0.11142780884E+03  0.41165400482E+03  0.43988089322E+03  0.00000000000E+00 0. -1.
        -12    1    4    4    0    0  0.58670915407E+02 -0.39352280524E+01  0.17443527804E+03  0.18407995154E+03  0.00000000000E+00 0.  1.
        -13    1    3    3    0    0 -0.85790601508E+02 -0.11895203532E+03  0.92691214981E+02  0.17349719119E+03  0.00000000000E+00 0. -1.
         13    1    3    3    0    0 -0.90119267792E+02 -0.18748656703E+02  0.98241377628E+02  0.13462675378E+03  0.00000000000E+00 0.  1.
         -3    1    1    2    0  502  0.94427389602E+01  0.30208111242E+02  0.74154897477E+02  0.80626572070E+02  0.00000000000E+00 0.  1.
<scales pt_clust_5="13000.00000" pt_clust_6="13000.00000" pt_clust_7="13000.00000" pt_clust_8="13000.00000" pt_clust_9="31.64957"></scales>
<clustering>
<clus scale="   31.650">  1  9  2 -1</clus>
<clus scale="   80.997">  5  6 -1 -1</clus>
<clus scale="   92.625">  7  8 -1 -1</clus>
<clus scale="  230.548">  1  5  2 -1</clus>
<clus scale="   31.650">  1  5  2 -1</clus>
</clustering>
</event>
<event>
 9    1  0.6345107E-005  0.1090278E+03  0.7546771E-02  0.1266139E+00
         21   -1    0    0  501  502  0.00000000000E+00  0.00000000000E+00  0.41759608589E+03  0.41759608589E+03  0.00000000000E+00 0.  1.
          1   -1    0    0  502    0 -0.00000000000E+00 -0.00000000000E+00 -0.91072689861E+02  0.91072689861E+02  0.00000000000E+00 0. -1.
        -24    2    1    2    0    0 -0.33459612982E+02  0.44423616178E+02 -0.41000405288E+02  0.10802975142E+03  0.83044509646E+02 0.  0.
         23    2    1    2    0    0  0.28414335489E+02 -0.72520113217E+02  0.22578303241E+03  0.25605232529E+03  0.92294497551E+02 0.  0.
         13    1    3    3    0    0 -0.27801830147E+02  0.37830599583E+02 -0.66323245179E+02  0.81258038836E+02  0.00000000000E+00 0. -1.
        -14    1    3    3    0    0 -0.56577828354E+01  0.65930165947E+01  0.25322839891E+02  0.26771712582E+02  0.00000000000E+00 0.  1.
        -13    1    4    4    0    0 -0.14412007337E+02 -0.38199876176E+02  0.24933068655E+02  0.47839255930E+02  0.00000000000E+00 0. -1.
         13    1    4    4    0    0  0.42826342826E+02 -0.34320237041E+02  0.20084996376E+03  0.20821306936E+03  0.00000000000E+00 0.  1.
          2    1    1    2  501    0  0.50452774932E+01  0.28096497039E+02  0.14174076891E+03  0.14458669904E+03  0.00000000000E+00 0. -1.
<scales pt_clust_5="13000.00000" pt_clust_6="13000.00000" pt_clust_7="13000.00000" pt_clust_8="13000.00000" pt_clust_9="28.54589"></scales>
<clustering>
<clus scale="   28.546">  1  9  2 -1</clus>
<clus scale="   83.045">  5  6 -1 -1</clus>
<clus scale="   92.294">  7  8 -1 -1</clus>
<clus scale="  101.317">  2  5  1 -1</clus>
<clus scale="   28.546">  1  5  2 -1</clus>
</clustering>
</event>
<event>
 9    1  0.6345107E-005  0.1102209E+03  0.7546771E-02  0.1268145E+00
          1   -1    0    0  502    0 -0.00000000000E+00  0.00000000000E+00  0.27238761296E+03  0.27238761296E+03  0.00000000000E+00 0. -1.
         21   -1    0    0  501  502  0.00000000000E+00 -0.00000000000E+00 -0.81827299248E+02  0.81827299248E+02  0.00000000000E+00 0.  1.
        -24    2    1    2    0    0 -0.50631916643E+02 -0.38837316960E+02  0.13774592598E+03  0.16679673811E+03  0.69103426459E+02 0.  0.
         23    2    1    2    0    0  0.78442776356E+02 -0.37803933512E+00  0.43729147056E+01  0.11916962542E+03  0.89603934983E+02 0.  0.
         11    1    3    3    0    0 -0.46728185682E+02  0.61384592868E+01  0.54131505897E+02  0.71773420918E+02  0.00000000000E+00 0. -1.
        -12    1    3    3    0    0 -0.39037309609E+01 -0.44975776246E+02  0.83614420081E+02  0.95023317191E+02  0.00000000000E+00 0.  1.
        -11    1    4    4    0    0  0.21700376886E+01 -0.27330779869E+02 -0.20838371808E+02  0.34437164974E+02  0.00000000000E+00 0.  1.
         11    1    4    4    0    0  0.76272738668E+02  0.26952740534E+02  0.25211286514E+02  0.84732460450E+02  0.00000000000E+00 0. -1.
          2    1    1    2  501    0 -0.27810859713E+02  0.39215356295E+02  0.48441473029E+02  0.68248548677E+02  0.00000000000E+00 0. -1.
<scales pt_clust_5="13000.00000" pt_clust_6="13000.00000" pt_clust_7="13000.00000" pt_clust_8="13000.00000" pt_clust_9="48.07588"></scales>
<clustering>
<clus scale="   48.076">  2  9  1 -1</clus>
<clus scale="   69.103">  5  6 -1 -1</clus>
<clus scale="   89.604">  7  8 -1 -1</clus>
<clus scale="   94.314">  1  5  2 -1</clus>
<clus scale="   48.076">  2  5  1 -1</clus>
</clustering>
</event>
<event>
 9    1  0.6345107E-005  0.9315827E+02  0.7546771E-02  0.1302434E+00
         21   -1    0    0  501  502  0.00000000000E+00  0.00000000000E+00  0.70723375590E+02  0.70723375590E+02  0.00000000000E+00 0. -1.
         -4   -1    0    0    0  501 -0.00000000000E+00 -0.00000000000E+00 -0.24998737462E+03  0.24998737462E+03  0.00000000000E+00 0.  1.
        -24    2    1    2    0    0 -0.11550308406E+02 -0.19579415415E+02 -0.14847598226E+03  0.17010301765E+03  0.79832049786E+02 0.  0.
         23    2    1    2    0    0  0.28944298280E+01 -0.11016413875E+02  0.16497070196E+02  0.93626082416E+02  0.91454638400E+02 0.  0.
         13    1    3    3    0    0  0.14725214414E+02  0.25664970782E+02 -0.67422372105E+02  0.73629470492E+02  0.00000000000E+00 0. -1.
        -14    1    3    3    0    0 -0.26275522820E+02 -0.45244386197E+02 -0.81053610152E+02  0.96473547154E+02  0.00000000000E+00 0.  1.
        -13    1    4    4    0    0  0.32316129570E+02 -0.37420627957E+02 -0.30256989981E+01  0.49535749530E+02  0.00000000000E+00 0. -1.
         13    1    4    4    0    0 -0.29421699742E+02  0.26404214082E+02  0.19522769194E+02  0.44090332886E+02  0.00000000000E+00 0.  1.
         -3    1    1    2    0  502  0.86558785778E+01  0.30595829290E+02 -0.47285086972E+02  0.56981650150E+02  0.00000000000E+00 0.  1.
<scales pt_clust_5="13000.00000" pt_clust_6="13000.00000" pt_clust_7="13000.00000" pt_clust_8="13000.00000" pt_clust_9="31.79670"></scales>
<clustering>
<clus scale="   31.797">  1  9  2 -1</clus>
<clus scale="   79.832">  5  6 -1 -1</clus>
<clus scale="   81.778">  2  5  1 -1</clus>
<clus scale="   91.455">  7  8 -1 -1</clus>
<clus scale="   31.797">  1  5  2 -1</clus>
</clustering>
</event>
<event>
 9    1  0.6345107E-005  0.2268913E+03  0.7546771E-02  0.1162729E+00
          3   -1    0    0  502    0 -0.00000000000E+00  0.00000000000E+00  0.26130534674E+03  0.26130534674E+03  0.00000000000E+00 0. -1.
         21   -1    0    0  501  502  0.00000000000E+00 -0.00000000000E+00 -0.30706501609E+03  0.30706501609E+03  0.00000000000E+00 0.  1.
         23    2    1    2    0    0  0.10314012784E+02 -0.38732275030E+02  0.54241579514E+02  0.11467163259E+03  0.92740856069E+02 0.  0.
        -24    2    1    2    0    0 -0.12097284764E+03 -0.15807835696E+03 -0.22327821560E+02  0.21492485415E+03  0.77916394369E+02 0.  0.
         11    1    4    4    0    0 -0.59391233081E+02 -0.30236730414E+02  0.14754753043E+02  0.68258927404E+02  0.00000000000E+00 0. -1.
        -12    1    4    4    0    0 -0.61581614555E+02 -0.12784162654E+03 -0.37082574603E+02  0.14666592674E+03  0.00000000000E+00 0.  1.
        -11    1    3    3    0    0  0.45366932815E+02  0.21222149946E+01  0.14211652552E+02  0.47588165102E+02  0.00000000000E+00 0. -1.
         11    1    3    3    0    0 -0.35052920031E+02 -0.40854490025E+02  0.40029926962E+02  0.67083467490E+02  0.00000000000E+00 0.  1.
          4    1    1    2  501    0  0.11065883485E+03  0.19681063199E+03 -0.77673427308E+02  0.23877387609E+03  0.00000000000E+00 0. -1.
<scales pt_clust_5="13000.00000" pt_clust_6="13000.00000" pt_clust_7="13000.00000" pt_clust_8="13000.00000" pt_clust_9="213.09315"></scales>
<clustering>
<clus scale="   77.916">  5  6 -1 -1</clus>
<clus scale="   92.741">  7  8 -1 -1</clus>
<clus scale="  101.032">  1  7  2 -1</clus>
<clus scale="  213.093">  2  9  1 -1</clus>
<clus scale="  213.093">  2  5  1 -1</clus>
</clustering>
</event>
<event>
 9    1  0.6345107E-005  0.1005190E+03  0.7546771E-02  0.1282407E+00
         -2   -1    0    0    0  501 -0.00000000000E+00  0.00000000000E+00  0.21316869436E+03  0.21316869436E+03  0.00000000000E+00 0.  1.
         21   -1    0    0  501  502  0.00000000000E+00 -0.00000000000E+00 -0.11772016383E+03  0.11772016383E+03  0.00000000000E+00 0.  1.
        -24    2    1    2    0    0 -0.29247450355E+02 -0.60767761470E+01  0.15638023571E+03  0.18678905867E+03  0.97688452530E+02 0.  0.
         23    2    1    2    0    0 -0.61940911271E+01  0.12390141795E+02 -0.32253738294E+02  0.98073858658E+02  0.91576720510E+02 0.  0.
         13    1    3    3    0    0 -0.39824150278E+02 -0.18166182838E+02  0.17754081809E+02  0.47235374087E+02  0.00000000000E+00 0. -1.
        -14    1    3    3    0    0  0.10576699923E+02  0.12089406691E+02  0.13862615390E+03  0.13955368458E+03  0.00000000000E+00 0.  1.
        -11    1    4    4    0    0  0.41622398338E+02  0.10779475851E+02 -0.57464534612E+01  0.43377907630E+02  0.00000000000E+00 0. -1.
         11    1    4    4    0    0 -0.47816489465E+02  0.16106659445E+01 -0.26507284833E+02  0.54695951027E+02  0.00000000000E+00 0.  1.
         -1    1    1    2    0  502  0.35441541482E+02 -0.63133656484E+01 -0.28677966886E+02  0.46025940872E+02  0.00000000000E+00 0.  1.
<scales pt_clust_5="13000.00000" pt_clust_6="13000.00000" pt_clust_7="13000.00000" pt_clust_8="13000.00000" pt_clust_9="35.99946"></scales>
<clustering>
<clus scale="   35.999">  2  9  1 -1</clus>
<clus scale="   91.577">  7  8 -1 -1</clus>
<clus scale="   94.590">  2  7  1 -1</clus>
<clus scale="   97.688">  5  6 -1 -1</clus>
<clus scale="   35.999">  2  5  1 -1</clus>
</clustering>
</event>
<event>
 9    1  0.6345107E-005  0.1682955E+03  0.7546771E-02  0.1207979E+00
         21   -1    0    0  501  502  0.00000000000E+00  0.00000000000E+00  0.96702440094E+02  0.96702440094E+02  0.00000000000E+00 0. -1.
          3   -1    0    0  502    0 -0.00000000000E+00 -0.00000000000E+00 -0.51577154771E+03  0.51577154771E+03  0.00000000000E+00 0. -1.
        -24    2    1    2    0    0  0.29969396706E+02 -0.27821402402E+02 -0.74169468474E+02  0.11688201439E+03  0.80548743400E+02 0.  0.
         23    2    1    2    0    0  0.12655049862E+03 -0.23066003168E+02 -0.68919978356E+02  0.17426226914E+03  0.95238153207E+02 0.  0.
         13    1    3    3    0    0  0.51343752586E+02 -0.40467167157E+02 -0.56453087095E+02  0.86375480258E+02  0.00000000000E+00 0. -1.
        -14    1    3    3    0    0 -0.21374355879E+02  0.12645764754E+02 -0.17716381379E+02  0.30506534130E+02  0.00000000000E+00 0.  1.
        -11    1    4    4    0    0  0.23856713807E+02 -0.11966871579E+02 -0.65706641324E+02  0.70920459130E+02  0.00000000000E+00 0.  1.
         11    1    4    4    0    0  0.10269378482E+03 -0.11099131589E+02 -0.32133370320E+01  0.10334181001E+03  0.00000000000E+00 0. -1.
          4    1    1    2  501    0 -0.15651989533E+03  0.50887405570E+02 -0.27597966079E+03  0.32132970427E+03  0.00000000000E+00 0. -1.
<scales pt_clust_5="13000.00000" pt_clust_6="13000.00000" pt_clust_7="13000.00000" pt_clust_8="13000.00000" pt_clust_9="138.75553"></scales>
<clustering>
<clus scale="   80.549">  5  6 -1 -1</clus>
<clus scale="   90.334">  2  5  1 -1</clus>
<clus scale="   95.238">  7  8 -1 -1</clus>
<clus scale="  138.756">  1  9  2 -1</clus>
<clus scale="  138.756">  1  5  2 -1</clus>
</clustering>
</event>
<event>
 9    1  0.6345107E-005  0.9946432E+02  0.7546771E-02  0.1285594E+00
          3   -1    0    0  502    0 -0.00000000000E+00  0.00000000000E+00  0.12348941440E+03  0.12348941440E+03  0.00000000000E+00 0. -1.
         21   -1    0    0  501  502  0.00000000000E+00 -0.00000000000E+00 -0.33908996640E+03  0.33908996640E+03  0.00000000000E+00 0.  1.
         23    2    1    2    0    0 -0.30907395062E+02  0.33871875673E+02  0.91120980926E+02  0.13517306462E+03  0.88691336682E+02 0.  0.
        -24    2    1    2    0    0  0.10524360839E+02 -0.39584155116E+02 -0.21137239786E+03  0.22973566666E+03  0.80140616729E+02 0.  0.
         13    1    4    4    0    0  0.59813325488E+01  0.22029712133E+02 -0.97989841685E+02  0.10061358571E+03  0.00000000000E+00 0. -1.
        -14    1    4    4    0    0  0.45430282906E+01 -0.61613867250E+02 -0.11338255618E+03  0.12912208095E+03  0.00000000000E+00 0.  1.
        -13    1    3    3    0    0 -0.58584556171E+02  0.35464992832E+02  0.79984543741E+02  0.10529692862E+03  0.00000000000E+00 0. -1.
         13    1    3    3    0    0  0.27677161109E+02 -0.15931171595E+01  0.11136437185E+02  0.29876136004E+02  0.00000000000E+00 0.  1.
          4    1    1    2  501    0  0.20383034222E+02  0.57122794439E+01 -0.95349135061E+02  0.97670649519E+02  0.00000000000E+00 0. -1.
<scales pt_clust_5="13000.00000" pt_clust_6="13000.00000" pt_clust_7="13000.00000" pt_clust_8="13000.00000" pt_clust_9="21.16833"></scales>
<clustering>
<clus scale="   21.168">  2  9  1 -1</clus>
<clus scale="   80.141">  5  6 -1 -1</clus>
<clus scale="   88.691">  7  8 -1 -1</clus>
<clus scale="   91.921">  2  5  1 -1</clus>
<clus scale="   21.168">  2  5  1 -1</clus>
</clustering>
</event>
<event>
 9    1  0.6345107E-005  0.1344258E+03  0.7546771E-02  0.1232415E+00
          1   -1    0    0  502    0 -0.00000000000E+00  0.00000000000E+00  0.10235731101E+03  0.10235731101E+03  0.00000000000E+00 0. -1.
         21   -1    0    0  501  502  0.00000000000E+00 -0.00000000000E+00 -0.55941863721E+03  0.55941863721E+03  0.00000000000E+00 0.  1.
         23    2    1    2    0    0 -0.35000866311E+02  0.41788468970E+02  0.12290194883E+02  0.10684113541E+03  0.91063947549E+02 0.  0.
        -24    2    1    2    0    0 -0.22315058868E+02  0.91998814031E+02 -0.33324965339E+03  0.35566647424E+03  0.80508172109E+02 0.  0.
         13    1    4    4    0    0  0.27177179721E+02  0.23235213248E+02 -0.14304535105E+03  0.14744641972E+03  0.00000000000E+00 0. -1.
        -14    1    4    4    0    0 -0.49492238589E+02  0.68763600783E+02 -0.19020430235E+03  0.20822005452E+03  0.00000000000E+00 0.  1.
        -11    1    3    3    0    0  0.14517582051E+02  0.46777137458E+02  0.25680279955E+02  0.55302238254E+02  0.00000000000E+00 0. -1.
         11    1    3    3    0    0 -0.49518448362E+02 -0.49886684882E+01 -0.13390085072E+02  0.51538897152E+02  0.00000000000E+00 0.  1.
          2    1    1    2  501    0  0.57315925179E+02 -0.13378728300E+03 -0.13610186769E+03  0.19926833858E+03  0.00000000000E+00 0. -1.
<scales pt_clust_5="13000.00000" pt_clust_6="13000.00000" pt_clust_7="13000.00000" pt_clust_8="13000.00000" pt_clust_9="107.65102"></scales>
<clustering>
<clus scale="   80.508">  5  6 -1 -1</clus>
<clus scale="   91.064">  7  8 -1 -1</clus>
<clus scale="  106.132">  1  7  2 -1</clus>
<clus scale="  107.651">  2  9  1 -1</clus>
<clus scale="  107.651">  2  5  1 -1</clus>
</clustering>
</event>
<event>
 9    1  0.6345107E-005  0.2017226E+03  0.7546771E-02  0.1170428E+00
         21   -1    0    0  501  502  0.00000000000E+00  0.00000000000E+00  0.10934027149E+03  0.10934027149E+03  0.00000000000E+00 0.  1.
          3   -1    0    0  502    0 -0.00000000000E+00 -0.00000000000E+00 -0.13821415459E+04  0.13821415459E+04  0.00000000000E+00 0. -1.
         23    2    1    2    0    0  0.44546018594E+02  0.63792253386E+02 -0.22328672260E+03  0.25368997288E+03  0.91912145471E+02 0.  0.
        -24    2    1    2    0    0 -0.18878416993E+03  0.38567928573E+02 -0.34573123586E+02  0.20755480679E+03  0.68969188885E+02 0.  0.
         13    1    4    4    0    0 -0.57610786910E+02 -0.19678580885E+02 -0.15026107503E+02  0.62705926520E+02  0.00000000000E+00 0. -1.
        -14    1    4    4    0    0 -0.13117338302E+03  0.58246509458E+02 -0.19547016083E+02  0.14484888027E+03  0.00000000000E+00 0.  1.
        -11    1    3    3    0    0  0.57183270987E+02  0.19375906401E+01 -0.11061088649E+03  0.12453292315E+03  0.00000000000E+00 0.  1.
         11    1    3    3    0    0 -0.12637252392E+02  0.61854662746E+02 -0.11267583611E+03  0.12915704973E+03  0.00000000000E+00 0. -1.
          4    1    1    2  501    0  0.14423815134E+03 -0.10236018196E+03 -0.10149414282E+04  0.10302370377E+04  0.00000000000E+00 0. -1.
<scales pt_clust_5="13000.00000" pt_clust_6="13000.00000" pt_clust_7="13000.00000" pt_clust_8="13000.00000" pt_clust_9="189.56603"></scales>
<clustering>
<clus scale="   68.969">  5  6 -1 -1</clus>
<clus scale="   91.912">  7  8 -1 -1</clus>
<clus scale="  120.423">  2  7  1 -1</clus>
<clus scale="  189.566">  1  9  2 -1</clus>
<clus scale="  189.566">  1  5  2 -1</clus>
</clustering>
</event>
<event>
 9    1  0.6345107E-005  0.1402275E+03  0.7546771E-02  0.1230243E+00
         21   -1    0    0  501  502  0.00000000000E+00  0.00000000000E+00  0.27811119711E+02  0.27811119711E+02  0.00000000000E+00 0. -1.
          1   -1    0    0  502    0 -0.00000000000E+00 -0.00000000000E+00 -0.19530542437E+04  0.19530542437E+04  0.00000000000E+00 0. -1.
        -24    2    1    2    0    0  0.46324187329E+02  0.34366870673E+02 -0.10779305786E+04  0.10823558601E+04  0.78948486567E+02 0.  0.
         23    2    1    2    0    0 -0.52524088523E+02  0.88983064266E+02 -0.22430189687E+03  0.26337494007E+03  0.91532794762E+02 0.  0.
         13    1    3    3    0    0  0.23893242114E+02 -0.93188878552E+01 -0.10145748632E+03  0.10464869908E+03  0.00000000000E+00 0. -1.
        -14    1    3    3    0    0  0.22430945215E+02  0.43685758529E+02 -0.97647309226E+03  0.97770716102E+03  0.00000000000E+00 0.  1.
        -13    1    4    4    0    0 -0.25966078467E+02  0.50900564394E+02 -0.20547867317E+03  0.21327585380E+03  0.00000000000E+00 0.  1.
         13    1    4    4    0    0 -0.26558010055E+02  0.38082499872E+02 -0.18823223698E+02  0.50099086269E+02  0.00000000000E+00 0. -1.
          2    1    1    2  501    0  0.61999011933E+01 -0.12334993494E+03 -0.62301064857E+03  0.63513456326E+03  0.00000000000E+00 0. -1.
<scales pt_clust_5="13000.00000" pt_clust_6="13000.00000" pt_clust_7="13000.00000" pt_clust_8="13000.00000" pt_clust_9="106.23334"></scales>
<clustering>
<clus scale="   78.948">  5  6 -1 -1</clus>
<clus scale="   91.533">  7  8 -1 -1</clus>
<clus scale="   97.775">  2  5  1 -1</clus>
<clus scale="  106.233">  1  9  2 -1</clus>
<clus scale="  106.233">  1  5  2 -1</clus>
</clustering>
</event>
<event>
 9    1  0.6345107E-005  0.2540367E+03  0.7546771E-02  0.1110780E+00
          1   -1    0    0  502    0 -0.00000000000E+00  0.00000000000E+00  0.62241895940E+03  0.62241895940E+03  0.00000000000E+00 0. -1.
         21   -1    0    0  501  502  0.00000000000E+00 -0.00000000000E+00 -0.10791328706E+03  0.10791328706E+03  0.00000000000E+00 0.  1.
        -24    2    1    2    0    0  0.45152877051E+02  0.81807162451E+02  0.57233415492E+02  0.14349593718E+03  0.92651098229E+02 0.  0.
         23    2    1    2    0    0  0.60443406977E+02  0.50170476554E+02  0.26328520924E+02  0.12393116140E+03  0.92169732495E+02 0.  0.
         13    1    3    3    0    0 -0.55321864766E+01  0.54646534677E+02  0.65411319468E+02  0.85413637986E+02  0.00000000000E+00 0. -1.
        -14    1    3    3    0    0  0.50685063528E+02  0.27160627774E+02 -0.81779039759E+01  0.58082299191E+02  0.00000000000E+00 0.  1.
        -11    1    4    4    0    0 -0.18969309304E+02 -0.75870904492E+01  0.14441254492E+02  0.25018962174E+02  0.00000000000E+00 0.  1.
         11    1    4    4    0    0  0.79412716281E+02  0.57757567003E+02  0.11887266432E+02  0.98912199230E+02  0.00000000000E+00 0. -1.
          2    1    1    2  501    0 -0.10559628403E+03 -0.13197763900E+03  0.43094373592E+03  0.46290514787E+03  0.00000000000E+00 0. -1.
<scales pt_clust_5="13000.00000" pt_clust_6="13000.00000" pt_clust_7="13000.00000" pt_clust_8="13000.00000" pt_clust_9="169.02278"></scales>
<clustering>
<clus scale="   92.170">  7  8 -1 -1</clus>
<clus scale="   92.651">  5  6 -1 -1</clus>
<clus scale="  100.475">  5  7 -1 -1</clus>
<clus scale="  169.023">  2  9  1 -1</clus>
<clus scale="  169.023">  2  5  1 -1</clus>
</clustering>
</event>
<event>
 9    1  0.6345107E-005  0.2158307E+03  0.7546771E-02  0.1137397E+00
         -2   -1    0    0    0  501 -0.00000000000E+00  0.00000000000E+00  0.28760361908E+03  0.28760361908E+03  0.00000000000E+00 0.  1.
         21   -1    0    0  501  502  0.00000000000E+00 -0.00000000000E+00 -0.25348695595E+03  0.25348695595E+03  0.00000000000E+00 0. -1.
         23    2    1    2    0    0 -0.20853524762E+03 -0.57382664102E+01  0.12214077036E+03  0.25739519176E+03  0.88397057390E+02 0.  0.
        -24    2    1    2    0    0  0.17831732872E+03 -0.23819773065E+02 -0.14540478564E+02  0.19892130704E+03  0.83628999549E+02 0.  0.
         13    1    4    4    0    0  0.17760240378E+03 -0.24472697746E+02 -0.31420862511E+02  0.18201317909E+03  0.00000000000E+00 0. -1.
        -14    1    4    4    0    0  0.71492494106E+00  0.65292468122E+00  0.16880383947E+02  0.16908127942E+02  0.00000000000E+00 0.  1.
        -11    1    3    3    0    0 -0.98017276980E+02 -0.35263478522E+01  0.10810508715E+03  0.14596757031E+03  0.00000000000E+00 0.  1.
         11    1    3    3    0    0 -0.11051797064E+03 -0.22119185580E+01  0.14035683211E+02  0.11142762144E+03  0.00000000000E+00 0. -1.
         -1    1    1    2    0  502  0.30217918898E+02  0.29558039475E+02 -0.73483628664E+02  0.84774076236E+02  0.00000000000E+00 0.  1.
<scales pt_clust_5="13000.00000" pt_clust_6="13000.00000" pt_clust_7="13000.00000" pt_clust_8="13000.00000" pt_clust_9="42.27056"></scales>
<clustering>
<clus scale="   42.271">  2  9  1 -1</clus>
<clus scale="   83.629">  5  6 -1 -1</clus>
<clus scale="   88.397">  7  8 -1 -1</clus>
<clus scale="  213.922">  2  5  1 -1</clus>
<clus scale="   42.271">  2  5  1 -1</clus>
</clustering>
</event>
<event>
 9    1  0.6345107E-005  0.2244914E+03  0.7546771E-02  0.1131400E+00
          1   -1    0    0  502    0 -0.00000000000E+00  0.00000000000E+00  0.63096734960E+03  0.63096734960E+03  0.00000000000E+00 0. -1.
         21   -1    0    0  501  502  0.00000000000E+00 -0.00000000000E+00 -0.18925690720E+03  0.18925690720E+03  0.00000000000E+00 0. -1.
        -24    2    1    2    0    0  0.24872670348E+03 -0.28597421665E+02  0.37232241288E+03  0.45594149476E+03  0.81091811945E+02 0.  0.
         23    2    1    2    0    0 -0.13824903800E+03  0.82295943662E+02  0.13068215837E+03  0.22700269768E+03  0.92557978529E+02 0.  0.
         11    1    3    3    0    0  0.24990620477E+03 -0.18632184647E+02  0.36749345249E+03  0.44480524627E+03  0.00000000000E+00 0. -1.
        -12    1    3    3    0    0 -0.11795012815E+01 -0.99652370170E+01  0.48289603829E+01  0.11136248491E+02  0.00000000000E+00 0.  1.
        -13    1    4    4    0    0 -0.13587219202E+02 -0.19297556908E+02  0.26013714014E+02  0.35124372522E+02  0.00000000000E+00 0.  1.
         13    1    4    4    0    0 -0.12466181879E+03  0.10159350057E+03  0.10466844436E+03  0.19187832516E+03  0.00000000000E+00 0. -1.
          2    1    1    2  501    0 -0.11047766549E+03 -0.53698521997E+02 -0.61294128844E+02  0.13728006435E+03  0.00000000000E+00 0. -1.
<scales pt_clust_5="13000.00000" pt_clust_6="13000.00000" pt_clust_7="13000.00000" pt_clust_8="13000.00000" pt_clust_9="122.83666"></scales>
<clustering>
<clus scale="   81.092">  5  6 -1 -1</clus>
<clus scale="   92.558">  7  8 -1 -1</clus>
<clus scale="  122.837">  2  9  1 -1</clus>
<clus scale="  220.012">  1  5  2 -1</clus>
<clus scale="  122.837">  2  5  1 -1</clus>
</clustering>
</event>
<event>
 9    1  0.6345107E-005  0.1483453E+03  0.7546771E-02  0.1203896E+00
          3   -1    0    0  502    0 -0.00000000000E+00  0.00000000000E+00  0.34537947182E+03  0.34537947182E+03  0.00000000000E+00 0. -1.
         21   -1    0    0  501  502  0.00000000000E+00 -0.00000000000E+00 -0.10751498049E+03  0.10751498049E+03  0.00000000000E+00 0. -1.
        -24    2    1    2    0    0 -0.99235063655E+02  0.32428605686E+02  0.11633557192E+03  0.17692743779E+03  0.82886311452E+02 0.  0.
         23    2    1    2    0    0  0.12375980053E+03 -0.86550642442E+02  0.49814122420E+02  0.18283447622E+03  0.90219160745E+02 0.  0.
         11    1    3    3    0    0 -0.10015121083E+02  0.39931986153E+02  0.53670081882E+02  0.67641288113E+02  0.00000000000E+00 0. -1.
        -12    1    3    3    0    0 -0.89219942572E+02 -0.75033804664E+01  0.62665490034E+02  0.10928614968E+03  0.00000000000E+00 0.  1.
        -13    1    4    4    0    0 -0.20975157817E+00 -0.33146553771E+02  0.33059899047E+02  0.46815541732E+02  0.00000000000E+00 0.  1.
         13    1    4    4    0    0  0.12396955211E+03 -0.53404088671E+02  0.16754223373E+02  0.13601893448E+03  0.00000000000E+00 0. -1.
          4    1    1    2  501    0 -0.24524736877E+02  0.54122036756E+02  0.71714796999E+02  0.93132538300E+02  0.00000000000E+00 0. -1.
<scales pt_clust_5="13000.00000" pt_clust_6="13000.00000" pt_clust_7="13000.00000" pt_clust_8="13000.00000" pt_clust_9="59.41937"></scales>
<clustering>
<clus scale="   59.419">  2  9  1 -1</clus>
<clus scale="   82.886">  5  6 -1 -1</clus>
<clus scale="   90.219">  7  8 -1 -1</clus>
<clus scale="  144.003">  1  5  2 -1</clus>
<clus scale="   59.419">  2  5  1 -1</clus>
</clustering>
</event>
<event>
 9    1  0.6345107E-005  0.1225243E+03  0.7546771E-02  0.1242177E+00
         21   -1    0    0  501  502  0.00000000000E+00  0.00000000000E+00  0.49680206249E+02  0.49680206249E+02  0.00000000000E+00 0. -1.
          1   -1    0    0  502    0 -0.00000000000E+00 -0.00000000000E+00 -0.46674018611E+03  0.46674018611E+03  0.00000000000E+00 0. -1.
         23    2    1    2    0    0 -0.37338355583E+02  0.67880624474E+02 -0.20959380614E+03  0.24155555107E+03  0.91747417958E+02 0.  0.
        -24    2    1    2    0    0  0.84160468474E+02 -0.43205545855E+02 -0.16610688129E+03  0.20769519911E+03  0.81216353495E+02 0.  0.
         11    1    4    4    0    0  0.81428629432E+02 -0.12705789209E+00 -0.11225811269E+03  0.13868136753E+03  0.00000000000E+00 0. -1.
        -12    1    4    4    0    0  0.27318390418E+01 -0.43078487963E+02 -0.53848768595E+02  0.69013831577E+02  0.00000000000E+00 0.  1.
        -11    1    3    3    0    0  0.60491192867E+00  0.44481998155E+02 -0.23727682521E+02  0.50418419215E+02  0.00000000000E+00 0.  1.
         11    1    3    3    0    0 -0.37943267511E+02  0.23398626319E+02 -0.18586612362E+03  0.19113713185E+03  0.00000000000E+00 0. -1.
          2    1    1    2  501    0 -0.46822112891E+02 -0.24675078618E+02 -0.41359292428E+02  0.67169642180E+02  0.00000000000E+00 0. -1.
<scales pt_clust_5="13000.00000" pt_clust_6="13000.00000" pt_clust_7="13000.00000" pt_clust_8="13000.00000" pt_clust_9="52.92608"></scales>
<clustering>
<clus scale="   52.926">  1  9  2 -1</clus>
<clus scale="   81.216">  5  6 -1 -1</clus>
<clus scale="   91.747">  7  8 -1 -1</clus>
<clus scale="  114.851">  1  5  2 -1</clus>
<clus scale="   52.926">  1  5  2 -1</clus>
</clustering>
</event>
<event>
 9    1  0.6345107E-005  0.1418331E+03  0.7546771E-02  0.1214532E+00
         21   -1    0    0  501  502  0.00000000000E+00  0.00000000000E+00  0.95063503161E+02  0.95063503161E+02  0.00000000000E+00 0.  1.
          1   -1    0    0  502    0 -0.00000000000E+00 -0.00000000000E+00 -0.84132067867E+03  0.84132067867E+03  0.00000000000E+00 0. -1.
         23    2    1    2    0    0 -0.15237414281E+02  0.10275663976E+03 -0.40136375052E+03  0.42483332184E+03  0.92732870710E+02 0.  0.
        -24    2    1    2    0    0  0.11431238925E+03 -0.10800917182E+03 -0.24551081217E+02  0.17619633568E+03  0.75558517621E+02 0.  0.
         11    1    4    4    0    0  0.21289704415E+02  0.10558549330E+02 -0.39893320318E+01  0.24096664668E+02  0.00000000000E+00 0. -1.
        -12    1    4    4    0    0  0.93022684835E+02 -0.11856772115E+03 -0.20561749186E+02  0.15209967101E+03  0.00000000000E+00 0.  1.
        -11    1    3    3    0    0 -0.37328658954E+02  0.17305983258E+02 -0.63759529562E+02  0.75882827081E+02  0.00000000000E+00 0. -1.
         11    1    3    3    0    0  0.22091244673E+02  0.85450656499E+02 -0.33760422096E+03  0.34895049476E+03  0.00000000000E+00 0.  1.
          2    1    1    2  501    0 -0.99074974970E+02  0.52525320625E+01 -0.32034234378E+03  0.33535452431E+03  0.00000000000E+00 0. -1.
<scales pt_clust_5="13000.00000" pt_clust_6="13000.00000" pt_clust_7="13000.00000" pt_clust_8="13000.00000" pt_clust_9="99.21416"></scales>
<clustering>
<clus scale="   75.559">  5  6 -1 -1</clus>
<clus scale="   92.733">  7  8 -1 -1</clus>
<clus scale="   99.214">  1  9  2 -1</clus>
<clus scale="  131.249">  1  5  2 -1</clus>
<clus scale="   99.214">  1  5  2 -1</clus>
</clustering>
</event>
<event>
 9    1  0.6345107E-005  0.1041721E+03  0.7546771E-02  0.1277805E+00
          3   -1    0    0  502    0 -0.00000000000E+00  0.00000000000E+00  0.71217903597E+03  0.71217903597E+03  0.00000000000E+00 0. -1.
         21   -1    0    0  501  502  0.00000000000E+00 -0.00000000000E+00 -0.27253418876E+02  0.27253418876E+02  0.00000000000E+00 0. -1.
        -24    2    1    2    0    0  0.12026033114E+02  0.33533523605E+02  0.26332717834E+03  0.27744696205E+03  0.79790295251E+02 0.  0.
         23    2    1    2    0    0 -0.60297985824E+02 -0.53704722874E+02  0.20431261738E+03  0.23849010836E+03  0.92810784991E+02 0.  0.
         11    1    3    3    0    0  0.79557515101E+01  0.53013126339E+02  0.10518392458E+03  0.11805652687E+03  0.00000000000E+00 0. -1.
        -12    1    3    3    0    0  0.40702816035E+01 -0.19479602734E+02  0.15814325376E+03  0.15939043517E+03  0.00000000000E+00 0.  1.
        -13    1    4    4    0    0 -0.61198977925E+02 -0.27792987422E+02  0.54733555731E+02  0.86680604358E+02  0.00000000000E+00 0.  1.
         13    1    4    4    0    0  0.90099210143E+00 -0.25911735452E+02  0.14957906165E+03  0.15180950400E+03  0.00000000000E+00 0. -1.
          4    1    1    2  501    0  0.48271952710E+02  0.20171199270E+02  0.21728582137E+03  0.22349538444E+03  0.00000000000E+00 0. -1.
<scales pt_clust_5="13000.00000" pt_clust_6="13000.00000" pt_clust_7="13000.00000" pt_clust_8="13000.00000" pt_clust_9="52.31693"></scales>
<clustering>
<clus scale="   52.317">  2  9  1 -1</clus>
<clus scale="   79.790">  5  6 -1 -1</clus>
<clus scale="   92.760">  1  5  2 -1</clus>
<clus scale="   92.811">  7  8 -1 -1</clus>
<clus scale="   52.317">  2  5  1 -1</clus>
</clustering>
</event>
<event>
 9    1  0.7155757E-005  0.2157267E+03  0.7546771E-02  0.1138128E+00
          1   -1    0    0  502    0 -0.00000000000E+00  0.00000000000E+00  0.10251822588E+04  0.10251822588E+04  0.00000000000E+00 0. -1.
         21   -1    0    0  501  502  0.00000000000E+00 -0.00000000000E+00 -0.11462446279E+03  0.11462446279E+03  0.00000000000E+00 0.  1.
        -24    2    1    2    0    0  0.16010053477E+03  0.64710158845E+02  0.32853102698E+03  0.37983426473E+03  0.80757953683E+02 0.  0.
         23    2    1    2    0    0 -0.23108707508E+03 -0.13277049953E+03  0.15589005501E+03  0.32263528954E+03  0.93608648066E+02 0.  0.
         11    1    3    3    0    0  0.77342959372E+02  0.74293914210E+02  0.19028753478E+03  0.21842816885E+03  0.00000000000E+00 0. -1.
        -12    1    3    3    0    0  0.82757575396E+02 -0.95837553657E+01  0.13824349220E+03  0.16140609588E+03  0.00000000000E+00 0.  1.
        -11    1    4    4    0    0 -0.21063997039E+03 -0.97175205757E+02  0.15935994272E+03  0.28143881943E+03  0.00000000000E+00 0.  1.
         11    1    4    4    0    0 -0.20447104694E+02 -0.35595293769E+02 -0.34698877108E+01  0.41196470111E+02  0.00000000000E+00 0. -1.
          2    1    1    2  501    0  0.70986540311E+02  0.68060340682E+02  0.42613671407E+03  0.43733716736E+03  0.00000000000E+00 0. -1.
<scales pt_clust_5="13000.00000" pt_clust_6="13000.00000" pt_clust_7="13000.00000" pt_clust_8="13000.00000" pt_clust_9="98.34281"></scales>
<clustering>
<clus scale="   80.758">  5  6 -1 -1</clus>
<clus scale="   93.609">  7  8 -1 -1</clus>
<clus scale="   98.343">  2  9  1 -1</clus>
<clus scale="  210.469">  1  5  2 -1</clus>
<clus scale="   98.343">  2  5  1 -1</clus>
</clustering>
</event>
<event>
 9    1  0.6345107E-005  0.1052920E+03  0.7546771E-02  0.1274182E+00
          3   -1    0    0  502    0 -0.00000000000E+00  0.00000000000E+00  0.51049363784E+03  0.51049363784E+03  0.00000000000E+00 0. -1.
         21   -1    0    0  501  502  0.00000000000E+00 -0.00000000000E+00 -0.42931194189E+02  0.42931194189E+02  0.00000000000E+00 0.  1.
        -24    2    1    2    0    0  0.32175090447E+02  0.42389491943E+02  0.35229167914E+03  0.36485077797E+03  0.78578352791E+02 0.  0.
         23    2    1    2    0    0 -0.55146110488E+02 -0.37456183196E+02  0.12084216171E+03  0.16442771347E+03  0.89384482698E+02 0.  0.
         13    1    3    3    0    0  0.22081032967E+02  0.65768875780E+02  0.26341254373E+03  0.27239545743E+03  0.00000000000E+00 0. -1.
        -14    1    3    3    0    0  0.10094057479E+02 -0.23379383837E+02  0.88879135410E+02  0.92455320540E+02  0.00000000000E+00 0.  1.
        -11    1    4    4    0    0 -0.69247861417E+01 -0.49927182883E+02  0.96763980097E+02  0.10910519739E+03  0.00000000000E+00 0. -1.
         11    1    4    4    0    0 -0.48221324347E+02  0.12470999687E+02  0.24078181613E+02  0.55322516074E+02  0.00000000000E+00 0.  1.
          4    1    1    2  501    0  0.22971020042E+02 -0.49333087468E+01 -0.55713971992E+01  0.24146340586E+02  0.00000000000E+00 0. -1.
<scales pt_clust_5="13000.00000" pt_clust_6="13000.00000" pt_clust_7="13000.00000" pt_clust_8="13000.00000" pt_clust_9="23.49479"></scales>
<clustering>
<clus scale="   23.495">  2  9  1 -1</clus>
<clus scale="   78.578">  5  6 -1 -1</clus>
<clus scale="   89.384">  7  8 -1 -1</clus>
<clus scale="   96.288">  1  5  2 -1</clus>
<clus scale="   23.495">  2  5  1 -1</clus>
</clustering>
</event>
<event>
 9    1  0.6345107E-005  0.1038248E+03  0.7546771E-02  0.1277660E+00
         21   -1    0    0  501  502  0.00000000000E+00  0.00000000000E+00  0.46893073869E+03  0.46893073869E+03  0.00000000000E+00 0.  1.
         -2   -1    0    0    0  501 -0.00000000000E+00 -0.00000000000E+00 -0.28815714480E+02  0.28815714480E+02  0.00000000000E+00 0.  1.
        -24    2    1    2    0    0 -0.16660752186E+02  0.39093445199E+02  0.17654552145E+03  0.19904620360E+03  0.81518046479E+02 0.  0.
         23    2    1    2    0    0 -0.53359757207E+01 -0.55509004636E+02  0.23685723233E+03  0.26040048428E+03  0.92721850019E+02 0.  0.
         13    1    3    3    0    0 -0.35296370820E+02  0.33530321271E+02  0.45731404520E+02  0.66794293147E+02  0.00000000000E+00 0. -1.
        -14    1    3    3    0    0  0.18635618634E+02  0.55631239279E+01  0.13081411693E+03  0.13225191045E+03  0.00000000000E+00 0.  1.
        -11    1    4    4    0    0 -0.45289761111E+02 -0.43811906043E+02  0.10861411823E+03  0.12556939218E+03  0.00000000000E+00 0.  1.
         11    1    4    4    0    0  0.39953785390E+02 -0.11697098593E+02  0.12824311410E+03  0.13483109210E+03  0.00000000000E+00 0. -1.
         -1    1    1    2    0  502  0.21996727906E+02  0.16415559437E+02  0.26712270423E+02  0.38299765291E+02  0.00000000000E+00 0.  1.
<scales pt_clust_5="13000.00000" pt_clust_6="13000.00000" pt_clust_7="13000.00000" pt_clust_8="13000.00000" pt_clust_9="27.44681"></scales>
<clustering>
<clus scale="   27.447">  1  9  2 -1</clus>
<clus scale="   81.518">  5  6 -1 -1</clus>
<clus scale="   92.722">  7  8 -1 -1</clus>
<clus scale="   93.955">  2  5  1 -1</clus>
<clus scale="   27.447">  1  5  2 -1</clus>
</clustering>
</event>
<event>
 9    1  0.6345107E-005  0.2335815E+03  0.7546771E-02  0.1155105E+00
         21   -1    0    0  501  502  0.00000000000E+00  0.00000000000E+00  0.39891497394E+03  0.39891497394E+03  0.00000000000E+00 0.  1.
          3   -1    0    0  502    0 -0.00000000000E+00 -0.00000000000E+00 -0.39679292151E+03  0.39679292151E+03  0.00000000000E+00 0. -1.
         23    2    1    2    0    0  0.11550316669E+02  0.61528421691E+02 -0.23554745293E+03  0.26022860603E+03  0.91198510520E+02 0.  0.
        -24    2    1    2    0    0  0.13021651833E+03  0.12737529624E+03  0.18200207030E+00  0.20054233360E+03  0.83883172949E+02 0.  0.
         11    1    4    4    0    0  0.11638821043E+02  0.16733615201E+02 -0.29312056686E+02  0.35702558734E+02  0.00000000000E+00 0. -1.
        -12    1    4    4    0    0  0.11857769728E+03  0.11064168104E+03  0.29494058757E+02  0.16483977487E+03  0.00000000000E+00 0.  1.
        -13    1    3    3    0    0 -0.30702407662E+02  0.59281230546E+02 -0.16457687874E+03  0.17760194578E+03  0.00000000000E+00 0. -1.
         13    1    3    3    0    0  0.42252724331E+02  0.22471911444E+01 -0.70970574193E+02  0.82626660242E+02  0.00000000000E+00 0.  1.
          4    1    1    2  501    0 -0.14176683500E+03 -0.18890371793E+03  0.23748750330E+03  0.33493695582E+03  0.00000000000E+00 0. -1.
<scales pt_clust_5="13000.00000" pt_clust_6="13000.00000" pt_clust_7="13000.00000" pt_clust_8="13000.00000" pt_clust_9="217.99986"></scales>
<clustering>
<clus scale="   83.883">  5  6 -1 -1</clus>
<clus scale="   91.199">  7  8 -1 -1</clus>
<clus scale="  110.618">  2  7  1 -1</clus>
<clus scale="  218.000">  1  9  2 -1</clus>
<clus scale="  218.000">  1  5  2 -1</clus>
</clustering>
</event>
<event>
 9    1  0.6345107E-005  0.1174237E+03  0.7546771E-02  0.1249754E+00
          1   -1    0    0  502    0 -0.00000000000E+00  0.00000000000E+00  0.10243291788E+04  0.10243291788E+04  0.00000000000E+00 0. -1.
         21   -1    0    0  501  502  0.00000000000E+00 -0.00000000000E+00 -0.21170734973E+02  0.21170734973E+02  0.00000000000E+00 0. -1.
         23    2    1    2    0    0 -0.19599458226E+02  0.58988342901E+02  0.32282504523E+03  0.34040813649E+03  0.88305867286E+02 0.  0.
        -24    2    1    2    0    0 -0.22264798571E+02 -0.96559581082E+02  0.43812085348E+03  0.45643311376E+03  0.81005130251E+02 0.  0.
         11    1    4    4    0    0  0.29015953909E+02 -0.51619450847E+02  0.18198415018E+03  0.19137587153E+03  0.00000000000E+00 0. -1.
        -12    1    4    4    0    0 -0.51280752480E+02 -0.44940130235E+02  0.25613670330E+03  0.26505724223E+03  0.00000000000E+00 0.  1.
        -13    1    3    3    0    0 -0.44007245910E+02  0.77477315073E+01  0.86459182489E+02  0.97323456950E+02  0.00000000000E+00 0. -1.
         13    1    3    3    0    0  0.24407787684E+02  0.51240611394E+02  0.23636586274E+03  0.24308467954E+03  0.00000000000E+00 0.  1.
          2    1    1    2  501    0  0.41864256798E+02  0.37571238181E+02  0.24221254512E+03  0.24865866353E+03  0.00000000000E+00 0. -1.
<scales pt_clust_5="13000.00000" pt_clust_6="13000.00000" pt_clust_7="13000.00000" pt_clust_8="13000.00000" pt_clust_9="56.25137"></scales>
<clustering>
<clus scale="   56.251">  2  9  1 -1</clus>
<clus scale="   81.005">  5  6 -1 -1</clus>
<clus scale="   88.306">  7  8 -1 -1</clus>
<clus scale="  112.037">  2  5  1 -1</clus>
<clus scale="   56.251">  2  5  1 -1</clus>
</clustering>
</event>
<event>
 9    1  0.6345107E-005  0.1211129E+03  0.7546771E-02  0.1245710E+00
         21   -1    0    0  501  502  0.00000000000E+00  0.00000000000E+00  0.16060600367E+03  0.16060600367E+03  0.00000000000E+00 0.  1.
          1   -1    0    0  502    0 -0.00000000000E+00 -0.00000000000E+00 -0.45490188123E+03  0.45490188123E+03  0.00000000000E+00 0. -1.
        -24    2    1    2    0    0  0.34410431782E+02  0.32903077971E+02  0.43465325224E+02  0.10189488992E+03  0.78909085273E+02 0.  0.
         23    2    1    2    0    0 -0.15361527105E+02 -0.11929658414E+03  0.12355965936E+02  0.15249150502E+03  0.92915755977E+02 0.  0.
         11    1    3    3    0    0  0.25312323822E+02 -0.14915220709E+02 -0.86068439645E+01  0.30614625738E+02  0.00000000000E+00 0. -1.
        -12    1    3    3    0    0  0.90981079601E+01  0.47818298680E+02  0.52072169189E+02  0.71280264177E+02  0.00000000000E+00 0.  1.
        -11    1    4    4    0    0 -0.20467841408E+02  0.75615628132E+01 -0.92601979280E+01  0.23703607948E+02  0.00000000000E+00 0. -1.
         11    1    4    4    0    0  0.51063143032E+01 -0.12685814695E+03  0.21616163864E+02  0.12878789708E+03  0.00000000000E+00 0.  1.
          2    1    1    2  501    0 -0.19048904677E+02  0.86393506165E+02 -0.35011716872E+03  0.36112148996E+03  0.00000000000E+00 0. -1.
<scales pt_clust_5="13000.00000" pt_clust_6="13000.00000" pt_clust_7="13000.00000" pt_clust_8="13000.00000" pt_clust_9="88.46868"></scales>
<clustering>
<clus scale="   78.909">  5  6 -1 -1</clus>
<clus scale="   88.469">  1  9  2 -1</clus>
<clus scale="   92.916">  7  8 -1 -1</clus>
<clus scale="  110.732">  2  5  1 -1</clus>
<clus scale="   88.469">  1  5  2 -1</clus>
</clustering>
</event>
<event>
 9    1  0.6345107E-005  0.1214243E+03  0.7546771E-02  0.1244409E+00
          3   -1    0    0  502    0 -0.00000000000E+00  0.00000000000E+00  0.77585820903E+02  0.77585820903E+02  0.00000000000E+00 0. -1.
         21   -1    0    0  501  502  0.00000000000E+00 -0.00000000000E+00 -0.33055340970E+03  0.33055340970E+03  0.00000000000E+00 0. -1.
         23    2    1    2    0    0  0.54687227121E+02 -0.40258074018E+02 -0.67342751479E+02  0.13217132938E+03  0.91229429454E+02 0.  0.
        -24    2    1    2    0    0 -0.63391563855E+02  0.87786118906E+02 -0.18379596547E+03  0.22761476999E+03  0.79389127419E+02 0.  0.
         13    1    4    4    0    0 -0.44904802051E+02  0.50899678030E+02 -0.17168274750E+03  0.18461360800E+03  0.00000000000E+00 0. -1.
        -14    1    4    4    0    0 -0.18486761804E+02  0.36886440875E+02 -0.12113217973E+02  0.43001161985E+02  0.00000000000E+00 0.  1.
        -13    1    3    3    0    0  0.12066556132E+02 -0.55444351536E+02 -0.65817750529E+02  0.86900254193E+02  0.00000000000E+00 0. -1.
         13    1    3    3    0    0  0.42620670988E+02  0.15186277518E+02 -0.15250009499E+01  0.45271075183E+02  0.00000000000E+00 0.  1.
          4    1    1    2  501    0  0.87043367339E+01 -0.47528044888E+02 -0.18288718501E+01  0.48353131244E+02  0.00000000000E+00 0. -1.
<scales pt_clust_5="13000.00000" pt_clust_6="13000.00000" pt_clust_7="13000.00000" pt_clust_8="13000.00000" pt_clust_9="48.31856"></scales>
<clustering>
<clus scale="   48.319">  2  9  1 -1</clus>
<clus scale="   79.389">  5  6 -1 -1</clus>
<clus scale="   91.229">  7  8 -1 -1</clus>
<clus scale="  112.799">  2  5  1 -1</clus>
<clus scale="   48.319">  2  5  1 -1</clus>
</clustering>
</event>
<event>
 9    1  0.6345107E-005  0.9850896E+02  0.7546771E-02  0.1288189E+00
          1   -1    0    0  502    0 -0.00000000000E+00  0.00000000000E+00  0.58686167946E+02  0.58686167946E+02  0.00000000000E+00 0. -1.
         21   -1    0    0  501  502  0.00000000000E+00 -0.00000000000E+00 -0.71392506674E+03  0.71392506674E+03  0.00000000000E+00 0.  1.
         23    2    1    2    0    0 -0.89458909016E+01  0.35198378830E+02 -0.50417969075E+02  0.10999839223E+03  0.90767394211E+02 0.  0.
        -24    2    1    2    0    0 -0.68307793267E+02 -0.59728413272E+02 -0.55324483939E+03  0.56654022720E+03  0.81575356291E+02 0.  0.
         13    1    4    4    0    0 -0.48064819212E+02  0.29896537364E+01 -0.13947744686E+03  0.14755718572E+03  0.00000000000E+00 0. -1.
        -14    1    4    4    0    0 -0.20242974055E+02 -0.62718067009E+02 -0.41376739253E+03  0.41898304148E+03  0.00000000000E+00 0.  1.
        -11    1    3    3    0    0 -0.33198051348E+02  0.47334604227E+02 -0.62278611434E+01  0.58150336414E+02  0.00000000000E+00 0. -1.
         11    1    3    3    0    0  0.24252160446E+02 -0.12136225397E+02 -0.44190107931E+02  0.51848055819E+02  0.00000000000E+00 0.  1.
          2    1    1    2  501    0  0.77253684169E+02  0.24530034442E+02 -0.51576090327E+02  0.96072615249E+02  0.00000000000E+00 0. -1.
<scales pt_clust_5="13000.00000" pt_clust_6="13000.00000" pt_clust_7="13000.00000" pt_clust_8="13000.00000" pt_clust_9="81.05468"></scales>
<clustering>
<clus scale="   81.055">  2  9  1 -1</clus>
<clus scale="   81.575">  5  6 -1 -1</clus>
<clus scale="   90.110">  2  5  1 -1</clus>
<clus scale="   90.767">  7  8 -1 -1</clus>
<clus scale="   81.055">  2  5  1 -1</clus>
</clustering>
</event>
<event>
 9    1  0.6345107E-005  0.1062807E+03  0.7546771E-02  0.1272920E+00
         21   -1    0    0  501  502  0.00000000000E+00  0.00000000000E+00  0.35926014458E+03  0.35926014458E+03  0.00000000000E+00 0.  1.
         -4   -1    0    0    0  501 -0.00000000000E+00 -0.00000000000E+00 -0.63205455679E+02  0.63205455679E+02  0.00000000000E+00 0.  1.
         23    2    1    2    0    0 -0.30312637482E+02  0.13673299066E+02  0.92519050308E+02  0.13542875109E+03  0.93141595717E+02 0.  0.
        -24    2    1    2    0    0  0.47306592004E+02 -0.75461077611E+02  0.18420457891E+03  0.22010244893E+03  0.81126279649E+02 0.  0.
         11    1    4    4    0    0 -0.17438629766E+02 -0.22234623650E+02  0.88414638565E+02  0.92820432069E+02  0.00000000000E+00 0. -1.
        -12    1    4    4    0    0  0.64745221770E+02 -0.53226453961E+02  0.95789940347E+02  0.12728201686E+03  0.00000000000E+00 0.  1.
        -11    1    3    3    0    0  0.17850701766E+02  0.35262944487E+02  0.16377922769E+02  0.42782696989E+02  0.00000000000E+00 0.  1.
         11    1    3    3    0    0 -0.48163339248E+02 -0.21589645422E+02  0.76141127539E+02  0.92646054098E+02  0.00000000000E+00 0. -1.
         -3    1    1    2    0  502 -0.16993954522E+02  0.61787778545E+02  0.19331059680E+02  0.66934400245E+02  0.00000000000E+00 0.  1.
<scales pt_clust_5="13000.00000" pt_clust_6="13000.00000" pt_clust_7="13000.00000" pt_clust_8="13000.00000" pt_clust_9="64.08220"></scales>
<clustering>
<clus scale="   64.082">  1  9  2 -1</clus>
<clus scale="   81.126">  5  6 -1 -1</clus>
<clus scale="   93.142">  7  8 -1 -1</clus>
<clus scale="   95.925">  1  5  2 -1</clus>
<clus scale="   64.082">  1  5  2 -1</clus>
</clustering>
</event>
<event>
 9    1  0.6345107E-005  0.1071364E+03  0.7546771E-02  0.1271675E+00
         21   -1    0    0  501  502  0.00000000000E+00  0.00000000000E+00  0.23622434667E+03  0.23622434667E+03  0.00000000000E+00 0.  1.
         -2   -1    0    0    0  501 -0.00000000000E+00 -0.00000000000E+00 -0.57944831391E+03  0.57944831391E+03  0.00000000000E+00 0.  1.
         23    2    1    2    0    0  0.13499897396E+02 -0.51770690125E+02 -0.52624330112E+03  0.53738636898E+03  0.94813743798E+02 0.  0.
        -24    2    1    2    0    0 -0.22491828038E+02  0.17850589681E+02 -0.50625301246E+01  0.86958782858E+02  0.81924812019E+02 0.  0.
         11    1    4    4    0    0 -0.49356770489E+02  0.29398360442E+02 -0.11831853592E+01  0.57460893810E+02  0.00000000000E+00 0. -1.
        -12    1    4    4    0    0  0.26864942451E+02 -0.11547770762E+02 -0.38793447654E+01  0.29497889048E+02  0.00000000000E+00 0.  1.
        -11    1    3    3    0    0  0.78577396805E+01 -0.79496080807E+02 -0.36041796208E+03  0.36916456808E+03  0.00000000000E+00 0.  1.
         11    1    3    3    0    0  0.56421577159E+01  0.27725390682E+02 -0.16582533903E+03  0.16822180090E+03  0.00000000000E+00 0. -1.
         -1    1    1    2    0  502  0.89919306416E+01  0.33920100444E+02  0.18808186401E+03  0.19132750873E+03  0.00000000000E+00 0.  1.
<scales pt_clust_5="13000.00000" pt_clust_6="13000.00000" pt_clust_7="13000.00000" pt_clust_8="13000.00000" pt_clust_9="35.09171"></scales>
<clustering>
<clus scale="   35.092">  1  9  2 -1</clus>
<clus scale="   81.925">  5  6 -1 -1</clus>
<clus scale="   94.814">  7  8 -1 -1</clus>
<clus scale="   95.918">  1  5  2 -1</clus>
<clus scale="   35.092">  1  5  2 -1</clus>
</clustering>
</event>
<event>
 9    1  0.6345107E-005  0.1166869E+03  0.7546771E-02  0.1253704E+00
          1   -1    0    0  502    0 -0.00000000000E+00  0.00000000000E+00  0.35308255253E+03  0.35308255253E+03  0.00000000000E+00 0. -1.
         21   -1    0    0  501  502  0.00000000000E+00 -0.00000000000E+00 -0.10666590752E+03  0.10666590752E+03  0.00000000000E+00 0. -1.
         23    2    1    2    0    0 -0.74681914013E+02 -0.24974095102E+02  0.23992610569E+03  0.26911878285E+03  0.93055302810E+02 0.  0.
        -24    2    1    2    0    0  0.42344809588E+02  0.42431518763E+02  0.67287534361E+02  0.11958937478E+03  0.78616089932E+02 0.  0.
         11    1    4    4    0    0 -0.16434443512E+02  0.35002236685E+02  0.18627111935E+02  0.42921053174E+02  0.00000000000E+00 0. -1.
        -12    1    4    4    0    0  0.58779253100E+02  0.74292820776E+01  0.48660422426E+02  0.76668321606E+02  0.00000000000E+00 0.  1.
        -11    1    3    3    0    0  0.16868570992E+02 -0.22017512708E+02  0.35038167854E+02  0.44687724933E+02  0.00000000000E+00 0.  1.
         11    1    3    3    0    0 -0.91550485005E+02 -0.29565823939E+01  0.20488793784E+03  0.22443105791E+03  0.00000000000E+00 0. -1.
          2    1    1    2  501    0  0.32337104425E+02 -0.17457423661E+02 -0.60796995040E+02  0.71040302430E+02  0.00000000000E+00 0. -1.
<scales pt_clust_5="13000.00000" pt_clust_6="13000.00000" pt_clust_7="13000.00000" pt_clust_8="13000.00000" pt_clust_9="36.74847"></scales>
<clustering>
<clus scale="   36.748">  2  9  1 -1</clus>
<clus scale="   78.616">  5  6 -1 -1</clus>
<clus scale="   93.055">  7  8 -1 -1</clus>
<clus scale="  105.532">  2  5  1 -1</clus>
<clus scale="   36.748">  2  5  1 -1</clus>
</clustering>
</event>
<event>
 9    1  0.6345107E-005  0.8977931E+02  0.7546771E-02  0.1308141E+00
          1   -1    0    0  502    0 -0.00000000000E+00  0.00000000000E+00  0.45718698877E+03  0.45718698877E+03  0.00000000000E+00 0. -1.
         21   -1    0    0  501  502  0.00000000000E+00 -0.00000000000E+00 -0.41891821206E+02  0.41891821206E+02  0.00000000000E+00 0.  1.
         23    2    1    2    0    0  0.16202384809E+01 -0.39952839578E+02  0.18944402859E+03  0.21270208704E+03  0.88058408463E+02 0.  0.
        -24    2    1    2    0    0  0.36850298663E+02 -0.31593360963E+02  0.13546403328E+03  0.16485030640E+03  0.80430306716E+02 0.  0.
         11    1    4    4    0    0  0.87569758341E+01  0.27229948456E+02  0.45702287280E+02  0.53915246279E+02  0.00000000000E+00 0. -1.
        -12    1    4    4    0    0  0.28093322828E+02 -0.58823309420E+02  0.89761745999E+02  0.11093506012E+03  0.00000000000E+00 0.  1.
        -13    1    3    3    0    0  0.27565446838E+02 -0.43506905870E+02  0.17576783409E+03  0.18315850026E+03  0.00000000000E+00 0.  1.
         13    1    3    3    0    0 -0.25945208357E+02  0.35540662920E+01  0.13676194500E+02  0.29543586781E+02  0.00000000000E+00 0. -1.
          2    1    1    2  501    0 -0.38470537143E+02  0.71546200542E+02  0.90387105694E+02  0.12152641653E+03  0.00000000000E+00 0. -1.
<scales pt_clust_5="13000.00000" pt_clust_6="13000.00000" pt_clust_7="13000.00000" pt_clust_8="13000.00000" pt_clust_9="81.23325"></scales>
<clustering>
<clus scale="   80.430">  5  6 -1 -1</clus>
<clus scale="   81.233">  2  9  1 -1</clus>
<clus scale="   82.311">  2  5  1 -1</clus>
<clus scale="   88.058">  7  8 -1 -1</clus>
<clus scale="   81.233">  2  5  1 -1</clus>
</clustering>
</event>
<event>
 9    1  0.6345107E-005  0.2638228E+03  0.7546771E-02  0.1143344E+00
         21   -1    0    0  501  502  0.00000000000E+00  0.00000000000E+00  0.16646235535E+03  0.16646235535E+03  0.00000000000E+00 0. -1.
          3   -1    0    0  502    0 -0.00000000000E+00 -0.00000000000E+00 -0.95384427767E+03  0.95384427767E+03  0.00000000000E+00 0. -1.
        -24    2    1    2    0    0 -0.61301343459E+02 -0.51070783385E+01 -0.42012075052E+03  0.43220436696E+03  0.80716992266E+02 0.  0.
         23    2    1    2    0    0  0.38425208996E+02  0.24905502872E+03 -0.35057583545E+03  0.44251659776E+03  0.97018652203E+02 0.  0.
         11    1    3    3    0    0 -0.28961424910E+02  0.37880517655E+02 -0.20002334473E+03  0.20562839344E+03  0.00000000000E+00 0. -1.
        -12    1    3    3    0    0 -0.32339918549E+02 -0.42987595993E+02 -0.22009740580E+03  0.22657597352E+03  0.00000000000E+00 0.  1.
        -13    1    4    4    0    0 -0.64044466647E+01  0.21136252122E+03 -0.27365850751E+03  0.34583827296E+03  0.00000000000E+00 0.  1.
         13    1    4    4    0    0  0.44829655661E+02  0.37692507502E+02 -0.76917327933E+02  0.96678324793E+02  0.00000000000E+00 0. -1.
          4    1    1    2  501    0  0.22876134462E+02 -0.24394795038E+03 -0.16685336353E+02  0.24558566830E+03  0.00000000000E+00 0. -1.
<scales pt_clust_5="13000.00000" pt_clust_6="13000.00000" pt_clust_7="13000.00000" pt_clust_8="13000.00000" pt_clust_9="245.33617"></scales>
<clustering>
<clus scale="   80.717">  5  6 -1 -1</clus>
<clus scale="   97.019">  7  8 -1 -1</clus>
<clus scale="  101.485">  2  5  1 -1</clus>
<clus scale="  245.336">  1  9  2 -1</clus>
<clus scale="  245.336">  1  5  2 -1</clus>
</clustering>
</event>
<event>
 9    1  0.6345107E-005  0.1373869E+03  0.7546771E-02  0.1219905E+00
         21   -1    0    0  501  502  0.00000000000E+00  0.00000000000E+00  0.65326396639E+02  0.65326396639E+02  0.00000000000E+00 0.  1.
          1   -1    0    0  502    0 -0.00000000000E+00 -0.00000000000E+00 -0.45604509978E+03  0.45604509978E+03  0.00000000000E+00 0. -1.
        -24    2    1    2    0    0 -0.89010231011E+02 -0.63230125038E+02 -0.26238860602E+03  0.29478826283E+03  0.78303699765E+02 0.  0.
         23    2    1    2    0    0  0.66613943830E+02  0.64688593753E+02 -0.14763562425E+03  0.19697877129E+03  0.91555049651E+02 0.  0.
         11    1    3    3    0    0 -0.81350892879E+02 -0.78498036069E+02 -0.24763008399E+03  0.27221419496E+03  0.00000000000E+00 0. -1.
        -12    1    3    3    0    0 -0.76593381317E+01  0.15267911031E+02 -0.14758522028E+02  0.22574067872E+02  0.00000000000E+00 0.  1.
        -11    1    4    4    0    0 -0.12500478508E+02  0.36343118582E+02 -0.81254290164E+02  0.89885170642E+02  0.00000000000E+00 0. -1.
         11    1    4    4    0    0  0.79114422339E+02  0.28345475171E+02 -0.66381334087E+02  0.10709360065E+03  0.00000000000E+00 0.  1.
          2    1    1    2  501    0  0.22396287180E+02 -0.14584687153E+01  0.19305527128E+02  0.29604462301E+02  0.00000000000E+00 0. -1.
<scales pt_clust_5="13000.00000" pt_clust_6="13000.00000" pt_clust_7="13000.00000" pt_clust_8="13000.00000" pt_clust_9="22.44373"></scales>
<clustering>
<clus scale="   22.444">  1  9  2 -1</clus>
<clus scale="   78.304">  5  6 -1 -1</clus>
<clus scale="   91.555">  7  8 -1 -1</clus>
<clus scale="  128.935">  2  5  1 -1</clus>
<clus scale="   22.444">  1  5  2 -1</clus>
</clustering>
</event>
<event>
 9    1  0.6345107E-005  0.1795797E+03  0.7546771E-02  0.1169580E+00
          1   -1    0    0  502    0 -0.00000000000E+00  0.00000000000E+00  0.29064170079E+03  0.29064170079E+03  0.00000000000E+00 0. -1.
         21   -1    0    0  501  502  0.00000000000E+00 -0.00000000000E+00 -0.36681102209E+03  0.36681102209E+03  0.00000000000E+00 0. -1.
         23    2    1    2    0    0  0.96259831447E+01 -0.14650435453E+03  0.12384061896E+03  0.21292138987E+03  0.91884894897E+02 0.  0.
        -24    2    1    2    0    0  0.13973528922E+03  0.18212419593E+03 -0.11601512029E+03  0.26950935564E+03  0.80502241246E+02 0.  0.
         13    1    4    4    0    0  0.92032344432E+02  0.81367788489E+02 -0.24464841087E+02  0.12525652827E+03  0.00000000000E+00 0. -1.
        -14    1    4    4    0    0  0.47702944788E+02  0.10075640744E+03 -0.91550279204E+02  0.14425282737E+03  0.00000000000E+00 0.  1.
        -11    1    3    3    0    0 -0.40180063979E+02 -0.56339270916E+02  0.38721207484E+02  0.79296172024E+02  0.00000000000E+00 0.  1.
         11    1    3    3    0    0  0.49806047123E+02 -0.90165083614E+02  0.85119411476E+02  0.13362521784E+03  0.00000000000E+00 0. -1.
          2    1    1    2  501    0 -0.14936127236E+03 -0.35619841400E+02 -0.83994819964E+02  0.17502197738E+03  0.00000000000E+00 0. -1.
<scales pt_clust_5="13000.00000" pt_clust_6="13000.00000" pt_clust_7="13000.00000" pt_clust_8="13000.00000" pt_clust_9="153.54987"></scales>
<clustering>
<clus scale="   80.502">  5  6 -1 -1</clus>
<clus scale="   91.885">  7  8 -1 -1</clus>
<clus scale="  153.550">  2  9  1 -1</clus>
<clus scale="  174.031">  2  5  1 -1</clus>
<clus scale="  153.550">  2  5  1 -1</clus>
</clustering>
</event>
<event>
 9    1  0.6345107E-005  0.1517816E+03  0.7546771E-02  0.1203226E+00
          1   -1    0    0  502    0 -0.00000000000E+00  0.00000000000E+00  0.44950889901E+03  0.44950889901E+03  0.00000000000E+00 0. -1.
         21   -1    0    0  501  502  0.00000000000E+00 -0.00000000000E+00 -0.13690321085E+03  0.13690321085E+03  0.00000000000E+00 0.  1.
         23    2    1    2    0    0 -0.11134882631E+03  0.10730240063E+02  0.38004630997E+03  0.40934770528E+03  0.10303711428E+03 0.  0.
        -24    2    1    2    0    0  0.11016441457E+03  0.10939973993E+02 -0.38991870694E+02  0.14128267114E+03  0.78641883988E+02 0.  0.
         13    1    4    4    0    0  0.49007502534E+02 -0.34143082503E+02 -0.14623676046E+02  0.61492579134E+02  0.00000000000E+00 0. -1.
        -14    1    4    4    0    0  0.61156912034E+02  0.45083056496E+02 -0.24368194648E+02  0.79790092010E+02  0.00000000000E+00 0.  1.
        -13    1    3    3    0    0 -0.12141786112E+03  0.29249733330E+02  0.27252417549E+03  0.29977870192E+03  0.00000000000E+00 0.  1.
         13    1    3    3    0    0  0.10069034811E+02 -0.18519493268E+02  0.10752213448E+03  0.10956900336E+03  0.00000000000E+00 0. -1.
          2    1    1    2  501    0  0.11844117401E+01 -0.21670214055E+02 -0.28448751114E+02  0.35781733445E+02  0.00000000000E+00 0. -1.
<scales pt_clust_5="13000.00000" pt_clust_6="13000.00000" pt_clust_7="13000.00000" pt_clust_8="13000.00000" pt_clust_9="21.70256"></scales>
<clustering>
<clus scale="   21.703">  2  9  1 -1</clus>
<clus scale="   78.642">  5  6 -1 -1</clus>
<clus scale="  103.037">  7  8 -1 -1</clus>
<clus scale="  136.402">  2  5  1 -1</clus>
<clus scale="   21.703">  2  5  1 -1</clus>
</clustering>
</event>
<event>
 9    1  0.6345107E-005  0.1028430E+03  0.7546771E-02  0.1277714E+00
         21   -1    0    0  501  502  0.00000000000E+00  0.00000000000E+00  0.57702053764E+02  0.57702053764E+02  0.00000000000E+00 0.  1.
          3   -1    0    0  502    0 -0.00000000000E+00 -0.00000000000E+00 -0.31335063504E+03  0.31335063504E+03  0.00000000000E+00 0. -1.
        -24    2    1    2    0    0  0.66978517557E+01 -0.48663305024E+02 -0.86564527722E+02  0.13005948400E+03  0.83720209295E+02 0.  0.
         23    2    1    2    0    0 -0.60538669112E+02  0.21041317807E+02 -0.10948413902E+03  0.15605818491E+03  0.90882962479E+02 0.  0.
         13    1    3    3    0    0  0.44839558931E+02 -0.33408306498E+02 -0.52352705305E+02  0.76599652356E+02  0.00000000000E+00 0. -1.
        -14    1    3    3    0    0 -0.38141707175E+02 -0.15254998525E+02 -0.34211822416E+02  0.53459831643E+02  0.00000000000E+00 0.  1.
        -11    1    4    4    0    0 -0.12140439473E+02  0.44431277411E+02 -0.85666537870E+02  0.97263993305E+02  0.00000000000E+00 0. -1.
         11    1    4    4    0    0 -0.48398229639E+02 -0.23389959604E+02 -0.23817601150E+02  0.58794191609E+02  0.00000000000E+00 0.  1.
          4    1    1    2  501    0  0.53840817356E+02  0.27621987216E+02 -0.59599914532E+02  0.84935019889E+02  0.00000000000E+00 0. -1.
<scales pt_clust_5="13000.00000" pt_clust_6="13000.00000" pt_clust_7="13000.00000" pt_clust_8="13000.00000" pt_clust_9="60.51290"></scales>
<clustering>
<clus scale="   60.513">  1  9  2 -1</clus>
<clus scale="   83.720">  5  6 -1 -1</clus>
<clus scale="   90.883">  7  8 -1 -1</clus>
<clus scale="   96.571">  2  5  1 -1</clus>
<clus scale="   60.513">  1  5  2 -1</clus>
</clustering>
</event>
<event>
 9    1  0.6345107E-005  0.9408627E+02  0.7546771E-02  0.1299362E+00
          1   -1    0    0  502    0 -0.00000000000E+00  0.00000000000E+00  0.58200879950E+02  0.58200879950E+02  0.00000000000E+00 0. -1.
         21   -1    0    0  501  502  0.00000000000E+00 -0.00000000000E+00 -0.33946073930E+03  0.33946073930E+03  0.00000000000E+00 0.  1.
        -24    2    1    2    0    0  0.17493298427E+02 -0.55067968740E+00 -0.12980970057E+02  0.83940471495E+02  0.81062805485E+02 0.  0.
         23    2    1    2    0    0 -0.40705358889E+02 -0.37084805487E+02 -0.23583483270E+03  0.25887731215E+03  0.91472320361E+02 0.  0.
         13    1    3    3    0    0  0.11662395565E+02  0.39817098353E+02 -0.11805589559E+02  0.43136814166E+02  0.00000000000E+00 0. -1.
        -14    1    3    3    0    0  0.58309028629E+01 -0.40367778040E+02 -0.11753804983E+01  0.40803657329E+02  0.00000000000E+00 0.  1.
        -11    1    4    4    0    0 -0.23011038212E+02 -0.59373909549E+02 -0.21322574460E+03  0.22253086791E+03  0.00000000000E+00 0.  1.
         11    1    4    4    0    0 -0.17694320677E+02  0.22289104062E+02 -0.22609088104E+02  0.36346444241E+02  0.00000000000E+00 0. -1.
          2    1    1    2  501    0  0.23212060462E+02  0.37635485175E+02 -0.32444056589E+02  0.54843835599E+02  0.00000000000E+00 0. -1.
<scales pt_clust_5="13000.00000" pt_clust_6="13000.00000" pt_clust_7="13000.00000" pt_clust_8="13000.00000" pt_clust_9="44.21800"></scales>
<clustering>
<clus scale="   44.218">  2  9  1 -1</clus>
<clus scale="   81.063">  5  6 -1 -1</clus>
<clus scale="   84.001">  1  5  2 -1</clus>
<clus scale="   91.472">  7  8 -1 -1</clus>
<clus scale="   44.218">  2  5  1 -1</clus>
</clustering>
</event>
<event>
 9    1  0.6345107E-005  0.1159757E+03  0.7546771E-02  0.1253435E+00
          1   -1    0    0  502    0 -0.00000000000E+00  0.00000000000E+00  0.55211415824E+03  0.55211415824E+03  0.00000000000E+00 0. -1.
         21   -1    0    0  501  502  0.00000000000E+00 -0.00000000000E+00 -0.74919727620E+02  0.74919727620E+02  0.00000000000E+00 0. -1.
         23    2    1    2    0    0  0.77047197866E+02  0.82095520079E+01  0.41857700211E+03  0.43536440441E+03  0.91278641993E+02 0.  0.
        -24    2    1    2    0    0 -0.26722891725E+02 -0.48969796520E+02 -0.81209680990E+01  0.98675143437E+02  0.80985677104E+02 0.  0.
         11    1    4    4    0    0  0.85597880093E+01 -0.57212760238E+02 -0.18924019477E+02  0.60866151660E+02  0.00000000000E+00 0. -1.
        -12    1    4    4    0    0 -0.35282679734E+02  0.82429637173E+01  0.10803051378E+02  0.37808991776E+02  0.00000000000E+00 0.  1.
        -11    1    3    3    0    0  0.97342478915E+02 -0.84425054056E+00  0.34922542510E+03  0.36253919581E+03  0.00000000000E+00 0. -1.
         11    1    3    3    0    0 -0.20295281050E+02  0.90538025484E+01  0.69351577012E+02  0.72825208600E+02  0.00000000000E+00 0.  1.
          2    1    1    2  501    0 -0.50324306141E+02  0.40760244513E+02  0.66738396606E+02  0.92994338015E+02  0.00000000000E+00 0. -1.
<scales pt_clust_5="13000.00000" pt_clust_6="13000.00000" pt_clust_7="13000.00000" pt_clust_8="13000.00000" pt_clust_9="64.76058"></scales>
<clustering>
<clus scale="   64.761">  2  9  1 -1</clus>
<clus scale="   80.986">  5  6 -1 -1</clus>
<clus scale="   91.279">  7  8 -1 -1</clus>
<clus scale="  108.061">  2  5  1 -1</clus>
<clus scale="   64.761">  2  5  1 -1</clus>
</clustering>
</event>
<event>
 9    1  0.6345107E-005  0.1198679E+03  0.7546771E-02  0.1246112E+00
         21   -1    0    0  501  502  0.00000000000E+00  0.00000000000E+00  0.12522709714E+03  0.12522709714E+03  0.00000000000E+00 0. -1.
         -2   -1    0    0    0  501 -0.00000000000E+00 -0.00000000000E+00 -0.26386011648E+03  0.26386011648E+03  0.00000000000E+00 0.  1.
         23    2    1    2    0    0 -0.34557925352E+02  0.51855977689E+02 -0.68886815919E+02  0.12912901557E+03  0.89697361328E+02 0.  0.
        -24    2    1    2    0    0  0.10101134799E+03 -0.31509837972E+02 -0.11594693585E+03  0.17650443564E+03  0.80709116926E+02 0.  0.
         11    1    4    4    0    0  0.32968070593E+02  0.22521756922E+02 -0.63519566301E+02  0.75025719034E+02  0.00000000000E+00 0. -1.
        -12    1    4    4    0    0  0.68043277396E+02 -0.54031594894E+02 -0.52427369550E+02  0.10147871660E+03  0.00000000000E+00 0.  1.
        -11    1    3    3    0    0 -0.37620832557E+02  0.20975446382E+02  0.10120286463E+02  0.44246091254E+02  0.00000000000E+00 0. -1.
         11    1    3    3    0    0  0.30629072053E+01  0.30880531307E+02 -0.79007102382E+02  0.84882924320E+02  0.00000000000E+00 0.  1.
         -1    1    1    2    0  502 -0.66453422637E+02 -0.20346139717E+02  0.46200732433E+02  0.83453762401E+02  0.00000000000E+00 0.  1.
<scales pt_clust_5="13000.00000" pt_clust_6="13000.00000" pt_clust_7="13000.00000" pt_clust_8="13000.00000" pt_clust_9="69.49837"></scales>
<clustering>
<clus scale="   69.498">  1  9  2 -1</clus>
<clus scale="   80.709">  5  6 -1 -1</clus>
<clus scale="   89.697">  7  8 -1 -1</clus>
<clus scale="  113.299">  1  5  2 -1</clus>
<clus scale="   69.498">  1  5  2 -1</clus>
</clustering>
</event>
<event>
 9    1  0.6345107E-005  0.1622040E+03  0.7546771E-02  0.1209032E+00
         21   -1    0    0  501  502  0.00000000000E+00  0.00000000000E+00  0.15122537309E+03  0.15122537309E+03  0.00000000000E+00 0.  1.
         -2   -1    0    0    0  501 -0.00000000000E+00 -0.00000000000E+00 -0.33979239312E+03  0.33979239312E+03  0.00000000000E+00 0.  1.
         23    2    1    2    0    0  0.37714525661E+02 -0.67205921742E+01 -0.20874410907E+02  0.10083441866E+03  0.90908124779E+02 0.  0.
        -24    2    1    2    0    0  0.10989314264E+03  0.38442916354E+02 -0.19192831242E+03  0.23727259283E+03  0.76859908807E+02 0.  0.
         11    1    4    4    0    0  0.68282150052E+02  0.57559983843E+02 -0.96843523504E+02  0.13173561326E+03  0.00000000000E+00 0. -1.
        -12    1    4    4    0    0  0.41610992589E+02 -0.19117067489E+02 -0.95084788921E+02  0.10553697957E+03  0.00000000000E+00 0.  1.
        -11    1    3    3    0    0  0.31063493786E+02 -0.46795968979E+02 -0.24311429502E+01  0.56220226030E+02  0.00000000000E+00 0.  1.
         11    1    3    3    0    0  0.66510318748E+01  0.40075376805E+02 -0.18443267957E+02  0.44614192630E+02  0.00000000000E+00 0. -1.
         -1    1    1    2    0  502 -0.14760766830E+03 -0.31722324180E+02  0.24235703299E+02  0.15291075471E+03  0.00000000000E+00 0.  1.
<scales pt_clust_5="13000.00000" pt_clust_6="13000.00000" pt_clust_7="13000.00000" pt_clust_8="13000.00000" pt_clust_9="142.83800"></scales>
<clustering>
<clus scale="   76.860">  5  6 -1 -1</clus>
<clus scale="   90.908">  7  8 -1 -1</clus>
<clus scale="   98.650">  2  7  1 -1</clus>
<clus scale="  142.838">  1  9  2 -1</clus>
<clus scale="  142.838">  1  5  2 -1</clus>
</clustering>
</event>
<event>
 9    1  0.6345107E-005  0.1415259E+03  0.7546771E-02  0.1236615E+00
         21   -1    0    0  501  502  0.00000000000E+00  0.00000000000E+00  0.16430398620E+03  0.16430398620E+03  0.00000000000E+00 0.  1.
         -2   -1    0    0    0  501 -0.00000000000E+00 -0.00000000000E+00 -0.19077369933E+03  0.19077369933E+03  0.00000000000E+00 0.  1.
        -24    2    1    2    0    0 -0.14354962622E+01  0.23143133297E+02  0.13660732039E+02  0.84555790436E+02  0.80158597968E+02 0.  0.
         23    2    1    2    0    0  0.93060242808E+02  0.48379015975E+02  0.19514770153E+02  0.13987709524E+03  0.90465670516E+02 0.  0.
         11    1    3    3    0    0 -0.18934689507E+02  0.40583989157E+02  0.30917484207E+02  0.54419421830E+02  0.00000000000E+00 0. -1.
        -12    1    3    3    0    0  0.17499193245E+02 -0.17440855861E+02 -0.17256752168E+02  0.30136368606E+02  0.00000000000E+00 0.  1.
        -11    1    4    4    0    0  0.61876134183E+02 -0.17919407155E+02  0.16741190315E+02  0.66558459924E+02  0.00000000000E+00 0.  1.
         11    1    4    4    0    0  0.31184108625E+02  0.66298423130E+02  0.27735798375E+01  0.73318635321E+02  0.00000000000E+00 0. -1.
         -1    1    1    2    0  502 -0.91624746546E+02 -0.71522149271E+02 -0.59645215324E+02  0.13064479985E+03  0.00000000000E+00 0.  1.
<scales pt_clust_5="13000.00000" pt_clust_6="13000.00000" pt_clust_7="13000.00000" pt_clust_8="13000.00000" pt_clust_9="108.83730"></scales>
<clustering>
<clus scale="   80.159">  5  6 -1 -1</clus>
<clus scale="   83.445">  2  5  1 -1</clus>
<clus scale="   90.466">  7  8 -1 -1</clus>
<clus scale="  108.837">  1  9  2 -1</clus>
<clus scale="  108.837">  1  5  2 -1</clus>
</clustering>
</event>
<event>
 9    1  0.6345107E-005  0.1043181E+03  0.7546771E-02  0.1275308E+00
         21   -1    0    0  501  502  0.00000000000E+00  0.00000000000E+00  0.18724346302E+03  0.18724346302E+03  0.00000000000E+00 0.  1.
          3   -1    0    0  502    0 -0.00000000000E+00 -0.00000000000E+00 -0.15947433780E+03  0.15947433780E+03  0.00000000000E+00 0. -1.
        -24    2    1    2    0    0 -0.45187501033E+02 -0.24284719992E+01 -0.82014656643E+02  0.12392871557E+03  0.81142559202E+02 0.  0.
         23    2    1    2    0    0  0.82746693684E+02 -0.34187222783E+02  0.35287104285E+02  0.13167839966E+03  0.89879028096E+02 0.  0.
         13    1    3    3    0    0 -0.45202185817E+02 -0.17903519067E+02 -0.93006279668E+02  0.10494732800E+03  0.00000000000E+00 0. -1.
        -14    1    3    3    0    0  0.14684783795E-01  0.15475047068E+02  0.10991623024E+02  0.18981387571E+02  0.00000000000E+00 0.  1.
        -13    1    4    4    0    0 -0.21147507101E+01 -0.37566460020E+02 -0.44960865893E+01  0.37893612702E+02  0.00000000000E+00 0. -1.
         13    1    4    4    0    0  0.84861444394E+02  0.33792372368E+01  0.39783190874E+02  0.93784786960E+02  0.00000000000E+00 0.  1.
          4    1    1    2  501    0 -0.37559192651E+02  0.36615694782E+02  0.74496677575E+02  0.91110685579E+02  0.00000000000E+00 0. -1.
<scales pt_clust_5="13000.00000" pt_clust_6="13000.00000" pt_clust_7="13000.00000" pt_clust_8="13000.00000" pt_clust_9="52.45381"></scales>
<clustering>
<clus scale="   52.454">  1  9  2 -1</clus>
<clus scale="   81.143">  5  6 -1 -1</clus>
<clus scale="   89.879">  7  8 -1 -1</clus>
<clus scale="   96.892">  2  5  1 -1</clus>
<clus scale="   52.454">  1  5  2 -1</clus>
</clustering>
</event>
<event>
 9    1  0.6345107E-005  0.1816067E+03  0.7546771E-02  0.1184346E+00
          1   -1    0    0  502    0 -0.00000000000E+00  0.00000000000E+00  0.50476470823E+03  0.50476470823E+03  0.00000000000E+00 0. -1.
         21   -1    0    0  501  502  0.00000000000E+00 -0.00000000000E+00 -0.23129300365E+03  0.23129300365E+03  0.00000000000E+00 0. -1.
        -24    2    1    2    0    0  0.71972227095E+02  0.54567999651E+02 -0.24394822489E+02  0.12296934388E+03  0.79804035689E+02 0.  0.
         23    2    1    2    0    0 -0.29202706769E+02  0.10372127366E+03  0.39703139532E+03  0.42146791760E+03  0.91598995659E+02 0.  0.
         13    1    3    3    0    0  0.54363838361E+02  0.33855371706E+02  0.23233954249E+02  0.68128039343E+02  0.00000000000E+00 0. -1.
        -14    1    3    3    0    0  0.17608388734E+02  0.20712627945E+02 -0.47628776738E+02  0.54841304541E+02  0.00000000000E+00 0.  1.
        -11    1    4    4    0    0 -0.30347682599E+02  0.65934889687E+02  0.36430854242E+03  0.37146884876E+03  0.00000000000E+00 0. -1.
         11    1    4    4    0    0  0.11449758299E+01  0.37786383973E+02  0.32722852900E+02  0.49999068845E+02  0.00000000000E+00 0.  1.
          2    1    1    2  501    0 -0.42769520326E+02 -0.15828927331E+03 -0.99164868251E+02  0.19162045039E+03  0.00000000000E+00 0. -1.
<scales pt_clust_5="13000.00000" pt_clust_6="13000.00000" pt_clust_7="13000.00000" pt_clust_8="13000.00000" pt_clust_9="156.81398"></scales>
<clustering>
<clus scale="   79.804">  5  6 -1 -1</clus>
<clus scale="   91.599">  7  8 -1 -1</clus>
<clus scale="  120.525">  1  5  2 -1</clus>
<clus scale="  156.814">  2  9  1 -1</clus>
<clus scale="  156.814">  2  5  1 -1</clus>
</clustering>
</event>
<event>
 9    1  0.6345107E-005  0.2298354E+03  0.7546771E-02  0.1127518E+00
          3   -1    0    0  502    0 -0.00000000000E+00  0.00000000000E+00  0.10835499262E+03  0.10835499262E+03  0.00000000000E+00 0. -1.
         21   -1    0    0  501  502  0.00000000000E+00 -0.00000000000E+00 -0.69423381589E+03  0.69423381589E+03  0.00000000000E+00 0.  1.
         23    2    1    2    0    0 -0.41743090688E+02  0.22296583229E+03 -0.16835792544E+03  0.29697404253E+03  0.91613006118E+02 0.  0.
        -24    2    1    2    0    0  0.27054245698E+02 -0.17871590276E+03 -0.41405331829E+03  0.45886177101E+03  0.80266234472E+02 0.  0.
         11    1    4    4    0    0  0.28373875509E+01 -0.23972121193E+02 -0.11159974845E+02  0.26594330244E+02  0.00000000000E+00 0. -1.
        -12    1    4    4    0    0  0.24216858147E+02 -0.15474378157E+03 -0.40289334345E+03  0.43226744077E+03  0.00000000000E+00 0.  1.
        -11    1    3    3    0    0  0.19019327437E+02  0.77463244838E+02 -0.92046517242E+02  0.12179840087E+03  0.00000000000E+00 0.  1.
         11    1    3    3    0    0 -0.60762418125E+02  0.14550258745E+03 -0.76311408195E+02  0.17517564167E+03  0.00000000000E+00 0. -1.
          4    1    1    2  501    0  0.14688844990E+02 -0.44249929534E+02 -0.34675795403E+01  0.46752994971E+02  0.00000000000E+00 0. -1.
<scales pt_clust_5="13000.00000" pt_clust_6="13000.00000" pt_clust_7="13000.00000" pt_clust_8="13000.00000" pt_clust_9="46.62425"></scales>
<clustering>
<clus scale="   46.624">  2  9  1 -1</clus>
<clus scale="   80.266">  5  6 -1 -1</clus>
<clus scale="   91.613">  7  8 -1 -1</clus>
<clus scale="  225.553">  2  5  1 -1</clus>
<clus scale="   46.624">  2  5  1 -1</clus>
</clustering>
</event>
<event>
 9    1  0.6345107E-005  0.8984861E+02  0.7546771E-02  0.1309147E+00
         21   -1    0    0  501  502  0.00000000000E+00  0.00000000000E+00  0.61751585272E+02  0.61751585272E+02  0.00000000000E+00 0.  1.
          1   -1    0    0  502    0 -0.00000000000E+00 -0.00000000000E+00 -0.28876969863E+03  0.28876969863E+03  0.00000000000E+00 0. -1.
        -24    2    1    2    0    0 -0.87859670605E+01  0.18636745036E+02 -0.91212895125E+02  0.12297459974E+03  0.79865126696E+02 0.  0.
         23    2    1    2    0    0 -0.48394781203E+02  0.29485635772E+02 -0.61926952556E+02  0.12245910332E+03  0.89161802186E+02 0.  0.
         11    1    3    3    0    0  0.21929249591E+01  0.33902807346E+02 -0.45285085569E+01  0.34274139749E+02  0.00000000000E+00 0. -1.
        -12    1    3    3    0    0 -0.10978892020E+02 -0.15266062310E+02 -0.86684386568E+02  0.88700459994E+02  0.00000000000E+00 0.  1.
        -11    1    4    4    0    0 -0.57811557707E+02 -0.15364003395E+02 -0.34784892954E+02  0.69196947784E+02  0.00000000000E+00 0. -1.
         11    1    4    4    0    0  0.94167765035E+01  0.44849639168E+02 -0.27142059602E+02  0.53262155539E+02  0.00000000000E+00 0.  1.
          2    1    1    2  501    0  0.57180748264E+02 -0.48122380808E+02 -0.73878265677E+02  0.10508758084E+03  0.00000000000E+00 0. -1.
<scales pt_clust_5="13000.00000" pt_clust_6="13000.00000" pt_clust_7="13000.00000" pt_clust_8="13000.00000" pt_clust_9="74.73558"></scales>
<clustering>
<clus scale="   74.736">  1  9  2 -1</clus>
<clus scale="   79.865">  5  6 -1 -1</clus>
<clus scale="   80.631">  2  5  1 -1</clus>
<clus scale="   89.162">  7  8 -1 -1</clus>
<clus scale="   74.736">  1  5  2 -1</clus>
</clustering>
</event>
<event>
 9    1  0.6345107E-005  0.1155234E+03  0.7546771E-02  0.1254122E+00
          1   -1    0    0  502    0 -0.00000000000E+00  0.00000000000E+00  0.16648347205E+03  0.16648347205E+03  0.00000000000E+00 0. -1.
         21   -1    0    0  501  502  0.00000000000E+00 -0.00000000000E+00 -0.10526984222E+03  0.10526984222E+03  0.00000000000E+00 0. -1.
         23    2    1    2    0    0 -0.61775066943E+02 -0.21715435534E+02  0.26302642285E+02  0.11524288844E+03  0.91111883463E+02 0.  0.
        -24    2    1    2    0    0  0.80658636160E+02 -0.63064834628E+01  0.11030598623E+02  0.11513301527E+03  0.81168650213E+02 0.  0.
         11    1    4    4    0    0  0.52845443662E+02 -0.43123872794E+02  0.10329659856E+02  0.68985586852E+02  0.00000000000E+00 0. -1.
        -12    1    4    4    0    0  0.27813192498E+02  0.36817389331E+02  0.70093876737E+00  0.46147428414E+02  0.00000000000E+00 0.  1.
        -13    1    3    3    0    0 -0.82124761865E+02 -0.29797116044E+02  0.99777019832E+01  0.87931218420E+02  0.00000000000E+00 0. -1.
         13    1    3    3    0    0  0.20349694922E+02  0.80816805107E+01  0.16324940302E+02  0.27311670018E+02  0.00000000000E+00 0.  1.
          2    1    1    2  501    0 -0.18883569217E+02  0.28021918997E+02  0.23880388920E+02  0.41377410571E+02  0.00000000000E+00 0. -1.
<scales pt_clust_5="13000.00000" pt_clust_6="13000.00000" pt_clust_7="13000.00000" pt_clust_8="13000.00000" pt_clust_9="33.79080"></scales>
<clustering>
<clus scale="   33.791">  2  9  1 -1</clus>
<clus scale="   81.169">  5  6 -1 -1</clus>
<clus scale="   91.112">  7  8 -1 -1</clus>
<clus scale="  107.855">  2  5  1 -1</clus>
<clus scale="   33.791">  2  5  1 -1</clus>
</clustering>
</event>
<event>
 9    1  0.6345107E-005  0.1031465E+03  0.7546771E-02  0.1280569E+00
          1   -1    0    0  502    0 -0.00000000000E+00  0.00000000000E+00  0.58966051250E+03  0.58966051250E+03  0.00000000000E+00 0. -1.
         21   -1    0    0  501  502  0.00000000000E+00 -0.00000000000E+00 -0.33286938197E+02  0.33286938197E+02  0.00000000000E+00 0.  1.
        -24    2    1    2    0    0 -0.52171585373E+02  0.67388974439E+01  0.39207706450E+03  0.40314552769E+03  0.77682719630E+02 0.  0.
         23    2    1    2    0    0  0.20630208610E+02  0.36474983091E+01  0.63554976622E+02  0.11372840052E+03  0.91956534737E+02 0.  0.
         13    1    3    3    0    0 -0.48950308538E+02 -0.28870323495E+02  0.27124940695E+03  0.27713871807E+03  0.00000000000E+00 0. -1.
        -14    1    3    3    0    0 -0.32212768350E+01  0.35609220939E+02  0.12082765755E+03  0.12600680962E+03  0.00000000000E+00 0.  1.
        -11    1    4    4    0    0  0.49196652339E+02 -0.19888273770E+02  0.20340024847E+02  0.56829311501E+02  0.00000000000E+00 0.  1.
         11    1    4    4    0    0 -0.28566443728E+02  0.23535772079E+02  0.43214951774E+02  0.56899089022E+02  0.00000000000E+00 0. -1.
          2    1    1    2  501    0  0.31541376763E+02 -0.10386395753E+02  0.10074153318E+03  0.10607352249E+03  0.00000000000E+00 0. -1.
<scales pt_clust_5="13000.00000" pt_clust_6="13000.00000" pt_clust_7="13000.00000" pt_clust_8="13000.00000" pt_clust_9="33.20748"></scales>
<clustering>
<clus scale="   33.207">  2  9  1 -1</clus>
<clus scale="   77.683">  5  6 -1 -1</clus>
<clus scale="   90.652">  1  5  2 -1</clus>
<clus scale="   91.957">  7  8 -1 -1</clus>
<clus scale="   33.207">  2  5  1 -1</clus>
</clustering>
</event>
<event>
 9    1  0.6345107E-005  0.1178533E+03  0.7546771E-02  0.1251437E+00
         21   -1    0    0  501  502  0.00000000000E+00  0.00000000000E+00  0.50236052368E+02  0.50236052368E+02  0.00000000000E+00 0.  1.
          1   -1    0    0  502    0 -0.00000000000E+00 -0.00000000000E+00 -0.90710122061E+03  0.90710122061E+03  0.00000000000E+00 0. -1.
         23    2    1    2    0    0 -0.67127687664E+02 -0.42917001673E+02 -0.20396110966E+03  0.23740438354E+03  0.91720835076E+02 0.  0.
        -24    2    1    2    0    0 -0.16114176960E+02  0.10125083371E+03 -0.11483774596E+03  0.17234965305E+03  0.77493851267E+02 0.  0.
         11    1    4    4    0    0 -0.95164617731E+01  0.31130451243E+02 -0.93122018177E+02  0.98647748624E+02  0.00000000000E+00 0. -1.
        -12    1    4    4    0    0 -0.65977151864E+01  0.70120382471E+02 -0.21715727782E+02  0.73701904430E+02  0.00000000000E+00 0.  1.
        -11    1    3    3    0    0 -0.89740593949E+02 -0.40077676779E+02 -0.15740316609E+03  0.18556764555E+03  0.00000000000E+00 0. -1.
         11    1    3    3    0    0  0.22612906285E+02 -0.28393248935E+01 -0.46557943570E+02  0.51836737995E+02  0.00000000000E+00 0.  1.
          2    1    1    2  501    0  0.83241864623E+02 -0.58333832042E+02 -0.53806631262E+03  0.54758323638E+03  0.00000000000E+00 0. -1.
<scales pt_clust_5="13000.00000" pt_clust_6="13000.00000" pt_clust_7="13000.00000" pt_clust_8="13000.00000" pt_clust_9="101.64671"></scales>
<clustering>
<clus scale="   77.494">  5  6 -1 -1</clus>
<clus scale="   91.721">  7  8 -1 -1</clus>
<clus scale="  101.647">  1  9  2 -1</clus>
<clus scale="  107.154">  1  5  2 -1</clus>
<clus scale="  101.647">  1  5  2 -1</clus>
</clustering>
</event>
<event>
 9    1  0.6345107E-005  0.1237858E+03  0.7546771E-02  0.1240142E+00
          1   -1    0    0  502    0 -0.00000000000E+00  0.00000000000E+00  0.10936657187E+03  0.10936657187E+03  0.00000000000E+00 0. -1.
         21   -1    0    0  501  502  0.00000000000E+00 -0.00000000000E+00 -0.47382799465E+03  0.47382799465E+03  0.00000000000E+00 0. -1.
         23    2    1    2    0    0  0.86608088533E+01 -0.87569033176E+02  0.57555036258E+02  0.13905730564E+03  0.91000037762E+02 0.  0.
        -24    2    1    2    0    0  0.60083760303E-01  0.58944639640E+02 -0.24221256268E+03  0.26186040821E+03  0.80183999132E+02 0.  0.
         11    1    4    4    0    0  0.12280332955E+02 -0.17601699650E+02 -0.42001907336E+02  0.47167643866E+02  0.00000000000E+00 0. -1.
        -12    1    4    4    0    0 -0.12220249195E+02  0.76546339290E+02 -0.20021065534E+03  0.21469276435E+03  0.00000000000E+00 0.  1.
        -13    1    3    3    0    0  0.42273099799E+02 -0.30149095693E+02  0.50020834125E+02  0.72097619824E+02  0.00000000000E+00 0. -1.
         13    1    3    3    0    0 -0.33612290946E+02 -0.57419937483E+02  0.75342021328E+01  0.66959685819E+02  0.00000000000E+00 0.  1.
          2    1    1    2  501    0 -0.87208926136E+01  0.28624393535E+02 -0.17980389636E+03  0.18227685267E+03  0.00000000000E+00 0. -1.
<scales pt_clust_5="13000.00000" pt_clust_6="13000.00000" pt_clust_7="13000.00000" pt_clust_8="13000.00000" pt_clust_9="29.92340"></scales>
<clustering>
<clus scale="   29.923">  2  9  1 -1</clus>
<clus scale="   80.184">  5  6 -1 -1</clus>
<clus scale="   91.000">  7  8 -1 -1</clus>
<clus scale="  116.066">  2  5  1 -1</clus>
<clus scale="   29.923">  2  5  1 -1</clus>
</clustering>
</event>
<event>
 9    1  0.6345107E-005  0.1095941E+03  0.7546771E-02  0.1266637E+00
         -4   -1    0    0    0  501 -0.00000000000E+00  0.00000000000E+00  0.37583676762E+03  0.37583676762E+03  0.00000000000E+00 0.  1.
         21   -1    0    0  501  502  0.00000000000E+00 -0.00000000000E+00 -0.69548935595E+02  0.69548935595E+02  0.00000000000E+00 0. -1.
         23    2    1    2    0    0 -0.37383437098E+02 -0.55641507423E+02  0.14478981551E+03  0.18465709320E+03  0.92955111071E+02 0.  0.
        -24    2    1    2    0    0  0.28218334503E+02  0.24599495733E+02 -0.75696077835E+01  0.88590679334E+02  0.79934973012E+02 0.  0.
         13    1    4    4    0    0  0.43448531217E+02  0.30343465208E+02 -0.29983914384E+02  0.60889538244E+02  0.00000000000E+00 0. -1.
        -14    1    4    4    0    0 -0.15230196714E+02 -0.57439694757E+01  0.22414306601E+02  0.27701141090E+02  0.00000000000E+00 0.  1.
        -11    1    3    3    0    0  0.25536472277E+02 -0.38197158171E+02  0.38645814492E+02  0.60038598305E+02  0.00000000000E+00 0.  1.
         11    1    3    3    0    0 -0.62919909375E+02 -0.17444349252E+02  0.10614400102E+03  0.12461849489E+03  0.00000000000E+00 0. -1.
         -3    1    1    2    0  502  0.91651025952E+01  0.31042011690E+02  0.16906762430E+03  0.17213793069E+03  0.00000000000E+00 0.  1.
<scales pt_clust_5="13000.00000" pt_clust_6="13000.00000" pt_clust_7="13000.00000" pt_clust_8="13000.00000" pt_clust_9="32.36675"></scales>
<clustering>
<clus scale="   32.367">  2  9  1 -1</clus>
<clus scale="   79.935">  5  6 -1 -1</clus>
<clus scale="   92.955">  7  8 -1 -1</clus>
<clus scale="   98.792">  2  5  1 -1</clus>
<clus scale="   32.367">  2  5  1 -1</clus>
</clustering>
</event>
<event>
 9    1  0.6345107E-005  0.1353307E+03  0.7546771E-02  0.1222936E+00
         21   -1    0    0  501  502  0.00000000000E+00  0.00000000000E+00  0.62216752863E+02  0.62216752863E+02  0.00000000000E+00 0. -1.
          1   -1    0    0  502    0 -0.00000000000E+00 -0.00000000000E+00 -0.64698363025E+03  0.64698363025E+03  0.00000000000E+00 0. -1.
        -24    2    1    2    0    0 -0.37481655103E+02  0.93664820490E+02 -0.35075978161E+03  0.37370229937E+03  0.80268369202E+02 0.  0.
         23    2    1    2    0    0  0.58725612046E+02 -0.75860395183E+02 -0.26315915325E+03  0.29527190170E+03  0.93430503203E+02 0.  0.
         13    1    3    3    0    0 -0.49828546107E+02  0.34805056300E+02 -0.11139702781E+03  0.12689985719E+03  0.00000000000E+00 0. -1.
        -14    1    3    3    0    0  0.12346891004E+02  0.58859764190E+02 -0.23936275380E+03  0.24680244218E+03  0.00000000000E+00 0.  1.
        -11    1    4    4    0    0  0.37839450748E+02 -0.43900554550E+01 -0.17853326248E+03  0.18255197186E+03  0.00000000000E+00 0. -1.
         11    1    4    4    0    0  0.20886161297E+02 -0.71470339728E+02 -0.84625890776E+02  0.11271992984E+03  0.00000000000E+00 0.  1.
          2    1    1    2  501    0 -0.21243956943E+02 -0.17804425308E+02  0.29152057468E+02  0.40226182043E+02  0.00000000000E+00 0. -1.
<scales pt_clust_5="13000.00000" pt_clust_6="13000.00000" pt_clust_7="13000.00000" pt_clust_8="13000.00000" pt_clust_9="27.71828"></scales>
<clustering>
<clus scale="   27.718">  1  9  2 -1</clus>
<clus scale="   80.268">  5  6 -1 -1</clus>
<clus scale="   93.431">  7  8 -1 -1</clus>
<clus scale="  126.602">  2  5  1 -1</clus>
<clus scale="   27.718">  1  5  2 -1</clus>
</clustering>
</event>
<event>
 9    1  0.6345107E-005  0.1109124E+03  0.7546771E-02  0.1263516E+00
         -2   -1    0    0    0  501 -0.00000000000E+00  0.00000000000E+00  0.40356736715E+02  0.40356736715E+02  0.00000000000E+00 0.  1.
         21   -1    0    0  501  502  0.00000000000E+00 -0.00000000000E+00 -0.47754413608E+03  0.47754413608E+03  0.00000000000E+00 0.  1.
        -24    2    1    2    0    0  0.48822087665E+02  0.61576821597E+02 -0.11783321379E+03  0.16310790087E+03  0.80896352534E+02 0.  0.
         23    2    1    2    0    0 -0.39770699968E+00 -0.38065476259E+02 -0.22177466359E+03  0.24335030902E+03  0.92661927669E+02 0.  0.
         13    1    3    3    0    0  0.50247998405E+01  0.36257773034E+02 -0.10459540098E+03  0.11081548910E+03  0.00000000000E+00 0. -1.
        -14    1    3    3    0    0  0.43797287825E+02  0.25319048562E+02 -0.13237812811E+02  0.52292411772E+02  0.00000000000E+00 0.  1.
        -13    1    4    4    0    0 -0.38531941456E+02 -0.42545037190E+02 -0.96064136706E+02  0.11190669803E+03  0.00000000000E+00 0. -1.
         13    1    4    4    0    0  0.38134234456E+02  0.44795609315E+01 -0.12571052688E+03  0.13144361100E+03  0.00000000000E+00 0.  1.
         -1    1    1    2    0  502 -0.48424380666E+02 -0.23511345338E+02 -0.97579521992E+02  0.11144266290E+03  0.00000000000E+00 0.  1.
<scales pt_clust_5="13000.00000" pt_clust_6="13000.00000" pt_clust_7="13000.00000" pt_clust_8="13000.00000" pt_clust_9="53.83033"></scales>
<clustering>
<clus scale="   53.830">  2  9  1 -1</clus>
<clus scale="   80.896">  5  6 -1 -1</clus>
<clus scale="   92.662">  7  8 -1 -1</clus>
<clus scale="  101.289">  1  5  2 -1</clus>
<clus scale="   53.830">  2  5  1 -1</clus>
</clustering>
</event>
<event>
 9    1  0.6345107E-005  0.1946244E+03  0.7546771E-02  0.1192559E+00
         21   -1    0    0  501  502  0.00000000000E+00  0.00000000000E+00  0.20740404494E+03  0.20740404494E+03  0.00000000000E+00 0. -1.
          1   -1    0    0  502    0 -0.00000000000E+00 -0.00000000000E+00 -0.28371535550E+03  0.28371535550E+03  0.00000000000E+00 0. -1.
        -24    2    1    2    0    0 -0.15820471081E+01 -0.93436628820E+01 -0.53981553442E+02  0.97867119370E+02  0.81081181742E+02 0.  0.
         23    2    1    2    0    0  0.15982548625E+03  0.72591834318E+02  0.58264468790E+02  0.20474035447E+03  0.87807197662E+02 0.  0.
         13    1    3    3    0    0  0.62649993935E+01 -0.35461217723E+02  0.15041949507E+01  0.36041792162E+02  0.00000000000E+00 0. -1.
        -14    1    3    3    0    0 -0.78470465015E+01  0.26117554841E+02 -0.55485748393E+02  0.61825327208E+02  0.00000000000E+00 0.  1.
        -13    1    4    4    0    0  0.14262501979E+03  0.84384493964E+02  0.28123595834E+02  0.16808799997E+03  0.00000000000E+00 0. -1.
         13    1    4    4    0    0  0.17200466462E+02 -0.11792659646E+02  0.30140872956E+02  0.36652354503E+02  0.00000000000E+00 0.  1.
          2    1    1    2  501    0 -0.15824343914E+03 -0.63248171437E+02 -0.80594225909E+02  0.18851192660E+03  0.00000000000E+00 0. -1.
<scales pt_clust_5="13000.00000" pt_clust_6="13000.00000" pt_clust_7="13000.00000" pt_clust_8="13000.00000" pt_clust_9="173.69105"></scales>
<clustering>
<clus scale="   81.081">  5  6 -1 -1</clus>
<clus scale="   81.633">  2  5  1 -1</clus>
<clus scale="   87.807">  7  8 -1 -1</clus>
<clus scale="  173.691">  1  9  2 -1</clus>
<clus scale="  173.691">  1  5  2 -1</clus>
</clustering>
</event>
<event>
 9    1  0.6345107E-005  0.1372903E+03  0.7546771E-02  0.1219216E+00
          1   -1    0    0  502    0 -0.00000000000E+00  0.00000000000E+00  0.15502126334E+03  0.15502126334E+03  0.00000000000E+00 0. -1.
         21   -1    0    0  501  502  0.00000000000E+00 -0.00000000000E+00 -0.33529194445E+03  0.33529194445E+03  0.00000000000E+00 0. -1.
         23    2    1    2    0    0 -0.78166187011E+02 -0.10943535774E+02  0.15344834233E+02  0.12140962915E+03  0.90967688465E+02 0.  0.
        -24    2    1    2    0    0  0.18210497809E+03  0.42908279573E+02 -0.12997305880E+03  0.24188409494E+03  0.81311597394E+02 0.  0.
         11    1    4    4    0    0  0.17193177062E+03  0.15797335179E+02 -0.97142107406E+02  0.19810774487E+03  0.00000000000E+00 0. -1.
        -12    1    4    4    0    0  0.10173207475E+02  0.27110944394E+02 -0.32830951393E+02  0.43776350072E+02  0.00000000000E+00 0.  1.
        -11    1    3    3    0    0 -0.63953738362E+02  0.31046729302E+02 -0.75944344225E+01  0.71495842432E+02  0.00000000000E+00 0.  1.
         11    1    3    3    0    0 -0.14212448650E+02 -0.41990265076E+02  0.22939268656E+02  0.49913786715E+02  0.00000000000E+00 0. -1.
          2    1    1    2  501    0 -0.10393879108E+03 -0.31964743799E+02 -0.65642456547E+02  0.12701948370E+03  0.00000000000E+00 0. -1.
<scales pt_clust_5="13000.00000" pt_clust_6="13000.00000" pt_clust_7="13000.00000" pt_clust_8="13000.00000" pt_clust_9="108.74289"></scales>
<clustering>
<clus scale="   81.312">  5  6 -1 -1</clus>
<clus scale="   90.968">  7  8 -1 -1</clus>
<clus scale="  108.743">  2  9  1 -1</clus>
<clus scale="  131.092">  2  5  1 -1</clus>
<clus scale="  108.743">  2  5  1 -1</clus>
</clustering>
</event>
<event>
 9    1  0.6345107E-005  0.9267271E+02  0.7546771E-02  0.1302366E+00
         21   -1    0    0  501  502  0.00000000000E+00  0.00000000000E+00  0.78862723459E+02  0.78862723459E+02  0.00000000000E+00 0.  1.
         -2   -1    0    0    0  501 -0.00000000000E+00 -0.00000000000E+00 -0.19796848216E+03  0.19796848216E+03  0.00000000000E+00 0.  1.
         23    2    1    2    0    0 -0.24156001287E+02 -0.72296446434E+01 -0.98498812396E+02  0.13633309369E+03  0.90823544473E+02 0.  0.
        -24    2    1    2    0    0  0.25816573462E+01 -0.26050838824E+02  0.15775509933E+02  0.86676870603E+02  0.81109198158E+02 0.  0.
         13    1    4    4    0    0  0.81555486422E+01 -0.40188490753E+02 -0.21586676633E+02  0.46342338857E+02  0.00000000000E+00 0. -1.
        -14    1    4    4    0    0 -0.55738912960E+01  0.14137651929E+02  0.37362186565E+02  0.40334531746E+02  0.00000000000E+00 0.  1.
        -13    1    3    3    0    0 -0.44980813298E+02 -0.35803561010E+02 -0.72061696809E+02  0.92184904908E+02  0.00000000000E+00 0.  1.
         13    1    3    3    0    0  0.20824812011E+02  0.28573916366E+02 -0.26437115587E+02  0.44148188778E+02  0.00000000000E+00 0. -1.
         -1    1    1    2    0  502  0.21574343941E+02  0.33280483468E+02 -0.36382456234E+02  0.53821241327E+02  0.00000000000E+00 0.  1.
<scales pt_clust_5="13000.00000" pt_clust_6="13000.00000" pt_clust_7="13000.00000" pt_clust_8="13000.00000" pt_clust_9="39.66162"></scales>
<clustering>
<clus scale="   39.662">  1  9  2 -1</clus>
<clus scale="   81.109">  5  6 -1 -1</clus>
<clus scale="   83.175">  1  5  2 -1</clus>
<clus scale="   90.824">  7  8 -1 -1</clus>
<clus scale="   39.662">  1  5  2 -1</clus>
</clustering>
</event>
<event>
 9    1  0.6345107E-005  0.8386329E+02  0.7546771E-02  0.1322084E+00
         21   -1    0    0  501  502  0.00000000000E+00  0.00000000000E+00  0.96584151779E+02  0.96584151779E+02  0.00000000000E+00 0. -1.
         -4   -1    0    0    0  501 -0.00000000000E+00 -0.00000000000E+00 -0.14233033038E+03  0.14233033038E+03  0.00000000000E+00 0.  1.
         23    2    1    2    0    0  0.10094402062E+02 -0.11957588700E+02 -0.82493123497E+02  0.11442874063E+03  0.77742783436E+02 0.  0.
        -24    2    1    2    0    0  0.15892609347E+01 -0.97321973274E+01  0.49005190528E+02  0.96968122000E+02  0.83090712901E+02 0.  0.
         13    1    4    4    0    0 -0.40217284587E+02 -0.11106078292E+02  0.21853053808E+02  0.47099160452E+02  0.00000000000E+00 0. -1.
        -14    1    4    4    0    0  0.41806545522E+02  0.13738809651E+01  0.27152136720E+02  0.49868961547E+02  0.00000000000E+00 0.  1.
        -11    1    3    3    0    0  0.17120006769E+02  0.24538709510E+02 -0.68439471000E+02  0.74694069958E+02  0.00000000000E+00 0.  1.
         11    1    3    3    0    0 -0.70256047069E+01 -0.36496298210E+02 -0.14053652497E+02  0.39734670668E+02  0.00000000000E+00 0. -1.
         -3    1    1    2    0  502 -0.11683662996E+02  0.21689786027E+02 -0.12258245635E+02  0.27517619536E+02  0.00000000000E+00 0.  1.
<scales pt_clust_5="13000.00000" pt_clust_6="13000.00000" pt_clust_7="13000.00000" pt_clust_8="13000.00000" pt_clust_9="24.63646"></scales>
<clustering>
<clus scale="   24.636">  1  9  2 -1</clus>
<clus scale="   77.743">  7  8 -1 -1</clus>
<clus scale="   78.568">  2  7  1 -1</clus>
<clus scale="   83.091">  5  6 -1 -1</clus>
<clus scale="   24.636">  1  5  2 -1</clus>
</clustering>
</event>
<event>
 9    1  0.6345107E-005  0.9960239E+02  0.7546771E-02  0.1282503E+00
         21   -1    0    0  501  502  0.00000000000E+00  0.00000000000E+00  0.53068206896E+03  0.53068206896E+03  0.00000000000E+00 0. -1.
         -2   -1    0    0    0  501 -0.00000000000E+00 -0.00000000000E+00 -0.44164375908E+02  0.44164375908E+02  0.00000000000E+00 0.  1.
         23    2    1    2    0    0 -0.53364272834E+02 -0.34703228382E+01  0.11791766023E+03  0.15804360161E+03  0.90627902220E+02 0.  0.
        -24    2    1    2    0    0 -0.46651884830E+01  0.65058563490E+02  0.22344133744E+03  0.24878029533E+03  0.87813571837E+02 0.  0.
         11    1    4    4    0    0 -0.61990835716E+01  0.35155299150E+02  0.21461544414E+03  0.21756404243E+03  0.00000000000E+00 0. -1.
        -12    1    4    4    0    0  0.15338950886E+01  0.29903264340E+02  0.88258933006E+01  0.31216252896E+02  0.00000000000E+00 0.  1.
        -11    1    3    3    0    0  0.21343992507E+02  0.11687224237E+02  0.51411314816E+02  0.56879526349E+02  0.00000000000E+00 0.  1.
         11    1    3    3    0    0 -0.74708265341E+02 -0.15157547075E+02  0.66506345413E+02  0.10116407526E+03  0.00000000000E+00 0. -1.
         -1    1    1    2    0  502  0.58029461317E+02 -0.61588240652E+02  0.14515869538E+03  0.16802254793E+03  0.00000000000E+00 0.  1.
<scales pt_clust_5="13000.00000" pt_clust_6="13000.00000" pt_clust_7="13000.00000" pt_clust_8="13000.00000" pt_clust_9="84.61991"></scales>
<clustering>
<clus scale="   84.620">  1  9  2 -1</clus>
<clus scale="   87.814">  5  6 -1 -1</clus>
<clus scale="   90.628">  7  8 -1 -1</clus>
<clus scale="   97.049">  1  5  2 -1</clus>
<clus scale="   84.620">  1  5  2 -1</clus>
</clustering>
</event>
<event>
 9    1  0.6345107E-005  0.1219704E+03  0.7546771E-02  0.1259517E+00
          3   -1    0    0  502    0 -0.00000000000E+00  0.00000000000E+00  0.34558827422E+03  0.34558827422E+03  0.00000000000E+00 0. -1.
         21   -1    0    0  501  502  0.00000000000E+00 -0.00000000000E+00 -0.11812096918E+03  0.11812096918E+03  0.00000000000E+00 0.  1.
        -24    2    1    2    0    0  0.20311504812E+02  0.67388006258E+01  0.19510332075E+03  0.21178049553E+03  0.79546865817E+02 0.  0.
         23    2    1    2    0    0  0.43213295967E+02 -0.60789809982E+02 -0.53625496064E+02  0.13213266004E+03  0.94976608041E+02 0.  0.
         13    1    3    3    0    0  0.47751863000E+02  0.14991537567E+02  0.91574334309E+02  0.10435921293E+03  0.00000000000E+00 0. -1.
        -14    1    3    3    0    0 -0.27440358188E+02 -0.82527369412E+01  0.10352898644E+03  0.10742128261E+03  0.00000000000E+00 0.  1.
        -11    1    4    4    0    0  0.43151095072E+02  0.13451164428E+02 -0.10974076595E+02  0.46512161716E+02  0.00000000000E+00 0. -1.
         11    1    4    4    0    0  0.62200894930E-01 -0.74240974410E+02 -0.42651419469E+02  0.85620498323E+02  0.00000000000E+00 0.  1.
          4    1    1    2  501    0 -0.63524800779E+02  0.54051009356E+02  0.85989480356E+02  0.11979608783E+03  0.00000000000E+00 0. -1.
<scales pt_clust_5="13000.00000" pt_clust_6="13000.00000" pt_clust_7="13000.00000" pt_clust_8="13000.00000" pt_clust_9="76.52606"></scales>
<clustering>
<clus scale="   79.547">  5  6 -1 -1</clus>
<clus scale="   82.375">  1  5  2 -1</clus>
<clus scale="   76.526">  2  9  1 -1</clus>
<clus scale="   94.977">  7  8 -1 -1</clus>
<clus scale="   76.526">  2  5  1 -1</clus>
</clustering>
</event>
<event>
 9    1  0.6345107E-005  0.2338072E+03  0.7546771E-02  0.1124060E+00
          1   -1    0    0  502    0 -0.00000000000E+00  0.00000000000E+00  0.30314346502E+03  0.30314346502E+03  0.00000000000E+00 0. -1.
         21   -1    0    0  501  502  0.00000000000E+00 -0.00000000000E+00 -0.23347308857E+03  0.23347308857E+03  0.00000000000E+00 0. -1.
        -24    2    1    2    0    0  0.56121783629E+01 -0.21189072017E+03  0.12207426866E+03  0.25939318280E+03  0.86333784649E+02 0.  0.
         23    2    1    2    0    0  0.16904693369E+02  0.22765404936E+03 -0.50878672477E+02  0.24969487002E+03  0.87445720036E+02 0.  0.
         11    1    3    3    0    0  0.28578629156E+02 -0.12431590922E+03  0.31632081584E+02  0.13142211349E+03  0.00000000000E+00 0. -1.
        -12    1    3    3    0    0 -0.22966450793E+02 -0.87574810949E+02  0.90442187081E+02  0.12797106930E+03  0.00000000000E+00 0.  1.
        -13    1    4    4    0    0  0.60525330699E+01  0.84566942051E+02  0.23618393686E+02  0.88011529726E+02  0.00000000000E+00 0.  1.
         13    1    4    4    0    0  0.10852160299E+02  0.14308710731E+03 -0.74497066163E+02  0.16168334029E+03  0.00000000000E+00 0. -1.
          2    1    1    2  501    0 -0.22516871732E+02 -0.15763329190E+02 -0.15252197350E+01  0.27528500776E+02  0.00000000000E+00 0. -1.
<scales pt_clust_5="13000.00000" pt_clust_6="13000.00000" pt_clust_7="13000.00000" pt_clust_8="13000.00000" pt_clust_9="27.48622"></scales>
<clustering>
<clus scale="   27.486">  2  9  1 -1</clus>
<clus scale="   86.334">  5  6 -1 -1</clus>
<clus scale="   87.446">  7  8 -1 -1</clus>
<clus scale="  233.394">  1  5  2 -1</clus>
<clus scale="   27.486">  2  5  1 -1</clus>
</clustering>
</event>
<event>
 9    1  0.6345107E-005  0.1360496E+03  0.7546771E-02  0.1221196E+00
         21   -1    0    0  501  502  0.00000000000E+00  0.00000000000E+00  0.18392959018E+03  0.18392959018E+03  0.00000000000E+00 0.  1.
         -2   -1    0    0    0  501 -0.00000000000E+00 -0.00000000000E+00 -0.41779289640E+03  0.41779289640E+03  0.00000000000E+00 0.  1.
        -24    2    1    2    0    0  0.31411626875E+02  0.10076982664E+03 -0.11670615342E+03  0.17701774751E+03  0.81078409114E+02 0.  0.
         23    2    1    2    0    0 -0.13545126963E+03 -0.25841432306E+02  0.84418218740E+02  0.18580906738E+03  0.91562807935E+02 0.  0.
         13    1    3    3    0    0  0.20879736249E+02  0.10552627694E+03 -0.12336644414E+03  0.16367968124E+03  0.00000000000E+00 0. -1.
        -14    1    3    3    0    0  0.10531890626E+02 -0.47564502990E+01  0.66602907164E+01  0.13338066278E+02  0.00000000000E+00 0.  1.
        -13    1    4    4    0    0 -0.53095983138E+02 -0.55651889359E+02  0.29214330578E+02  0.82278753793E+02  0.00000000000E+00 0. -1.
         13    1    4    4    0    0 -0.82355286493E+02  0.29810457053E+02  0.55203888162E+02  0.10353031359E+03  0.00000000000E+00 0.  1.
         -1    1    1    2    0  502  0.10403964276E+03 -0.74928394330E+02 -0.20157537153E+03  0.23889567169E+03  0.00000000000E+00 0.  1.
<scales pt_clust_5="13000.00000" pt_clust_6="13000.00000" pt_clust_7="13000.00000" pt_clust_8="13000.00000" pt_clust_9="128.21282"></scales>
<clustering>
<clus scale="   81.078">  5  6 -1 -1</clus>
<clus scale="   91.563">  7  8 -1 -1</clus>
<clus scale="  128.213">  1  9  2 -1</clus>
<clus scale="  129.226">  2  5  1 -1</clus>
<clus scale="  128.213">  1  5  2 -1</clus>
</clustering>
</event>
<event>
 9    1  0.6345107E-005  0.2885652E+03  0.7546771E-02  0.1119410E+00
          1   -1    0    0  502    0 -0.00000000000E+00  0.00000000000E+00  0.17475327654E+04  0.17475327654E+04  0.00000000000E+00 0. -1.
         21   -1    0    0  501  502  0.00000000000E+00 -0.00000000000E+00 -0.90396365363E+02  0.90396365363E+02  0.00000000000E+00 0. -1.
        -24    2    1    2    0    0 -0.28809838550E+01  0.11400279910E+03  0.50847835920E+03  0.52724179974E+03  0.80179394765E+02 0.  0.
         23    2    1    2    0    0  0.27246146547E+03 -0.12293774354E+03  0.86229161994E+03  0.91729287717E+03  0.92360412160E+02 0.  0.
         11    1    3    3    0    0 -0.51565237943E+01  0.12651760565E+03  0.46641134069E+03  0.48329373366E+03  0.00000000000E+00 0. -1.
        -12    1    3    3    0    0  0.22755399393E+01 -0.12514806551E+02  0.42067018516E+02  0.43948066076E+02  0.00000000000E+00 0.  1.
        -11    1    4    4    0    0  0.27045065941E+02 -0.23138141599E+02  0.21427539854E+03  0.21721131556E+03  0.00000000000E+00 0.  1.
         11    1    4    4    0    0  0.24541639953E+03 -0.99799601945E+02  0.64801622140E+03  0.70008156161E+03  0.00000000000E+00 0. -1.
          2    1    1    2  501    0 -0.26958048162E+03  0.89349444462E+01  0.28636642088E+03  0.39339445384E+03  0.00000000000E+00 0. -1.
<scales pt_clust_5="13000.00000" pt_clust_6="13000.00000" pt_clust_7="13000.00000" pt_clust_8="13000.00000" pt_clust_9="273.38511"></scales>
<clustering>
<clus scale="   80.179">  5  6 -1 -1</clus>
<clus scale="   92.360">  7  8 -1 -1</clus>
<clus scale="  139.405">  1  5  2 -1</clus>
<clus scale="  273.385">  2  9  1 -1</clus>
<clus scale="  273.385">  2  5  1 -1</clus>
</clustering>
</event>
<event>
 9    1  0.6345107E-005  0.8709245E+02  0.7546771E-02  0.1313152E+00
         -4   -1    0    0    0  501 -0.00000000000E+00  0.00000000000E+00  0.19593369004E+03  0.19593369004E+03  0.00000000000E+00 0.  1.
         21   -1    0    0  501  502  0.00000000000E+00 -0.00000000000E+00 -0.95706934557E+02  0.95706934557E+02  0.00000000000E+00 0.  1.
        -24    2    1    2    0    0  0.33884267494E+02  0.96583766569E+01  0.74126042822E+02  0.11343102904E+03  0.78297511466E+02 0.  0.
         23    2    1    2    0    0  0.15692844130E+02 -0.17919523118E+02 -0.39799480034E+02  0.95330334366E+02  0.83285649266E+02 0.  0.
         13    1    3    3    0    0 -0.72878207305E+01  0.36050094951E+02  0.35432130921E+02  0.51070124129E+02  0.00000000000E+00 0. -1.
        -14    1    3    3    0    0  0.41172088224E+02 -0.26391718294E+02  0.38693911901E+02  0.62360904912E+02  0.00000000000E+00 0.  1.
        -13    1    4    4    0    0  0.46753752581E+02 -0.51136184676E+01 -0.55594197382E+01  0.47360000233E+02  0.00000000000E+00 0.  1.
         13    1    4    4    0    0 -0.31060908451E+02 -0.12805904650E+02 -0.34240060296E+02  0.47970334133E+02  0.00000000000E+00 0. -1.
         -3    1    1    2    0  502 -0.49577111624E+02  0.82611464608E+01  0.65900192691E+02  0.82879261184E+02  0.00000000000E+00 0.  1.
<scales pt_clust_5="13000.00000" pt_clust_6="13000.00000" pt_clust_7="13000.00000" pt_clust_8="13000.00000" pt_clust_9="50.26071"></scales>
<clustering>
<clus scale="   50.261">  2  9  1 -1</clus>
<clus scale="   78.298">  5  6 -1 -1</clus>
<clus scale="   82.335">  1  5  2 -1</clus>
<clus scale="   83.286">  7  8 -1 -1</clus>
<clus scale="   50.261">  2  5  1 -1</clus>
</clustering>
</event>
<event>
 9    1  0.6345107E-005  0.1282102E+03  0.7546771E-02  0.1253010E+00
          3   -1    0    0  502    0 -0.00000000000E+00  0.00000000000E+00  0.65026288264E+02  0.65026288264E+02  0.00000000000E+00 0. -1.
         21   -1    0    0  501  502  0.00000000000E+00 -0.00000000000E+00 -0.35226137013E+03  0.35226137013E+03  0.00000000000E+00 0. -1.
        -24    2    1    2    0    0 -0.24149845895E+01 -0.15660145984E+01 -0.83893760642E+02  0.11638138584E+03  0.80611285462E+02 0.  0.
         23    2    1    2    0    0  0.30234984690E+02  0.87275592111E+02 -0.97602999060E+02  0.16197939662E+03  0.90442225896E+02 0.  0.
         11    1    3    3    0    0  0.15535268815E+02 -0.19883774449E+02 -0.86964738284E+02  0.90551503402E+02  0.00000000000E+00 0. -1.
        -12    1    3    3    0    0 -0.17950253405E+02  0.18317759851E+02  0.30709776424E+01  0.25829882441E+02  0.00000000000E+00 0.  1.
        -11    1    4    4    0    0 -0.16603376880E+02  0.46963358009E+02 -0.85583472088E+02  0.99024036546E+02  0.00000000000E+00 0.  1.
         11    1    4    4    0    0  0.46838361570E+02  0.40312234102E+02 -0.12019526972E+02  0.62955360069E+02  0.00000000000E+00 0. -1.
          4    1    1    2  501    0 -0.27820000100E+02 -0.85709577513E+02 -0.10573832216E+03  0.13892687593E+03  0.00000000000E+00 0. -1.
<scales pt_clust_5="13000.00000" pt_clust_6="13000.00000" pt_clust_7="13000.00000" pt_clust_8="13000.00000" pt_clust_9="90.87391"></scales>
<clustering>
<clus scale="   80.611">  5  6 -1 -1</clus>
<clus scale="   80.663">  1  5  2 -1</clus>
<clus scale="   90.442">  7  8 -1 -1</clus>
<clus scale="   90.874">  2  9  1 -1</clus>
<clus scale="   90.874">  2  5  1 -1</clus>
</clustering>
</event>
<event>
 9    1  0.6345107E-005  0.1027493E+03  0.7546771E-02  0.1279161E+00
         -2   -1    0    0    0  501 -0.00000000000E+00  0.00000000000E+00  0.14404939698E+03  0.14404939698E+03  0.00000000000E+00 0.  1.
         21   -1    0    0  501  502  0.00000000000E+00 -0.00000000000E+00 -0.17604225304E+03  0.17604225304E+03  0.00000000000E+00 0.  1.
        -24    2    1    2    0    0 -0.35250138946E+02 -0.24825024645E+02  0.56869511822E+02  0.10800408056E+03  0.81067169053E+02 0.  0.
         23    2    1    2    0    0  0.74035641606E+02 -0.15437031807E+02 -0.14572342002E+02  0.11911253866E+03  0.90861793603E+02 0.  0.
         11    1    3    3    0    0  0.26319889941E+02 -0.31821499841E+01  0.17960874439E+02  0.32022737167E+02  0.00000000000E+00 0. -1.
        -12    1    3    3    0    0 -0.61570028887E+02 -0.21642874661E+02  0.38908637383E+02  0.75981343392E+02  0.00000000000E+00 0.  1.
        -11    1    4    4    0    0 -0.17159452474E+02 -0.15980126643E+02 -0.15145351208E+02  0.27914027297E+02  0.00000000000E+00 0. -1.
         11    1    4    4    0    0  0.91195094080E+02  0.54309483509E+00  0.57300920592E+00  0.91198511368E+02  0.00000000000E+00 0.  1.
         -1    1    1    2    0  502 -0.38785502660E+02  0.40262056453E+02 -0.74290025881E+02  0.92975030798E+02  0.00000000000E+00 0.  1.
<scales pt_clust_5="13000.00000" pt_clust_6="13000.00000" pt_clust_7="13000.00000" pt_clust_8="13000.00000" pt_clust_9="55.90482"></scales>
<clustering>
<clus scale="   55.905">  2  9  1 -1</clus>
<clus scale="   81.067">  5  6 -1 -1</clus>
<clus scale="   90.862">  7  8 -1 -1</clus>
<clus scale="   94.199">  1  5  2 -1</clus>
<clus scale="   55.905">  2  5  1 -1</clus>
</clustering>
</event>
<event>
 9    1  0.6345107E-005  0.1822875E+03  0.7546771E-02  0.1167107E+00
         -2   -1    0    0    0  501 -0.00000000000E+00  0.00000000000E+00  0.24082797546E+03  0.24082797546E+03  0.00000000000E+00 0.  1.
         21   -1    0    0  501  502  0.00000000000E+00 -0.00000000000E+00 -0.22375249340E+03  0.22375249340E+03  0.00000000000E+00 0.  1.
         23    2    1    2    0    0 -0.14350102296E+03 -0.45392282848E+02  0.59047050847E+02  0.18567345155E+03  0.91296623519E+02 0.  0.
        -24    2    1    2    0    0  0.14570720397E+03  0.10605144130E+03 -0.74419286166E+02  0.21007929686E+03  0.78214981454E+02 0.  0.
         11    1    4    4    0    0  0.35633992932E+02  0.76086360539E+01  0.12744242270E+02  0.38601664549E+02  0.00000000000E+00 0. -1.
        -12    1    4    4    0    0  0.11007321104E+03  0.98442805242E+02 -0.87163528435E+02  0.17147763231E+03  0.00000000000E+00 0.  1.
        -13    1    3    3    0    0 -0.65681091843E+02  0.22881844765E+02  0.40548217859E+02  0.80509270380E+02  0.00000000000E+00 0.  1.
         13    1    3    3    0    0 -0.77819931115E+02 -0.68274127613E+02  0.18498832988E+02  0.10516418117E+03  0.00000000000E+00 0. -1.
         -1    1    1    2    0  502 -0.22061810144E+01 -0.60659158449E+02  0.32447717383E+02  0.68827720445E+02  0.00000000000E+00 0.  1.
<scales pt_clust_5="13000.00000" pt_clust_6="13000.00000" pt_clust_7="13000.00000" pt_clust_8="13000.00000" pt_clust_9="60.69930"></scales>
<clustering>
<clus scale="   60.699">  2  9  1 -1</clus>
<clus scale="   78.215">  5  6 -1 -1</clus>
<clus scale="   91.297">  7  8 -1 -1</clus>
<clus scale="  176.100">  2  5  1 -1</clus>
<clus scale="   60.699">  2  5  1 -1</clus>
</clustering>
</event>
<event>
 9    1  0.6345107E-005  0.1687215E+03  0.7546771E-02  0.1180997E+00
         21   -1    0    0  501  502  0.00000000000E+00  0.00000000000E+00  0.19206478130E+03  0.19206478130E+03  0.00000000000E+00 0.  1.
          1   -1    0    0  502    0 -0.00000000000E+00 -0.00000000000E+00 -0.20106513611E+03  0.20106513611E+03  0.00000000000E+00 0. -1.
        -24    2    1    2    0    0 -0.13954699138E+03  0.65873575343E+02 -0.19580731838E+02  0.17424485286E+03  0.78518615356E+02 0.  0.
         23    2    1    2    0    0  0.12956238040E+03 -0.13838116223E+02  0.30714014143E+02  0.16220398476E+03  0.91590819035E+02 0.  0.
         11    1    3    3    0    0 -0.10022559082E+03  0.12346795956E+02  0.10119797639E+02  0.10148902763E+03  0.00000000000E+00 0. -1.
        -12    1    3    3    0    0 -0.39321400560E+02  0.53526779387E+02 -0.29700529476E+02  0.72755825229E+02  0.00000000000E+00 0.  1.
        -13    1    4    4    0    0  0.10066214095E+03 -0.37207758722E+02 -0.91422693210E+01  0.10770731181E+03  0.00000000000E+00 0. -1.
         13    1    4    4    0    0  0.28900239455E+02  0.23369642499E+02  0.39856283464E+02  0.54496672950E+02  0.00000000000E+00 0.  1.
          2    1    1    2  501    0  0.99846109729E+01 -0.52035459121E+02 -0.20133637118E+02  0.56681079787E+02  0.00000000000E+00 0. -1.
<scales pt_clust_5="13000.00000" pt_clust_6="13000.00000" pt_clust_7="13000.00000" pt_clust_8="13000.00000" pt_clust_9="52.98476"></scales>
<clustering>
<clus scale="   52.985">  1  9  2 -1</clus>
<clus scale="   78.519">  5  6 -1 -1</clus>
<clus scale="   91.591">  7  8 -1 -1</clus>
<clus scale="  161.998">  2  5  1 -1</clus>
<clus scale="   52.985">  1  5  2 -1</clus>
</clustering>
</event>
<event>
 9    1  0.6345107E-005  0.1738849E+03  0.7546771E-02  0.1174489E+00
          1   -1    0    0  502    0 -0.00000000000E+00  0.00000000000E+00  0.49596690988E+03  0.49596690988E+03  0.00000000000E+00 0. -1.
         21   -1    0    0  501  502  0.00000000000E+00 -0.00000000000E+00 -0.94963848117E+02  0.94963848117E+02  0.00000000000E+00 0.  1.
        -24    2    1    2    0    0  0.95649765758E+02  0.12443789082E+03  0.26412675815E+03  0.31921642972E+03  0.86617078416E+02 0.  0.
         23    2    1    2    0    0 -0.33505360206E+02 -0.13366632091E+03  0.68908999185E+02  0.17915815325E+03  0.91432484379E+02 0.  0.
         13    1    3    3    0    0  0.43474217269E+02  0.10931730405E+03  0.21898620852E+03  0.24858648406E+03  0.00000000000E+00 0. -1.
        -14    1    3    3    0    0  0.52175548489E+02  0.15120586773E+02  0.45140549624E+02  0.70629945666E+02  0.00000000000E+00 0.  1.
        -13    1    4    4    0    0  0.16202977484E+02 -0.50632550902E+02  0.62670833096E+02  0.82181658606E+02  0.00000000000E+00 0. -1.
         13    1    4    4    0    0 -0.49708337690E+02 -0.83033770009E+02  0.62381660890E+01  0.96976494647E+02  0.00000000000E+00 0.  1.
          2    1    1    2  501    0 -0.62144405552E+02  0.92284300866E+01  0.67967304432E+02  0.92556175024E+02  0.00000000000E+00 0. -1.
<scales pt_clust_5="13000.00000" pt_clust_6="13000.00000" pt_clust_7="13000.00000" pt_clust_8="13000.00000" pt_clust_9="62.82591"></scales>
<clustering>
<clus scale="   62.826">  2  9  1 -1</clus>
<clus scale="   86.617">  5  6 -1 -1</clus>
<clus scale="   91.432">  7  8 -1 -1</clus>
<clus scale="  171.402">  1  5  2 -1</clus>
<clus scale="   62.826">  2  5  1 -1</clus>
</clustering>
</event>
<event>
 9    1  0.6345107E-005  0.1327903E+03  0.7546771E-02  0.1247231E+00
         -4   -1    0    0    0  501 -0.00000000000E+00  0.00000000000E+00  0.36775197647E+03  0.36775197647E+03  0.00000000000E+00 0.  1.
         21   -1    0    0  501  502  0.00000000000E+00 -0.00000000000E+00 -0.92903283635E+02  0.92903283635E+02  0.00000000000E+00 0. -1.
        -24    2    1    2    0    0 -0.14708991098E+02  0.62769654167E+01 -0.14502017245E+02  0.82763680031E+02  0.79898457521E+02 0.  0.
         23    2    1    2    0    0 -0.76460117309E+02 -0.52222853950E+02  0.10526728698E+03  0.16739327210E+03  0.91465456985E+02 0.  0.
         13    1    3    3    0    0 -0.26402585021E+02  0.26070472953E+02 -0.35701675220E+02  0.51491510652E+02  0.00000000000E+00 0. -1.
        -14    1    3    3    0    0  0.11693593923E+02 -0.19793507536E+02  0.21199657975E+02  0.31272169379E+02  0.00000000000E+00 0.  1.
        -13    1    4    4    0    0 -0.11810356601E+02 -0.47234567830E+02  0.87544430155E+02  0.10017293134E+03  0.00000000000E+00 0. -1.
         13    1    4    4    0    0 -0.64649760709E+02 -0.49882861200E+01  0.17722856826E+02  0.67220340762E+02  0.00000000000E+00 0.  1.
         -3    1    1    2    0  502  0.91169108407E+02  0.45945888534E+02  0.18408342310E+03  0.21049830798E+03  0.00000000000E+00 0.  1.
<scales pt_clust_5="13000.00000" pt_clust_6="13000.00000" pt_clust_7="13000.00000" pt_clust_8="13000.00000" pt_clust_9="96.26702"></scales>
<clustering>
<clus scale="   79.898">  5  6 -1 -1</clus>
<clus scale="   81.483">  1  5  2 -1</clus>
<clus scale="   91.465">  7  8 -1 -1</clus>
<clus scale="   96.267">  2  9  1 -1</clus>
<clus scale="   96.267">  2  5  1 -1</clus>
</clustering>
</event>
<event>
 9    1  0.1036335E-004  0.3729543E+03  0.7546771E-02  0.1094920E+00
         21   -1    0    0  501  502  0.00000000000E+00  0.00000000000E+00  0.22592750155E+03  0.22592750155E+03  0.00000000000E+00 0. -1.
          1   -1    0    0  502    0 -0.00000000000E+00 -0.00000000000E+00 -0.96628088450E+03  0.96628088450E+03  0.00000000000E+00 0. -1.
        -24    2    1    2    0    0  0.79813400313E+02  0.39561985925E+02 -0.21897955407E+03  0.25013483259E+03  0.81731632633E+02 0.  0.
         23    2    1    2    0    0 -0.38593185721E+03  0.28916583698E+02 -0.88667663404E+02  0.40762762561E+03  0.92297125672E+02 0.  0.
         11    1    3    3    0    0 -0.55805805564E+00  0.31034398176E+02 -0.11099633726E+03  0.11525464062E+03  0.00000000000E+00 0. -1.
        -12    1    3    3    0    0  0.80371458368E+02  0.85275877489E+01 -0.10798321682E+03  0.13488019197E+03  0.00000000000E+00 0.  1.
        -11    1    4    4    0    0 -0.23765230105E+03  0.26316510640E+02 -0.99387570447E+02  0.25893834031E+03  0.00000000000E+00 0.  1.
         11    1    4    4    0    0 -0.14827955616E+03  0.26000730583E+01  0.10719907043E+02  0.14868928530E+03  0.00000000000E+00 0. -1.
          2    1    1    2  501    0  0.30611845690E+03 -0.68478569623E+02 -0.43270616548E+03  0.53444592785E+03  0.00000000000E+00 0. -1.
<scales pt_clust_5="13000.00000" pt_clust_6="13000.00000" pt_clust_7="13000.00000" pt_clust_8="13000.00000" pt_clust_9="361.35338"></scales>
<clustering>
<clus scale="   81.732">  5  6 -1 -1</clus>
<clus scale="   92.297">  7  8 -1 -1</clus>
<clus scale="  120.894">  2  5  1 -1</clus>
<clus scale="  361.353">  1  9  2 -1</clus>
<clus scale="  361.353">  1  5  2 -1</clus>
</clustering>
</event>
<event>
 9    1  0.6345107E-005  0.1344472E+03  0.7546771E-02  0.1221136E+00
          1   -1    0    0  502    0 -0.00000000000E+00  0.00000000000E+00  0.55022164150E+02  0.55022164150E+02  0.00000000000E+00 0. -1.
         21   -1    0    0  501  502  0.00000000000E+00 -0.00000000000E+00 -0.43012095079E+03  0.43012095079E+03  0.00000000000E+00 0. -1.
        -24    2    1    2    0    0  0.10176336307E+03  0.54660302664E+02 -0.14509534743E+03  0.20606600606E+03  0.89816525513E+02 0.  0.
         23    2    1    2    0    0 -0.77904629217E+02 -0.27710955986E+02 -0.18548891502E+03  0.22183159088E+03  0.89252948313E+02 0.  0.
         13    1    3    3    0    0  0.10222015175E+03  0.74138574788E+02 -0.11911105757E+03  0.17358839745E+03  0.00000000000E+00 0. -1.
        -14    1    3    3    0    0 -0.45678868076E+00 -0.19478272124E+02 -0.25984289867E+02  0.32477608605E+02  0.00000000000E+00 0.  1.
        -11    1    4    4    0    0 -0.53812131871E+02  0.21299170515E+02 -0.52787598787E+02  0.78332182319E+02  0.00000000000E+00 0.  1.
         11    1    4    4    0    0 -0.24092497346E+02 -0.49010126501E+02 -0.13270131623E+03  0.14349940856E+03  0.00000000000E+00 0. -1.
          2    1    1    2  501    0 -0.23858733853E+02 -0.26949346679E+02 -0.44514524186E+02  0.57245517999E+02  0.00000000000E+00 0. -1.
<scales pt_clust_5="13000.00000" pt_clust_6="13000.00000" pt_clust_7="13000.00000" pt_clust_8="13000.00000" pt_clust_9="35.99314"></scales>
<clustering>
<clus scale="   35.993">  2  9  1 -1</clus>
<clus scale="   89.253">  7  8 -1 -1</clus>
<clus scale="   89.817">  5  6 -1 -1</clus>
<clus scale="  134.071">  2  7  1 -1</clus>
<clus scale="   35.993">  2  5  1 -1</clus>
</clustering>
</event>
<event>
 9    1  0.6696671E-005  0.2231593E+03  0.7546771E-02  0.1132447E+00
          1   -1    0    0  502    0 -0.00000000000E+00  0.00000000000E+00  0.64802868449E+03  0.64802868449E+03  0.00000000000E+00 0. -1.
         21   -1    0    0  501  502  0.00000000000E+00 -0.00000000000E+00 -0.87272231476E+03  0.87272231476E+03  0.00000000000E+00 0.  1.
         23    2    1    2    0    0 -0.20352556670E+03 -0.30949469506E+02  0.58450127387E+03  0.62651872974E+03  0.92214172419E+02 0.  0.
        -24    2    1    2    0    0  0.12130283301E+03 -0.64913241052E+02 -0.72549371770E+03  0.74271947855E+03  0.79768309710E+02 0.  0.
         13    1    4    4    0    0  0.39679359216E+02  0.34510500594E+01 -0.90715376684E+02  0.99073916150E+02  0.00000000000E+00 0. -1.
        -14    1    4    4    0    0  0.81623473791E+02 -0.68364291112E+02 -0.63477834102E+03  0.64364556240E+03  0.00000000000E+00 0.  1.
        -11    1    3    3    0    0 -0.44909183418E+02  0.21964854405E+02  0.21826353961E+03  0.22391574824E+03  0.00000000000E+00 0. -1.
         11    1    3    3    0    0 -0.15861638328E+03 -0.52914323910E+02  0.36623773426E+03  0.40260298150E+03  0.00000000000E+00 0.  1.
          2    1    1    2  501    0  0.82222733692E+02  0.95862710558E+02 -0.83701186442E+02  0.15151279096E+03  0.00000000000E+00 0. -1.
<scales pt_clust_5="13000.00000" pt_clust_6="13000.00000" pt_clust_7="13000.00000" pt_clust_8="13000.00000" pt_clust_9="126.29425"></scales>
<clustering>
<clus scale="   79.768">  5  6 -1 -1</clus>
<clus scale="   92.214">  7  8 -1 -1</clus>
<clus scale="  126.294">  2  9  1 -1</clus>
<clus scale="  218.311">  2  5  1 -1</clus>
<clus scale="  126.294">  2  5  1 -1</clus>
</clustering>
</event>
<event>
 9    1  0.6345107E-005  0.1860400E+03  0.7546771E-02  0.1194487E+00
          1   -1    0    0  502    0 -0.00000000000E+00  0.00000000000E+00  0.17261853690E+04  0.17261853690E+04  0.00000000000E+00 0. -1.
         21   -1    0    0  501  502  0.00000000000E+00 -0.00000000000E+00 -0.33793315733E+02  0.33793315733E+02  0.00000000000E+00 0. -1.
        -24    2    1    2    0    0 -0.24138045437E+02 -0.31067199263E+02  0.14127628862E+03  0.16728756348E+03  0.80488030534E+02 0.  0.
         23    2    1    2    0    0  0.14137967876E+03  0.10888572340E+03  0.63145635606E+03  0.66232842258E+03  0.89986084644E+02 0.  0.
         11    1    3    3    0    0 -0.18005966866E+02  0.25655793299E+02  0.63660373216E+02  0.70958281339E+02  0.00000000000E+00 0. -1.
        -12    1    3    3    0    0 -0.61320785716E+01 -0.56722992561E+02  0.77615915408E+02  0.96329282139E+02  0.00000000000E+00 0.  1.
        -11    1    4    4    0    0  0.38029341464E+02 -0.12154379509E+02  0.15138940828E+03  0.15656536237E+03  0.00000000000E+00 0.  1.
         11    1    4    4    0    0  0.10335033729E+03  0.12104010291E+03  0.48006694777E+03  0.50576306021E+03  0.00000000000E+00 0. -1.
          2    1    1    2  501    0 -0.11724163332E+03 -0.77818524142E+02  0.91965940863E+03  0.93036269872E+03  0.00000000000E+00 0. -1.
<scales pt_clust_5="13000.00000" pt_clust_6="13000.00000" pt_clust_7="13000.00000" pt_clust_8="13000.00000" pt_clust_9="162.82934"></scales>
<clustering>
<clus scale="   80.488">  5  6 -1 -1</clus>
<clus scale="   89.589">  1  5  2 -1</clus>
<clus scale="   89.986">  7  8 -1 -1</clus>
<clus scale="  162.829">  2  9  1 -1</clus>
<clus scale="  162.829">  2  5  1 -1</clus>
</clustering>
</event>
<event>
 9    1  0.6345107E-005  0.1196291E+03  0.7546771E-02  0.1246922E+00
         21   -1    0    0  501  502  0.00000000000E+00  0.00000000000E+00  0.89636339104E+02  0.89636339104E+02  0.00000000000E+00 0. -1.
          1   -1    0    0  502    0 -0.00000000000E+00 -0.00000000000E+00 -0.36662999478E+03  0.36662999478E+03  0.00000000000E+00 0. -1.
         23    2    1    2    0    0  0.43373516598E+02  0.59548985538E+02 -0.22976614781E+03  0.25790982583E+03  0.91091448341E+02 0.  0.
        -24    2    1    2    0    0 -0.61089835269E+02 -0.76414239651E+02  0.18380562456E+02  0.12833705622E+03  0.81002783458E+02 0.  0.
         13    1    4    4    0    0 -0.43412456712E+02 -0.64623736955E+02  0.48316743207E+02  0.91626286894E+02  0.00000000000E+00 0. -1.
        -14    1    4    4    0    0 -0.17677378557E+02 -0.11790502696E+02 -0.29936180751E+02  0.36710769324E+02  0.00000000000E+00 0.  1.
        -13    1    3    3    0    0  0.71416405758E+00  0.63048609168E+02 -0.18724633405E+03  0.19757739437E+03  0.00000000000E+00 0. -1.
         13    1    3    3    0    0  0.42659352541E+02 -0.34996236304E+01 -0.42519813759E+02  0.60332431468E+02  0.00000000000E+00 0.  1.
          2    1    1    2  501    0  0.17716318671E+02  0.16865254113E+02 -0.65608070320E+02  0.70019451831E+02  0.00000000000E+00 0. -1.
<scales pt_clust_5="13000.00000" pt_clust_6="13000.00000" pt_clust_7="13000.00000" pt_clust_8="13000.00000" pt_clust_9="24.46028"></scales>
<clustering>
<clus scale="   24.460">  1  9  2 -1</clus>
<clus scale="   81.003">  5  6 -1 -1</clus>
<clus scale="   91.091">  7  8 -1 -1</clus>
<clus scale="  112.138">  1  5  2 -1</clus>
<clus scale="   24.460">  1  5  2 -1</clus>
</clustering>
</event>
<event>
 9    1  0.6345107E-005  0.1259823E+03  0.7546771E-02  0.1237550E+00
          1   -1    0    0  502    0 -0.00000000000E+00  0.00000000000E+00  0.93908369885E+02  0.93908369885E+02  0.00000000000E+00 0. -1.
         21   -1    0    0  501  502  0.00000000000E+00 -0.00000000000E+00 -0.26996764921E+03  0.26996764921E+03  0.00000000000E+00 0.  1.
        -24    2    1    2    0    0  0.66521496263E+02  0.81442723755E+02 -0.27777734271E+02  0.13527040105E+03  0.80426688109E+02 0.  0.
         23    2    1    2    0    0 -0.29010372755E+02 -0.34489088278E+02 -0.12799708807E+03  0.16517701672E+03  0.94175864000E+02 0.  0.
         13    1    3    3    0    0  0.84720627188E+02  0.64551681134E+02 -0.15708377227E+02  0.10766270164E+03  0.00000000000E+00 0. -1.
        -14    1    3    3    0    0 -0.18199130925E+02  0.16891042621E+02 -0.12069357044E+02  0.27607699410E+02  0.00000000000E+00 0.  1.
        -11    1    4    4    0    0 -0.23417464341E+02  0.30877167978E+02 -0.49917727820E+02  0.63194593829E+02  0.00000000000E+00 0. -1.
         11    1    4    4    0    0 -0.55929084140E+01 -0.65366256256E+02 -0.78079360251E+02  0.10198242289E+03  0.00000000000E+00 0.  1.
          2    1    1    2  501    0 -0.37511123507E+02 -0.46953635477E+02 -0.20284456982E+02  0.63428601327E+02  0.00000000000E+00 0. -1.
<scales pt_clust_5="13000.00000" pt_clust_6="13000.00000" pt_clust_7="13000.00000" pt_clust_8="13000.00000" pt_clust_9="60.09769"></scales>
<clustering>
<clus scale="   60.098">  2  9  1 -1</clus>
<clus scale="   80.427">  5  6 -1 -1</clus>
<clus scale="   94.176">  7  8 -1 -1</clus>
<clus scale="  116.064">  1  5  2 -1</clus>
<clus scale="   60.098">  2  5  1 -1</clus>
</clustering>
</event>
<event>
 9    1  0.6345107E-005  0.1134603E+03  0.7546771E-02  0.1259043E+00
         21   -1    0    0  501  502  0.00000000000E+00  0.00000000000E+00  0.12207408666E+03  0.12207408666E+03  0.00000000000E+00 0.  1.
          1   -1    0    0  502    0 -0.00000000000E+00 -0.00000000000E+00 -0.29256317641E+03  0.29256317641E+03  0.00000000000E+00 0. -1.
        -24    2    1    2    0    0 -0.15063328836E+02  0.68882050122E+02 -0.20426310846E+03  0.23036339608E+03  0.79826286851E+02 0.  0.
         23    2    1    2    0    0  0.60993300880E+02 -0.27159818174E+02  0.11535587655E+01  0.11417107548E+03  0.92605967960E+02 0.  0.
         13    1    3    3    0    0 -0.47863204568E+02  0.44986442376E+02 -0.13366628670E+03  0.14893402080E+03  0.00000000000E+00 0. -1.
        -14    1    3    3    0    0  0.32799875732E+02  0.23895607746E+02 -0.70596821752E+02  0.81429375284E+02  0.00000000000E+00 0.  1.
        -11    1    4    4    0    0  0.40683498941E+02 -0.27622376228E+02  0.44487230263E+02  0.66311812002E+02  0.00000000000E+00 0.  1.
         11    1    4    4    0    0  0.20309801939E+02  0.46255805420E+00 -0.43333671497E+02  0.47859263473E+02  0.00000000000E+00 0. -1.
          2    1    1    2  501    0 -0.45929972044E+02 -0.41722231948E+02  0.32620459941E+02  0.70102791510E+02  0.00000000000E+00 0. -1.
<scales pt_clust_5="13000.00000" pt_clust_6="13000.00000" pt_clust_7="13000.00000" pt_clust_8="13000.00000" pt_clust_9="62.05084"></scales>
<clustering>
<clus scale="   62.051">  1  9  2 -1</clus>
<clus scale="   79.826">  5  6 -1 -1</clus>
<clus scale="   92.606">  7  8 -1 -1</clus>
<clus scale="  103.294">  2  5  1 -1</clus>
<clus scale="   62.051">  1  5  2 -1</clus>
</clustering>
</event>
<event>
 9    1  0.6345107E-005  0.2186572E+03  0.7546771E-02  0.1135803E+00
         21   -1    0    0  501  502  0.00000000000E+00  0.00000000000E+00  0.50763888464E+03  0.50763888464E+03  0.00000000000E+00 0. -1.
          1   -1    0    0  502    0 -0.00000000000E+00 -0.00000000000E+00 -0.12789672690E+03  0.12789672690E+03  0.00000000000E+00 0. -1.
         23    2    1    2    0    0 -0.13907418462E+03  0.16983646067E+03  0.16580015261E+03  0.28945346552E+03  0.90042022949E+02 0.  0.
        -24    2    1    2    0    0  0.13469690503E+03 -0.11644771486E+03  0.21845985334E+03  0.29232407957E+03  0.77623021401E+02 0.  0.
         11    1    4    4    0    0  0.14015475111E+03 -0.93592108616E+02  0.20448303639E+03  0.26498329990E+03  0.00000000000E+00 0. -1.
        -12    1    4    4    0    0 -0.54578460834E+01 -0.22855606244E+02  0.13976816952E+02  0.27340779666E+02  0.00000000000E+00 0.  1.
        -11    1    3    3    0    0 -0.40863856070E+02  0.26916961221E+01  0.45879496606E+02  0.61498196476E+02  0.00000000000E+00 0.  1.
         11    1    3    3    0    0 -0.98210328549E+02  0.16714476455E+03  0.11992065601E+03  0.22795526905E+03  0.00000000000E+00 0. -1.
          2    1    1    2  501    0  0.43772795906E+01 -0.53388745811E+02 -0.45178482179E+01  0.53758066450E+02  0.00000000000E+00 0. -1.
<scales pt_clust_5="13000.00000" pt_clust_6="13000.00000" pt_clust_7="13000.00000" pt_clust_8="13000.00000" pt_clust_9="53.56792"></scales>
<clustering>
<clus scale="   53.568">  1  9  2 -1</clus>
<clus scale="   77.623">  5  6 -1 -1</clus>
<clus scale="   90.042">  7  8 -1 -1</clus>
<clus scale="  213.843">  1  5  2 -1</clus>
<clus scale="   53.568">  1  5  2 -1</clus>
</clustering>
</event>
<event>
 9    1  0.6345107E-005  0.1096655E+03  0.7546771E-02  0.1265578E+00
         -2   -1    0    0    0  501 -0.00000000000E+00  0.00000000000E+00  0.53003367613E+03  0.53003367613E+03  0.00000000000E+00 0.  1.
         21   -1    0    0  501  502  0.00000000000E+00 -0.00000000000E+00 -0.41266005461E+02  0.41266005461E+02  0.00000000000E+00 0.  1.
         23    2    1    2    0    0  0.32073547849E+02 -0.29659311914E+02  0.19714075885E+03  0.22115949667E+03  0.90214504980E+02 0.  0.
        -24    2    1    2    0    0 -0.85219730740E+02  0.15002137187E+02  0.26321571491E+03  0.28811965900E+03  0.79012395838E+02 0.  0.
         13    1    4    4    0    0 -0.45736721661E+02  0.39434978330E+02  0.87110147222E+02  0.10599595734E+03  0.00000000000E+00 0. -1.
        -14    1    4    4    0    0 -0.39483009078E+02 -0.24432841143E+02  0.17610556769E+03  0.18212370165E+03  0.00000000000E+00 0.  1.
        -11    1    3    3    0    0  0.20062389006E+02  0.18315474209E+02  0.15132305155E+03  0.15374206314E+03  0.00000000000E+00 0. -1.
         11    1    3    3    0    0  0.12011158844E+02 -0.47974786123E+02  0.45817707300E+02  0.67417433521E+02  0.00000000000E+00 0.  1.
         -1    1    1    2    0  502  0.53146182890E+02  0.14657174727E+02  0.28411196898E+02  0.62020525924E+02  0.00000000000E+00 0.  1.
<scales pt_clust_5="13000.00000" pt_clust_6="13000.00000" pt_clust_7="13000.00000" pt_clust_8="13000.00000" pt_clust_9="55.13030"></scales>
<clustering>
<clus scale="   55.130">  2  9  1 -1</clus>
<clus scale="   79.012">  5  6 -1 -1</clus>
<clus scale="   90.215">  7  8 -1 -1</clus>
<clus scale="  100.652">  2  5  1 -1</clus>
<clus scale="   55.130">  2  5  1 -1</clus>
</clustering>
</event>
<event>
 9    1  0.6345107E-005  0.1074215E+03  0.7546771E-02  0.1271155E+00
         21   -1    0    0  501  502  0.00000000000E+00  0.00000000000E+00  0.32599383180E+02  0.32599383180E+02  0.00000000000E+00 0. -1.
         -2   -1    0    0    0  501 -0.00000000000E+00 -0.00000000000E+00 -0.52286767979E+03  0.52286767979E+03  0.00000000000E+00 0.  1.
        -24    2    1    2    0    0 -0.94616340144E+01 -0.33743378528E+02 -0.32194051905E+03  0.34012903844E+03  0.10399003257E+03 0.  0.
         23    2    1    2    0    0 -0.10481273166E+02  0.10631333907E+02 -0.84038642897E+02  0.12569124893E+03  0.92265455120E+02 0.  0.
         13    1    3    3    0    0 -0.39424720343E+02 -0.15807661326E+02 -0.48511689661E+02  0.64479258405E+02  0.00000000000E+00 0. -1.
        -14    1    3    3    0    0  0.29963086328E+02 -0.17935717202E+02 -0.27342882939E+03  0.27564978004E+03  0.00000000000E+00 0.  1.
        -11    1    4    4    0    0 -0.48404735700E+02  0.71980995736E+01 -0.23778199537E+02  0.54408031107E+02  0.00000000000E+00 0. -1.
         11    1    4    4    0    0  0.37923462535E+02  0.34332343330E+01 -0.60260443360E+02  0.71283217818E+02  0.00000000000E+00 0.  1.
         -1    1    1    2    0  502  0.19942907180E+02  0.23112044621E+02 -0.84289134661E+02  0.89646775599E+02  0.00000000000E+00 0.  1.
<scales pt_clust_5="13000.00000" pt_clust_6="13000.00000" pt_clust_7="13000.00000" pt_clust_8="13000.00000" pt_clust_9="30.52683"></scales>
<clustering>
<clus scale="   30.527">  1  9  2 -1</clus>
<clus scale="   92.265">  7  8 -1 -1</clus>
<clus scale="   96.116">  1  7  2 -1</clus>
<clus scale="  103.990">  5  6 -1 -1</clus>
<clus scale="   30.527">  1  5  2 -1</clus>
</clustering>
</event>
<event>
 9    1  0.6345107E-005  0.1955859E+03  0.7546771E-02  0.1154543E+00
          1   -1    0    0  502    0 -0.00000000000E+00  0.00000000000E+00  0.73885583742E+03  0.73885583742E+03  0.00000000000E+00 0. -1.
         21   -1    0    0  501  502  0.00000000000E+00 -0.00000000000E+00 -0.72481882632E+02  0.72481882632E+02  0.00000000000E+00 0. -1.
        -24    2    1    2    0    0 -0.14406535455E+03  0.66121174569E+02  0.24806617665E+03  0.30537492577E+03  0.81179930903E+02 0.  0.
         23    2    1    2    0    0  0.16624298314E+03 -0.10039716484E+03  0.23570118845E+03  0.31884823762E+03  0.91612380414E+02 0.  0.
         11    1    3    3    0    0 -0.10386876900E+03  0.52876229208E+02  0.10743965942E+03  0.15851781353E+03  0.00000000000E+00 0. -1.
        -12    1    3    3    0    0 -0.40196585551E+02  0.13244945361E+02  0.14062651723E+03  0.14685711224E+03  0.00000000000E+00 0.  1.
        -11    1    4    4    0    0  0.16983912659E+03 -0.78927288293E+02  0.18308415691E+03  0.26190581183E+03  0.00000000000E+00 0. -1.
         11    1    4    4    0    0 -0.35961434508E+01 -0.21469876547E+02  0.52617031546E+02  0.56942425794E+02  0.00000000000E+00 0.  1.
          2    1    1    2  501    0 -0.22177628592E+02  0.34275990270E+02  0.18260658968E+03  0.18711455666E+03  0.00000000000E+00 0. -1.
<scales pt_clust_5="13000.00000" pt_clust_6="13000.00000" pt_clust_7="13000.00000" pt_clust_8="13000.00000" pt_clust_9="40.82514"></scales>
<clustering>
<clus scale="   40.825">  2  9  1 -1</clus>
<clus scale="   81.180">  5  6 -1 -1</clus>
<clus scale="   91.612">  7  8 -1 -1</clus>
<clus scale="  190.922">  1  5  2 -1</clus>
<clus scale="   40.825">  2  5  1 -1</clus>
</clustering>
</event>
<event>
 9    1  0.6345107E-005  0.1461024E+03  0.7546771E-02  0.1222934E+00
         -2   -1    0    0    0  501 -0.00000000000E+00  0.00000000000E+00  0.49751769277E+03  0.49751769277E+03  0.00000000000E+00 0.  1.
         21   -1    0    0  501  502  0.00000000000E+00 -0.00000000000E+00 -0.14811203407E+03  0.14811203407E+03  0.00000000000E+00 0. -1.
         23    2    1    2    0    0  0.19273275871E+02  0.40216496545E+02 -0.29592220027E+02  0.10487940213E+03  0.90195142599E+02 0.  0.
        -24    2    1    2    0    0  0.11940638469E+03 -0.27463569423E+02  0.83272542849E+01  0.14478139004E+03  0.76682301656E+02 0.  0.
         13    1    4    4    0    0  0.90370910713E+02 -0.16112879122E+02 -0.28887484991E+02  0.96234157999E+02  0.00000000000E+00 0. -1.
        -14    1    4    4    0    0  0.29035473980E+02 -0.11350690301E+02  0.37214739275E+02  0.48547232042E+02  0.00000000000E+00 0.  1.
        -11    1    3    3    0    0  0.23783027452E+02  0.65047150910E+02 -0.37073447435E+02  0.78557015861E+02  0.00000000000E+00 0.  1.
         11    1    3    3    0    0 -0.45097515806E+01 -0.24830654365E+02  0.74812274076E+01  0.26322386272E+02  0.00000000000E+00 0. -1.
         -1    1    1    2    0  502 -0.13867966056E+03 -0.12752927122E+02  0.37067062444E+03  0.39596893468E+03  0.00000000000E+00 0.  1.
<scales pt_clust_5="13000.00000" pt_clust_6="13000.00000" pt_clust_7="13000.00000" pt_clust_8="13000.00000" pt_clust_9="124.36133"></scales>
<clustering>
<clus scale="   76.682">  5  6 -1 -1</clus>
<clus scale="   90.195">  7  8 -1 -1</clus>
<clus scale="  100.618">  1  7  2 -1</clus>
<clus scale="  124.361">  2  9  1 -1</clus>
<clus scale="  124.361">  2  5  1 -1</clus>
</clustering>
</event>
<event>
 9    1  0.6345107E-005  0.1040600E+03  0.7546771E-02  0.1277803E+00
         21   -1    0    0  501  502  0.00000000000E+00  0.00000000000E+00  0.11666445544E+03  0.11666445544E+03  0.00000000000E+00 0.  1.
          1   -1    0    0  502    0 -0.00000000000E+00 -0.00000000000E+00 -0.14239078484E+03  0.14239078484E+03  0.00000000000E+00 0. -1.
         23    2    1    2    0    0  0.22780126250E+02  0.41375866561E+02 -0.80199356023E+02  0.13176039741E+03  0.93262903305E+02 0.  0.
        -24    2    1    2    0    0 -0.38533384522E+02 -0.26527815998E+02  0.45281322621E+02  0.10377639960E+03  0.80812104237E+02 0.  0.
         13    1    4    4    0    0 -0.47213218964E+02 -0.47168119811E+02  0.19288579025E+02  0.69469193548E+02  0.00000000000E+00 0. -1.
        -14    1    4    4    0    0  0.86798344417E+01  0.20640303813E+02  0.25992743596E+02  0.34307206052E+02  0.00000000000E+00 0.  1.
        -11    1    3    3    0    0  0.52448293867E+02  0.41148060514E+02 -0.77109843650E+02  0.10193092956E+03  0.00000000000E+00 0. -1.
         11    1    3    3    0    0 -0.29668167616E+02  0.22780604647E+00 -0.30895123729E+01  0.29829467846E+02  0.00000000000E+00 0.  1.
          2    1    1    2  501    0  0.15753258271E+02 -0.14848050563E+02  0.91917039919E+01  0.23518443272E+02  0.00000000000E+00 0. -1.
<scales pt_clust_5="13000.00000" pt_clust_6="13000.00000" pt_clust_7="13000.00000" pt_clust_8="13000.00000" pt_clust_9="21.64786"></scales>
<clustering>
<clus scale="   21.648">  1  9  2 -1</clus>
<clus scale="   80.812">  5  6 -1 -1</clus>
<clus scale="   93.065">  1  5  2 -1</clus>
<clus scale="   93.263">  7  8 -1 -1</clus>
<clus scale="   21.648">  1  5  2 -1</clus>
</clustering>
</event>
<event>
 9    1  0.6345107E-005  0.1325403E+03  0.7546771E-02  0.1227098E+00
         21   -1    0    0  501  502  0.00000000000E+00  0.00000000000E+00  0.25846846203E+03  0.25846846203E+03  0.00000000000E+00 0.  1.
          3   -1    0    0  502    0 -0.00000000000E+00 -0.00000000000E+00 -0.10794039439E+03  0.10794039439E+03  0.00000000000E+00 0. -1.
         23    2    1    2    0    0  0.72190115560E+02 -0.69093007692E+02 -0.18556871643E+02  0.13889727984E+03  0.94672278759E+02 0.  0.
        -24    2    1    2    0    0 -0.34827046708E+02  0.68253171689E+02  0.14435900810E+03  0.18270001657E+03  0.81659991461E+02 0.  0.
         13    1    4    4    0    0  0.56764051568E+01  0.39492338102E+02  0.12525935079E+02  0.41818242358E+02  0.00000000000E+00 0. -1.
        -14    1    4    4    0    0 -0.40503451865E+02  0.28760833587E+02  0.13183307303E+03  0.14088177421E+03  0.00000000000E+00 0.  1.
        -13    1    3    3    0    0  0.48340871035E+02  0.13997074414E+02  0.70836916572E+00  0.50331498005E+02  0.00000000000E+00 0.  1.
         13    1    3    3    0    0  0.23849244526E+02 -0.83090082105E+02 -0.19265240809E+02  0.88565781835E+02  0.00000000000E+00 0. -1.
          4    1    1    2  501    0 -0.37363068852E+02  0.83983600283E+00  0.24725931180E+02  0.44811560018E+02  0.00000000000E+00 0. -1.
<scales pt_clust_5="13000.00000" pt_clust_6="13000.00000" pt_clust_7="13000.00000" pt_clust_8="13000.00000" pt_clust_9="37.37251"></scales>
<clustering>
<clus scale="   37.373">  1  9  2 -1</clus>
<clus scale="   81.660">  5  6 -1 -1</clus>
<clus scale="   94.672">  7  8 -1 -1</clus>
<clus scale="  123.582">  1  5  2 -1</clus>
<clus scale="   37.373">  1  5  2 -1</clus>
</clustering>
</event>
<event>
 9    1  0.6345107E-005  0.1131051E+03  0.7546771E-02  0.1259858E+00
          1   -1    0    0  502    0 -0.00000000000E+00  0.00000000000E+00  0.15571862242E+04  0.15571862242E+04  0.00000000000E+00 0. -1.
         21   -1    0    0  501  502  0.00000000000E+00 -0.00000000000E+00 -0.27610421876E+02  0.27610421876E+02  0.00000000000E+00 0. -1.
        -24    2    1    2    0    0  0.52706774864E+02  0.55203924194E+02  0.46962388073E+03  0.48246316706E+03  0.79991504870E+02 0.  0.
         23    2    1    2    0    0  0.54901508463E+02 -0.71718825529E+02  0.22020439025E+03  0.25555830165E+03  0.93071512778E+02 0.  0.
         13    1    3    3    0    0 -0.18888106323E+02  0.23457496637E+02  0.92020994226E+02  0.96823954098E+02  0.00000000000E+00 0. -1.
        -14    1    3    3    0    0  0.71594881187E+02  0.31746427558E+02  0.37760288650E+03  0.38563921296E+03  0.00000000000E+00 0.  1.
        -11    1    4    4    0    0  0.75080553181E+02 -0.68315882174E+02  0.20871227589E+03  0.23208826625E+03  0.00000000000E+00 0. -1.
         11    1    4    4    0    0 -0.20179044718E+02 -0.34029433554E+01  0.11492114353E+02  0.23470035397E+02  0.00000000000E+00 0.  1.
          2    1    1    2  501    0 -0.10760828333E+03  0.16514901335E+02  0.83974753132E+03  0.84677517734E+03  0.00000000000E+00 0. -1.
<scales pt_clust_5="13000.00000" pt_clust_6="13000.00000" pt_clust_7="13000.00000" pt_clust_8="13000.00000" pt_clust_9="108.86825"></scales>
<clustering>
<clus scale="   79.992">  5  6 -1 -1</clus>
<clus scale="   93.072">  7  8 -1 -1</clus>
<clus scale="  108.868">  2  9  1 -1</clus>
<clus scale="  102.611">  1  5  2 -1</clus>
<clus scale="  108.868">  2  5  1 -1</clus>
</clustering>
</event>
<event>
 9    1  0.6345107E-005  0.1041187E+03  0.7546771E-02  0.1273178E+00
          1   -1    0    0  502    0 -0.00000000000E+00  0.00000000000E+00  0.36175190555E+03  0.36175190555E+03  0.00000000000E+00 0. -1.
         21   -1    0    0  501  502  0.00000000000E+00 -0.00000000000E+00 -0.96447135460E+02  0.96447135460E+02  0.00000000000E+00 0. -1.
        -24    2    1    2    0    0 -0.63165218474E+01 -0.43451767865E+02  0.19559601543E+03  0.21821664117E+03  0.86213378628E+02 0.  0.
         23    2    1    2    0    0 -0.17806084604E+02  0.11338335259E+03  0.11497552536E+02  0.14585020164E+03  0.89259432617E+02 0.  0.
         11    1    3    3    0    0  0.32409184276E+02  0.41013080498E+01  0.94351235197E+02  0.99846539931E+02  0.00000000000E+00 0. -1.
        -12    1    3    3    0    0 -0.38725706123E+02 -0.47553075915E+02  0.10124478023E+03  0.11837010124E+03  0.00000000000E+00 0.  1.
        -13    1    4    4    0    0  0.86214884462E-01  0.53963216971E+02  0.49379145691E+02  0.73145992699E+02  0.00000000000E+00 0.  1.
         13    1    4    4    0    0 -0.17892299489E+02  0.59420135619E+02 -0.37881593155E+02  0.72704208942E+02  0.00000000000E+00 0. -1.
          2    1    1    2  501    0  0.24122606452E+02 -0.69931584725E+02  0.58211202129E+02  0.94132198197E+02  0.00000000000E+00 0. -1.
<scales pt_clust_5="13000.00000" pt_clust_6="13000.00000" pt_clust_7="13000.00000" pt_clust_8="13000.00000" pt_clust_9="73.97521"></scales>
<clustering>
<clus scale="   73.975">  2  9  1 -1</clus>
<clus scale="   86.213">  5  6 -1 -1</clus>
<clus scale="   89.259">  7  8 -1 -1</clus>
<clus scale="  101.519">  1  5  2 -1</clus>
<clus scale="   73.975">  2  5  1 -1</clus>
</clustering>
</event>
<event>
 9    1  0.6345107E-005  0.8447235E+02  0.7546771E-02  0.1319320E+00
         21   -1    0    0  501  502  0.00000000000E+00  0.00000000000E+00  0.44021511819E+02  0.44021511819E+02  0.00000000000E+00 0.  1.
         -2   -1    0    0    0  501 -0.00000000000E+00 -0.00000000000E+00 -0.30358235708E+03  0.30358235708E+03  0.00000000000E+00 0.  1.
        -24    2    1    2    0    0 -0.13419648157E+02  0.18164168963E+02 -0.21230310783E+03  0.22904841254E+03  0.82949030757E+02 0.  0.
         23    2    1    2    0    0 -0.98253431386E+01 -0.23379666660E+01 -0.41067944934E+02  0.89761154301E+02  0.79173766264E+02 0.  0.
         13    1    3    3    0    0  0.40359550964E+01 -0.29834249573E+02 -0.45152815275E+02  0.54269218793E+02  0.00000000000E+00 0. -1.
        -14    1    3    3    0    0 -0.17455603253E+02  0.47998418536E+02 -0.16715029255E+03  0.17477919375E+03  0.00000000000E+00 0.  1.
        -13    1    4    4    0    0 -0.69131677372E+01 -0.38451500076E+02 -0.36096587255E+02  0.53190914240E+02  0.00000000000E+00 0. -1.
         13    1    4    4    0    0 -0.29121754014E+01  0.36113533410E+02 -0.49713576792E+01  0.36570240061E+02  0.00000000000E+00 0.  1.
         -1    1    1    2    0  502  0.23244991295E+02 -0.15826202297E+02 -0.61897924942E+01  0.28794302051E+02  0.00000000000E+00 0.  1.
<scales pt_clust_5="13000.00000" pt_clust_6="13000.00000" pt_clust_7="13000.00000" pt_clust_8="13000.00000" pt_clust_9="28.12114"></scales>
<clustering>
<clus scale="   28.121">  1  9  2 -1</clus>
<clus scale="   79.174">  7  8 -1 -1</clus>
<clus scale="   80.768">  1  7  2 -1</clus>
<clus scale="   82.949">  5  6 -1 -1</clus>
<clus scale="   28.121">  1  5  2 -1</clus>
</clustering>
</event>
<event>
 9    1  0.6345107E-005  0.1019926E+03  0.7546771E-02  0.1281654E+00
         21   -1    0    0  501  502  0.00000000000E+00  0.00000000000E+00  0.79972095676E+02  0.79972095676E+02  0.00000000000E+00 0.  1.
          3   -1    0    0  502    0 -0.00000000000E+00 -0.00000000000E+00 -0.38736570344E+03  0.38736570344E+03  0.00000000000E+00 0. -1.
         23    2    1    2    0    0 -0.32242774712E+02  0.28132775657E+02 -0.30618095622E+03  0.32237834209E+03  0.91378158806E+02 0.  0.
        -24    2    1    2    0    0  0.48758502120E+02 -0.44982440656E+02  0.27854967896E+02  0.10752141538E+03  0.79900838753E+02 0.  0.
         11    1    4    4    0    0  0.65347782476E+02 -0.11974081538E+02  0.22775224779E+02  0.70231205080E+02  0.00000000000E+00 0. -1.
        -12    1    4    4    0    0 -0.16589280356E+02 -0.33008359118E+02  0.50797431173E+01  0.37290210305E+02  0.00000000000E+00 0.  1.
        -13    1    3    3    0    0 -0.50231981221E+02  0.48494866652E+02 -0.25556369190E+03  0.26492981079E+03  0.00000000000E+00 0. -1.
         13    1    3    3    0    0  0.17989206509E+02 -0.20362090995E+02 -0.50617264325E+02  0.57448531298E+02  0.00000000000E+00 0.  1.
          4    1    1    2  501    0 -0.16515727407E+02  0.16849664999E+02 -0.29067619441E+02  0.37438041647E+02  0.00000000000E+00 0. -1.
<scales pt_clust_5="13000.00000" pt_clust_6="13000.00000" pt_clust_7="13000.00000" pt_clust_8="13000.00000" pt_clust_9="23.59409"></scales>
<clustering>
<clus scale="   23.594">  1  9  2 -1</clus>
<clus scale="   79.901">  5  6 -1 -1</clus>
<clus scale="   91.378">  7  8 -1 -1</clus>
<clus scale="   91.851">  1  5  2 -1</clus>
<clus scale="   23.594">  1  5  2 -1</clus>
</clustering>
</event>
<event>
 9    1  0.6345107E-005  0.1206524E+03  0.7546771E-02  0.1246615E+00
         21   -1    0    0  501  502  0.00000000000E+00  0.00000000000E+00  0.74354613618E+03  0.74354613618E+03  0.00000000000E+00 0.  1.
          3   -1    0    0  502    0 -0.00000000000E+00 -0.00000000000E+00 -0.14266626951E+03  0.14266626951E+03  0.00000000000E+00 0. -1.
        -24    2    1    2    0    0  0.16755039916E+02 -0.77760303958E+02 -0.10818614874E+03  0.15394866806E+03  0.75289796016E+02 0.  0.
         23    2    1    2    0    0  0.22050482651E+02  0.10128224184E+03  0.52252833321E+03  0.54028598625E+03  0.90159700728E+02 0.  0.
         13    1    3    3    0    0 -0.26141786568E+02 -0.54748352629E+02 -0.55654703760E+02  0.82329953062E+02  0.00000000000E+00 0. -1.
        -14    1    3    3    0    0  0.42896826484E+02 -0.23011951329E+02 -0.52531444977E+02  0.71618714997E+02  0.00000000000E+00 0.  1.
        -13    1    4    4    0    0 -0.24152705495E+02  0.70652238368E+02  0.38181320918E+03  0.38904552263E+03  0.00000000000E+00 0. -1.
         13    1    4    4    0    0  0.46203188146E+02  0.30630003474E+02  0.14071512403E+03  0.15124046362E+03  0.00000000000E+00 0.  1.
          4    1    1    2  501    0 -0.38805522567E+02 -0.23521937884E+02  0.18653768220E+03  0.19197775138E+03  0.00000000000E+00 0. -1.
<scales pt_clust_5="13000.00000" pt_clust_6="13000.00000" pt_clust_7="13000.00000" pt_clust_8="13000.00000" pt_clust_9="45.37786"></scales>
<clustering>
<clus scale="   45.378">  1  9  2 -1</clus>
<clus scale="   75.290">  5  6 -1 -1</clus>
<clus scale="   90.160">  7  8 -1 -1</clus>
<clus scale="  109.985">  2  5  1 -1</clus>
<clus scale="   45.378">  1  5  2 -1</clus>
</clustering>
</event>
<event>
 9    1  0.6345107E-005  0.1207929E+03  0.7546771E-02  0.1245537E+00
          1   -1    0    0  502    0 -0.00000000000E+00  0.00000000000E+00  0.14370735523E+03  0.14370735523E+03  0.00000000000E+00 0. -1.
         21   -1    0    0  501  502  0.00000000000E+00 -0.00000000000E+00 -0.19489773790E+03  0.19489773790E+03  0.00000000000E+00 0.  1.
         23    2    1    2    0    0  0.40031067869E+02 -0.51782313261E+02  0.20319481434E+02  0.11449602233E+03  0.91720027482E+02 0.  0.
        -24    2    1    2    0    0 -0.99248838666E+02  0.35711337497E+02 -0.32140182245E+01  0.13229761616E+03  0.79791589325E+02 0.  0.
         11    1    4    4    0    0 -0.53253096000E+02  0.58195133057E+02  0.97534638705E+01  0.79483934242E+02  0.00000000000E+00 0. -1.
        -12    1    4    4    0    0 -0.45995742666E+02 -0.22483795561E+02 -0.12967482095E+02  0.52813681921E+02  0.00000000000E+00 0.  1.
        -13    1    3    3    0    0  0.16941280826E+02 -0.50953173208E+02  0.52356806486E+02  0.74996453526E+02  0.00000000000E+00 0. -1.
         13    1    3    3    0    0  0.23089787043E+02 -0.82914005381E+00 -0.32037325052E+02  0.39499568800E+02  0.00000000000E+00 0.  1.
          2    1    1    2  501    0  0.59217770797E+02  0.16070975765E+02 -0.68295845874E+02  0.91811454644E+02  0.00000000000E+00 0. -1.
<scales pt_clust_5="13000.00000" pt_clust_6="13000.00000" pt_clust_7="13000.00000" pt_clust_8="13000.00000" pt_clust_9="61.35976"></scales>
<clustering>
<clus scale="   61.360">  2  9  1 -1</clus>
<clus scale="   79.792">  5  6 -1 -1</clus>
<clus scale="   91.720">  7  8 -1 -1</clus>
<clus scale="  112.005">  2  5  1 -1</clus>
<clus scale="   61.360">  2  5  1 -1</clus>
</clustering>
</event>
<event>
 9    1  0.6345107E-005  0.1217513E+03  0.7546771E-02  0.1243370E+00
          1   -1    0    0  502    0 -0.00000000000E+00  0.00000000000E+00  0.97344890843E+03  0.97344890843E+03  0.00000000000E+00 0. -1.
         21   -1    0    0  501  502  0.00000000000E+00 -0.00000000000E+00 -0.42682304206E+02  0.42682304206E+02  0.00000000000E+00 0. -1.
        -24    2    1    2    0    0  0.69375142588E+02  0.62998389600E+01  0.52183777148E+03  0.53259275989E+03  0.80546817219E+02 0.  0.
         23    2    1    2    0    0 -0.12141051366E+03  0.61685630740E+02  0.32365608240E+03  0.36270325140E+03  0.90855704468E+02 0.  0.
         11    1    3    3    0    0  0.81440695528E+02  0.64192980601E+01  0.31558183063E+03  0.32598418075E+03  0.00000000000E+00 0. -1.
        -12    1    3    3    0    0 -0.12065552940E+02 -0.11945910012E+00  0.20625594085E+03  0.20660857914E+03  0.00000000000E+00 0.  1.
        -11    1    4    4    0    0 -0.93713161431E+02 -0.63197476573E+00  0.16030546482E+03  0.18568898209E+03  0.00000000000E+00 0.  1.
         11    1    4    4    0    0 -0.27697352231E+02  0.62317605505E+02  0.16335061758E+03  0.17701426932E+03  0.00000000000E+00 0. -1.
          2    1    1    2  501    0  0.52035371073E+02 -0.67985469700E+02  0.85272750341E+02  0.12083520134E+03  0.00000000000E+00 0. -1.
<scales pt_clust_5="13000.00000" pt_clust_6="13000.00000" pt_clust_7="13000.00000" pt_clust_8="13000.00000" pt_clust_9="85.61369"></scales>
<clustering>
<clus scale="   80.547">  5  6 -1 -1</clus>
<clus scale="   85.614">  2  9  1 -1</clus>
<clus scale="   90.856">  7  8 -1 -1</clus>
<clus scale="  114.265">  1  5  2 -1</clus>
<clus scale="   85.614">  2  5  1 -1</clus>
</clustering>
</event>
<event>
 9    1  0.6345107E-005  0.1400087E+03  0.7546771E-02  0.1233311E+00
         -2   -1    0    0    0  501 -0.00000000000E+00  0.00000000000E+00  0.11230137773E+03  0.11230137773E+03  0.00000000000E+00 0.  1.
         21   -1    0    0  501  502  0.00000000000E+00 -0.00000000000E+00 -0.31735607257E+03  0.31735607257E+03  0.00000000000E+00 0.  1.
        -24    2    1    2    0    0  0.11267204204E+02 -0.43144086811E+02  0.16202843242E+02  0.93634761195E+02  0.80725301224E+02 0.  0.
         23    2    1    2    0    0  0.94571989768E+02  0.60032855828E+02 -0.14761314116E+03  0.20598168520E+03  0.89950042617E+02 0.  0.
         13    1    3    3    0    0 -0.22419478282E+02 -0.43036884117E+02 -0.11672185051E+02  0.49910382736E+02  0.00000000000E+00 0. -1.
        -14    1    3    3    0    0  0.33686682486E+02 -0.10720269400E+00  0.27875028293E+02  0.43724378460E+02  0.00000000000E+00 0.  1.
        -11    1    4    4    0    0  0.80233148478E+02  0.32139837379E+02 -0.15145791358E+03  0.17438413589E+03  0.00000000000E+00 0.  1.
         11    1    4    4    0    0  0.14338841290E+02  0.27893018449E+02  0.38447724215E+01  0.31597549315E+02  0.00000000000E+00 0. -1.
         -1    1    1    2    0  502 -0.10583919397E+03 -0.16888769017E+02 -0.73644396916E+02  0.13004100391E+03  0.00000000000E+00 0.  1.
<scales pt_clust_5="13000.00000" pt_clust_6="13000.00000" pt_clust_7="13000.00000" pt_clust_8="13000.00000" pt_clust_9="107.29138"></scales>
<clustering>
<clus scale="   80.725">  5  6 -1 -1</clus>
<clus scale="   89.950">  7  8 -1 -1</clus>
<clus scale="   92.222">  1  5  2 -1</clus>
<clus scale="  107.291">  2  9  1 -1</clus>
<clus scale="  107.291">  2  5  1 -1</clus>
</clustering>
</event>
<event>
 9    1  0.6345107E-005  0.1769316E+03  0.7546771E-02  0.1172412E+00
          3   -1    0    0  502    0 -0.00000000000E+00  0.00000000000E+00  0.90568667744E+02  0.90568667744E+02  0.00000000000E+00 0. -1.
         21   -1    0    0  501  502  0.00000000000E+00 -0.00000000000E+00 -0.42191671139E+03  0.42191671139E+03  0.00000000000E+00 0. -1.
         23    2    1    2    0    0  0.14710488864E+03 -0.16898662218E+02 -0.78117816290E+02  0.19102349711E+03  0.91990054790E+02 0.  0.
        -24    2    1    2    0    0 -0.15772127850E+03 -0.18518491124E+01 -0.22368175367E+03  0.28489137880E+03  0.79057825366E+02 0.  0.
         13    1    4    4    0    0 -0.14309286820E+03  0.25566054248E+02 -0.18458373997E+03  0.23494754547E+03  0.00000000000E+00 0. -1.
        -14    1    4    4    0    0 -0.14628410302E+02 -0.27417903360E+02 -0.39098013697E+02  0.49943833330E+02  0.00000000000E+00 0.  1.
        -13    1    3    3    0    0  0.10402715403E+02  0.19634461203E+02 -0.37876272940E+02  0.43912875177E+02  0.00000000000E+00 0.  1.
         13    1    3    3    0    0  0.13670217324E+03 -0.36533123421E+02 -0.40241543350E+02  0.14711062194E+03  0.00000000000E+00 0. -1.
          4    1    1    2  501    0  0.10616389859E+02  0.18750511330E+02 -0.29548473685E+02  0.36570503222E+02  0.00000000000E+00 0. -1.
<scales pt_clust_5="13000.00000" pt_clust_6="13000.00000" pt_clust_7="13000.00000" pt_clust_8="13000.00000" pt_clust_9="21.54738"></scales>
<clustering>
<clus scale="   21.547">  2  9  1 -1</clus>
<clus scale="   79.058">  5  6 -1 -1</clus>
<clus scale="   91.990">  7  8 -1 -1</clus>
<clus scale="  170.566">  2  5  1 -1</clus>
<clus scale="   21.547">  2  5  1 -1</clus>
</clustering>
</event>
<event>
 9    1  0.6345107E-005  0.8285189E+02  0.7546771E-02  0.1326345E+00
         21   -1    0    0  501  502  0.00000000000E+00  0.00000000000E+00  0.21154661061E+02  0.21154661061E+02  0.00000000000E+00 0.  1.
          1   -1    0    0  502    0 -0.00000000000E+00 -0.00000000000E+00 -0.75825135182E+03  0.75825135182E+03  0.00000000000E+00 0. -1.
         23    2    1    2    0    0  0.36354734317E+01  0.23665294551E+02 -0.17890522269E+03  0.19482179317E+03  0.73315684250E+02 0.  0.
        -24    2    1    2    0    0 -0.37346018282E+02  0.23447524765E+02 -0.18205272437E+03  0.20401047772E+03  0.80824309893E+02 0.  0.
         13    1    4    4    0    0 -0.12003311147E+02 -0.28159949778E+02 -0.93916499652E+02  0.98779406542E+02  0.00000000000E+00 0. -1.
        -14    1    4    4    0    0 -0.25342707135E+02  0.51607474543E+02 -0.88136224722E+02  0.10523107118E+03  0.00000000000E+00 0.  1.
        -13    1    3    3    0    0  0.26251710719E+02  0.16034477168E+02 -0.16360113881E+03  0.16646798309E+03  0.00000000000E+00 0. -1.
         13    1    3    3    0    0 -0.22616237287E+02  0.76308173824E+01 -0.15304083876E+02  0.28353810083E+02  0.00000000000E+00 0.  1.
          2    1    1    2  501    0  0.33710544851E+02 -0.47112819316E+02 -0.37613874370E+03  0.38057374199E+03  0.00000000000E+00 0. -1.
<scales pt_clust_5="13000.00000" pt_clust_6="13000.00000" pt_clust_7="13000.00000" pt_clust_8="13000.00000" pt_clust_9="57.93118"></scales>
<clustering>
<clus scale="   57.931">  1  9  2 -1</clus>
<clus scale="   73.316">  7  8 -1 -1</clus>
<clus scale="   75.545">  2  7  1 -1</clus>
<clus scale="   80.824">  5  6 -1 -1</clus>
<clus scale="   57.931">  1  5  2 -1</clus>
</clustering>
</event>
<event>
 9    1  0.6345107E-005  0.1486798E+03  0.7546771E-02  0.1212535E+00
         21   -1    0    0  501  502  0.00000000000E+00  0.00000000000E+00  0.94089647758E+02  0.94089647758E+02  0.00000000000E+00 0. -1.
         -4   -1    0    0    0  501 -0.00000000000E+00 -0.00000000000E+00 -0.47331282524E+03  0.47331282524E+03  0.00000000000E+00 0.  1.
         23    2    1    2    0    0  0.60036329785E+02  0.44470190269E+02 -0.60535907775E+02  0.13340008824E+03  0.92460957678E+02 0.  0.
        -24    2    1    2    0    0 -0.16476877617E+02  0.10762298812E+03 -0.12269403498E+03  0.18212322952E+03  0.79125529646E+02 0.  0.
         11    1    4    4    0    0 -0.40435002274E+02  0.67738565338E+02 -0.43014292496E+02  0.89853948171E+02  0.00000000000E+00 0. -1.
        -12    1    4    4    0    0  0.23958124657E+02  0.39884422787E+02 -0.79679742486E+02  0.92269281349E+02  0.00000000000E+00 0.  1.
        -13    1    3    3    0    0 -0.20347451676E+02  0.19151489863E+02 -0.36102340692E+02  0.45652791340E+02  0.00000000000E+00 0. -1.
         13    1    3    3    0    0  0.80383781461E+02  0.25318700406E+02 -0.24433567084E+02  0.87747296897E+02  0.00000000000E+00 0.  1.
         -3    1    1    2    0  502 -0.43559452168E+02 -0.15209317839E+03 -0.19599323472E+03  0.25187915524E+03  0.00000000000E+00 0.  1.
<scales pt_clust_5="13000.00000" pt_clust_6="13000.00000" pt_clust_7="13000.00000" pt_clust_8="13000.00000" pt_clust_9="125.87632"></scales>
<clustering>
<clus scale="   79.126">  5  6 -1 -1</clus>
<clus scale="   92.461">  7  8 -1 -1</clus>
<clus scale="  118.874">  2  7  1 -1</clus>
<clus scale="  125.876">  1  9  2 -1</clus>
<clus scale="  125.876">  1  5  2 -1</clus>
</clustering>
</event>
<event>
 9    1  0.6345107E-005  0.1041818E+03  0.7546771E-02  0.1280371E+00
         21   -1    0    0  501  502  0.00000000000E+00  0.00000000000E+00  0.19347287379E+03  0.19347287379E+03  0.00000000000E+00 0.  1.
         -2   -1    0    0    0  501 -0.00000000000E+00 -0.00000000000E+00 -0.34330058167E+03  0.34330058167E+03  0.00000000000E+00 0.  1.
        -24    2    1    2    0    0 -0.12523670483E+02 -0.38707688450E+02 -0.19921165961E+03  0.21624955552E+03  0.73644127195E+02 0.  0.
         23    2    1    2    0    0  0.31329439524E+02  0.66671557278E+02 -0.10779940536E+03  0.15976867405E+03  0.92079786506E+02 0.  0.
         13    1    3    3    0    0 -0.35732646112E+02  0.39394902369E-01 -0.59358050376E+02  0.69283487893E+02  0.00000000000E+00 0. -1.
        -14    1    3    3    0    0  0.23208975629E+02 -0.38747083352E+02 -0.13985360923E+03  0.14696606763E+03  0.00000000000E+00 0.  1.
        -11    1    4    4    0    0  0.51550593655E+02  0.65784547010E+02 -0.11134276337E+03  0.13922026176E+03  0.00000000000E+00 0.  1.
         11    1    4    4    0    0 -0.20221154131E+02  0.88701026873E+00  0.35433580122E+01  0.20548412289E+02  0.00000000000E+00 0. -1.
         -1    1    1    2    0  502 -0.18805769041E+02 -0.27963868828E+02  0.15718335708E+03  0.16075522589E+03  0.00000000000E+00 0.  1.
<scales pt_clust_5="13000.00000" pt_clust_6="13000.00000" pt_clust_7="13000.00000" pt_clust_8="13000.00000" pt_clust_9="33.69918"></scales>
<clustering>
<clus scale="   33.699">  1  9  2 -1</clus>
<clus scale="   73.644">  5  6 -1 -1</clus>
<clus scale="   88.310">  2  5  1 -1</clus>
<clus scale="   92.080">  7  8 -1 -1</clus>
<clus scale="   33.699">  1  5  2 -1</clus>
</clustering>
</event>
<event>
 9    1  0.6345107E-005  0.2476371E+03  0.7546771E-02  0.1131325E+00
         21   -1    0    0  501  502  0.00000000000E+00  0.00000000000E+00  0.91046188247E+03  0.91046188247E+03  0.00000000000E+00 0. -1.
          1   -1    0    0  502    0 -0.00000000000E+00 -0.00000000000E+00 -0.13490864501E+03  0.13490864501E+03  0.00000000000E+00 0. -1.
        -24    2    1    2    0    0  0.12133049209E+03  0.76986698973E+02  0.39333272940E+03  0.42623445810E+03  0.79480419769E+02 0.  0.
         23    2    1    2    0    0  0.25562454356E+02  0.16089842584E+03  0.12255384550E+03  0.23756871496E+03  0.12197420534E+03 0.  0.
         13    1    3    3    0    0  0.51593606633E+02  0.37865859766E+02  0.28195095802E+03  0.28912292595E+03  0.00000000000E+00 0. -1.
        -14    1    3    3    0    0  0.69736885455E+02  0.39120839207E+02  0.11138177138E+03  0.13711153215E+03  0.00000000000E+00 0.  1.
        -11    1    4    4    0    0  0.40742460234E+02  0.17659327786E+03  0.11407516401E+03  0.21414545732E+03  0.00000000000E+00 0. -1.
         11    1    4    4    0    0 -0.15180005878E+02 -0.15694852014E+02  0.84786814944E+01  0.23423257632E+02  0.00000000000E+00 0.  1.
          2    1    1    2  501    0 -0.14689294644E+03 -0.23788512481E+03  0.25966666256E+03  0.38156735443E+03  0.00000000000E+00 0. -1.
<scales pt_clust_5="13000.00000" pt_clust_6="13000.00000" pt_clust_7="13000.00000" pt_clust_8="13000.00000" pt_clust_9="215.51444"></scales>
<clustering>
<clus scale="   79.480">  5  6 -1 -1</clus>
<clus scale="  121.974">  7  8 -1 -1</clus>
<clus scale="  164.211">  2  5  1 -1</clus>
<clus scale="  215.514">  1  9  2 -1</clus>
<clus scale="  215.514">  1  5  2 -1</clus>
</clustering>
</event>
<event>
 9    1  0.6345107E-005  0.8563220E+02  0.7546771E-02  0.1315919E+00
          1   -1    0    0  502    0 -0.00000000000E+00  0.00000000000E+00  0.30007644328E+03  0.30007644328E+03  0.00000000000E+00 0. -1.
         21   -1    0    0  501  502  0.00000000000E+00 -0.00000000000E+00 -0.53924621143E+02  0.53924621143E+02  0.00000000000E+00 0.  1.
         23    2    1    2    0    0  0.81688295241E+01  0.14843475663E+02  0.20784386345E+03  0.22460194283E+03  0.83426030727E+02 0.  0.
        -24    2    1    2    0    0 -0.37336671425E+02 -0.99085366116E+01  0.11875282898E+02  0.89727935906E+02  0.80111634656E+02 0.  0.
         11    1    4    4    0    0 -0.29416116808E+02 -0.39724117686E+02  0.25940512944E+02  0.55823146326E+02  0.00000000000E+00 0. -1.
        -12    1    4    4    0    0 -0.79205546166E+01  0.29815581074E+02 -0.14065230046E+02  0.33904789580E+02  0.00000000000E+00 0.  1.
        -13    1    3    3    0    0  0.37412688546E+02  0.21775344573E+02  0.61520589249E+02  0.75224050656E+02  0.00000000000E+00 0.  1.
         13    1    3    3    0    0 -0.29243859021E+02 -0.69318689104E+01  0.14632327420E+03  0.14937789217E+03  0.00000000000E+00 0. -1.
          2    1    1    2  501    0  0.29167841901E+02 -0.49349390515E+01  0.26432675788E+02  0.39671185688E+02  0.00000000000E+00 0. -1.
<scales pt_clust_5="13000.00000" pt_clust_6="13000.00000" pt_clust_7="13000.00000" pt_clust_8="13000.00000" pt_clust_9="29.58237"></scales>
<clustering>
<clus scale="   29.582">  2  9  1 -1</clus>
<clus scale="   80.112">  5  6 -1 -1</clus>
<clus scale="   82.407">  2  5  1 -1</clus>
<clus scale="   83.426">  7  8 -1 -1</clus>
<clus scale="   29.582">  2  5  1 -1</clus>
</clustering>
</event>
<event>
 9    1  0.6345107E-005  0.1124518E+03  0.7546771E-02  0.1260958E+00
          1   -1    0    0  502    0 -0.00000000000E+00  0.00000000000E+00  0.40245504119E+03  0.40245504119E+03  0.00000000000E+00 0. -1.
         21   -1    0    0  501  502  0.00000000000E+00 -0.00000000000E+00 -0.60592308274E+02  0.60592308274E+02  0.00000000000E+00 0. -1.
         23    2    1    2    0    0 -0.26437478219E+02  0.60723799898E+02  0.29299332695E+03  0.31416805483E+03  0.92033455389E+02 0.  0.
        -24    2    1    2    0    0  0.43223920325E+02 -0.46030197630E+02  0.65902089668E+02  0.12081153911E+03  0.79153371237E+02 0.  0.
         13    1    4    4    0    0  0.33725026136E+02  0.16780482103E+02  0.22533845422E+02  0.43894602823E+02  0.00000000000E+00 0. -1.
        -14    1    4    4    0    0  0.94988941895E+01 -0.62810679733E+02  0.43368244246E+02  0.76916936291E+02  0.00000000000E+00 0.  1.
        -11    1    3    3    0    0 -0.42159768736E+02  0.76707679132E+01  0.54443704434E+02  0.69284945932E+02  0.00000000000E+00 0.  1.
         11    1    3    3    0    0  0.15722290518E+02  0.53053031985E+02  0.23854962251E+03  0.24488310890E+03  0.00000000000E+00 0. -1.
          2    1    1    2  501    0 -0.16786442107E+02 -0.14693602268E+02 -0.17032683698E+02  0.28067755524E+02  0.00000000000E+00 0. -1.
<scales pt_clust_5="13000.00000" pt_clust_6="13000.00000" pt_clust_7="13000.00000" pt_clust_8="13000.00000" pt_clust_9="22.30889"></scales>
<clustering>
<clus scale="   22.309">  2  9  1 -1</clus>
<clus scale="   79.153">  5  6 -1 -1</clus>
<clus scale="   92.033">  7  8 -1 -1</clus>
<clus scale="  102.179">  2  5  1 -1</clus>
<clus scale="   22.309">  2  5  1 -1</clus>
</clustering>
</event>
<event>
 9    1  0.6345107E-005  0.1163650E+03  0.7546771E-02  0.1255514E+00
         21   -1    0    0  501  502  0.00000000000E+00  0.00000000000E+00  0.40027728428E+02  0.40027728428E+02  0.00000000000E+00 0.  1.
         -4   -1    0    0    0  501 -0.00000000000E+00 -0.00000000000E+00 -0.59870384347E+03  0.59870384347E+03  0.00000000000E+00 0.  1.
        -24    2    1    2    0    0  0.40618315941E+02 -0.31983106510E+02 -0.27587613364E+03  0.29158414985E+03  0.78999421771E+02 0.  0.
         23    2    1    2    0    0 -0.63312691011E+02  0.69989031557E+02 -0.26888233984E+03  0.30074498951E+03  0.96139870286E+02 0.  0.
         13    1    3    3    0    0  0.22977396573E+02 -0.29773840645E+02 -0.39501401695E+02  0.54541755343E+02  0.00000000000E+00 0. -1.
        -14    1    3    3    0    0  0.17640919368E+02 -0.22092658647E+01 -0.23637473195E+03  0.23704239451E+03  0.00000000000E+00 0.  1.
        -13    1    4    4    0    0  0.14731325834E+02  0.38588566062E+02 -0.14669192065E+03  0.15239622363E+03  0.00000000000E+00 0.  1.
         13    1    4    4    0    0 -0.78044016845E+02  0.31400465495E+02 -0.12219041919E+03  0.14834876589E+03  0.00000000000E+00 0. -1.
         -3    1    1    2    0  502  0.22694375070E+02 -0.38005925047E+02 -0.13917641562E+02  0.46402432535E+02  0.00000000000E+00 0.  1.
<scales pt_clust_5="13000.00000" pt_clust_6="13000.00000" pt_clust_7="13000.00000" pt_clust_8="13000.00000" pt_clust_9="44.26607"></scales>
<clustering>
<clus scale="   44.266">  1  9  2 -1</clus>
<clus scale="   78.999">  5  6 -1 -1</clus>
<clus scale="   96.140">  7  8 -1 -1</clus>
<clus scale="  102.659">  2  5  1 -1</clus>
<clus scale="   44.266">  1  5  2 -1</clus>
</clustering>
</event>
<event>
 9    1  0.6345107E-005  0.9585714E+02  0.7546771E-02  0.1299776E+00
         -4   -1    0    0    0  501 -0.00000000000E+00  0.00000000000E+00  0.21638966202E+03  0.21638966202E+03  0.00000000000E+00 0.  1.
         21   -1    0    0  501  502  0.00000000000E+00 -0.00000000000E+00 -0.10342074110E+03  0.10342074110E+03  0.00000000000E+00 0.  1.
         23    2    1    2    0    0  0.32634218120E+02 -0.21708854815E+02  0.13213351912E+03  0.16536150857E+03  0.91372288324E+02 0.  0.
        -24    2    1    2    0    0  0.32818684301E+01  0.24322680032E+02  0.38577564558E+02  0.86397776156E+02  0.73307460828E+02 0.  0.
         13    1    4    4    0    0 -0.31621675297E+02  0.22913154624E+02  0.77582805781E+01  0.39813740353E+02  0.00000000000E+00 0. -1.
        -14    1    4    4    0    0  0.34903543727E+02  0.14095254082E+01  0.30819283980E+02  0.46584035802E+02  0.00000000000E+00 0.  1.
        -11    1    3    3    0    0  0.53692795571E+02  0.16178232445E+02  0.74211121234E+02  0.93015815946E+02  0.00000000000E+00 0.  1.
         11    1    3    3    0    0 -0.21058577450E+02 -0.37887087259E+02  0.57922397881E+02  0.72345692626E+02  0.00000000000E+00 0. -1.
         -3    1    1    2    0  502 -0.35916086550E+02 -0.26138252176E+01 -0.57742162752E+02  0.68051118394E+02  0.00000000000E+00 0.  1.
<scales pt_clust_5="13000.00000" pt_clust_6="13000.00000" pt_clust_7="13000.00000" pt_clust_8="13000.00000" pt_clust_9="36.01107"></scales>
<clustering>
<clus scale="   36.011">  2  9  1 -1</clus>
<clus scale="   73.307">  5  6 -1 -1</clus>
<clus scale="   78.827">  2  5  1 -1</clus>
<clus scale="   91.372">  7  8 -1 -1</clus>
<clus scale="   36.011">  2  5  1 -1</clus>
</clustering>
</event>
<event>
 9    1  0.6345107E-005  0.9421640E+02  0.7546771E-02  0.1298971E+00
          1   -1    0    0  502    0 -0.00000000000E+00  0.00000000000E+00  0.45891707722E+03  0.45891707722E+03  0.00000000000E+00 0. -1.
         21   -1    0    0  501  502  0.00000000000E+00 -0.00000000000E+00 -0.28878304858E+02  0.28878304858E+02  0.00000000000E+00 0. -1.
        -24    2    1    2    0    0  0.16343420707E+02  0.25511582783E+02  0.18167443519E+03  0.20084309103E+03  0.80089940425E+02 0.  0.
         23    2    1    2    0    0 -0.34896743879E+02  0.12274266133E+02  0.20142716636E+03  0.22390394307E+03  0.90507635204E+02 0.  0.
         13    1    3    3    0    0  0.20287319995E+02  0.47440373543E+02  0.16537494881E+03  0.17323694204E+03  0.00000000000E+00 0. -1.
        -14    1    3    3    0    0 -0.39438992874E+01 -0.21928790760E+02  0.16299486381E+02  0.27606148990E+02  0.00000000000E+00 0.  1.
        -11    1    4    4    0    0 -0.20050948412E+02 -0.28593598618E+02  0.27011959200E+02  0.44150655194E+02  0.00000000000E+00 0. -1.
         11    1    4    4    0    0 -0.14845795467E+02  0.40867864752E+02  0.17441520716E+03  0.17975328788E+03  0.00000000000E+00 0.  1.
          2    1    1    2  501    0  0.18553323172E+02 -0.37785848917E+02  0.46937170810E+02  0.63048347978E+02  0.00000000000E+00 0. -1.
<scales pt_clust_5="13000.00000" pt_clust_6="13000.00000" pt_clust_7="13000.00000" pt_clust_8="13000.00000" pt_clust_9="42.09508"></scales>
<clustering>
<clus scale="   42.095">  2  9  1 -1</clus>
<clus scale="   80.090">  5  6 -1 -1</clus>
<clus scale="   84.259">  1  5  2 -1</clus>
<clus scale="   90.508">  7  8 -1 -1</clus>
<clus scale="   42.095">  2  5  1 -1</clus>
</clustering>
</event>
<event>
 9    1  0.6345107E-005  0.1156843E+03  0.7546771E-02  0.1254208E+00
          3   -1    0    0  502    0 -0.00000000000E+00  0.00000000000E+00  0.57368956764E+02  0.57368956764E+02  0.00000000000E+00 0. -1.
         21   -1    0    0  501  502  0.00000000000E+00 -0.00000000000E+00 -0.40054079540E+03  0.40054079540E+03  0.00000000000E+00 0.  1.
         23    2    1    2    0    0 -0.24768172662E+02 -0.74952403633E+02 -0.39237006104E+02  0.12693237387E+03  0.91328854696E+02 0.  0.
        -24    2    1    2    0    0  0.82573453252E+01  0.52375677211E+02 -0.18213581228E+03  0.20600811276E+03  0.80339859919E+02 0.  0.
         13    1    4    4    0    0  0.19973979716E+02 -0.15408848417E+02 -0.31101921570E+02  0.40046497981E+02  0.00000000000E+00 0. -1.
        -14    1    4    4    0    0 -0.11716634391E+02  0.67784525628E+02 -0.15103389071E+03  0.16596161478E+03  0.00000000000E+00 0.  1.
        -13    1    3    3    0    0  0.96719173339E+01 -0.65850355770E+02 -0.56539546182E+02  0.87330038489E+02  0.00000000000E+00 0.  1.
         13    1    3    3    0    0 -0.34440089996E+02 -0.91020478630E+01  0.17302540079E+02  0.39602335378E+02  0.00000000000E+00 0. -1.
          4    1    1    2  501    0  0.16510827337E+02  0.22576726422E+02 -0.12179902025E+03  0.12496926554E+03  0.00000000000E+00 0. -1.
<scales pt_clust_5="13000.00000" pt_clust_6="13000.00000" pt_clust_7="13000.00000" pt_clust_8="13000.00000" pt_clust_9="27.96991"></scales>
<clustering>
<clus scale="   27.970">  2  9  1 -1</clus>
<clus scale="   80.340">  5  6 -1 -1</clus>
<clus scale="   91.329">  7  8 -1 -1</clus>
<clus scale="  107.221">  2  5  1 -1</clus>
<clus scale="   27.970">  2  5  1 -1</clus>
</clustering>
</event>
<event>
 9    1  0.6345107E-005  0.1493233E+03  0.7546771E-02  0.1225166E+00
          1   -1    0    0  502    0 -0.00000000000E+00  0.00000000000E+00  0.52384560679E+03  0.52384560679E+03  0.00000000000E+00 0. -1.
         21   -1    0    0  501  502  0.00000000000E+00 -0.00000000000E+00 -0.10587012236E+03  0.10587012236E+03  0.00000000000E+00 0. -1.
        -24    2    1    2    0    0  0.40638694000E+02  0.76764072388E+00  0.28206654916E+03  0.29606469589E+03  0.80253805362E+02 0.  0.
         23    2    1    2    0    0  0.29154929856E+02  0.10992988232E+03  0.15259966686E+01  0.14607740579E+03  0.91660737806E+02 0.  0.
         13    1    3    3    0    0  0.38710720355E+02  0.24021543105E+02  0.25996001952E+03  0.26392189403E+03  0.00000000000E+00 0. -1.
        -14    1    3    3    0    0  0.19279736449E+01 -0.23253902381E+02  0.22106529647E+02  0.32142801859E+02  0.00000000000E+00 0.  1.
        -13    1    4    4    0    0 -0.11913752963E+02  0.93002737181E+02  0.23289904674E+02  0.96611936595E+02  0.00000000000E+00 0. -1.
         13    1    4    4    0    0  0.41068682819E+02  0.16927145136E+02 -0.21763908006E+02  0.49465469195E+02  0.00000000000E+00 0.  1.
          2    1    1    2  501    0 -0.69793623856E+02 -0.11069752304E+03  0.13438293859E+03  0.18757362747E+03  0.00000000000E+00 0. -1.
<scales pt_clust_5="13000.00000" pt_clust_6="13000.00000" pt_clust_7="13000.00000" pt_clust_8="13000.00000" pt_clust_9="117.88038"></scales>
<clustering>
<clus scale="   80.254">  5  6 -1 -1</clus>
<clus scale="   89.960">  1  5  2 -1</clus>
<clus scale="   91.661">  7  8 -1 -1</clus>
<clus scale="  117.880">  2  9  1 -1</clus>
<clus scale="  117.880">  2  5  1 -1</clus>
</clustering>
</event>
<event>
 9    1  0.6345107E-005  0.1043311E+03  0.7546771E-02  0.1276836E+00
          1   -1    0    0  502    0 -0.00000000000E+00  0.00000000000E+00  0.81029036951E+02  0.81029036951E+02  0.00000000000E+00 0. -1.
         21   -1    0    0  501  502  0.00000000000E+00 -0.00000000000E+00 -0.20769349015E+03  0.20769349015E+03  0.00000000000E+00 0.  1.
         23    2    1    2    0    0  0.43513803924E+02  0.37858588740E+02 -0.10983803039E+02  0.10876781250E+03  0.91559102412E+02 0.  0.
        -24    2    1    2    0    0 -0.12465544160E+01 -0.48761346862E+02 -0.69643421204E+02  0.11651326942E+03  0.79661238937E+02 0.  0.
         11    1    4    4    0    0  0.39021000762E+02 -0.27585324235E+02 -0.38690976984E+02  0.61486423815E+02  0.00000000000E+00 0. -1.
        -12    1    4    4    0    0 -0.40267555178E+02 -0.21176022628E+02 -0.30952444220E+02  0.55026845608E+02  0.00000000000E+00 0.  1.
        -13    1    3    3    0    0  0.67328812343E+02  0.33363344147E+02  0.11127549413E+02  0.75961201018E+02  0.00000000000E+00 0. -1.
         13    1    3    3    0    0 -0.23815008419E+02  0.44952445924E+01 -0.22111352451E+02  0.32806611486E+02  0.00000000000E+00 0.  1.
          2    1    1    2  501    0 -0.42267249508E+02  0.10902758123E+02 -0.46037228951E+02  0.63441445169E+02  0.00000000000E+00 0. -1.
<scales pt_clust_5="13000.00000" pt_clust_6="13000.00000" pt_clust_7="13000.00000" pt_clust_8="13000.00000" pt_clust_9="43.65078"></scales>
<clustering>
<clus scale="   43.651">  2  9  1 -1</clus>
<clus scale="   79.661">  5  6 -1 -1</clus>
<clus scale="   91.559">  7  8 -1 -1</clus>
<clus scale="   94.063">  2  5  1 -1</clus>
<clus scale="   43.651">  2  5  1 -1</clus>
</clustering>
</event>
<event>
 9    1  0.6345107E-005  0.2129160E+03  0.7546771E-02  0.1180615E+00
          1   -1    0    0  502    0 -0.00000000000E+00  0.00000000000E+00  0.43648798922E+03  0.43648798922E+03  0.00000000000E+00 0. -1.
         21   -1    0    0  501  502  0.00000000000E+00 -0.00000000000E+00 -0.13816978819E+03  0.13816978819E+03  0.00000000000E+00 0. -1.
        -24    2    1    2    0    0  0.81786475193E+01  0.46538849587E+01  0.68436256119E+02  0.10627439386E+03  0.80759994547E+02 0.  0.
         23    2    1    2    0    0  0.82554082044E+02 -0.17400654927E+03  0.93490460500E+02  0.23276634226E+03  0.91357803342E+02 0.  0.
         13    1    3    3    0    0  0.32393625581E+02 -0.36984137754E+01  0.73279639849E+02  0.80205553793E+02  0.00000000000E+00 0. -1.
        -14    1    3    3    0    0 -0.24214978062E+02  0.83522987341E+01 -0.48433837309E+01  0.26068840071E+02  0.00000000000E+00 0.  1.
        -11    1    4    4    0    0  0.45404982086E+02 -0.14913043009E+02  0.35006030842E+02  0.59240471346E+02  0.00000000000E+00 0.  1.
         11    1    4    4    0    0  0.37149099958E+02 -0.15909350626E+03  0.58484429658E+02  0.17352587091E+03  0.00000000000E+00 0. -1.
          2    1    1    2  501    0 -0.90732729564E+02  0.16935266431E+03  0.13639148442E+03  0.23561704129E+03  0.00000000000E+00 0. -1.
<scales pt_clust_5="13000.00000" pt_clust_6="13000.00000" pt_clust_7="13000.00000" pt_clust_8="13000.00000" pt_clust_9="192.32010"></scales>
<clustering>
<clus scale="   80.760">  5  6 -1 -1</clus>
<clus scale="   81.306">  1  5  2 -1</clus>
<clus scale="   91.358">  7  8 -1 -1</clus>
<clus scale="  192.320">  2  9  1 -1</clus>
<clus scale="  192.320">  2  5  1 -1</clus>
</clustering>
</event>
<event>
 9    1  0.6345107E-005  0.1711980E+03  0.7546771E-02  0.1179231E+00
         21   -1    0    0  501  502  0.00000000000E+00  0.00000000000E+00  0.23342141443E+03  0.23342141443E+03  0.00000000000E+00 0.  1.
          1   -1    0    0  502    0 -0.00000000000E+00 -0.00000000000E+00 -0.60121573813E+03  0.60121573813E+03  0.00000000000E+00 0. -1.
         23    2    1    2    0    0  0.13696836760E+03  0.26913809734E+02 -0.52263539111E+03  0.54999151210E+03  0.99288591797E+02 0.  0.
        -24    2    1    2    0    0 -0.14361159668E+03  0.19483485385E+02  0.16771453764E+03  0.23603938857E+03  0.81132791873E+02 0.  0.
         13    1    4    4    0    0 -0.52254726951E+02 -0.31319644405E+02  0.71889577838E+02  0.94231565922E+02  0.00000000000E+00 0. -1.
        -14    1    4    4    0    0 -0.91356869727E+02  0.50803129790E+02  0.95824959802E+02  0.14180782265E+03  0.00000000000E+00 0.  1.
        -13    1    3    3    0    0  0.50357136927E+02  0.50831726969E+02 -0.14343931862E+03  0.16029517720E+03  0.00000000000E+00 0.  1.
         13    1    3    3    0    0  0.86611230674E+02 -0.23917917235E+02 -0.37919607249E+03  0.38969633490E+03  0.00000000000E+00 0. -1.
          2    1    1    2  501    0  0.66432290776E+01 -0.46397295119E+02 -0.12873470226E+02  0.48606251888E+02  0.00000000000E+00 0. -1.
<scales pt_clust_5="13000.00000" pt_clust_6="13000.00000" pt_clust_7="13000.00000" pt_clust_8="13000.00000" pt_clust_9="46.87048"></scales>
<clustering>
<clus scale="   46.870">  1  9  2 -1</clus>
<clus scale="   81.133">  5  6 -1 -1</clus>
<clus scale="   99.289">  7  8 -1 -1</clus>
<clus scale="  161.348">  1  5  2 -1</clus>
<clus scale="   46.870">  1  5  2 -1</clus>
</clustering>
</event>
<event>
 9    1  0.6345107E-005  0.9615526E+02  0.7546771E-02  0.1290822E+00
          1   -1    0    0  502    0 -0.00000000000E+00  0.00000000000E+00  0.77264948960E+03  0.77264948960E+03  0.00000000000E+00 0. -1.
         21   -1    0    0  501  502  0.00000000000E+00 -0.00000000000E+00 -0.19583142606E+03  0.19583142606E+03  0.00000000000E+00 0. -1.
         23    2    1    2    0    0  0.52215061291E+02 -0.26186927468E+02  0.60365801156E+03  0.61280973437E+03  0.87866989370E+02 0.  0.
        -24    2    1    2    0    0  0.29265524326E+02  0.16344931537E+02  0.14189101116E+03  0.16803832889E+03  0.83547550703E+02 0.  0.
         11    1    4    4    0    0  0.53091158659E+02 -0.61240670490E+01  0.62967238994E+02  0.82589639250E+02  0.00000000000E+00 0. -1.
        -12    1    4    4    0    0 -0.23825634333E+02  0.22468998586E+02  0.78923772167E+02  0.85448689644E+02  0.00000000000E+00 0.  1.
        -11    1    3    3    0    0  0.11821376378E+02 -0.54688246796E+02  0.33527036526E+03  0.33990699772E+03  0.00000000000E+00 0. -1.
         11    1    3    3    0    0  0.40393684913E+02  0.28501319328E+02  0.26838764630E+03  0.27290273664E+03  0.00000000000E+00 0.  1.
          2    1    1    2  501    0 -0.81480585617E+02  0.98419959313E+01 -0.16873095917E+03  0.18763285240E+03  0.00000000000E+00 0. -1.
<scales pt_clust_5="13000.00000" pt_clust_6="13000.00000" pt_clust_7="13000.00000" pt_clust_8="13000.00000" pt_clust_9="82.07284"></scales>
<clustering>
<clus scale="   82.073">  2  9  1 -1</clus>
<clus scale="   83.548">  5  6 -1 -1</clus>
<clus scale="   87.867">  7  8 -1 -1</clus>
<clus scale="   92.225">  2  5  1 -1</clus>
<clus scale="   82.073">  2  5  1 -1</clus>
</clustering>
</event>
<event>
 9    1  0.6345107E-005  0.9755776E+02  0.7546771E-02  0.1290337E+00
         -2   -1    0    0    0  501 -0.00000000000E+00  0.00000000000E+00  0.11402685471E+03  0.11402685471E+03  0.00000000000E+00 0.  1.
         21   -1    0    0  501  502  0.00000000000E+00 -0.00000000000E+00 -0.26154949085E+03  0.26154949085E+03  0.00000000000E+00 0.  1.
        -24    2    1    2    0    0  0.32618521168E+02  0.20568730718E+02  0.46001679611E+02  0.10126459973E+03  0.81555649867E+02 0.  0.
         23    2    1    2    0    0  0.17690032247E+01 -0.28029921758E+02 -0.21363074658E+03  0.23378472070E+03  0.90710494772E+02 0.  0.
         11    1    3    3    0    0 -0.18062585198E+02  0.19384121256E+02  0.42966440415E+02  0.50478868280E+02  0.00000000000E+00 0. -1.
        -12    1    3    3    0    0  0.50681106366E+02  0.11846094615E+01  0.30352391962E+01  0.50785731452E+02  0.00000000000E+00 0.  1.
        -13    1    4    4    0    0 -0.30061739736E+02  0.15213222456E+02 -0.41394909517E+02  0.53373109965E+02  0.00000000000E+00 0. -1.
         13    1    4    4    0    0  0.31830742960E+02 -0.43243144214E+02 -0.17223583706E+03  0.18041161073E+03  0.00000000000E+00 0.  1.
         -1    1    1    2    0  502 -0.34387524393E+02  0.74611910398E+01  0.20106430823E+02  0.40527025132E+02  0.00000000000E+00 0.  1.
<scales pt_clust_5="13000.00000" pt_clust_6="13000.00000" pt_clust_7="13000.00000" pt_clust_8="13000.00000" pt_clust_9="35.18767"></scales>
<clustering>
<clus scale="   35.188">  2  9  1 -1</clus>
<clus scale="   81.556">  5  6 -1 -1</clus>
<clus scale="   89.109">  1  5  2 -1</clus>
<clus scale="   90.710">  7  8 -1 -1</clus>
<clus scale="   35.188">  2  5  1 -1</clus>
</clustering>
</event>
<event>
 9    1  0.6345107E-005  0.1137504E+03  0.7546771E-02  0.1257892E+00
          1   -1    0    0  502    0 -0.00000000000E+00  0.00000000000E+00  0.87566235497E+03  0.87566235497E+03  0.00000000000E+00 0. -1.
         21   -1    0    0  501  502  0.00000000000E+00 -0.00000000000E+00 -0.58511655298E+02  0.58511655298E+02  0.00000000000E+00 0.  1.
        -24    2    1    2    0    0 -0.40792975215E+02  0.61138530226E+02  0.73240459956E+03  0.74044505959E+03  0.80252115918E+02 0.  0.
         23    2    1    2    0    0 -0.26760977586E+02 -0.39600874532E+02  0.51501498467E+02  0.11541796364E+03  0.91567039932E+02 0.  0.
         11    1    3    3    0    0 -0.64199600553E+02  0.40070595958E+02  0.45390203148E+03  0.46016768200E+03  0.00000000000E+00 0. -1.
        -12    1    3    3    0    0  0.23406625337E+02  0.21067934268E+02  0.27850256808E+03  0.28027737760E+03  0.00000000000E+00 0.  1.
        -13    1    4    4    0    0  0.29251177611E+02 -0.16200912584E+02 -0.33475207089E+01  0.33605161138E+02  0.00000000000E+00 0.  1.
         13    1    4    4    0    0 -0.56012155197E+02 -0.23399961948E+02  0.54849019175E+02  0.81812802504E+02  0.00000000000E+00 0. -1.
          2    1    1    2  501    0  0.67553952801E+02 -0.21537655694E+02  0.33244601643E+02  0.78310987034E+02  0.00000000000E+00 0. -1.
<scales pt_clust_5="13000.00000" pt_clust_6="13000.00000" pt_clust_7="13000.00000" pt_clust_8="13000.00000" pt_clust_9="70.90421"></scales>
<clustering>
<clus scale="   70.904">  2  9  1 -1</clus>
<clus scale="   80.252">  5  6 -1 -1</clus>
<clus scale="   91.567">  7  8 -1 -1</clus>
<clus scale="  104.857">  1  5  2 -1</clus>
<clus scale="   70.904">  2  5  1 -1</clus>
</clustering>
</event>
<event>
 9    1  0.6345107E-005  0.1332513E+03  0.7546771E-02  0.1224869E+00
         21   -1    0    0  501  502  0.00000000000E+00  0.00000000000E+00  0.48760950629E+02  0.48760950629E+02  0.00000000000E+00 0. -1.
          1   -1    0    0  502    0 -0.00000000000E+00 -0.00000000000E+00 -0.89396878567E+03  0.89396878567E+03  0.00000000000E+00 0. -1.
         23    2    1    2    0    0 -0.40682515208E+02  0.65370750360E+02 -0.30828383911E+03  0.33006844750E+03  0.89318825185E+02 0.  0.
        -24    2    1    2    0    0  0.19410502749E+02 -0.16428218399E+03 -0.26520445663E+03  0.32271736619E+03  0.80297515746E+02 0.  0.
         11    1    4    4    0    0 -0.38313190275E+01 -0.15973339990E+03 -0.22317889293E+03  0.27447815268E+03  0.00000000000E+00 0. -1.
        -12    1    4    4    0    0  0.23241821776E+02 -0.45487840840E+01 -0.42025563694E+02  0.48239213508E+02  0.00000000000E+00 0.  1.
        -11    1    3    3    0    0  0.49574357665E+01  0.68172309488E+02 -0.22378345987E+03  0.23398948024E+03  0.00000000000E+00 0. -1.
         11    1    3    3    0    0 -0.45639950975E+02 -0.28015591278E+01 -0.84500379234E+02  0.96078967257E+02  0.00000000000E+00 0.  1.
          2    1    1    2  501    0  0.21272012459E+02  0.98911433627E+02 -0.27171953931E+03  0.28994392261E+03  0.00000000000E+00 0. -1.
<scales pt_clust_5="13000.00000" pt_clust_6="13000.00000" pt_clust_7="13000.00000" pt_clust_8="13000.00000" pt_clust_9="101.17302"></scales>
<clustering>
<clus scale="   80.298">  5  6 -1 -1</clus>
<clus scale="   89.319">  7  8 -1 -1</clus>
<clus scale="  101.173">  1  9  2 -1</clus>
<clus scale="  127.380">  1  5  2 -1</clus>
<clus scale="  101.173">  1  5  2 -1</clus>
</clustering>
</event>
<event>
 9    1  0.6345107E-005  0.2379047E+03  0.7546771E-02  0.1129929E+00
         21   -1    0    0  501  502  0.00000000000E+00  0.00000000000E+00  0.71661617994E+02  0.71661617994E+02  0.00000000000E+00 0. -1.
          1   -1    0    0  502    0 -0.00000000000E+00 -0.00000000000E+00 -0.16636622771E+04  0.16636622771E+04  0.00000000000E+00 0. -1.
         23    2    1    2    0    0 -0.44158810577E+02 -0.16089774213E+03 -0.46757978601E+03  0.50533171034E+03  0.94293145112E+02 0.  0.
        -24    2    1    2    0    0 -0.14510685203E+03  0.24150062286E+03 -0.67955457221E+03  0.73986532252E+03  0.78915964838E+02 0.  0.
         11    1    4    4    0    0 -0.10769629827E+03  0.17119454845E+03 -0.56693837561E+03  0.60193453782E+03  0.00000000000E+00 0. -1.
        -12    1    4    4    0    0 -0.37410553765E+02  0.70306074404E+02 -0.11261619660E+03  0.13793078470E+03  0.00000000000E+00 0.  1.
        -11    1    3    3    0    0 -0.25755004299E+02 -0.76013484642E+02 -0.10315549493E+03  0.13069975604E+03  0.00000000000E+00 0.  1.
         11    1    3    3    0    0 -0.18403806278E+02 -0.84884257485E+02 -0.36442429108E+03  0.37463195430E+03  0.00000000000E+00 0. -1.
          2    1    1    2  501    0  0.18926566261E+03 -0.80602880730E+02 -0.44486630090E+03  0.49012686225E+03  0.00000000000E+00 0. -1.
<scales pt_clust_5="13000.00000" pt_clust_6="13000.00000" pt_clust_7="13000.00000" pt_clust_8="13000.00000" pt_clust_9="224.43466"></scales>
<clustering>
<clus scale="   78.916">  5  6 -1 -1</clus>
<clus scale="   94.293">  7  8 -1 -1</clus>
<clus scale="  191.649">  2  7  1 -1</clus>
<clus scale="  224.435">  1  9  2 -1</clus>
<clus scale="  224.435">  1  5  2 -1</clus>
</clustering>
</event>
<event>
 9    1  0.6345107E-005  0.9661450E+02  0.7546771E-02  0.1295820E+00
         21   -1    0    0  501  502  0.00000000000E+00  0.00000000000E+00  0.12050179406E+03  0.12050179406E+03  0.00000000000E+00 0. -1.
          3   -1    0    0  502    0 -0.00000000000E+00 -0.00000000000E+00 -0.12806620858E+03  0.12806620858E+03  0.00000000000E+00 0. -1.
        -24    2    1    2    0    0  0.25609366157E+02 -0.27955518014E+02 -0.37880130112E+02  0.94306078785E+02  0.77597561921E+02 0.  0.
         23    2    1    2    0    0 -0.83852823466E+00  0.25977069593E+01  0.58306896514E+02  0.10909424511E+03  0.92165117724E+02 0.  0.
         11    1    3    3    0    0 -0.26958360085E+02 -0.38042531324E+00 -0.10479665816E+02  0.28926135198E+02  0.00000000000E+00 0. -1.
        -12    1    3    3    0    0  0.52567726242E+02 -0.27575092701E+02 -0.27400464296E+02  0.65379943586E+02  0.00000000000E+00 0.  1.
        -11    1    4    4    0    0 -0.76194153241E+01  0.35769540019E+02 -0.53810873375E+01  0.36965816425E+02  0.00000000000E+00 0.  1.
         11    1    4    4    0    0  0.67808870894E+01 -0.33171833059E+02  0.63687983852E+02  0.72128428690E+02  0.00000000000E+00 0. -1.
          4    1    1    2  501    0 -0.24770837922E+02  0.25357811055E+02 -0.27991180925E+02  0.45167678737E+02  0.00000000000E+00 0. -1.
<scales pt_clust_5="13000.00000" pt_clust_6="13000.00000" pt_clust_7="13000.00000" pt_clust_8="13000.00000" pt_clust_9="35.44876"></scales>
<clustering>
<clus scale="   35.449">  1  9  2 -1</clus>
<clus scale="   77.598">  5  6 -1 -1</clus>
<clus scale="   82.833">  2  5  1 -1</clus>
<clus scale="   92.165">  7  8 -1 -1</clus>
<clus scale="   35.449">  1  5  2 -1</clus>
</clustering>
</event>
<event>
 9    1  0.6345107E-005  0.9732554E+02  0.7546771E-02  0.1292513E+00
         21   -1    0    0  501  502  0.00000000000E+00  0.00000000000E+00  0.97698362973E+02  0.97698362973E+02  0.00000000000E+00 0.  1.
          1   -1    0    0  502    0 -0.00000000000E+00 -0.00000000000E+00 -0.13065562349E+03  0.13065562349E+03  0.00000000000E+00 0. -1.
         23    2    1    2    0    0  0.38545356721E+02 -0.13712943861E+00 -0.45840979733E+02  0.10952922531E+03  0.91703284814E+02 0.  0.
        -24    2    1    2    0    0 -0.19767242585E+02  0.18871211003E+02  0.27306826708E+02  0.88631890927E+02  0.79768933929E+02 0.  0.
         13    1    4    4    0    0 -0.47768344326E+02  0.16212367951E+02  0.15112539108E+01  0.50467211955E+02  0.00000000000E+00 0. -1.
        -14    1    4    4    0    0  0.28001101740E+02  0.26588430521E+01  0.25795572797E+02  0.38164678971E+02  0.00000000000E+00 0.  1.
        -11    1    3    3    0    0  0.60388308786E+02  0.20016387088E+02 -0.12447078982E+02  0.64825406789E+02  0.00000000000E+00 0. -1.
         11    1    3    3    0    0 -0.21842952066E+02 -0.20153516527E+02 -0.33393900751E+02  0.44703818525E+02  0.00000000000E+00 0.  1.
          2    1    1    2  501    0 -0.18778114136E+02 -0.18734081564E+02 -0.14423107492E+02  0.30192870222E+02  0.00000000000E+00 0. -1.
<scales pt_clust_5="13000.00000" pt_clust_6="13000.00000" pt_clust_7="13000.00000" pt_clust_8="13000.00000" pt_clust_9="26.52516"></scales>
<clustering>
<clus scale="   26.525">  1  9  2 -1</clus>
<clus scale="   79.769">  5  6 -1 -1</clus>
<clus scale="   86.173">  1  5  2 -1</clus>
<clus scale="   91.703">  7  8 -1 -1</clus>
<clus scale="   26.525">  1  5  2 -1</clus>
</clustering>
</event>
<event>
 9    1  0.6345107E-005  0.9498753E+02  0.7546771E-02  0.1303653E+00
         21   -1    0    0  501  502  0.00000000000E+00  0.00000000000E+00  0.17854016185E+03  0.17854016185E+03  0.00000000000E+00 0. -1.
          1   -1    0    0  502    0 -0.00000000000E+00 -0.00000000000E+00 -0.33198025411E+03  0.33198025411E+03  0.00000000000E+00 0. -1.
         23    2    1    2    0    0 -0.19118925748E+02  0.91455600248E+01 -0.26373659445E+03  0.28028494722E+03  0.92485057164E+02 0.  0.
        -24    2    1    2    0    0  0.64449215490E+01 -0.31617161963E+02 -0.32188698196E+02  0.85433412113E+02  0.72260457163E+02 0.  0.
         13    1    4    4    0    0  0.22924721570E+02 -0.24866092149E+02 -0.49922848148E+02  0.60300548629E+02  0.00000000000E+00 0. -1.
        -14    1    4    4    0    0 -0.16479800021E+02 -0.67510698140E+01  0.17734149952E+02  0.25132863483E+02  0.00000000000E+00 0.  1.
        -11    1    3    3    0    0 -0.50568675632E+02  0.21558318688E+02 -0.20757869245E+03  0.21473440717E+03  0.00000000000E+00 0. -1.
         11    1    3    3    0    0  0.31449749884E+02 -0.12412758664E+02 -0.56157901994E+02  0.65550540057E+02  0.00000000000E+00 0.  1.
          2    1    1    2  501    0  0.12674004199E+02  0.22471601938E+02  0.14248520038E+03  0.14480205663E+03  0.00000000000E+00 0. -1.
<scales pt_clust_5="13000.00000" pt_clust_6="13000.00000" pt_clust_7="13000.00000" pt_clust_8="13000.00000" pt_clust_9="25.79929"></scales>
<clustering>
<clus scale="   25.799">  1  9  2 -1</clus>
<clus scale="   72.260">  5  6 -1 -1</clus>
<clus scale="   75.437">  1  5  2 -1</clus>
<clus scale="   92.485">  7  8 -1 -1</clus>
<clus scale="   25.799">  1  5  2 -1</clus>
</clustering>
</event>
<event>
 9    1  0.6345107E-005  0.1807248E+03  0.7546771E-02  0.1169360E+00
         21   -1    0    0  501  502  0.00000000000E+00  0.00000000000E+00  0.19358071651E+03  0.19358071651E+03  0.00000000000E+00 0. -1.
          1   -1    0    0  502    0 -0.00000000000E+00 -0.00000000000E+00 -0.41884358753E+03  0.41884358753E+03  0.00000000000E+00 0. -1.
        -24    2    1    2    0    0 -0.12679583936E+03  0.93143436317E+02 -0.32004566000E+03  0.36589644537E+03  0.81841918603E+02 0.  0.
         23    2    1    2    0    0  0.10974978238E+03 -0.62196493027E+02  0.17623132213E+02  0.16166388522E+03  0.99555102930E+02 0.  0.
         13    1    3    3    0    0 -0.13375846901E+03  0.81055780540E+02 -0.25319253123E+03  0.29760347018E+03  0.00000000000E+00 0. -1.
        -14    1    3    3    0    0  0.69626296535E+01  0.12087655776E+02 -0.66853128773E+02  0.68292975193E+02  0.00000000000E+00 0.  1.
        -11    1    4    4    0    0  0.32244958809E+01 -0.33337110090E+02 -0.26597622596E+02  0.42769075400E+02  0.00000000000E+00 0.  1.
         11    1    4    4    0    0  0.10652528650E+03 -0.28859382937E+02  0.44220754808E+02  0.11889480982E+03  0.00000000000E+00 0. -1.
          2    1    1    2  501    0  0.17046056979E+02 -0.30946943290E+02  0.77159656761E+02  0.84863973446E+02  0.00000000000E+00 0. -1.
<scales pt_clust_5="13000.00000" pt_clust_6="13000.00000" pt_clust_7="13000.00000" pt_clust_8="13000.00000" pt_clust_9="35.33103"></scales>
<clustering>
<clus scale="   35.331">  1  9  2 -1</clus>
<clus scale="   81.842">  5  6 -1 -1</clus>
<clus scale="   99.555">  7  8 -1 -1</clus>
<clus scale="  171.605">  2  5  1 -1</clus>
<clus scale="   35.331">  1  5  2 -1</clus>
</clustering>
</event>
<event>
 9    1  0.6345107E-005  0.8960092E+02  0.7546771E-02  0.1309364E+00
         -2   -1    0    0    0  501 -0.00000000000E+00  0.00000000000E+00  0.69952291945E+03  0.69952291945E+03  0.00000000000E+00 0.  1.
         21   -1    0    0  501  502  0.00000000000E+00 -0.00000000000E+00 -0.52629903920E+02  0.52629903920E+02  0.00000000000E+00 0.  1.
        -24    2    1    2    0    0 -0.14376165817E+02  0.92248477735E+01  0.47768957329E+03  0.48461056492E+03  0.79801624268E+02 0.  0.
         23    2    1    2    0    0 -0.73246846408E+01 -0.15099887614E+02  0.20575923123E+03  0.22462642555E+03  0.88535372639E+02 0.  0.
         11    1    3    3    0    0 -0.39709025056E+02  0.29239872974E+02  0.29250741404E+03  0.29663506891E+03  0.00000000000E+00 0. -1.
        -12    1    3    3    0    0  0.25332859239E+02 -0.20015025201E+02  0.18518215925E+03  0.18797549600E+03  0.00000000000E+00 0.  1.
        -13    1    4    4    0    0 -0.45685164326E+02 -0.22489908365E+02  0.11052533095E+03  0.12169132672E+03  0.00000000000E+00 0.  1.
         13    1    4    4    0    0  0.38360479685E+02  0.73900207510E+01  0.95233900287E+02  0.10293509884E+03  0.00000000000E+00 0. -1.
         -1    1    1    2    0  502  0.21700850458E+02  0.58750398401E+01 -0.36555789000E+02  0.42915832896E+02  0.00000000000E+00 0.  1.
<scales pt_clust_5="13000.00000" pt_clust_6="13000.00000" pt_clust_7="13000.00000" pt_clust_8="13000.00000" pt_clust_9="22.48206"></scales>
<clustering>
<clus scale="   22.482">  2  9  1 -1</clus>
<clus scale="   79.802">  5  6 -1 -1</clus>
<clus scale="   80.982">  1  5  2 -1</clus>
<clus scale="   88.535">  7  8 -1 -1</clus>
<clus scale="   22.482">  2  5  1 -1</clus>
</clustering>
</event>
<event>
 9    1  0.9221123E-005  0.1206289E+03  0.7546771E-02  0.1246263E+00
          3   -1    0    0  502    0 -0.00000000000E+00  0.00000000000E+00  0.29884554296E+03  0.29884554296E+03  0.00000000000E+00 0. -1.
         21   -1    0    0  501  502  0.00000000000E+00 -0.00000000000E+00 -0.24879091651E+03  0.24879091651E+03  0.00000000000E+00 0. -1.
         23    2    1    2    0    0  0.13944226419E+02 -0.76078213057E+02  0.18047129564E+03  0.21644326013E+03  0.91079417857E+02 0.  0.
        -24    2    1    2    0    0 -0.51185329642E+02  0.92797935860E+02 -0.20655952765E+03  0.24479769138E+03  0.77638111588E+02 0.  0.
         13    1    4    4    0    0 -0.70617269332E+02  0.74117596654E+02 -0.14402714871E+03  0.17670324396E+03  0.00000000000E+00 0. -1.
        -14    1    4    4    0    0  0.19431939689E+02  0.18680339206E+02 -0.62532378940E+02  0.68094447416E+02  0.00000000000E+00 0.  1.
        -11    1    3    3    0    0  0.32161833429E+02  0.82469343458E+01  0.48538651846E+02  0.58808130208E+02  0.00000000000E+00 0.  1.
         11    1    3    3    0    0 -0.18217607010E+02 -0.84325147403E+02  0.13193264379E+03  0.15763512993E+03  0.00000000000E+00 0. -1.
          4    1    1    2  501    0  0.37241103224E+02 -0.16719722803E+02  0.76142858461E+02  0.86395507954E+02  0.00000000000E+00 0. -1.
<scales pt_clust_5="13000.00000" pt_clust_6="13000.00000" pt_clust_7="13000.00000" pt_clust_8="13000.00000" pt_clust_9="40.82218"></scales>
<clustering>
<clus scale="   40.822">  2  9  1 -1</clus>
<clus scale="   77.638">  5  6 -1 -1</clus>
<clus scale="   91.079">  7  8 -1 -1</clus>
<clus scale="  110.831">  2  5  1 -1</clus>
<clus scale="   40.822">  2  5  1 -1</clus>
</clustering>
</event>
<event>
 9    1  0.6345107E-005  0.1016272E+03  0.7546771E-02  0.1284044E+00
          1   -1    0    0  502    0 -0.00000000000E+00  0.00000000000E+00  0.84076568408E+02  0.84076568408E+02  0.00000000000E+00 0. -1.
         21   -1    0    0  501  502  0.00000000000E+00 -0.00000000000E+00 -0.18191434341E+03  0.18191434341E+03  0.00000000000E+00 0. -1.
         23    2    1    2    0    0  0.23206296326E+02  0.45208398003E+02  0.11199305411E+02  0.10700941118E+03  0.93505391292E+02 0.  0.
        -24    2    1    2    0    0 -0.44854082241E+01 -0.16706667239E+02 -0.82862253872E+02  0.11599380644E+03  0.79304340352E+02 0.  0.
         13    1    4    4    0    0  0.37055856857E+02 -0.20848368029E+01 -0.36782649319E+02  0.52253673199E+02  0.00000000000E+00 0. -1.
        -14    1    4    4    0    0 -0.41541265081E+02 -0.14621830436E+02 -0.46079604553E+02  0.63740133241E+02  0.00000000000E+00 0.  1.
        -11    1    3    3    0    0  0.13827274063E+02  0.65627103643E+02 -0.18683099825E+02  0.69621609143E+02  0.00000000000E+00 0.  1.
         11    1    3    3    0    0  0.93790222635E+01 -0.20418705640E+02  0.29882405237E+02  0.37387802040E+02  0.00000000000E+00 0. -1.
          2    1    1    2  501    0 -0.18720888102E+02 -0.28501730764E+02 -0.26174826542E+02  0.42987694197E+02  0.00000000000E+00 0. -1.
<scales pt_clust_5="13000.00000" pt_clust_6="13000.00000" pt_clust_7="13000.00000" pt_clust_8="13000.00000" pt_clust_9="34.10015"></scales>
<clustering>
<clus scale="   34.100">  2  9  1 -1</clus>
<clus scale="   79.304">  5  6 -1 -1</clus>
<clus scale="   88.736">  2  5  1 -1</clus>
<clus scale="   93.505">  7  8 -1 -1</clus>
<clus scale="   34.100">  2  5  1 -1</clus>
</clustering>
</event>
<event>
 9    1  0.6345107E-005  0.1632261E+03  0.7546771E-02  0.1200458E+00
          1   -1    0    0  502    0 -0.00000000000E+00  0.00000000000E+00  0.11326906030E+03  0.11326906030E+03  0.00000000000E+00 0. -1.
         21   -1    0    0  501  502  0.00000000000E+00 -0.00000000000E+00 -0.64029035559E+03  0.64029035559E+03  0.00000000000E+00 0. -1.
         23    2    1    2    0    0  0.53860445769E+02  0.51874479570E+02 -0.19090917717E+03  0.22362169105E+03  0.89266105168E+02 0.  0.
        -24    2    1    2    0    0 -0.24073179092E+02  0.94092631024E+02  0.32378021198E+02  0.13247242899E+03  0.84069417872E+02 0.  0.
         13    1    4    4    0    0  0.56379104217E+01  0.84031426977E+02  0.48517268410E+02  0.97195638213E+02  0.00000000000E+00 0. -1.
        -14    1    4    4    0    0 -0.29711089514E+02  0.10061204046E+02 -0.16139247212E+02  0.35276790777E+02  0.00000000000E+00 0.  1.
        -13    1    3    3    0    0  0.23684888259E+01  0.60131037261E+02 -0.13121591466E+03  0.14435708379E+03  0.00000000000E+00 0. -1.
         13    1    3    3    0    0  0.51491956943E+02 -0.82565576910E+01 -0.59693262515E+02  0.79264607262E+02  0.00000000000E+00 0.  1.
          2    1    1    2  501    0 -0.29787266677E+02 -0.14596711059E+03 -0.36849013932E+03  0.39746529585E+03  0.00000000000E+00 0. -1.
<scales pt_clust_5="13000.00000" pt_clust_6="13000.00000" pt_clust_7="13000.00000" pt_clust_8="13000.00000" pt_clust_9="139.91101"></scales>
<clustering>
<clus scale="   84.069">  5  6 -1 -1</clus>
<clus scale="   89.266">  7  8 -1 -1</clus>
<clus scale="  116.449">  1  7  2 -1</clus>
<clus scale="  139.911">  2  9  1 -1</clus>
<clus scale="  139.911">  2  5  1 -1</clus>
</clustering>
</event>
<event>
 9    1  0.6345107E-005  0.9629030E+02  0.7546771E-02  0.1294560E+00
         21   -1    0    0  501  502  0.00000000000E+00  0.00000000000E+00  0.16350002083E+03  0.16350002083E+03  0.00000000000E+00 0.  1.
          1   -1    0    0  502    0 -0.00000000000E+00 -0.00000000000E+00 -0.47213494869E+03  0.47213494869E+03  0.00000000000E+00 0. -1.
         23    2    1    2    0    0  0.25664268120E+02 -0.13468371705E+02 -0.99048463060E+02  0.13802896869E+03  0.91658859194E+02 0.  0.
        -24    2    1    2    0    0 -0.53137300550E+02 -0.53222499581E+02  0.11845892133E+03  0.16172474922E+03  0.80412507089E+02 0.  0.
         13    1    4    4    0    0 -0.19823259539E+02  0.11130338442E+02  0.72341991187E+02  0.75830137422E+02  0.00000000000E+00 0. -1.
        -14    1    4    4    0    0 -0.33314041011E+02 -0.64352838023E+02  0.46116930140E+02  0.85894611796E+02  0.00000000000E+00 0.  1.
        -11    1    3    3    0    0  0.39369380149E+02 -0.43844682684E+02 -0.80891496999E+02  0.10007866196E+03  0.00000000000E+00 0. -1.
         11    1    3    3    0    0 -0.13705112029E+02  0.30376310979E+02 -0.18156966061E+02  0.37950306730E+02  0.00000000000E+00 0.  1.
          2    1    1    2  501    0  0.27473032430E+02  0.66690871286E+02 -0.32804538612E+03  0.33588125161E+03  0.00000000000E+00 0. -1.
<scales pt_clust_5="13000.00000" pt_clust_6="13000.00000" pt_clust_7="13000.00000" pt_clust_8="13000.00000" pt_clust_9="72.12798"></scales>
<clustering>
<clus scale="   72.128">  1  9  2 -1</clus>
<clus scale="   80.413">  5  6 -1 -1</clus>
<clus scale="   85.654">  1  5  2 -1</clus>
<clus scale="   91.659">  7  8 -1 -1</clus>
<clus scale="   72.128">  1  5  2 -1</clus>
</clustering>
</event>
<event>
 9    1  0.6345107E-005  0.1343024E+03  0.7546771E-02  0.1240684E+00
          1   -1    0    0  502    0 -0.00000000000E+00  0.00000000000E+00  0.98808097799E+03  0.98808097799E+03  0.00000000000E+00 0. -1.
         21   -1    0    0  501  502  0.00000000000E+00 -0.00000000000E+00 -0.80316187545E+02  0.80316187545E+02  0.00000000000E+00 0. -1.
        -24    2    1    2    0    0 -0.44425436325E+02 -0.43677759795E+01  0.16017289279E+02  0.91301602854E+02  0.78017512574E+02 0.  0.
         23    2    1    2    0    0  0.13772475286E+03 -0.10630500493E+02  0.86222440784E+03  0.87809392732E+03  0.92395349680E+02 0.  0.
         13    1    3    3    0    0 -0.19529674054E+02  0.35442908211E+02 -0.31416476622E+01  0.40589134767E+02  0.00000000000E+00 0. -1.
        -14    1    3    3    0    0 -0.24895762271E+02 -0.39810684191E+02  0.19158936941E+02  0.50712468087E+02  0.00000000000E+00 0.  1.
        -11    1    4    4    0    0 -0.12388258642E+01  0.20048091460E+02  0.58103847039E+02  0.61477782177E+02  0.00000000000E+00 0.  1.
         11    1    4    4    0    0  0.13896357873E+03 -0.30678591954E+02  0.80412056080E+03  0.81661614515E+03  0.00000000000E+00 0. -1.
          2    1    1    2  501    0 -0.93299316539E+02  0.14998276473E+02  0.29523093332E+02  0.99001635358E+02  0.00000000000E+00 0. -1.
<scales pt_clust_5="13000.00000" pt_clust_6="13000.00000" pt_clust_7="13000.00000" pt_clust_8="13000.00000" pt_clust_9="97.46912"></scales>
<clustering>
<clus scale="   78.018">  5  6 -1 -1</clus>
<clus scale="   89.886">  1  5  2 -1</clus>
<clus scale="   92.395">  7  8 -1 -1</clus>
<clus scale="   97.469">  2  9  1 -1</clus>
<clus scale="   97.469">  2  5  1 -1</clus>
</clustering>
</event>
<event>
 9    1  0.6345107E-005  0.9233176E+02  0.7546771E-02  0.1305033E+00
          1   -1    0    0  502    0 -0.00000000000E+00  0.00000000000E+00  0.41336379247E+03  0.41336379247E+03  0.00000000000E+00 0. -1.
         21   -1    0    0  501  502  0.00000000000E+00 -0.00000000000E+00 -0.67030126539E+02  0.67030126539E+02  0.00000000000E+00 0.  1.
         23    2    1    2    0    0 -0.39803049939E+01 -0.11328588277E+02  0.30672648852E+03  0.32027767098E+03  0.91391837861E+02 0.  0.
        -24    2    1    2    0    0 -0.30122563594E+02  0.15082655690E+02  0.72644193701E+02  0.11248702262E+03  0.79001873644E+02 0.  0.
         11    1    4    4    0    0 -0.40616137386E+02  0.17707807422E+02  0.85127986222E+02  0.95968802733E+02  0.00000000000E+00 0. -1.
        -12    1    4    4    0    0  0.10493573792E+02 -0.26251517319E+01 -0.12483792520E+02  0.16518219887E+02  0.00000000000E+00 0.  1.
        -11    1    3    3    0    0  0.41410424865E+02 -0.19060693198E+02  0.17001165597E+03  0.17601731868E+03  0.00000000000E+00 0. -1.
         11    1    3    3    0    0 -0.45390729859E+02  0.77321049212E+01  0.13671483256E+03  0.14426035230E+03  0.00000000000E+00 0.  1.
          2    1    1    2  501    0  0.34102868587E+02 -0.37540674134E+01 -0.33037016289E+02  0.47629225411E+02  0.00000000000E+00 0. -1.
<scales pt_clust_5="13000.00000" pt_clust_6="13000.00000" pt_clust_7="13000.00000" pt_clust_8="13000.00000" pt_clust_9="34.30887"></scales>
<clustering>
<clus scale="   34.309">  2  9  1 -1</clus>
<clus scale="   79.002">  5  6 -1 -1</clus>
<clus scale="   80.087">  2  5  1 -1</clus>
<clus scale="   91.392">  7  8 -1 -1</clus>
<clus scale="   34.309">  2  5  1 -1</clus>
</clustering>
</event>
<event>
 9    1  0.6345107E-005  0.1189469E+03  0.7546771E-02  0.1248231E+00
          1   -1    0    0  502    0 -0.00000000000E+00  0.00000000000E+00  0.24500188117E+03  0.24500188117E+03  0.00000000000E+00 0. -1.
         21   -1    0    0  501  502  0.00000000000E+00 -0.00000000000E+00 -0.11008724203E+03  0.11008724203E+03  0.00000000000E+00 0.  1.
        -24    2    1    2    0    0  0.57491227076E+02 -0.62300710263E+02  0.16670662120E+03  0.20374822393E+03  0.80843190871E+02 0.  0.
         23    2    1    2    0    0 -0.16331431813E+02  0.46613226225E+02 -0.25015206984E+02  0.10677464991E+03  0.91299270313E+02 0.  0.
         11    1    3    3    0    0  0.75885189946E+02 -0.51252482052E+02  0.11005577179E+03  0.14317001039E+03  0.00000000000E+00 0. -1.
        -12    1    3    3    0    0 -0.18393962869E+02 -0.11048228212E+02  0.56650849408E+02  0.60578213537E+02  0.00000000000E+00 0.  1.
        -13    1    4    4    0    0  0.27834298379E+01  0.21522808963E+02  0.33723333876E+02  0.40102893100E+02  0.00000000000E+00 0. -1.
         13    1    4    4    0    0 -0.19114861651E+02  0.25090417262E+02 -0.58738540860E+02  0.66671756814E+02  0.00000000000E+00 0.  1.
          2    1    1    2  501    0 -0.41159795263E+02  0.15687484038E+02 -0.67767750732E+01  0.44566249359E+02  0.00000000000E+00 0. -1.
<scales pt_clust_5="13000.00000" pt_clust_6="13000.00000" pt_clust_7="13000.00000" pt_clust_8="13000.00000" pt_clust_9="44.04800"></scales>
<clustering>
<clus scale="   44.048">  2  9  1 -1</clus>
<clus scale="   80.843">  5  6 -1 -1</clus>
<clus scale="   91.299">  7  8 -1 -1</clus>
<clus scale="  111.124">  1  5  2 -1</clus>
<clus scale="   44.048">  2  5  1 -1</clus>
</clustering>
</event>
<event>
 9    1  0.6345107E-005  0.9384169E+02  0.7546771E-02  0.1297836E+00
         21   -1    0    0  501  502  0.00000000000E+00  0.00000000000E+00  0.31484146768E+03  0.31484146768E+03  0.00000000000E+00 0. -1.
         -2   -1    0    0    0  501 -0.00000000000E+00 -0.00000000000E+00 -0.95250502141E+02  0.95250502141E+02  0.00000000000E+00 0.  1.
         23    2    1    2    0    0  0.79596194638E+01  0.34847547268E+02 -0.32425766241E+02  0.10091028838E+03  0.88621379431E+02 0.  0.
        -24    2    1    2    0    0 -0.15239789508E+02  0.99746163517E+01  0.25018826116E+03  0.26373533360E+03  0.81427366456E+02 0.  0.
         13    1    4    4    0    0  0.74356773384E+01 -0.28140282853E+02  0.16646981064E+03  0.16899515576E+03  0.00000000000E+00 0. -1.
        -14    1    4    4    0    0 -0.22675466847E+02  0.38114899205E+02  0.83718450523E+02  0.94740177834E+02  0.00000000000E+00 0.  1.
        -13    1    3    3    0    0  0.24855815738E+02  0.59156282817E+02 -0.12908434388E+02  0.65451547355E+02  0.00000000000E+00 0.  1.
         13    1    3    3    0    0 -0.16896196274E+02 -0.24308735550E+02 -0.19517331853E+02  0.35458741027E+02  0.00000000000E+00 0. -1.
         -1    1    1    2    0  502  0.72801700444E+01 -0.44822163619E+02  0.18284706176E+01  0.45446347842E+02  0.00000000000E+00 0.  1.
<scales pt_clust_5="13000.00000" pt_clust_6="13000.00000" pt_clust_7="13000.00000" pt_clust_8="13000.00000" pt_clust_9="45.40957"></scales>
<clustering>
<clus scale="   45.410">  1  9  2 -1</clus>
<clus scale="   81.427">  5  6 -1 -1</clus>
<clus scale="   87.080">  1  5  2 -1</clus>
<clus scale="   88.621">  7  8 -1 -1</clus>
<clus scale="   45.410">  1  5  2 -1</clus>
</clustering>
</event>
<event>
 9    1  0.6345107E-005  0.1059701E+03  0.7546771E-02  0.1273594E+00
          1   -1    0    0  502    0 -0.00000000000E+00  0.00000000000E+00  0.10295290079E+04  0.10295290079E+04  0.00000000000E+00 0. -1.
         21   -1    0    0  501  502  0.00000000000E+00 -0.00000000000E+00 -0.33403651623E+02  0.33403651623E+02  0.00000000000E+00 0.  1.
         23    2    1    2    0    0 -0.59615017300E+02 -0.54285970916E+01  0.56565698816E+03  0.57603625670E+03  0.90920409269E+02 0.  0.
        -24    2    1    2    0    0  0.26659594620E+02 -0.84230371132E+02  0.15149257569E+03  0.19201967734E+03  0.78205284943E+02 0.  0.
         11    1    4    4    0    0 -0.23877010212E+02 -0.18436854480E+02  0.18858491064E+02  0.35576282900E+02  0.00000000000E+00 0. -1.
        -12    1    4    4    0    0  0.50536604833E+02 -0.65793516652E+02  0.13263408462E+03  0.15644339444E+03  0.00000000000E+00 0.  1.
        -11    1    3    3    0    0 -0.82550201018E+02  0.65978685092E+01  0.44325725752E+03  0.45092689418E+03  0.00000000000E+00 0.  1.
         11    1    3    3    0    0  0.22935183718E+02 -0.12026465601E+02  0.12239973065E+03  0.12510936252E+03  0.00000000000E+00 0. -1.
          2    1    1    2  501    0  0.32955422680E+02  0.89658968224E+02  0.27897579239E+03  0.29487672544E+03  0.00000000000E+00 0. -1.
<scales pt_clust_5="13000.00000" pt_clust_6="13000.00000" pt_clust_7="13000.00000" pt_clust_8="13000.00000" pt_clust_9="95.52382"></scales>
<clustering>
<clus scale="   78.205">  5  6 -1 -1</clus>
<clus scale="   90.920">  7  8 -1 -1</clus>
<clus scale="   95.524">  2  9  1 -1</clus>
<clus scale="   95.524">  2  5  1 -1</clus>
<clus scale="   95.524">  2  5  1 -1</clus>
</clustering>
</event>
<event>
 9    1  0.6345107E-005  0.2006050E+03  0.7546771E-02  0.1177669E+00
         21   -1    0    0  501  502  0.00000000000E+00  0.00000000000E+00  0.61750681200E+02  0.61750681200E+02  0.00000000000E+00 0.  1.
         -2   -1    0    0    0  501 -0.00000000000E+00 -0.00000000000E+00 -0.10141544494E+04  0.10141544494E+04  0.00000000000E+00 0.  1.
         23    2    1    2    0    0 -0.11917364243E+00  0.47621362182E+02 -0.17294262778E+03  0.20174151128E+03  0.92318343421E+02 0.  0.
        -24    2    1    2    0    0 -0.18352352821E+03 -0.12186093031E+02 -0.31605746481E+03  0.37444042913E+03  0.80522839223E+02 0.  0.
         11    1    4    4    0    0 -0.59154869997E+02 -0.36340664767E+02 -0.75552950032E+02  0.10260697256E+03  0.00000000000E+00 0. -1.
        -12    1    4    4    0    0 -0.12436865821E+03  0.24154571736E+02 -0.24050451478E+03  0.27183345657E+03  0.00000000000E+00 0.  1.
        -11    1    3    3    0    0  0.42309007570E+01 -0.21783001559E+02 -0.95343762894E+01  0.24151687505E+02  0.00000000000E+00 0.  1.
         11    1    3    3    0    0 -0.43500743994E+01  0.69404363741E+02 -0.16340825149E+03  0.17758982377E+03  0.00000000000E+00 0. -1.
         -1    1    1    2    0  502  0.18364270185E+03 -0.35435269151E+02 -0.46340367561E+03  0.49972319019E+03  0.00000000000E+00 0.  1.
<scales pt_clust_5="13000.00000" pt_clust_6="13000.00000" pt_clust_7="13000.00000" pt_clust_8="13000.00000" pt_clust_9="183.73476"></scales>
<clustering>
<clus scale="   80.523">  5  6 -1 -1</clus>
<clus scale="   92.318">  7  8 -1 -1</clus>
<clus scale="  103.877">  2  7  1 -1</clus>
<clus scale="  183.735">  1  9  2 -1</clus>
<clus scale="  183.735">  1  5  2 -1</clus>
</clustering>
</event>
<event>
 9    1  0.6345107E-005  0.9830987E+02  0.7546771E-02  0.1287301E+00
          3   -1    0    0  502    0 -0.00000000000E+00  0.00000000000E+00  0.30659852537E+02  0.30659852537E+02  0.00000000000E+00 0. -1.
         21   -1    0    0  501  502  0.00000000000E+00 -0.00000000000E+00 -0.59904696540E+03  0.59904696540E+03  0.00000000000E+00 0.  1.
         23    2    1    2    0    0 -0.41082953477E+02 -0.14478924073E+02 -0.11329656128E+03  0.14931207032E+03  0.86951338319E+02 0.  0.
        -24    2    1    2    0    0  0.26131444826E+02  0.60676558704E+02 -0.34031453191E+03  0.35577009617E+03  0.79961762851E+02 0.  0.
         13    1    4    4    0    0  0.14023656105E+02 -0.17372154880E+02 -0.47414925226E+02  0.52408299247E+02  0.00000000000E+00 0. -1.
        -14    1    4    4    0    0  0.12107788721E+02  0.78048713584E+02 -0.29289960668E+03  0.30336179693E+03  0.00000000000E+00 0.  1.
        -13    1    3    3    0    0 -0.14063473608E+01 -0.45581945097E+02 -0.65721818512E+02  0.79994055781E+02  0.00000000000E+00 0. -1.
         13    1    3    3    0    0 -0.39676606116E+02  0.31103021024E+02 -0.47574742773E+02  0.69318014539E+02  0.00000000000E+00 0.  1.
          4    1    1    2  501    0  0.14951508651E+02 -0.46197634630E+02 -0.11477601967E+03  0.12462465145E+03  0.00000000000E+00 0. -1.
<scales pt_clust_5="13000.00000" pt_clust_6="13000.00000" pt_clust_7="13000.00000" pt_clust_8="13000.00000" pt_clust_9="48.55686"></scales>
<clustering>
<clus scale="   48.557">  2  9  1 -1</clus>
<clus scale="   79.962">  5  6 -1 -1</clus>
<clus scale="   86.951">  7  8 -1 -1</clus>
<clus scale="   92.186">  2  5  1 -1</clus>
<clus scale="   48.557">  2  5  1 -1</clus>
</clustering>
</event>
<event>
 9    1  0.6345107E-005  0.2165261E+03  0.7546771E-02  0.1167255E+00
         -2   -1    0    0    0  501 -0.00000000000E+00  0.00000000000E+00  0.19694184084E+04  0.19694184084E+04  0.00000000000E+00 0.  1.
         21   -1    0    0  501  502  0.00000000000E+00 -0.00000000000E+00 -0.35512657988E+02  0.35512657988E+02  0.00000000000E+00 0.  1.
        -24    2    1    2    0    0  0.29471248350E+02 -0.38244481606E+02  0.50242568267E+03  0.51322264709E+03  0.92923215782E+02 0.  0.
         23    2    1    2    0    0  0.66349967872E+02  0.19680299048E+03  0.64621811532E+03  0.68488821619E+03  0.91325137887E+02 0.  0.
         11    1    3    3    0    0  0.17715152864E+02 -0.59472533184E+02  0.19045280456E+03  0.20030746269E+03  0.00000000000E+00 0. -1.
        -12    1    3    3    0    0  0.11756095486E+02  0.21228051578E+02  0.31197287811E+03  0.31291518440E+03  0.00000000000E+00 0.  1.
        -13    1    4    4    0    0 -0.13335163551E+02  0.62122950976E+02  0.27093152797E+03  0.27828219576E+03  0.00000000000E+00 0. -1.
         13    1    4    4    0    0  0.79685131424E+02  0.13468003950E+03  0.37528658734E+03  0.40660602043E+03  0.00000000000E+00 0.  1.
         -1    1    1    2    0  502 -0.95821216222E+02 -0.15855850887E+03  0.78526195243E+03  0.80682020312E+03  0.00000000000E+00 0.  1.
<scales pt_clust_5="13000.00000" pt_clust_6="13000.00000" pt_clust_7="13000.00000" pt_clust_8="13000.00000" pt_clust_9="196.32455"></scales>
<clustering>
<clus scale="   91.325">  7  8 -1 -1</clus>
<clus scale="   92.923">  5  6 -1 -1</clus>
<clus scale="  104.718">  1  5  2 -1</clus>
<clus scale="  196.325">  2  9  1 -1</clus>
<clus scale="  196.325">  2  5  1 -1</clus>
</clustering>
</event>
<event>
 9    1  0.6345107E-005  0.2522819E+03  0.7546771E-02  0.1151511E+00
         21   -1    0    0  501  502  0.00000000000E+00  0.00000000000E+00  0.51112170945E+03  0.51112170945E+03  0.00000000000E+00 0. -1.
          1   -1    0    0  502    0 -0.00000000000E+00 -0.00000000000E+00 -0.32632819433E+03  0.32632819433E+03  0.00000000000E+00 0. -1.
        -24    2    1    2    0    0  0.54320836130E+02 -0.11630198114E+02 -0.10555853759E+03  0.14238335610E+03  0.77745742581E+02 0.  0.
         23    2    1    2    0    0  0.15903387306E+03 -0.10925218822E+03 -0.99336447601E+02  0.23464292693E+03  0.89228694537E+02 0.  0.
         11    1    3    3    0    0  0.54371493279E+02 -0.18939615187E+02 -0.11607857010E+03  0.12957315594E+03  0.00000000000E+00 0. -1.
        -12    1    3    3    0    0 -0.50657149432E-01  0.73094170735E+01  0.10520032506E+02  0.12810200156E+02  0.00000000000E+00 0.  1.
        -11    1    4    4    0    0  0.14761323464E+03 -0.56589140332E+02 -0.66250962928E+02  0.17140941611E+03  0.00000000000E+00 0. -1.
         11    1    4    4    0    0  0.11420638417E+02 -0.52663047886E+02 -0.33085484673E+02  0.63233510819E+02  0.00000000000E+00 0.  1.
          2    1    1    2  501    0 -0.21335470919E+03  0.12088238633E+03  0.38968850031E+03  0.46042362074E+03  0.00000000000E+00 0. -1.
<scales pt_clust_5="13000.00000" pt_clust_6="13000.00000" pt_clust_7="13000.00000" pt_clust_8="13000.00000" pt_clust_9="235.97543"></scales>
<clustering>
<clus scale="   77.746">  5  6 -1 -1</clus>
<clus scale="   89.229">  7  8 -1 -1</clus>
<clus scale="   95.553">  2  5  1 -1</clus>
<clus scale="  235.975">  1  9  2 -1</clus>
<clus scale="  235.975">  1  5  2 -1</clus>
</clustering>
</event>
<event>
 9    1  0.6345107E-005  0.1382921E+03  0.7546771E-02  0.1225179E+00
         21   -1    0    0  501  502  0.00000000000E+00  0.00000000000E+00  0.33176103623E+02  0.33176103623E+02  0.00000000000E+00 0.  1.
         -2   -1    0    0    0  501 -0.00000000000E+00 -0.00000000000E+00 -0.60385743000E+03  0.60385743000E+03  0.00000000000E+00 0.  1.
         23    2    1    2    0    0 -0.75547150910E+02 -0.11936795063E+02 -0.27790296708E+03  0.30935632927E+03  0.11234509451E+03 0.  0.
        -24    2    1    2    0    0  0.78327445628E+02  0.36465499267E+02 -0.20231399746E+03  0.23390520357E+03  0.79471814575E+02 0.  0.
         13    1    4    4    0    0  0.25349934034E+02 -0.80198681115E+01 -0.81863767702E+01  0.27820032435E+02  0.00000000000E+00 0. -1.
        -14    1    4    4    0    0  0.52977511593E+02  0.44485367379E+02 -0.19412762069E+03  0.20608517113E+03  0.00000000000E+00 0.  1.
        -13    1    3    3    0    0 -0.10405436168E+03 -0.18520198446E+02 -0.20135163318E+03  0.22740445932E+03  0.00000000000E+00 0.  1.
         13    1    3    3    0    0  0.28507210774E+02  0.65834033827E+01 -0.76551333895E+02  0.81951869944E+02  0.00000000000E+00 0. -1.
         -1    1    1    2    0  502 -0.27802947175E+01 -0.24528704204E+02 -0.90464361836E+02  0.93772000784E+02  0.00000000000E+00 0.  1.
<scales pt_clust_5="13000.00000" pt_clust_6="13000.00000" pt_clust_7="13000.00000" pt_clust_8="13000.00000" pt_clust_9="24.68578"></scales>
<clustering>
<clus scale="   24.686">  1  9  2 -1</clus>
<clus scale="   79.472">  5  6 -1 -1</clus>
<clus scale="  112.345">  7  8 -1 -1</clus>
<clus scale="  113.221">  1  5  2 -1</clus>
<clus scale="   24.686">  1  5  2 -1</clus>
</clustering>
</event>
<event>
 9    1  0.6345107E-005  0.1517132E+03  0.7546771E-02  0.1200176E+00
         21   -1    0    0  501  502  0.00000000000E+00  0.00000000000E+00  0.60313939417E+02  0.60313939417E+02  0.00000000000E+00 0. -1.
          1   -1    0    0  502    0 -0.00000000000E+00 -0.00000000000E+00 -0.16383504855E+04  0.16383504855E+04  0.00000000000E+00 0. -1.
        -24    2    1    2    0    0 -0.89959407036E+02 -0.74399245614E+02 -0.99395027444E+03  0.10038428874E+04  0.78329125778E+02 0.  0.
         23    2    1    2    0    0  0.11768513484E+03  0.71360238584E+02 -0.62456345299E+03  0.64566511610E+03  0.88667134376E+02 0.  0.
         11    1    3    3    0    0 -0.11625510044E+00 -0.38498039426E+02 -0.17422756657E+03  0.17843025951E+03  0.00000000000E+00 0. -1.
        -12    1    3    3    0    0 -0.89843151936E+02 -0.35901206187E+02 -0.81972270786E+03  0.82541262793E+03  0.00000000000E+00 0.  1.
        -11    1    4    4    0    0  0.14523819904E+02  0.39599636334E+02 -0.79290834775E+02  0.89811519427E+02  0.00000000000E+00 0. -1.
         11    1    4    4    0    0  0.10316131494E+03  0.31760602250E+02 -0.54527261822E+03  0.55585359667E+03  0.00000000000E+00 0.  1.
          2    1    1    2  501    0 -0.27725727808E+02  0.30390070298E+01  0.40477181385E+02  0.49156421341E+02  0.00000000000E+00 0. -1.
<scales pt_clust_5="13000.00000" pt_clust_6="13000.00000" pt_clust_7="13000.00000" pt_clust_8="13000.00000" pt_clust_9="27.89178"></scales>
<clustering>
<clus scale="   27.892">  1  9  2 -1</clus>
<clus scale="   78.329">  5  6 -1 -1</clus>
<clus scale="   88.667">  7  8 -1 -1</clus>
<clus scale="  145.913">  2  5  1 -1</clus>
<clus scale="   27.892">  1  5  2 -1</clus>
</clustering>
</event>
<event>
 9    1  0.6345107E-005  0.9839047E+02  0.7546771E-02  0.1288928E+00
         21   -1    0    0  501  502  0.00000000000E+00  0.00000000000E+00  0.17254581684E+03  0.17254581684E+03  0.00000000000E+00 0. -1.
         -2   -1    0    0    0  501 -0.00000000000E+00 -0.00000000000E+00 -0.96358067682E+02  0.96358067682E+02  0.00000000000E+00 0.  1.
        -24    2    1    2    0    0  0.47501335068E+02 -0.40155166045E+01  0.20503050245E+01  0.93914743536E+02  0.80890506834E+02 0.  0.
         23    2    1    2    0    0 -0.11072467369E+02  0.19390219800E+02  0.92297544931E+02  0.13147784174E+03  0.90934074537E+02 0.  0.
         11    1    3    3    0    0  0.93076621379E+01  0.34510797181E+02 -0.12296692917E+02  0.37799951762E+02  0.00000000000E+00 0. -1.
        -12    1    3    3    0    0  0.38193672930E+02 -0.38526313786E+02  0.14346997941E+02  0.56114791773E+02  0.00000000000E+00 0.  1.
        -11    1    4    4    0    0 -0.18537956340E+02 -0.30122745850E+02  0.12978319492E+02  0.37675886449E+02  0.00000000000E+00 0.  1.
         11    1    4    4    0    0  0.74654889716E+01  0.49512965651E+02  0.79319225439E+02  0.93801955296E+02  0.00000000000E+00 0. -1.
         -1    1    1    2    0  502 -0.36428867700E+02 -0.15374703196E+02 -0.18160100802E+02  0.43511299238E+02  0.00000000000E+00 0.  1.
<scales pt_clust_5="13000.00000" pt_clust_6="13000.00000" pt_clust_7="13000.00000" pt_clust_8="13000.00000" pt_clust_9="39.54043"></scales>
<clustering>
<clus scale="   39.540">  1  9  2 -1</clus>
<clus scale="   80.891">  5  6 -1 -1</clus>
<clus scale="   89.191">  2  5  1 -1</clus>
<clus scale="   90.934">  7  8 -1 -1</clus>
<clus scale="   39.540">  1  5  2 -1</clus>
</clustering>
</event>
<event>
 9    1  0.6345107E-005  0.1649930E+03  0.7546771E-02  0.1184902E+00
         21   -1    0    0  501  502  0.00000000000E+00  0.00000000000E+00  0.25545871132E+03  0.25545871132E+03  0.00000000000E+00 0. -1.
          1   -1    0    0  502    0 -0.00000000000E+00 -0.00000000000E+00 -0.38090575586E+03  0.38090575586E+03  0.00000000000E+00 0. -1.
         23    2    1    2    0    0  0.49002686541E+00  0.15520367672E+03 -0.30261915913E+03  0.35190079176E+03  0.90373615481E+02 0.  0.
        -24    2    1    2    0    0 -0.20332800680E+02 -0.84518556161E+02  0.31307874594E+02  0.12116487427E+03  0.78383254757E+02 0.  0.
         13    1    4    4    0    0  0.18863798317E+02 -0.11623966536E+02 -0.14585902737E+02  0.26527495993E+02  0.00000000000E+00 0. -1.
        -14    1    4    4    0    0 -0.39196598997E+02 -0.72894589625E+02  0.45893777332E+02  0.94637378278E+02  0.00000000000E+00 0.  1.
        -13    1    3    3    0    0 -0.23467711012E+02  0.70756507849E+01 -0.78091545079E+02  0.81847954812E+02  0.00000000000E+00 0.  1.
         13    1    3    3    0    0  0.23957737878E+02  0.14812802594E+03 -0.22452761405E+03  0.27005283695E+03  0.00000000000E+00 0. -1.
          2    1    1    2  501    0  0.19842773815E+02 -0.70685120564E+02  0.14586424000E+03  0.16329880114E+03  0.00000000000E+00 0. -1.
<scales pt_clust_5="13000.00000" pt_clust_6="13000.00000" pt_clust_7="13000.00000" pt_clust_8="13000.00000" pt_clust_9="73.41745"></scales>
<clustering>
<clus scale="   73.417">  1  9  2 -1</clus>
<clus scale="   78.383">  5  6 -1 -1</clus>
<clus scale="   90.374">  7  8 -1 -1</clus>
<clus scale="  158.743">  1  5  2 -1</clus>
<clus scale="   73.417">  1  5  2 -1</clus>
</clustering>
</event>
<event>
 9    1  0.6345107E-005  0.1278186E+03  0.7546771E-02  0.1241368E+00
          3   -1    0    0  502    0 -0.00000000000E+00  0.00000000000E+00  0.26863612455E+03  0.26863612455E+03  0.00000000000E+00 0. -1.
         21   -1    0    0  501  502  0.00000000000E+00 -0.00000000000E+00 -0.41464540403E+03  0.41464540403E+03  0.00000000000E+00 0.  1.
         23    2    1    2    0    0  0.44045517623E+02  0.22112514010E+02  0.22207406781E+03  0.24472814502E+03  0.90255207469E+02 0.  0.
        -24    2    1    2    0    0  0.56463917924E+02 -0.80215152454E+02 -0.17429736336E+03  0.21265280632E+03  0.72242649799E+02 0.  0.
         13    1    4    4    0    0 -0.91665932117E+01 -0.19738052584E+02 -0.66934020479E+01  0.22768811605E+02  0.00000000000E+00 0. -1.
        -14    1    4    4    0    0  0.65630511136E+02 -0.60477099870E+02 -0.16760396131E+03  0.18988399471E+03  0.00000000000E+00 0.  1.
        -13    1    3    3    0    0  0.29931513715E+02  0.57231379946E+02  0.12938320263E+03  0.14460753607E+03  0.00000000000E+00 0.  1.
         13    1    3    3    0    0  0.14114003908E+02 -0.35118865936E+02  0.92690865171E+02  0.10012060895E+03  0.00000000000E+00 0. -1.
          4    1    1    2  501    0 -0.10050943555E+03  0.58102638445E+02 -0.19378598393E+03  0.22590057724E+03  0.00000000000E+00 0. -1.
<scales pt_clust_5="13000.00000" pt_clust_6="13000.00000" pt_clust_7="13000.00000" pt_clust_8="13000.00000" pt_clust_9="105.44479"></scales>
<clustering>
<clus scale="   72.243">  5  6 -1 -1</clus>
<clus scale="   90.255">  7  8 -1 -1</clus>
<clus scale="  102.835">  1  7  2 -1</clus>
<clus scale="  105.445">  2  9  1 -1</clus>
<clus scale="  105.445">  2  5  1 -1</clus>
</clustering>
</event>
<event>
 9    1  0.6345107E-005  0.1088542E+03  0.7546771E-02  0.1267543E+00
          1   -1    0    0  502    0 -0.00000000000E+00  0.00000000000E+00  0.12841007485E+03  0.12841007485E+03  0.00000000000E+00 0. -1.
         21   -1    0    0  501  502  0.00000000000E+00 -0.00000000000E+00 -0.13900006710E+03  0.13900006710E+03  0.00000000000E+00 0. -1.
         23    2    1    2    0    0 -0.38110964313E+02 -0.31304920591E+02  0.17649444318E+02  0.10629691190E+03  0.92493712976E+02 0.  0.
        -24    2    1    2    0    0  0.30350289911E+02  0.70442932218E+02 -0.41829016264E+02  0.11896244479E+03  0.80740633341E+02 0.  0.
         13    1    4    4    0    0 -0.50430490797E+01  0.56898932662E+02 -0.54553071489E+02  0.78987078000E+02  0.00000000000E+00 0. -1.
        -14    1    4    4    0    0  0.35393338991E+02  0.13543999556E+02  0.12724055225E+02  0.39975366793E+02  0.00000000000E+00 0.  1.
        -11    1    3    3    0    0 -0.14353048780E+02  0.33147955613E+02  0.54868398495E+01  0.36536315936E+02  0.00000000000E+00 0.  1.
         11    1    3    3    0    0 -0.23757915533E+02 -0.64452876204E+02  0.12162604468E+02  0.69760595962E+02  0.00000000000E+00 0. -1.
          2    1    1    2  501    0  0.77606744017E+01 -0.39138011627E+02  0.13589579704E+02  0.42150785258E+02  0.00000000000E+00 0. -1.
<scales pt_clust_5="13000.00000" pt_clust_6="13000.00000" pt_clust_7="13000.00000" pt_clust_8="13000.00000" pt_clust_9="39.90005"></scales>
<clustering>
<clus scale="   39.900">  2  9  1 -1</clus>
<clus scale="   80.741">  5  6 -1 -1</clus>
<clus scale="   92.494">  7  8 -1 -1</clus>
<clus scale="   99.062">  2  5  1 -1</clus>
<clus scale="   39.900">  2  5  1 -1</clus>
</clustering>
</event>
<event>
 9    1  0.6345107E-005  0.1655526E+03  0.7546771E-02  0.1207434E+00
         21   -1    0    0  501  502  0.00000000000E+00  0.00000000000E+00  0.14606642364E+03  0.14606642364E+03  0.00000000000E+00 0.  1.
         -2   -1    0    0    0  501 -0.00000000000E+00 -0.00000000000E+00 -0.32061151865E+03  0.32061151865E+03  0.00000000000E+00 0.  1.
        -24    2    1    2    0    0  0.14995299534E+02 -0.48255379187E+02  0.26335067140E+02  0.99559768745E+02  0.81640499525E+02 0.  0.
         23    2    1    2    0    0  0.12643601656E+03 -0.29612418187E+01 -0.10993351726E+03  0.19134203280E+03  0.92366444460E+02 0.  0.
         13    1    3    3    0    0  0.25037999842E+02  0.12216498242E+02  0.26223066246E+02  0.38259553954E+02  0.00000000000E+00 0. -1.
        -14    1    3    3    0    0 -0.10042700308E+02 -0.60471877429E+02  0.11200089346E+00  0.61300214791E+02  0.00000000000E+00 0.  1.
        -11    1    4    4    0    0  0.13248692948E+03  0.16491056158E+02 -0.81690677111E+02  0.15651871499E+03  0.00000000000E+00 0.  1.
         11    1    4    4    0    0 -0.60509129137E+01 -0.19452297976E+02 -0.28242840152E+02  0.34823317813E+02  0.00000000000E+00 0. -1.
         -1    1    1    2    0  502 -0.14143131610E+03  0.51216621005E+02 -0.90946644884E+02  0.17577614075E+03  0.00000000000E+00 0.  1.
<scales pt_clust_5="13000.00000" pt_clust_6="13000.00000" pt_clust_7="13000.00000" pt_clust_8="13000.00000" pt_clust_9="137.39036"></scales>
<clustering>
<clus scale="   81.640">  5  6 -1 -1</clus>
<clus scale="   92.366">  7  8 -1 -1</clus>
<clus scale="   96.014">  2  5  1 -1</clus>
<clus scale="  137.390">  1  9  2 -1</clus>
<clus scale="  137.390">  1  5  2 -1</clus>
</clustering>
</event>
<event>
 9    1  0.6345107E-005  0.1563845E+03  0.7546771E-02  0.1200793E+00
         21   -1    0    0  501  502  0.00000000000E+00  0.00000000000E+00  0.28783490089E+03  0.28783490089E+03  0.00000000000E+00 0. -1.
          3   -1    0    0  502    0 -0.00000000000E+00 -0.00000000000E+00 -0.28355773371E+03  0.28355773371E+03  0.00000000000E+00 0. -1.
        -24    2    1    2    0    0 -0.73506387493E+02 -0.77773326396E+02 -0.22350718242E+03  0.26116300722E+03  0.82454693288E+02 0.  0.
         23    2    1    2    0    0  0.74530211391E+02  0.20373471639E+02  0.10934341391E+03  0.17860878258E+03  0.11821710660E+03 0.  0.
         13    1    3    3    0    0 -0.47731048208E+02 -0.79716296183E+02 -0.21455315683E+03  0.23380760883E+03  0.00000000000E+00 0. -1.
        -14    1    3    3    0    0 -0.25775339285E+02  0.19429697869E+01 -0.89540255897E+01  0.27355398391E+02  0.00000000000E+00 0.  1.
        -13    1    4    4    0    0  0.66990902001E+02  0.53649192763E+02  0.27800835405E+02  0.90215870468E+02  0.00000000000E+00 0.  1.
         13    1    4    4    0    0  0.75393093898E+01 -0.33275721124E+02  0.81542578502E+02  0.88392912109E+02  0.00000000000E+00 0. -1.
          4    1    1    2  501    0 -0.10238238976E+01  0.57399854756E+02  0.11844093569E+03  0.13162084481E+03  0.00000000000E+00 0. -1.
<scales pt_clust_5="13000.00000" pt_clust_6="13000.00000" pt_clust_7="13000.00000" pt_clust_8="13000.00000" pt_clust_9="57.40898"></scales>
<clustering>
<clus scale="   57.409">  1  9  2 -1</clus>
<clus scale="   82.455">  5  6 -1 -1</clus>
<clus scale="  118.217">  7  8 -1 -1</clus>
<clus scale="  131.452">  2  5  1 -1</clus>
<clus scale="   57.409">  1  5  2 -1</clus>
</clustering>
</event>
<event>
 9    1  0.6345107E-005  0.1080941E+03  0.7546771E-02  0.1268511E+00
          1   -1    0    0  502    0 -0.00000000000E+00  0.00000000000E+00  0.29758649059E+02  0.29758649059E+02  0.00000000000E+00 0. -1.
         21   -1    0    0  501  502  0.00000000000E+00 -0.00000000000E+00 -0.78168708930E+03  0.78168708930E+03  0.00000000000E+00 0.  1.
        -24    2    1    2    0    0  0.42378084159E+02  0.24591420940E+02 -0.29851487153E+03  0.31310987441E+03  0.80783815977E+02 0.  0.
         23    2    1    2    0    0 -0.62681733172E+02 -0.33521496253E+02 -0.46067074314E+03  0.47499810508E+03  0.91394616141E+02 0.  0.
         11    1    3    3    0    0  0.26635979267E+02 -0.27428501857E+02 -0.93545205298E+02  0.10105693217E+03  0.00000000000E+00 0. -1.
        -12    1    3    3    0    0  0.15742104893E+02  0.52019922797E+02 -0.20496966624E+03  0.21205294224E+03  0.00000000000E+00 0.  1.
        -11    1    4    4    0    0 -0.27901150813E+02 -0.63700397617E+02 -0.26362597554E+03  0.27264421845E+03  0.00000000000E+00 0.  1.
         11    1    4    4    0    0 -0.34780582359E+02  0.30178901363E+02 -0.19704476760E+03  0.20235388664E+03  0.00000000000E+00 0. -1.
          2    1    1    2  501    0  0.20303649013E+02  0.89300753134E+01  0.72571744339E+01  0.23337758871E+02  0.00000000000E+00 0. -1.
<scales pt_clust_5="13000.00000" pt_clust_6="13000.00000" pt_clust_7="13000.00000" pt_clust_8="13000.00000" pt_clust_9="22.18073"></scales>
<clustering>
<clus scale="   22.181">  2  9  1 -1</clus>
<clus scale="   80.784">  5  6 -1 -1</clus>
<clus scale="   91.395">  7  8 -1 -1</clus>
<clus scale="   99.284">  1  5  2 -1</clus>
<clus scale="   22.181">  2  5  1 -1</clus>
</clustering>
</event>
<event>
 9    1  0.6345107E-005  0.1582468E+03  0.7546771E-02  0.1211517E+00
          1   -1    0    0  502    0 -0.00000000000E+00  0.00000000000E+00  0.42937795681E+03  0.42937795681E+03  0.00000000000E+00 0. -1.
         21   -1    0    0  501  502  0.00000000000E+00 -0.00000000000E+00 -0.18484136700E+03  0.18484136700E+03  0.00000000000E+00 0. -1.
        -24    2    1    2    0    0 -0.49542722641E+02 -0.42499325164E+02  0.37882408891E+02  0.10763669702E+03  0.76745733669E+02 0.  0.
         23    2    1    2    0    0  0.17296048031E+03  0.35109865093E+02  0.29390585907E+03  0.35525714193E+03  0.93160895861E+02 0.  0.
         13    1    3    3    0    0 -0.66418697016E+02 -0.25534776602E+02  0.43034897727E+02  0.83159308268E+02  0.00000000000E+00 0. -1.
        -14    1    3    3    0    0  0.16875974374E+02 -0.16964548563E+02 -0.51524888358E+01  0.24477388754E+02  0.00000000000E+00 0.  1.
        -11    1    4    4    0    0  0.31922620286E+02 -0.23206788761E+02  0.27068324208E+02  0.47857109252E+02  0.00000000000E+00 0.  1.
         11    1    4    4    0    0  0.14103786003E+03  0.58316653854E+02  0.26683753486E+03  0.30740003267E+03  0.00000000000E+00 0. -1.
          2    1    1    2  501    0 -0.12341775767E+03  0.73894600710E+01 -0.87251678152E+02  0.15132548486E+03  0.00000000000E+00 0. -1.
<scales pt_clust_5="13000.00000" pt_clust_6="13000.00000" pt_clust_7="13000.00000" pt_clust_8="13000.00000" pt_clust_9="127.91831"></scales>
<clustering>
<clus scale="   76.746">  5  6 -1 -1</clus>
<clus scale="   93.161">  7  8 -1 -1</clus>
<clus scale="  100.750">  1  5  2 -1</clus>
<clus scale="  127.918">  2  9  1 -1</clus>
<clus scale="  127.918">  2  5  1 -1</clus>
</clustering>
</event>
<event>
 9    1  0.6345107E-005  0.1925209E+03  0.7546771E-02  0.1157538E+00
          3   -1    0    0  502    0 -0.00000000000E+00  0.00000000000E+00  0.63873712490E+03  0.63873712490E+03  0.00000000000E+00 0. -1.
         21   -1    0    0  501  502  0.00000000000E+00 -0.00000000000E+00 -0.83030073753E+02  0.83030073753E+02  0.00000000000E+00 0. -1.
         23    2    1    2    0    0  0.15728915846E+03  0.12182196826E+03  0.36969000964E+03  0.42944236000E+03  0.90385651617E+02 0.  0.
        -24    2    1    2    0    0 -0.90885939615E+02 -0.99951337857E+02  0.12448711621E+03  0.19919244013E+03  0.77006896719E+02 0.  0.
         13    1    4    4    0    0 -0.36059846961E+02 -0.91868165873E+00  0.56850521082E+02  0.67328584465E+02  0.00000000000E+00 0. -1.
        -14    1    4    4    0    0 -0.54826092654E+02 -0.99032656199E+02  0.67636595129E+02  0.13186385566E+03  0.00000000000E+00 0.  1.
        -11    1    3    3    0    0  0.13572571246E+03  0.11638418674E+03  0.36539534035E+03  0.40679294819E+03  0.00000000000E+00 0. -1.
         11    1    3    3    0    0  0.21563445997E+02  0.54377815161E+01  0.42946692864E+01  0.22649411811E+02  0.00000000000E+00 0.  1.
          4    1    1    2  501    0 -0.66403218845E+02 -0.21870630403E+02  0.61529925295E+02  0.93132398520E+02  0.00000000000E+00 0. -1.
<scales pt_clust_5="13000.00000" pt_clust_6="13000.00000" pt_clust_7="13000.00000" pt_clust_8="13000.00000" pt_clust_9="69.91217"></scales>
<clustering>
<clus scale="   69.912">  2  9  1 -1</clus>
<clus scale="   77.007">  5  6 -1 -1</clus>
<clus scale="   90.386">  7  8 -1 -1</clus>
<clus scale="  186.614">  2  5  1 -1</clus>
<clus scale="   69.912">  2  5  1 -1</clus>
</clustering>
</event>
<event>
 9    1  0.6345107E-005  0.1103218E+03  0.7546771E-02  0.1263545E+00
          1   -1    0    0  502    0 -0.00000000000E+00  0.00000000000E+00  0.38159519535E+03  0.38159519535E+03  0.00000000000E+00 0. -1.
         21   -1    0    0  501  502  0.00000000000E+00 -0.00000000000E+00 -0.12378617074E+03  0.12378617074E+03  0.00000000000E+00 0. -1.
         23    2    1    2    0    0 -0.22275083936E+02  0.62190695888E+02  0.31422548757E+03  0.33345631854E+03  0.89953306280E+02 0.  0.
        -24    2    1    2    0    0  0.38932815599E+02 -0.42431001903E+02  0.11026971553E+02  0.99699412295E+02  0.80636373041E+02 0.  0.
         13    1    4    4    0    0  0.45572359750E+02  0.91133486705E+01  0.10870153984E+02  0.47728957089E+02  0.00000000000E+00 0. -1.
        -14    1    4    4    0    0 -0.66395441502E+01 -0.51544350573E+02  0.15681756898E+00  0.51970455206E+02  0.00000000000E+00 0.  1.
        -11    1    3    3    0    0 -0.56391271858E+02  0.43503511435E+02  0.17607850456E+03  0.18993728127E+03  0.00000000000E+00 0. -1.
         11    1    3    3    0    0  0.34116187922E+02  0.18687184453E+02  0.13814698301E+03  0.14351903726E+03  0.00000000000E+00 0.  1.
          2    1    1    2  501    0 -0.16657731663E+02 -0.19759693985E+02 -0.67443434509E+02  0.72225635261E+02  0.00000000000E+00 0. -1.
<scales pt_clust_5="13000.00000" pt_clust_6="13000.00000" pt_clust_7="13000.00000" pt_clust_8="13000.00000" pt_clust_9="25.84426"></scales>
<clustering>
<clus scale="   25.844">  2  9  1 -1</clus>
<clus scale="   80.636">  5  6 -1 -1</clus>
<clus scale="   89.953">  7  8 -1 -1</clus>
<clus scale="  102.867">  2  5  1 -1</clus>
<clus scale="   25.844">  2  5  1 -1</clus>
</clustering>
</event>
<event>
 9    1  0.6345107E-005  0.9528267E+02  0.7546771E-02  0.1296641E+00
          1   -1    0    0  502    0 -0.00000000000E+00  0.00000000000E+00  0.51605241680E+03  0.51605241680E+03  0.00000000000E+00 0. -1.
         21   -1    0    0  501  502  0.00000000000E+00 -0.00000000000E+00 -0.28149039702E+02  0.28149039702E+02  0.00000000000E+00 0.  1.
         23    2    1    2    0    0  0.89092988017E+01 -0.22535908908E+02  0.28381108160E+03  0.29908313824E+03  0.91185255067E+02 0.  0.
        -24    2    1    2    0    0  0.15901834235E+02  0.33773455679E+02  0.19836886189E+03  0.21728609823E+03  0.80433379095E+02 0.  0.
         11    1    4    4    0    0 -0.29088763857E+02  0.14722655066E+01  0.39770894663E+02  0.49295515118E+02  0.00000000000E+00 0. -1.
        -12    1    4    4    0    0  0.44990598092E+02  0.32301190173E+02  0.15859796723E+03  0.16799058311E+03  0.00000000000E+00 0.  1.
        -11    1    3    3    0    0  0.36297268951E+02  0.14095606127E+02  0.66937859284E+02  0.77439362413E+02  0.00000000000E+00 0.  1.
         11    1    3    3    0    0 -0.27387970149E+02 -0.36631515035E+02  0.21687322232E+03  0.22164377582E+03  0.00000000000E+00 0. -1.
          2    1    1    2  501    0 -0.24811133037E+02 -0.11237546771E+02  0.57234336003E+01  0.27832220037E+02  0.00000000000E+00 0. -1.
<scales pt_clust_5="13000.00000" pt_clust_6="13000.00000" pt_clust_7="13000.00000" pt_clust_8="13000.00000" pt_clust_9="27.23738"></scales>
<clustering>
<clus scale="   27.237">  2  9  1 -1</clus>
<clus scale="   80.433">  5  6 -1 -1</clus>
<clus scale="   85.050">  2  5  1 -1</clus>
<clus scale="   91.185">  7  8 -1 -1</clus>
<clus scale="   27.237">  2  5  1 -1</clus>
</clustering>
</event>
<event>
 9    1  0.6345107E-005  0.1272462E+03  0.7546771E-02  0.1234884E+00
          3   -1    0    0  502    0 -0.00000000000E+00  0.00000000000E+00  0.11994361776E+04  0.11994361776E+04  0.00000000000E+00 0. -1.
         21   -1    0    0  501  502  0.00000000000E+00 -0.00000000000E+00 -0.37430800648E+02  0.37430800648E+02  0.00000000000E+00 0. -1.
        -24    2    1    2    0    0  0.59598709702E+02 -0.70075900450E+02  0.63704606777E+03  0.64867987580E+03  0.80593118768E+02 0.  0.
         23    2    1    2    0    0 -0.98192916227E+02 -0.42852235455E+01  0.14079057845E+03  0.19498905666E+03  0.92404184412E+02 0.  0.
         11    1    3    3    0    0  0.26719857581E+02 -0.82523173200E+02  0.47634328960E+03  0.48417657363E+03  0.00000000000E+00 0. -1.
        -12    1    3    3    0    0  0.32878852121E+02  0.12447272749E+02  0.16070277817E+03  0.16450330218E+03  0.00000000000E+00 0.  1.
        -11    1    4    4    0    0 -0.13875034589E+01  0.24935163673E+02  0.61861556350E+02  0.66712365475E+02  0.00000000000E+00 0.  1.
         11    1    4    4    0    0 -0.96805412768E+02 -0.29220387218E+02  0.78929022104E+02  0.12827669118E+03  0.00000000000E+00 0. -1.
          4    1    1    2  501    0  0.38594206524E+02  0.74361123996E+02  0.38416873072E+03  0.39319804578E+03  0.00000000000E+00 0. -1.
<scales pt_clust_5="13000.00000" pt_clust_6="13000.00000" pt_clust_7="13000.00000" pt_clust_8="13000.00000" pt_clust_9="83.78005"></scales>
<clustering>
<clus scale="   80.593">  5  6 -1 -1</clus>
<clus scale="   83.780">  2  9  1 -1</clus>
<clus scale="   92.404">  7  8 -1 -1</clus>
<clus scale="  118.947">  1  5  2 -1</clus>
<clus scale="   83.780">  2  5  1 -1</clus>
</clustering>
</event>
<event>
 9    1  0.6345107E-005  0.1222992E+03  0.7546771E-02  0.1242482E+00
         21   -1    0    0  501  502  0.00000000000E+00  0.00000000000E+00  0.15728760030E+03  0.15728760030E+03  0.00000000000E+00 0.  1.
          3   -1    0    0  502    0 -0.00000000000E+00 -0.00000000000E+00 -0.18152143101E+03  0.18152143101E+03  0.00000000000E+00 0. -1.
         23    2    1    2    0    0  0.41530931295E+01  0.77421679845E+02 -0.11205220387E+03  0.16537755865E+03  0.93715931511E+02 0.  0.
        -24    2    1    2    0    0 -0.29555045780E+02 -0.80939112433E+02  0.86015496453E+02  0.14772384938E+03  0.83660201971E+02 0.  0.
         13    1    4    4    0    0 -0.43498203349E+02 -0.15041474931E+02  0.11828761818E+02  0.47521145491E+02  0.00000000000E+00 0. -1.
        -14    1    4    4    0    0  0.13943157568E+02 -0.65897637502E+02  0.74186734635E+02  0.10020270389E+03  0.00000000000E+00 0.  1.
        -11    1    3    3    0    0  0.28074126251E+02  0.18973580711E+02  0.31189770101E+01  0.34027655625E+02  0.00000000000E+00 0.  1.
         11    1    3    3    0    0 -0.23921033122E+02  0.58448099134E+02 -0.11517118088E+03  0.13134990302E+03  0.00000000000E+00 0. -1.
          4    1    1    2  501    0  0.25401952651E+02  0.35174325883E+01  0.18028767107E+01  0.25707623284E+02  0.00000000000E+00 0. -1.
<scales pt_clust_5="13000.00000" pt_clust_6="13000.00000" pt_clust_7="13000.00000" pt_clust_8="13000.00000" pt_clust_9="25.64433"></scales>
<clustering>
<clus scale="   25.644">  1  9  2 -1</clus>
<clus scale="   83.660">  5  6 -1 -1</clus>
<clus scale="   93.716">  7  8 -1 -1</clus>
<clus scale="  114.776">  1  5  2 -1</clus>
<clus scale="   25.644">  1  5  2 -1</clus>
</clustering>
</event>
<event>
 9    1  0.6345107E-005  0.1020916E+03  0.7546771E-02  0.1282341E+00
         21   -1    0    0  501  502  0.00000000000E+00  0.00000000000E+00  0.30433748407E+02  0.30433748407E+02  0.00000000000E+00 0.  1.
          1   -1    0    0  502    0 -0.00000000000E+00 -0.00000000000E+00 -0.80984242782E+03  0.80984242782E+03  0.00000000000E+00 0. -1.
        -24    2    1    2    0    0  0.51172487266E+02  0.56636174273E+02 -0.33612539137E+03  0.35374872267E+03  0.79571354021E+02 0.  0.
         23    2    1    2    0    0 -0.27568009060E+02  0.37170213828E+02 -0.24092761570E+03  0.26224052132E+03  0.92641001165E+02 0.  0.
         13    1    3    3    0    0  0.55274397317E+02  0.31095162761E+01 -0.19679995565E+03  0.20443862314E+03  0.00000000000E+00 0. -1.
        -14    1    3    3    0    0 -0.41019100508E+01  0.53526657997E+02 -0.13932543572E+03  0.14931009953E+03  0.00000000000E+00 0.  1.
        -13    1    4    4    0    0 -0.32834802821E+02  0.64236259163E+02 -0.20232149770E+03  0.21479853281E+03  0.00000000000E+00 0.  1.
         13    1    4    4    0    0  0.52667937608E+01 -0.27066045335E+02 -0.38606118008E+02  0.47441988515E+02  0.00000000000E+00 0. -1.
          2    1    1    2  501    0 -0.23604478206E+02 -0.93806388101E+02 -0.20235567234E+03  0.22428693223E+03  0.00000000000E+00 0. -1.
<scales pt_clust_5="13000.00000" pt_clust_6="13000.00000" pt_clust_7="13000.00000" pt_clust_8="13000.00000" pt_clust_9="96.73060"></scales>
<clustering>
<clus scale="   79.571">  5  6 -1 -1</clus>
<clus scale="   92.641">  7  8 -1 -1</clus>
<clus scale="   96.731">  1  9  2 -1</clus>
<clus scale="   90.399">  2  5  1 -1</clus>
<clus scale="   96.731">  1  5  2 -1</clus>
</clustering>
</event>
<event>
 9    1  0.6345107E-005  0.1005241E+03  0.7546771E-02  0.1285743E+00
          1   -1    0    0  502    0 -0.00000000000E+00  0.00000000000E+00  0.69858553359E+03  0.69858553359E+03  0.00000000000E+00 0. -1.
         21   -1    0    0  501  502  0.00000000000E+00 -0.00000000000E+00 -0.14119759106E+03  0.14119759106E+03  0.00000000000E+00 0. -1.
        -24    2    1    2    0    0 -0.13503583509E+02 -0.22389454284E+02  0.39940193214E+03  0.40849185122E+03  0.81609158101E+02 0.  0.
         23    2    1    2    0    0  0.61311815815E+02  0.20904493756E+02  0.27880691392E+03  0.30134696645E+03  0.94236735513E+02 0.  0.
         13    1    3    3    0    0  0.28225357791E+02 -0.29666579736E+02  0.24438174729E+03  0.24778865024E+03  0.00000000000E+00 0. -1.
        -14    1    3    3    0    0 -0.41728941301E+02  0.72771254521E+01  0.15502018485E+03  0.16070320099E+03  0.00000000000E+00 0.  1.
        -13    1    4    4    0    0  0.40718395513E+02 -0.13325928752E+02  0.38057141195E+02  0.57305445694E+02  0.00000000000E+00 0. -1.
         13    1    4    4    0    0  0.20593420303E+02  0.34230422508E+02  0.24074977273E+03  0.24404152076E+03  0.00000000000E+00 0.  1.
          2    1    1    2  501    0 -0.47808232306E+02  0.14849605280E+01 -0.12082090354E+03  0.12994430698E+03  0.00000000000E+00 0. -1.
<scales pt_clust_5="13000.00000" pt_clust_6="13000.00000" pt_clust_7="13000.00000" pt_clust_8="13000.00000" pt_clust_9="47.83129"></scales>
<clustering>
<clus scale="   47.831">  2  9  1 -1</clus>
<clus scale="   81.609">  5  6 -1 -1</clus>
<clus scale="   88.795">  1  5  2 -1</clus>
<clus scale="   94.237">  7  8 -1 -1</clus>
<clus scale="   47.831">  2  5  1 -1</clus>
</clustering>
</event>
<event>
 9    1  0.6345107E-005  0.1487754E+03  0.7546771E-02  0.1204033E+00
         21   -1    0    0  501  502  0.00000000000E+00  0.00000000000E+00  0.15999635798E+03  0.15999635798E+03  0.00000000000E+00 0.  1.
          1   -1    0    0  502    0 -0.00000000000E+00 -0.00000000000E+00 -0.23083192392E+03  0.23083192392E+03  0.00000000000E+00 0. -1.
         23    2    1    2    0    0  0.11687288330E+03 -0.52360403908E+02 -0.11521098610E+03  0.19540851006E+03  0.92249833268E+02 0.  0.
        -24    2    1    2    0    0 -0.93879367906E+02  0.30747175972E+01  0.61080675938E+02  0.13852648404E+03  0.81461329482E+02 0.  0.
         11    1    4    4    0    0 -0.87031245261E+02  0.82784945295E+01  0.11467129558E+02  0.88172933396E+02  0.00000000000E+00 0. -1.
        -12    1    4    4    0    0 -0.68481226446E+01 -0.52037769323E+01  0.49613546380E+02  0.50353550645E+02  0.00000000000E+00 0.  1.
        -11    1    3    3    0    0  0.25785931794E+02  0.17146095746E+02  0.25925857534E+01  0.31074497240E+02  0.00000000000E+00 0. -1.
         11    1    3    3    0    0  0.91086951507E+02 -0.69506499654E+02 -0.11780357185E+03  0.16433401282E+03  0.00000000000E+00 0.  1.
          2    1    1    2  501    0 -0.22993515395E+02  0.49285686311E+02 -0.16705255779E+02  0.56893287794E+02  0.00000000000E+00 0. -1.
<scales pt_clust_5="13000.00000" pt_clust_6="13000.00000" pt_clust_7="13000.00000" pt_clust_8="13000.00000" pt_clust_9="54.38551"></scales>
<clustering>
<clus scale="   54.386">  1  9  2 -1</clus>
<clus scale="   81.461">  5  6 -1 -1</clus>
<clus scale="   92.250">  7  8 -1 -1</clus>
<clus scale="  142.338">  1  5  2 -1</clus>
<clus scale="   54.386">  1  5  2 -1</clus>
</clustering>
</event>
<event>
 9    1  0.6345107E-005  0.1626115E+03  0.7546771E-02  0.1186924E+00
         21   -1    0    0  501  502  0.00000000000E+00  0.00000000000E+00  0.12485128548E+03  0.12485128548E+03  0.00000000000E+00 0.  1.
          1   -1    0    0  502    0 -0.00000000000E+00 -0.00000000000E+00 -0.36787059134E+03  0.36787059134E+03  0.00000000000E+00 0. -1.
        -24    2    1    2    0    0 -0.14456001996E+03 -0.14891116063E+01 -0.24985334183E+03  0.30015389406E+03  0.82254792410E+02 0.  0.
         23    2    1    2    0    0  0.11372249114E+03  0.11614624302E+01 -0.26277348532E+02  0.14731950963E+03  0.89879835813E+02 0.  0.
         11    1    3    3    0    0 -0.15062003495E+03 -0.34535738710E+01 -0.20262554412E+03  0.25249838263E+03  0.00000000000E+00 0. -1.
        -12    1    3    3    0    0  0.60600149902E+01  0.19644622647E+01 -0.47227797704E+02  0.47655511429E+02  0.00000000000E+00 0.  1.
        -11    1    4    4    0    0  0.24776846158E+02  0.36077811971E+02  0.10371978929E+02  0.44978645701E+02  0.00000000000E+00 0.  1.
         11    1    4    4    0    0  0.88945644981E+02 -0.34916349541E+02 -0.36649327462E+02  0.10234086393E+03  0.00000000000E+00 0. -1.
          2    1    1    2  501    0  0.30837528821E+02  0.32764917605E+00  0.33111384499E+02  0.45248473137E+02  0.00000000000E+00 0. -1.
<scales pt_clust_5="13000.00000" pt_clust_6="13000.00000" pt_clust_7="13000.00000" pt_clust_8="13000.00000" pt_clust_9="30.83927"></scales>
<clustering>
<clus scale="   30.839">  1  9  2 -1</clus>
<clus scale="   82.255">  5  6 -1 -1</clus>
<clus scale="   89.880">  7  8 -1 -1</clus>
<clus scale="  158.524">  2  5  1 -1</clus>
<clus scale="   30.839">  1  5  2 -1</clus>
</clustering>
</event>
<event>
 9    1  0.8520381E-005  0.9997584E+02  0.7546771E-02  0.1285828E+00
         21   -1    0    0  501  502  0.00000000000E+00  0.00000000000E+00  0.33350407616E+03  0.33350407616E+03  0.00000000000E+00 0.  1.
          1   -1    0    0  502    0 -0.00000000000E+00 -0.00000000000E+00 -0.11828126156E+03  0.11828126156E+03  0.00000000000E+00 0. -1.
        -24    2    1    2    0    0 -0.39985366377E+02 -0.45615839994E+01  0.59775822611E+02  0.10710325423E+03  0.79235853781E+02 0.  0.
         23    2    1    2    0    0  0.51358671371E+02 -0.23768388590E+02  0.23578181876E+03  0.25874243137E+03  0.90288040818E+02 0.  0.
         13    1    3    3    0    0  0.23630425181E+02 -0.56401777409E+00  0.79068694533E+01  0.24924560073E+02  0.00000000000E+00 0. -1.
        -14    1    3    3    0    0 -0.63615791558E+02 -0.39975662253E+01  0.51868953158E+02  0.82178694155E+02  0.00000000000E+00 0.  1.
        -11    1    4    4    0    0  0.52448330569E+02 -0.50144643556E+02  0.20855987904E+03  0.22082240783E+03  0.00000000000E+00 0.  1.
         11    1    4    4    0    0 -0.10896591982E+01  0.26376254965E+02  0.27221939721E+02  0.37920023541E+02  0.00000000000E+00 0. -1.
          2    1    1    2  501    0 -0.11373304994E+02  0.28329972590E+02 -0.80334826769E+02  0.85939652114E+02  0.00000000000E+00 0. -1.
<scales pt_clust_5="13000.00000" pt_clust_6="13000.00000" pt_clust_7="13000.00000" pt_clust_8="13000.00000" pt_clust_9="30.52770"></scales>
<clustering>
<clus scale="   30.528">  1  9  2 -1</clus>
<clus scale="   79.236">  5  6 -1 -1</clus>
<clus scale="   90.120">  2  5  1 -1</clus>
<clus scale="   90.288">  7  8 -1 -1</clus>
<clus scale="   30.528">  1  5  2 -1</clus>
</clustering>
</event>
<event>
 9    1  0.6345107E-005  0.1292480E+03  0.7546771E-02  0.1230880E+00
         21   -1    0    0  501  502  0.00000000000E+00  0.00000000000E+00  0.45972603526E+03  0.45972603526E+03  0.00000000000E+00 0.  1.
         -2   -1    0    0    0  501 -0.00000000000E+00 -0.00000000000E+00 -0.55207069094E+02  0.55207069094E+02  0.00000000000E+00 0.  1.
         23    2    1    2    0    0 -0.21933243286E+02 -0.97037261433E+02  0.19570047920E+03  0.23825380347E+03  0.92568353344E+02 0.  0.
        -24    2    1    2    0    0  0.76425962416E+01  0.80090383652E+02  0.22219423583E+03  0.25078857056E+03  0.83974697716E+02 0.  0.
         13    1    4    4    0    0 -0.37040758400E+02  0.22758667542E+02  0.89039723412E+02  0.99086058941E+02  0.00000000000E+00 0. -1.
        -14    1    4    4    0    0  0.44683354642E+02  0.57331716110E+02  0.13315451241E+03  0.15170251161E+03  0.00000000000E+00 0.  1.
        -13    1    3    3    0    0 -0.42858816396E+02 -0.54313188307E+02  0.51052607020E+02  0.85983540579E+02  0.00000000000E+00 0.  1.
         13    1    3    3    0    0  0.20925573111E+02 -0.42724073126E+02  0.14464787218E+03  0.15227026289E+03  0.00000000000E+00 0. -1.
         -1    1    1    2    0  502  0.14290647044E+02  0.16946877780E+02 -0.13375748860E+02  0.25890730330E+02  0.00000000000E+00 0.  1.
<scales pt_clust_5="13000.00000" pt_clust_6="13000.00000" pt_clust_7="13000.00000" pt_clust_8="13000.00000" pt_clust_9="22.16799"></scales>
<clustering>
<clus scale="   22.168">  1  9  2 -1</clus>
<clus scale="   83.975">  5  6 -1 -1</clus>
<clus scale="   92.568">  7  8 -1 -1</clus>
<clus scale="  123.239">  1  5  2 -1</clus>
<clus scale="   22.168">  1  5  2 -1</clus>
</clustering>
</event>
<event>
 9    1  0.6345107E-005  0.8802673E+02  0.7546771E-02  0.1307976E+00
         -2   -1    0    0    0  501 -0.00000000000E+00  0.00000000000E+00  0.41777697437E+02  0.41777697437E+02  0.00000000000E+00 0.  1.
         21   -1    0    0  501  502  0.00000000000E+00 -0.00000000000E+00 -0.33698910493E+03  0.33698910493E+03  0.00000000000E+00 0.  1.
        -24    2    1    2    0    0  0.29747050482E+02 -0.16118852615E+02 -0.32014355711E+02  0.93434561984E+02  0.80996259047E+02 0.  0.
         23    2    1    2    0    0 -0.16713891006E+02  0.32467856904E+02 -0.21379518414E+03  0.23168806349E+03  0.81470621219E+02 0.  0.
         11    1    3    3    0    0 -0.27341982350E+02 -0.13816036818E+02 -0.10543463121E+02  0.32398016711E+02  0.00000000000E+00 0. -1.
        -12    1    3    3    0    0  0.57089032832E+02 -0.23028157968E+01 -0.21470892590E+02  0.61036545274E+02  0.00000000000E+00 0.  1.
        -13    1    4    4    0    0 -0.49344039866E+02  0.19294425464E+02 -0.11009868864E+03  0.12218359286E+03  0.00000000000E+00 0. -1.
         13    1    4    4    0    0  0.32630148861E+02  0.13173431441E+02 -0.10369649549E+03  0.10950447063E+03  0.00000000000E+00 0.  1.
         -1    1    1    2    0  502 -0.13033159476E+02 -0.16349004289E+02 -0.49401867648E+02  0.53644176891E+02  0.00000000000E+00 0.  1.
<scales pt_clust_5="13000.00000" pt_clust_6="13000.00000" pt_clust_7="13000.00000" pt_clust_8="13000.00000" pt_clust_9="20.90821"></scales>
<clustering>
<clus scale="   20.908">  2  9  1 -1</clus>
<clus scale="   80.996">  5  6 -1 -1</clus>
<clus scale="   81.471">  7  8 -1 -1</clus>
<clus scale="   87.588">  1  5  2 -1</clus>
<clus scale="   20.908">  2  5  1 -1</clus>
</clustering>
</event>
<event>
 9    1  0.6345107E-005  0.1168532E+03  0.7546771E-02  0.1253349E+00
          1   -1    0    0  502    0 -0.00000000000E+00  0.00000000000E+00  0.39553188240E+03  0.39553188240E+03  0.00000000000E+00 0. -1.
         21   -1    0    0  501  502  0.00000000000E+00 -0.00000000000E+00 -0.59995090419E+02  0.59995090419E+02  0.00000000000E+00 0. -1.
         23    2    1    2    0    0  0.49480570655E+02 -0.34735171768E+02  0.24183895440E+03  0.26807201765E+03  0.98598518015E+02 0.  0.
        -24    2    1    2    0    0 -0.26166140400E+02  0.74315844545E+02  0.61535389653E+02  0.13137808496E+03  0.85241336060E+02 0.  0.
         13    1    4    4    0    0 -0.19209809495E+01  0.57054988498E+02  0.78544347706E+02  0.97098797299E+02  0.00000000000E+00 0. -1.
        -14    1    4    4    0    0 -0.24245159451E+02  0.17260856047E+02 -0.17008958053E+02  0.34279287658E+02  0.00000000000E+00 0.  1.
        -13    1    3    3    0    0 -0.18542178568E+01 -0.58238692249E+02  0.10584081080E+03  0.12081995129E+03  0.00000000000E+00 0. -1.
         13    1    3    3    0    0  0.51334788512E+02  0.23503520481E+02  0.13599814360E+03  0.14725206637E+03  0.00000000000E+00 0.  1.
          2    1    1    2  501    0 -0.23314430255E+02 -0.39580672777E+02  0.32162447933E+02  0.56076870210E+02  0.00000000000E+00 0. -1.
<scales pt_clust_5="13000.00000" pt_clust_6="13000.00000" pt_clust_7="13000.00000" pt_clust_8="13000.00000" pt_clust_9="45.93683"></scales>
<clustering>
<clus scale="   45.937">  2  9  1 -1</clus>
<clus scale="   85.241">  5  6 -1 -1</clus>
<clus scale="   98.599">  7  8 -1 -1</clus>
<clus scale="  105.826">  2  5  1 -1</clus>
<clus scale="   45.937">  2  5  1 -1</clus>
</clustering>
</event>
<event>
 9    1  0.6345107E-005  0.1262306E+03  0.7546771E-02  0.1236487E+00
          3   -1    0    0  502    0 -0.00000000000E+00  0.00000000000E+00  0.16814531894E+03  0.16814531894E+03  0.00000000000E+00 0. -1.
         21   -1    0    0  501  502  0.00000000000E+00 -0.00000000000E+00 -0.19069036790E+03  0.19069036790E+03  0.00000000000E+00 0. -1.
        -24    2    1    2    0    0 -0.85715879962E+02 -0.35909596225E+02  0.50145791907E+02  0.13223753947E+03  0.79595572863E+02 0.  0.
         23    2    1    2    0    0  0.64667514997E+02  0.49316955900E+02  0.25722218455E+02  0.12507021424E+03  0.91470630981E+02 0.  0.
         11    1    3    3    0    0 -0.39315790786E+02 -0.58682227438E+02  0.30591367352E+02  0.76975106227E+02  0.00000000000E+00 0. -1.
        -12    1    3    3    0    0 -0.46400089176E+02  0.22772631213E+02  0.19554424555E+02  0.55262433240E+02  0.00000000000E+00 0.  1.
        -13    1    4    4    0    0  0.17973510302E+02  0.57142409721E+02  0.43993437024E+02  0.74321763720E+02  0.00000000000E+00 0.  1.
         13    1    4    4    0    0  0.46694004695E+02 -0.78254538206E+01 -0.18271218569E+02  0.50748450518E+02  0.00000000000E+00 0. -1.
          4    1    1    2  501    0  0.21048364965E+02 -0.13407359675E+02 -0.98413059327E+02  0.10152793314E+03  0.00000000000E+00 0. -1.
<scales pt_clust_5="13000.00000" pt_clust_6="13000.00000" pt_clust_7="13000.00000" pt_clust_8="13000.00000" pt_clust_9="24.95578"></scales>
<clustering>
<clus scale="   24.956">  2  9  1 -1</clus>
<clus scale="   79.596">  5  6 -1 -1</clus>
<clus scale="   91.471">  7  8 -1 -1</clus>
<clus scale="  117.910">  1  5  2 -1</clus>
<clus scale="   24.956">  2  5  1 -1</clus>
</clustering>
</event>
<event>
 9    1  0.6345107E-005  0.3538579E+03  0.7546771E-02  0.1104422E+00
         21   -1    0    0  501  502  0.00000000000E+00  0.00000000000E+00  0.52728047169E+03  0.52728047169E+03  0.00000000000E+00 0. -1.
          1   -1    0    0  502    0 -0.00000000000E+00 -0.00000000000E+00 -0.33058205145E+03  0.33058205145E+03  0.00000000000E+00 0. -1.
        -24    2    1    2    0    0  0.81192261628E+02 -0.87718696289E+01  0.68918998786E+02  0.13031454574E+03  0.74585007829E+02 0.  0.
         23    2    1    2    0    0  0.24999641621E+02 -0.32774343294E+03 -0.26152984682E+02  0.34256167265E+03  0.92864315224E+02 0.  0.
         13    1    3    3    0    0  0.86553071199E+02 -0.26011842257E+02  0.66262540318E+02  0.11206593738E+03  0.00000000000E+00 0. -1.
        -14    1    3    3    0    0 -0.53608095707E+01  0.17239972629E+02  0.26564584676E+01  0.18248608360E+02  0.00000000000E+00 0.  1.
        -13    1    4    4    0    0 -0.45013441607E+01 -0.86777044220E+02 -0.47199831376E+02  0.98885497343E+02  0.00000000000E+00 0.  1.
         13    1    4    4    0    0  0.29500985782E+02 -0.24096638872E+03  0.21046846693E+02  0.24367617531E+03  0.00000000000E+00 0. -1.
          2    1    1    2  501    0 -0.10619190325E+03  0.33651530257E+03  0.15393240614E+03  0.38498630475E+03  0.00000000000E+00 0. -1.
<scales pt_clust_5="13000.00000" pt_clust_6="13000.00000" pt_clust_7="13000.00000" pt_clust_8="13000.00000" pt_clust_9="341.45521"></scales>
<clustering>
<clus scale="   74.585">  5  6 -1 -1</clus>
<clus scale="   92.864">  7  8 -1 -1</clus>
<clus scale="  110.599">  2  5  1 -1</clus>
<clus scale="  341.455">  1  9  2 -1</clus>
<clus scale="  341.455">  1  5  2 -1</clus>
</clustering>
</event>
<event>
 9    1  0.6345107E-005  0.1275608E+03  0.7546771E-02  0.1233606E+00
         21   -1    0    0  501  502  0.00000000000E+00  0.00000000000E+00  0.12559897013E+03  0.12559897013E+03  0.00000000000E+00 0. -1.
          3   -1    0    0  502    0 -0.00000000000E+00 -0.00000000000E+00 -0.48876095133E+03  0.48876095133E+03  0.00000000000E+00 0. -1.
        -24    2    1    2    0    0 -0.76411461704E+02  0.67290707630E+02 -0.33390346477E+03  0.35832313870E+03  0.80852935162E+02 0.  0.
         23    2    1    2    0    0 -0.38811780984E+02 -0.91526141948E+02 -0.33230482424E+02  0.13822537225E+03  0.90103271686E+02 0.  0.
         11    1    3    3    0    0 -0.25222855516E+02 -0.13323440337E+02 -0.13102582579E+03  0.13409501679E+03  0.00000000000E+00 0. -1.
        -12    1    3    3    0    0 -0.51188606188E+02  0.80614147967E+02 -0.20287763898E+03  0.22422812191E+03  0.00000000000E+00 0.  1.
        -11    1    4    4    0    0  0.23306930970E+02 -0.28472964693E+02 -0.33428118225E+02  0.49712793501E+02  0.00000000000E+00 0.  1.
         11    1    4    4    0    0 -0.62118711954E+02 -0.63053177256E+02  0.19763580116E+00  0.88512578749E+02  0.00000000000E+00 0. -1.
          4    1    1    2  501    0  0.11522324269E+03  0.24235434318E+02  0.39719659955E+01  0.11781141051E+03  0.00000000000E+00 0. -1.
<scales pt_clust_5="13000.00000" pt_clust_6="13000.00000" pt_clust_7="13000.00000" pt_clust_8="13000.00000" pt_clust_9="117.74443"></scales>
<clustering>
<clus scale="   80.853">  5  6 -1 -1</clus>
<clus scale="   90.103">  7  8 -1 -1</clus>
<clus scale="  117.744">  1  9  2 -1</clus>
<clus scale="  121.204">  2  5  1 -1</clus>
<clus scale="  117.744">  1  5  2 -1</clus>
</clustering>
</event>
<event>
 9    1  0.6345107E-005  0.3428513E+03  0.7546771E-02  0.1106575E+00
         -4   -1    0    0    0  501 -0.00000000000E+00  0.00000000000E+00  0.37795738092E+03  0.37795738092E+03  0.00000000000E+00 0.  1.
         21   -1    0    0  501  502  0.00000000000E+00 -0.00000000000E+00 -0.54699671921E+03  0.54699671921E+03  0.00000000000E+00 0. -1.
         23    2    1    2    0    0  0.30350928953E+02 -0.62275547156E+02 -0.12933855817E+02  0.11577917094E+03  0.91859181004E+02 0.  0.
        -24    2    1    2    0    0  0.15358954213E+03  0.30914229081E+03 -0.30578420837E+03  0.46685781450E+03  0.72756672908E+02 0.  0.
         11    1    4    4    0    0  0.14445317927E+03  0.26815137283E+03 -0.29378560074E+03  0.42318064577E+03  0.00000000000E+00 0. -1.
        -12    1    4    4    0    0  0.91363628528E+01  0.40990917983E+02 -0.11998607631E+02  0.43677168731E+02  0.00000000000E+00 0.  1.
        -11    1    3    3    0    0 -0.18013887509E+02 -0.36222328988E+02  0.26317811191E+02  0.48261624987E+02  0.00000000000E+00 0. -1.
         11    1    3    3    0    0  0.48364816462E+02 -0.26053218168E+02 -0.39251667008E+02  0.67517545951E+02  0.00000000000E+00 0.  1.
         -3    1    1    2    0  502 -0.18394047108E+03 -0.24686674366E+03  0.14967872590E+03  0.34231711469E+03  0.00000000000E+00 0.  1.
<scales pt_clust_5="13000.00000" pt_clust_6="13000.00000" pt_clust_7="13000.00000" pt_clust_8="13000.00000" pt_clust_9="335.04266"></scales>
<clustering>
<clus scale="   72.757">  5  6 -1 -1</clus>
<clus scale="   91.859">  7  8 -1 -1</clus>
<clus scale="  115.054">  1  7  2 -1</clus>
<clus scale="  335.043">  2  9  1 -1</clus>
<clus scale="  335.043">  2  5  1 -1</clus>
</clustering>
</event>
<event>
 9    1  0.6345107E-005  0.9395014E+02  0.7546771E-02  0.1299900E+00
          3   -1    0    0  502    0 -0.00000000000E+00  0.00000000000E+00  0.12996391529E+03  0.12996391529E+03  0.00000000000E+00 0. -1.
         21   -1    0    0  501  502  0.00000000000E+00 -0.00000000000E+00 -0.27058624374E+03  0.27058624374E+03  0.00000000000E+00 0. -1.
         23    2    1    2    0    0  0.72032154368E+01  0.15589724464E+02  0.77440310558E+02  0.12038298268E+03  0.90554596782E+02 0.  0.
        -24    2    1    2    0    0 -0.17998906819E+02 -0.76972194247E+02 -0.12325638255E+03  0.16670977988E+03  0.79695266708E+02 0.  0.
         11    1    4    4    0    0 -0.72968802969E+01 -0.79003220673E+02 -0.52538851142E+02  0.95158206257E+02  0.00000000000E+00 0. -1.
        -12    1    4    4    0    0 -0.10702026522E+02  0.20310264254E+01 -0.70717531409E+02  0.71551573628E+02  0.00000000000E+00 0.  1.
        -11    1    3    3    0    0  0.27801360349E+02 -0.28758887799E+02  0.50931148972E+02  0.64760877081E+02  0.00000000000E+00 0. -1.
         11    1    3    3    0    0 -0.20598144912E+02  0.44348612263E+02  0.26509161586E+02  0.55622105600E+02  0.00000000000E+00 0.  1.
          4    1    1    2  501    0  0.10795691382E+02  0.61382469784E+02 -0.94806256452E+02  0.11345739646E+03  0.00000000000E+00 0. -1.
<scales pt_clust_5="13000.00000" pt_clust_6="13000.00000" pt_clust_7="13000.00000" pt_clust_8="13000.00000" pt_clust_9="62.32459"></scales>
<clustering>
<clus scale="   62.325">  2  9  1 -1</clus>
<clus scale="   79.695">  5  6 -1 -1</clus>
<clus scale="   83.533">  2  5  1 -1</clus>
<clus scale="   90.555">  7  8 -1 -1</clus>
<clus scale="   62.325">  2  5  1 -1</clus>
</clustering>
</event>
<event>
 9    1  0.6345107E-005  0.9676819E+02  0.7546771E-02  0.1293469E+00
         21   -1    0    0  501  502  0.00000000000E+00  0.00000000000E+00  0.14635726385E+03  0.14635726385E+03  0.00000000000E+00 0.  1.
         -2   -1    0    0    0  501 -0.00000000000E+00 -0.00000000000E+00 -0.14893444848E+03  0.14893444848E+03  0.00000000000E+00 0.  1.
        -24    2    1    2    0    0  0.84559182855E+01 -0.41069809048E+02 -0.72416593616E+02  0.11546648912E+03  0.79562021773E+02 0.  0.
         23    2    1    2    0    0 -0.40328496784E+02 -0.66215895118E+01  0.15730418659E+02  0.10097020694E+03  0.90979687386E+02 0.  0.
         11    1    3    3    0    0 -0.82529854209E+01  0.20897358517E+02 -0.33729940426E+02  0.40528017994E+02  0.00000000000E+00 0. -1.
        -12    1    3    3    0    0  0.16708903706E+02 -0.61967167565E+02 -0.38686653190E+02  0.74938471122E+02  0.00000000000E+00 0.  1.
        -13    1    4    4    0    0 -0.43121902290E+02  0.35374897529E+02 -0.72108918281E+00  0.55779940856E+02  0.00000000000E+00 0. -1.
         13    1    4    4    0    0  0.27934055065E+01 -0.41996487040E+02  0.16451507842E+02  0.45190266079E+02  0.00000000000E+00 0.  1.
         -1    1    1    2    0  502  0.31872578498E+02  0.47691398559E+02  0.54108990327E+02  0.78855016270E+02  0.00000000000E+00 0.  1.
<scales pt_clust_5="13000.00000" pt_clust_6="13000.00000" pt_clust_7="13000.00000" pt_clust_8="13000.00000" pt_clust_9="57.36140"></scales>
<clustering>
<clus scale="   57.361">  1  9  2 -1</clus>
<clus scale="   79.562">  5  6 -1 -1</clus>
<clus scale="   86.121">  2  5  1 -1</clus>
<clus scale="   90.980">  7  8 -1 -1</clus>
<clus scale="   57.361">  1  5  2 -1</clus>
</clustering>
</event>
<event>
 9    1  0.6345107E-005  0.2608866E+03  0.7546771E-02  0.1121192E+00
         21   -1    0    0  501  502  0.00000000000E+00  0.00000000000E+00  0.15092133535E+03  0.15092133535E+03  0.00000000000E+00 0. -1.
          1   -1    0    0  502    0 -0.00000000000E+00 -0.00000000000E+00 -0.94527287769E+03  0.94527287769E+03  0.00000000000E+00 0. -1.
        -24    2    1    2    0    0  0.49838170046E+02 -0.15435437303E+03 -0.38828431972E+03  0.42815770749E+03  0.79026539064E+02 0.  0.
         23    2    1    2    0    0 -0.24522013154E+03 -0.27412933289E+02 -0.21240232566E+03  0.33831001763E+03  0.91948563133E+02 0.  0.
         11    1    3    3    0    0  0.61319157692E+02 -0.15382142469E+03 -0.37821536519E+03  0.41287762383E+03  0.00000000000E+00 0. -1.
        -12    1    3    3    0    0 -0.11480987646E+02 -0.53294833565E+00 -0.10068954524E+02  0.15280083654E+02  0.00000000000E+00 0.  1.
        -11    1    4    4    0    0 -0.46314917865E+02 -0.27300996060E+02 -0.10289550212E+02  0.54738385492E+02  0.00000000000E+00 0. -1.
         11    1    4    4    0    0 -0.19890521367E+03 -0.11193722905E+00 -0.20211277545E+03  0.28357163214E+03  0.00000000000E+00 0.  1.
          2    1    1    2  501    0  0.19538196149E+03  0.18176730632E+03 -0.19366489697E+03  0.32972648793E+03  0.00000000000E+00 0. -1.
<scales pt_clust_5="13000.00000" pt_clust_6="13000.00000" pt_clust_7="13000.00000" pt_clust_8="13000.00000" pt_clust_9="244.14611"></scales>
<clustering>
<clus scale="   79.027">  5  6 -1 -1</clus>
<clus scale="   91.949">  7  8 -1 -1</clus>
<clus scale="  180.428">  2  5  1 -1</clus>
<clus scale="  244.146">  1  9  2 -1</clus>
<clus scale="  244.146">  1  5  2 -1</clus>
</clustering>
</event>
<event>
 9    1  0.6345107E-005  0.1633049E+03  0.7546771E-02  0.1189401E+00
         21   -1    0    0  501  502  0.00000000000E+00  0.00000000000E+00  0.93181680405E+03  0.93181680405E+03  0.00000000000E+00 0.  1.
         -4   -1    0    0    0  501 -0.00000000000E+00 -0.00000000000E+00 -0.83349533058E+02  0.83349533058E+02  0.00000000000E+00 0.  1.
        -24    2    1    2    0    0  0.20708950896E+02 -0.12395197706E+03  0.68257185953E+02  0.16312289982E+03  0.78467087044E+02 0.  0.
         23    2    1    2    0    0  0.11767756845E+03  0.50176208303E+02  0.21406467435E+03  0.26457912446E+03  0.88389854062E+02 0.  0.
         11    1    3    3    0    0  0.22255898190E+02 -0.76521813971E+02  0.81364427107E+02  0.11389066255E+03  0.00000000000E+00 0. -1.
        -12    1    3    3    0    0 -0.15469472939E+01 -0.47430163087E+02 -0.13107241154E+02  0.49232237274E+02  0.00000000000E+00 0.  1.
        -11    1    4    4    0    0  0.93572277484E+02  0.31536254985E+02  0.21220137345E+03  0.23405069832E+03  0.00000000000E+00 0.  1.
         11    1    4    4    0    0  0.24105290967E+02  0.18639953318E+02  0.18633008998E+01  0.30528426140E+02  0.00000000000E+00 0. -1.
         -3    1    1    2    0  502 -0.13838651935E+03  0.73775768755E+02  0.56614541069E+03  0.58746431282E+03  0.00000000000E+00 0.  1.
<scales pt_clust_5="13000.00000" pt_clust_6="13000.00000" pt_clust_7="13000.00000" pt_clust_8="13000.00000" pt_clust_9="137.31614"></scales>
<clustering>
<clus scale="   78.467">  5  6 -1 -1</clus>
<clus scale="   88.390">  7  8 -1 -1</clus>
<clus scale="  148.155">  2  5  1 -1</clus>
<clus scale="  137.316">  1  9  2 -1</clus>
<clus scale="  137.316">  1  5  2 -1</clus>
</clustering>
</event>
<event>
 9    1  0.6345107E-005  0.2280996E+03  0.7546771E-02  0.1138709E+00
          1   -1    0    0  502    0 -0.00000000000E+00  0.00000000000E+00  0.55763691403E+03  0.55763691403E+03  0.00000000000E+00 0. -1.
         21   -1    0    0  501  502  0.00000000000E+00 -0.00000000000E+00 -0.19065762886E+03  0.19065762886E+03  0.00000000000E+00 0. -1.
        -24    2    1    2    0    0  0.96916144315E+02 -0.12096415246E+03  0.16780927412E+03  0.24286044041E+03  0.82438921793E+02 0.  0.
         23    2    1    2    0    0  0.15775293424E+03  0.45752873405E+02  0.13919978842E+03  0.23320349495E+03  0.89598969176E+02 0.  0.
         13    1    3    3    0    0  0.33537821587E+02 -0.77673316330E+02  0.13515275990E+03  0.15944967249E+03  0.00000000000E+00 0. -1.
        -14    1    3    3    0    0  0.63378322729E+02 -0.43290836131E+02  0.32656514213E+02  0.83410767922E+02  0.00000000000E+00 0.  1.
        -11    1    4    4    0    0 -0.47879810635E+01  0.20858252439E+02  0.25479290795E+02  0.33274400323E+02  0.00000000000E+00 0.  1.
         11    1    4    4    0    0  0.16254091530E+03  0.24894620966E+02  0.11372049763E+03  0.19992909463E+03  0.00000000000E+00 0. -1.
          2    1    1    2  501    0 -0.25466907855E+03  0.75211279057E+02  0.59970222631E+02  0.27223060752E+03  0.00000000000E+00 0. -1.
<scales pt_clust_5="13000.00000" pt_clust_6="13000.00000" pt_clust_7="13000.00000" pt_clust_8="13000.00000" pt_clust_9="209.76518"></scales>
<clustering>
<clus scale="   82.439">  5  6 -1 -1</clus>
<clus scale="   89.599">  7  8 -1 -1</clus>
<clus scale="  175.560">  1  5  2 -1</clus>
<clus scale="  209.765">  2  9  1 -1</clus>
<clus scale="  209.765">  2  5  1 -1</clus>
</clustering>
</event>
<event>
 9    1  0.6345107E-005  0.1929460E+03  0.7546771E-02  0.1156686E+00
         21   -1    0    0  501  502  0.00000000000E+00  0.00000000000E+00  0.50479232062E+03  0.50479232062E+03  0.00000000000E+00 0.  1.
          3   -1    0    0  502    0 -0.00000000000E+00 -0.00000000000E+00 -0.16183508826E+03  0.16183508826E+03  0.00000000000E+00 0. -1.
        -24    2    1    2    0    0 -0.16395659964E+03 -0.66237389806E+02 -0.45772545017E+02  0.20042512492E+03  0.82498160284E+02 0.  0.
         23    2    1    2    0    0  0.13673615337E+03  0.23413612090E+02  0.38011966862E+03  0.41473421031E+03  0.90931456935E+02 0.  0.
         11    1    3    3    0    0 -0.12561651968E+03 -0.98532444048E+01 -0.20243934073E+02  0.12761823266E+03  0.00000000000E+00 0. -1.
        -12    1    3    3    0    0 -0.38340079961E+02 -0.56384145401E+02 -0.25528610945E+02  0.72806892262E+02  0.00000000000E+00 0.  1.
        -13    1    4    4    0    0  0.19359270861E+02 -0.30952304165E+02  0.85366078528E+02  0.92844999137E+02  0.00000000000E+00 0. -1.
         13    1    4    4    0    0  0.11737688251E+03  0.54365916256E+02  0.29475359009E+03  0.32188921117E+03  0.00000000000E+00 0.  1.
          4    1    1    2  501    0  0.27220446266E+02  0.42823777716E+02  0.86101087597E+01  0.51468073654E+02  0.00000000000E+00 0. -1.
<scales pt_clust_5="13000.00000" pt_clust_6="13000.00000" pt_clust_7="13000.00000" pt_clust_8="13000.00000" pt_clust_9="50.74279"></scales>
<clustering>
<clus scale="   50.743">  1  9  2 -1</clus>
<clus scale="   82.498">  5  6 -1 -1</clus>
<clus scale="   90.931">  7  8 -1 -1</clus>
<clus scale="  189.118">  2  5  1 -1</clus>
<clus scale="   50.743">  1  5  2 -1</clus>
</clustering>
</event>
<event>
 9    1  0.6345107E-005  0.1116450E+03  0.7546771E-02  0.1264819E+00
          1   -1    0    0  502    0 -0.00000000000E+00  0.00000000000E+00  0.24884974431E+03  0.24884974431E+03  0.00000000000E+00 0. -1.
         21   -1    0    0  501  502  0.00000000000E+00 -0.00000000000E+00 -0.14833779290E+03  0.14833779290E+03  0.00000000000E+00 0.  1.
         23    2    1    2    0    0 -0.52514642815E+02 -0.19820119624E+01  0.20887839192E+03  0.23696877817E+03  0.98804367987E+02 0.  0.
        -24    2    1    2    0    0  0.46601769893E+02  0.21464178418E+02 -0.80059251090E+02  0.12535023672E+03  0.81674734452E+02 0.  0.
         11    1    4    4    0    0  0.51005077736E+02 -0.10029813768E+02 -0.16939435741E+02  0.54672292820E+02  0.00000000000E+00 0. -1.
        -12    1    4    4    0    0 -0.44033078424E+01  0.31493992186E+02 -0.63119815350E+02  0.70677943897E+02  0.00000000000E+00 0.  1.
        -13    1    3    3    0    0 -0.24783800268E+02  0.48102970523E+02  0.11324336994E+03  0.12550774225E+03  0.00000000000E+00 0.  1.
         13    1    3    3    0    0 -0.27730842547E+02 -0.50084982485E+02  0.95635021981E+02  0.11146103592E+03  0.00000000000E+00 0. -1.
          2    1    1    2  501    0  0.59128729218E+01 -0.19482166455E+02 -0.28307189418E+02  0.34868522319E+02  0.00000000000E+00 0. -1.
<scales pt_clust_5="13000.00000" pt_clust_6="13000.00000" pt_clust_7="13000.00000" pt_clust_8="13000.00000" pt_clust_9="20.35969"></scales>
<clustering>
<clus scale="   20.360">  2  9  1 -1</clus>
<clus scale="   81.675">  5  6 -1 -1</clus>
<clus scale="   96.815">  2  5  1 -1</clus>
<clus scale="   98.804">  7  8 -1 -1</clus>
<clus scale="   20.360">  2  5  1 -1</clus>
</clustering>
</event>
<event>
 9    1  0.6345107E-005  0.1072583E+03  0.7546771E-02  0.1270361E+00
         21   -1    0    0  501  502  0.00000000000E+00  0.00000000000E+00  0.81637836722E+02  0.81637836722E+02  0.00000000000E+00 0. -1.
          1   -1    0    0  502    0 -0.00000000000E+00 -0.00000000000E+00 -0.45425628291E+03  0.45425628291E+03  0.00000000000E+00 0. -1.
        -24    2    1    2    0    0 -0.22310840878E+02 -0.57459204028E+02 -0.38090454592E+03  0.39419297412E+03  0.80625641057E+02 0.  0.
         23    2    1    2    0    0  0.11549138122E+02  0.16546939835E+02 -0.12389708134E+02  0.94614877458E+02  0.91603964758E+02 0.  0.
         13    1    3    3    0    0 -0.39320637663E+02 -0.47058418326E+02 -0.36044893348E+03  0.36562828245E+03  0.00000000000E+00 0. -1.
        -14    1    3    3    0    0  0.17009796785E+02 -0.10400785703E+02 -0.20455612440E+02  0.28564691670E+02  0.00000000000E+00 0.  1.
        -11    1    4    4    0    0 -0.33824415336E+02  0.29934131256E+02 -0.13976786571E+02  0.47281009398E+02  0.00000000000E+00 0.  1.
         11    1    4    4    0    0  0.45373553458E+02 -0.13387191420E+02  0.15870784368E+01  0.47333868060E+02  0.00000000000E+00 0. -1.
          2    1    1    2  501    0  0.10761702756E+02  0.40912264193E+02  0.20675807870E+02  0.47086268048E+02  0.00000000000E+00 0. -1.
<scales pt_clust_5="13000.00000" pt_clust_6="13000.00000" pt_clust_7="13000.00000" pt_clust_8="13000.00000" pt_clust_9="42.30399"></scales>
<clustering>
<clus scale="   42.304">  1  9  2 -1</clus>
<clus scale="   80.626">  5  6 -1 -1</clus>
<clus scale="   91.604">  7  8 -1 -1</clus>
<clus scale="   98.049">  2  5  1 -1</clus>
<clus scale="   42.304">  1  5  2 -1</clus>
</clustering>
</event>
<event>
 9    1  0.6345107E-005  0.1176770E+03  0.7546771E-02  0.1246990E+00
          1   -1    0    0  502    0 -0.00000000000E+00  0.00000000000E+00  0.23297259031E+03  0.23297259031E+03  0.00000000000E+00 0. -1.
         21   -1    0    0  501  502  0.00000000000E+00 -0.00000000000E+00 -0.11268777961E+03  0.11268777961E+03  0.00000000000E+00 0.  1.
        -24    2    1    2    0    0 -0.20391913907E+02 -0.10926816174E+03  0.64608378071E+02  0.15506934345E+03  0.86700042896E+02 0.  0.
         23    2    1    2    0    0  0.20456976840E+02  0.39750977459E+02 -0.58565160308E+01  0.97752742804E+02  0.86733337509E+02 0.  0.
         11    1    3    3    0    0 -0.10623104846E+01 -0.39606981091E+02  0.72221959318E+02  0.82376288230E+02  0.00000000000E+00 0. -1.
        -12    1    3    3    0    0 -0.19329603423E+02 -0.69661180648E+02 -0.76135812470E+01  0.72693055220E+02  0.00000000000E+00 0.  1.
        -13    1    4    4    0    0  0.39631801430E+02  0.10735554537E+02 -0.33765378635E+02  0.53160442155E+02  0.00000000000E+00 0.  1.
         13    1    4    4    0    0 -0.19174824590E+02  0.29015422921E+02  0.27908862604E+02  0.44592300649E+02  0.00000000000E+00 0. -1.
          2    1    1    2  501    0 -0.65062932367E-01  0.69517184280E+02  0.61532948665E+02  0.92838283670E+02  0.00000000000E+00 0. -1.
<scales pt_clust_5="13000.00000" pt_clust_6="13000.00000" pt_clust_7="13000.00000" pt_clust_8="13000.00000" pt_clust_9="69.51725"></scales>
<clustering>
<clus scale="   69.517">  2  9  1 -1</clus>
<clus scale="   86.700">  5  6 -1 -1</clus>
<clus scale="   86.733">  7  8 -1 -1</clus>
<clus scale="  117.653">  1  5  2 -1</clus>
<clus scale="   69.517">  2  5  1 -1</clus>
</clustering>
</event>
<event>
 9    1  0.6345107E-005  0.1317265E+03  0.7546771E-02  0.1230385E+00
         21   -1    0    0  501  502  0.00000000000E+00  0.00000000000E+00  0.10578375051E+03  0.10578375051E+03  0.00000000000E+00 0.  1.
         -2   -1    0    0    0  501 -0.00000000000E+00 -0.00000000000E+00 -0.26423450240E+03  0.26423450240E+03  0.00000000000E+00 0.  1.
         23    2    1    2    0    0 -0.67771253775E+02  0.63838680141E+02 -0.16492471679E+03  0.21423309098E+03  0.10013658243E+03 0.  0.
        -24    2    1    2    0    0  0.51065081566E+02 -0.52293135059E+02 -0.30981595416E+02  0.11317865070E+03  0.80668043171E+02 0.  0.
         11    1    4    4    0    0  0.47818426272E+02 -0.56616554311E+01 -0.43387396918E+02  0.64816066254E+02  0.00000000000E+00 0. -1.
        -12    1    4    4    0    0  0.32466552939E+01 -0.46631479628E+02  0.12405801503E+02  0.48362584441E+02  0.00000000000E+00 0.  1.
        -11    1    3    3    0    0 -0.63842819065E+02  0.92859196409E+01 -0.35297053842E+02  0.73539213075E+02  0.00000000000E+00 0. -1.
         11    1    3    3    0    0 -0.39284347103E+01  0.54552760500E+02 -0.12962766295E+03  0.14069387790E+03  0.00000000000E+00 0.  1.
         -1    1    1    2    0  502  0.16706172209E+02 -0.11545545082E+02  0.37455560316E+02  0.42606511236E+02  0.00000000000E+00 0.  1.
<scales pt_clust_5="13000.00000" pt_clust_6="13000.00000" pt_clust_7="13000.00000" pt_clust_8="13000.00000" pt_clust_9="20.30753"></scales>
<clustering>
<clus scale="   20.308">  1  9  2 -1</clus>
<clus scale="   80.668">  5  6 -1 -1</clus>
<clus scale="  100.137">  7  8 -1 -1</clus>
<clus scale="  117.609">  1  5  2 -1</clus>
<clus scale="   20.308">  1  5  2 -1</clus>
</clustering>
</event>
<event>
 9    1  0.6345107E-005  0.1347514E+03  0.7546771E-02  0.1230248E+00
         21   -1    0    0  501  502  0.00000000000E+00  0.00000000000E+00  0.58284810980E+02  0.58284810980E+02  0.00000000000E+00 0. -1.
          1   -1    0    0  502    0 -0.00000000000E+00 -0.00000000000E+00 -0.75230062205E+03  0.75230062205E+03  0.00000000000E+00 0. -1.
         23    2    1    2    0    0 -0.50321244814E+02  0.34332850634E+02 -0.53306617053E+02  0.12239343293E+03  0.91801877375E+02 0.  0.
        -24    2    1    2    0    0 -0.24982267735E+02  0.77762899156E+02 -0.33341583475E+03  0.35253550192E+03  0.80274398567E+02 0.  0.
         11    1    4    4    0    0 -0.38402429127E+01  0.30123021103E+02 -0.23851007842E+02  0.38613656148E+02  0.00000000000E+00 0. -1.
        -12    1    4    4    0    0 -0.21142024823E+02  0.47639878053E+02 -0.30956482691E+03  0.31392184577E+03  0.00000000000E+00 0.  1.
        -11    1    3    3    0    0 -0.64536482871E+02  0.54007544793E+02 -0.50026456603E+02  0.97900045332E+02  0.00000000000E+00 0.  1.
         11    1    3    3    0    0  0.14215238057E+02 -0.19674694159E+02 -0.32801604506E+01  0.24493387594E+02  0.00000000000E+00 0. -1.
          2    1    1    2  501    0  0.75303512549E+02 -0.11209574979E+03 -0.30729335927E+03  0.33565649818E+03  0.00000000000E+00 0. -1.
<scales pt_clust_5="13000.00000" pt_clust_6="13000.00000" pt_clust_7="13000.00000" pt_clust_8="13000.00000" pt_clust_9="108.23115"></scales>
<clustering>
<clus scale="   80.274">  5  6 -1 -1</clus>
<clus scale="   91.802">  7  8 -1 -1</clus>
<clus scale="  110.175">  2  7  1 -1</clus>
<clus scale="  108.231">  1  9  2 -1</clus>
<clus scale="  108.231">  1  5  2 -1</clus>
</clustering>
</event>
<event>
 9    1  0.6345107E-005  0.2410453E+03  0.7546771E-02  0.1119904E+00
         21   -1    0    0  501  502  0.00000000000E+00  0.00000000000E+00  0.25295094835E+03  0.25295094835E+03  0.00000000000E+00 0. -1.
         -2   -1    0    0    0  501 -0.00000000000E+00 -0.00000000000E+00 -0.56849195307E+03  0.56849195307E+03  0.00000000000E+00 0.  1.
        -24    2    1    2    0    0 -0.20999712731E+03  0.61204172085E+02 -0.43967971748E+03  0.49759106931E+03  0.80211433919E+02 0.  0.
         23    2    1    2    0    0  0.23901893198E+03 -0.51223287554E+02  0.87234519490E+02  0.27585388753E+03  0.93443195805E+02 0.  0.
         13    1    3    3    0    0 -0.46887378990E+02  0.47681508240E+02 -0.96818182356E+02  0.11766780771E+03  0.00000000000E+00 0. -1.
        -14    1    3    3    0    0 -0.16310974832E+03  0.13522663845E+02 -0.34286153513E+03  0.37992326160E+03  0.00000000000E+00 0.  1.
        -11    1    4    4    0    0  0.71601343683E+02  0.24702237020E+01 -0.13964426889E+02  0.72992188902E+02  0.00000000000E+00 0.  1.
         11    1    4    4    0    0  0.16741758830E+03 -0.53693511256E+02  0.10119894638E+03  0.20286169863E+03  0.00000000000E+00 0. -1.
         -1    1    1    2    0  502 -0.29021804674E+02 -0.99808845309E+01  0.36904193274E+02  0.47997944579E+02  0.00000000000E+00 0.  1.
<scales pt_clust_5="13000.00000" pt_clust_6="13000.00000" pt_clust_7="13000.00000" pt_clust_8="13000.00000" pt_clust_9="30.69012"></scales>
<clustering>
<clus scale="   30.690">  1  9  2 -1</clus>
<clus scale="   80.211">  5  6 -1 -1</clus>
<clus scale="   93.443">  7  8 -1 -1</clus>
<clus scale="  236.231">  2  5  1 -1</clus>
<clus scale="   30.690">  1  5  2 -1</clus>
</clustering>
</event>
<event>
 9    1  0.6345107E-005  0.1031440E+03  0.7546771E-02  0.1276411E+00
         21   -1    0    0  501  502  0.00000000000E+00  0.00000000000E+00  0.22941515128E+03  0.22941515128E+03  0.00000000000E+00 0. -1.
          3   -1    0    0  502    0 -0.00000000000E+00 -0.00000000000E+00 -0.89054083153E+02  0.89054083153E+02  0.00000000000E+00 0. -1.
        -24    2    1    2    0    0 -0.50679982236E+02  0.37947027718E+02 -0.31902463192E+02  0.10629323167E+03  0.79196252613E+02 0.  0.
         23    2    1    2    0    0  0.33505475441E+02 -0.22280477796E+02  0.10569827990E+03  0.14166829279E+03  0.85315545080E+02 0.  0.
         11    1    3    3    0    0 -0.49032022409E+02  0.57569637875E+02 -0.39343335665E+02  0.85242597848E+02  0.00000000000E+00 0. -1.
        -12    1    3    3    0    0 -0.16479598266E+01 -0.19622610157E+02  0.74408724728E+01  0.21050633817E+02  0.00000000000E+00 0.  1.
        -11    1    4    4    0    0  0.58207242269E+02 -0.32950165678E+02  0.81938223145E+02  0.10577177735E+03  0.00000000000E+00 0.  1.
         11    1    4    4    0    0 -0.24701766827E+02  0.10669687882E+02  0.23760056757E+02  0.35896515444E+02  0.00000000000E+00 0. -1.
          4    1    1    2  501    0  0.17174506795E+02 -0.15666549922E+02  0.66565251414E+02  0.70507709975E+02  0.00000000000E+00 0. -1.
<scales pt_clust_5="13000.00000" pt_clust_6="13000.00000" pt_clust_7="13000.00000" pt_clust_8="13000.00000" pt_clust_9="23.24660"></scales>
<clustering>
<clus scale="   23.247">  1  9  2 -1</clus>
<clus scale="   79.196">  5  6 -1 -1</clus>
<clus scale="   85.316">  7  8 -1 -1</clus>
<clus scale="   98.143">  2  5  1 -1</clus>
<clus scale="   23.247">  1  5  2 -1</clus>
</clustering>
</event>
<event>
 9    1  0.6345107E-005  0.1205021E+03  0.7546771E-02  0.1245374E+00
         -4   -1    0    0    0  501 -0.00000000000E+00  0.00000000000E+00  0.17720641206E+03  0.17720641206E+03  0.00000000000E+00 0.  1.
         21   -1    0    0  501  502  0.00000000000E+00 -0.00000000000E+00 -0.28745133781E+03  0.28745133781E+03  0.00000000000E+00 0.  1.
         23    2    1    2    0    0 -0.67482021285E+02  0.13317069161E+02  0.98408988486E+02  0.15112435463E+03  0.91777306668E+02 0.  0.
        -24    2    1    2    0    0  0.11308493245E+03 -0.11294101462E+02 -0.50508767882E+02  0.14893204282E+03  0.81938141727E+02 0.  0.
         13    1    4    4    0    0  0.38480853831E+02  0.32068098050E+02 -0.24273095950E+01  0.50150083310E+02  0.00000000000E+00 0. -1.
        -14    1    4    4    0    0  0.74604078624E+02 -0.43362199512E+02 -0.48081458287E+02  0.98781959511E+02  0.00000000000E+00 0.  1.
        -13    1    3    3    0    0  0.13308831563E+02 -0.22464595185E+02  0.18612607715E+02  0.32065748087E+02  0.00000000000E+00 0.  1.
         13    1    3    3    0    0 -0.80790852848E+02  0.35781664346E+02  0.79796380771E+02  0.11905860654E+03  0.00000000000E+00 0. -1.
         -3    1    1    2    0  502 -0.45602911170E+02 -0.20229676984E+01 -0.15814514635E+03  0.16460135243E+03  0.00000000000E+00 0.  1.
<scales pt_clust_5="13000.00000" pt_clust_6="13000.00000" pt_clust_7="13000.00000" pt_clust_8="13000.00000" pt_clust_9="45.64776"></scales>
<clustering>
<clus scale="   45.648">  2  9  1 -1</clus>
<clus scale="   81.938">  5  6 -1 -1</clus>
<clus scale="   91.777">  7  8 -1 -1</clus>
<clus scale="  113.188">  2  5  1 -1</clus>
<clus scale="   45.648">  2  5  1 -1</clus>
</clustering>
</event>
<event>
 9    1  0.6345107E-005  0.2519128E+03  0.7546771E-02  0.1113146E+00
          1   -1    0    0  502    0 -0.00000000000E+00  0.00000000000E+00  0.96913182853E+03  0.96913182853E+03  0.00000000000E+00 0. -1.
         21   -1    0    0  501  502  0.00000000000E+00 -0.00000000000E+00 -0.89289581233E+02  0.89289581233E+02  0.00000000000E+00 0. -1.
        -24    2    1    2    0    0  0.59625211418E+02  0.25434361337E+03  0.54105487028E+03  0.60619578896E+03  0.80542674392E+02 0.  0.
         23    2    1    2    0    0 -0.11047902310E+02 -0.19846218472E+03  0.28219442676E+03  0.35903092650E+03  0.98793809395E+02 0.  0.
         11    1    3    3    0    0  0.26764371424E+02  0.17050281809E+03  0.42916918998E+03  0.46257295228E+03  0.00000000000E+00 0. -1.
        -12    1    3    3    0    0  0.32860839994E+02  0.83840795288E+02  0.11188568029E+03  0.14362283668E+03  0.00000000000E+00 0.  1.
        -13    1    4    4    0    0 -0.24452960561E+02 -0.15548330125E+03  0.14270607148E+03  0.21245711823E+03  0.00000000000E+00 0. -1.
         13    1    4    4    0    0  0.13405058251E+02 -0.42978883467E+02  0.13948835528E+03  0.14657380826E+03  0.00000000000E+00 0.  1.
          2    1    1    2  501    0 -0.48577309108E+02 -0.55881428656E+02  0.56592950256E+02  0.93194694310E+02  0.00000000000E+00 0. -1.
<scales pt_clust_5="13000.00000" pt_clust_6="13000.00000" pt_clust_7="13000.00000" pt_clust_8="13000.00000" pt_clust_9="74.04383"></scales>
<clustering>
<clus scale="   74.044">  2  9  1 -1</clus>
<clus scale="   80.543">  5  6 -1 -1</clus>
<clus scale="   98.794">  7  8 -1 -1</clus>
<clus scale="  245.330">  1  5  2 -1</clus>
<clus scale="   74.044">  2  5  1 -1</clus>
</clustering>
</event>
<event>
 9    1  0.6345107E-005  0.9538595E+02  0.7546771E-02  0.1293581E+00
         21   -1    0    0  501  502  0.00000000000E+00  0.00000000000E+00  0.43371009557E+03  0.43371009557E+03  0.00000000000E+00 0.  1.
          1   -1    0    0  502    0 -0.00000000000E+00 -0.00000000000E+00 -0.33950676783E+02  0.33950676783E+02  0.00000000000E+00 0. -1.
         23    2    1    2    0    0  0.50453327388E+02 -0.90738299827E+01  0.12978238494E+03  0.16483224759E+03  0.87740126332E+02 0.  0.
        -24    2    1    2    0    0 -0.17017440139E+02 -0.19625394324E+02  0.22073399060E+03  0.23674916838E+03  0.81559332709E+02 0.  0.
         13    1    4    4    0    0  0.26138116083E+02 -0.12119089301E+02  0.32262732829E+02  0.43254564701E+02  0.00000000000E+00 0. -1.
        -14    1    4    4    0    0 -0.43155556222E+02 -0.75063050233E+01  0.18847125777E+03  0.19349460368E+03  0.00000000000E+00 0.  1.
        -13    1    3    3    0    0  0.90378089103E+01  0.37304090899E+02  0.38331733454E+02  0.54245727734E+02  0.00000000000E+00 0. -1.
         13    1    3    3    0    0  0.41415518478E+02 -0.46377920882E+02  0.91450651485E+02  0.11058651985E+03  0.00000000000E+00 0.  1.
          2    1    1    2  501    0 -0.33435887249E+02  0.28699224307E+02  0.49243043251E+02  0.66079356387E+02  0.00000000000E+00 0. -1.
<scales pt_clust_5="13000.00000" pt_clust_6="13000.00000" pt_clust_7="13000.00000" pt_clust_8="13000.00000" pt_clust_9="44.06366"></scales>
<clustering>
<clus scale="   44.064">  1  9  2 -1</clus>
<clus scale="   81.559">  5  6 -1 -1</clus>
<clus scale="   87.740">  7  8 -1 -1</clus>
<clus scale="   89.733">  1  5  2 -1</clus>
<clus scale="   44.064">  1  5  2 -1</clus>
</clustering>
</event>
<event>
 9    1  0.6345107E-005  0.2419591E+03  0.7546771E-02  0.1154869E+00
         21   -1    0    0  501  502  0.00000000000E+00  0.00000000000E+00  0.61867819221E+03  0.61867819221E+03  0.00000000000E+00 0. -1.
          1   -1    0    0  502    0 -0.00000000000E+00 -0.00000000000E+00 -0.13879567130E+03  0.13879567130E+03  0.00000000000E+00 0. -1.
        -24    2    1    2    0    0  0.48291153847E+02  0.35951752457E+02  0.92076158144E+02  0.13598818711E+03  0.79938752117E+02 0.  0.
         23    2    1    2    0    0 -0.15500825146E+03 -0.21221258892E+03  0.18439324846E+03  0.33194584069E+03  0.84412263080E+02 0.  0.
         11    1    3    3    0    0  0.21757226582E+01  0.28236026794E+02 -0.45132013775E+01  0.28677098265E+02  0.00000000000E+00 0. -1.
        -12    1    3    3    0    0  0.46115431189E+02  0.77157256630E+01  0.96589359522E+02  0.10731108884E+03  0.00000000000E+00 0.  1.
        -13    1    4    4    0    0 -0.14615964590E+03 -0.13844761485E+03  0.14254217997E+03  0.24667520592E+03  0.00000000000E+00 0. -1.
         13    1    4    4    0    0 -0.88486055610E+01 -0.73764974070E+02  0.41851068489E+02  0.85270634767E+02  0.00000000000E+00 0.  1.
          2    1    1    2  501    0  0.10671709762E+03  0.17626083646E+03  0.20341311431E+03  0.28953983572E+03  0.00000000000E+00 0. -1.
<scales pt_clust_5="13000.00000" pt_clust_6="13000.00000" pt_clust_7="13000.00000" pt_clust_8="13000.00000" pt_clust_9="226.75706"></scales>
<clustering>
<clus scale="   79.939">  5  6 -1 -1</clus>
<clus scale="   84.412">  7  8 -1 -1</clus>
<clus scale="  100.074">  2  5  1 -1</clus>
<clus scale="  226.757">  1  9  2 -1</clus>
<clus scale="  226.757">  1  5  2 -1</clus>
</clustering>
</event>
<event>
 9    1  0.6345107E-005  0.1295364E+03  0.7546771E-02  0.1244058E+00
          1   -1    0    0  502    0 -0.00000000000E+00  0.00000000000E+00  0.50341564103E+02  0.50341564103E+02  0.00000000000E+00 0. -1.
         21   -1    0    0  501  502  0.00000000000E+00 -0.00000000000E+00 -0.52921068108E+03  0.52921068108E+03  0.00000000000E+00 0. -1.
        -24    2    1    2    0    0 -0.28255844814E+02 -0.44712172910E+02 -0.14092527599E+03  0.16915913857E+03  0.77183609509E+02 0.  0.
         23    2    1    2    0    0  0.25820855679E+02 -0.62432327076E+02 -0.10548814277E+03  0.15442138027E+03  0.90297853622E+02 0.  0.
         13    1    3    3    0    0 -0.49922023387E+01 -0.61014811408E+02 -0.71383354204E+02  0.94038888513E+02  0.00000000000E+00 0. -1.
        -14    1    3    3    0    0 -0.23263642475E+02  0.16302638498E+02 -0.69541921782E+02  0.75120250054E+02  0.00000000000E+00 0.  1.
        -11    1    4    4    0    0  0.46552858279E+02 -0.58542546036E+02 -0.38363516174E+02  0.84060440657E+02  0.00000000000E+00 0.  1.
         11    1    4    4    0    0 -0.20732002599E+02 -0.38897810403E+01 -0.67124626594E+02  0.70360939616E+02  0.00000000000E+00 0. -1.
          2    1    1    2  501    0  0.24349891342E+01  0.10714449999E+03 -0.23245569822E+03  0.25597172634E+03  0.00000000000E+00 0. -1.
<scales pt_clust_5="13000.00000" pt_clust_6="13000.00000" pt_clust_7="13000.00000" pt_clust_8="13000.00000" pt_clust_9="92.87617"></scales>
<clustering>
<clus scale="   77.184">  5  6 -1 -1</clus>
<clus scale="   90.298">  7  8 -1 -1</clus>
<clus scale="   93.568">  1  5  2 -1</clus>
<clus scale="   92.876">  2  9  1 -1</clus>
<clus scale="   92.876">  2  5  1 -1</clus>
</clustering>
</event>
<event>
 9    1  0.6345107E-005  0.1275155E+03  0.7546771E-02  0.1234769E+00
         21   -1    0    0  501  502  0.00000000000E+00  0.00000000000E+00  0.62876169081E+02  0.62876169081E+02  0.00000000000E+00 0. -1.
          1   -1    0    0  502    0 -0.00000000000E+00 -0.00000000000E+00 -0.33563303749E+03  0.33563303749E+03  0.00000000000E+00 0. -1.
         23    2    1    2    0    0 -0.56226594140E+02 -0.90086782428E+02 -0.17806968224E+03  0.22662379380E+03  0.91501223633E+02 0.  0.
        -24    2    1    2    0    0  0.44483343784E+02  0.53753106264E+02 -0.74331627991E+02  0.12861430577E+03  0.78410996810E+02 0.  0.
         11    1    4    4    0    0 -0.20112116628E+02 -0.10608203046E+00 -0.20723485084E+02  0.28878561645E+02  0.00000000000E+00 0. -1.
        -12    1    4    4    0    0  0.64595460412E+02  0.53859188295E+02 -0.53608142908E+02  0.99735744122E+02  0.00000000000E+00 0.  1.
        -13    1    3    3    0    0 -0.34695733430E+02 -0.95235022692E+02 -0.17759197375E+03  0.20448083677E+03  0.00000000000E+00 0. -1.
         13    1    3    3    0    0 -0.21530860710E+02  0.51482402638E+01 -0.47770849195E+00  0.22142957032E+02  0.00000000000E+00 0.  1.
          2    1    1    2  501    0  0.11743250356E+02  0.36333676164E+02 -0.20355558173E+02  0.43271107001E+02  0.00000000000E+00 0. -1.
<scales pt_clust_5="13000.00000" pt_clust_6="13000.00000" pt_clust_7="13000.00000" pt_clust_8="13000.00000" pt_clust_9="38.18429"></scales>
<clustering>
<clus scale="   38.184">  1  9  2 -1</clus>
<clus scale="   78.411">  5  6 -1 -1</clus>
<clus scale="   91.501">  7  8 -1 -1</clus>
<clus scale="  118.474">  1  5  2 -1</clus>
<clus scale="   38.184">  1  5  2 -1</clus>
</clustering>
</event>
<event>
 9    1  0.6345107E-005  0.1656187E+03  0.7546771E-02  0.1195874E+00
         21   -1    0    0  501  502  0.00000000000E+00  0.00000000000E+00  0.48462233407E+03  0.48462233407E+03  0.00000000000E+00 0.  1.
          1   -1    0    0  502    0 -0.00000000000E+00 -0.00000000000E+00 -0.11983198582E+03  0.11983198582E+03  0.00000000000E+00 0. -1.
         23    2    1    2    0    0 -0.27081229364E+02  0.74265283786E+02  0.29376694079E+02  0.12663916786E+03  0.94476257984E+02 0.  0.
        -24    2    1    2    0    0 -0.32305236828E+02  0.11038164289E+03  0.17816336565E+03  0.22811754863E+03  0.84069588545E+02 0.  0.
         11    1    4    4    0    0 -0.32564604607E+01  0.76258579234E+02  0.47304293283E+02  0.89797948777E+02  0.00000000000E+00 0. -1.
        -12    1    4    4    0    0 -0.29048776367E+02  0.34123063657E+02  0.13085907237E+03  0.13831959985E+03  0.00000000000E+00 0.  1.
        -11    1    3    3    0    0 -0.59432022470E+02  0.26024655449E+02  0.19279963017E+02  0.67684303646E+02  0.00000000000E+00 0. -1.
         11    1    3    3    0    0  0.32350793105E+02  0.48240628337E+02  0.10096731062E+02  0.58954864218E+02  0.00000000000E+00 0.  1.
          2    1    1    2  501    0  0.59386466192E+02 -0.18464692668E+03  0.15725028852E+03  0.24969760339E+03  0.00000000000E+00 0. -1.
<scales pt_clust_5="13000.00000" pt_clust_6="13000.00000" pt_clust_7="13000.00000" pt_clust_8="13000.00000" pt_clust_9="142.69504"></scales>
<clustering>
<clus scale="   84.070">  5  6 -1 -1</clus>
<clus scale="   94.476">  7  8 -1 -1</clus>
<clus scale="  123.185">  2  7  1 -1</clus>
<clus scale="  142.695">  1  9  2 -1</clus>
<clus scale="  142.695">  1  5  2 -1</clus>
</clustering>
</event>
<event>
 9    1  0.6345107E-005  0.1092105E+03  0.7546771E-02  0.1267061E+00
          1   -1    0    0  502    0 -0.00000000000E+00  0.00000000000E+00  0.22931524894E+03  0.22931524894E+03  0.00000000000E+00 0. -1.
         21   -1    0    0  501  502  0.00000000000E+00 -0.00000000000E+00 -0.72274053671E+02  0.72274053671E+02  0.00000000000E+00 0. -1.
        -24    2    1    2    0    0 -0.32423099982E+02  0.37517365407E+02  0.33511438712E+02  0.99124458704E+02  0.79017919926E+02 0.  0.
         23    2    1    2    0    0  0.59285977639E+02 -0.40894736784E+02  0.54955617702E+02  0.12873945240E+03  0.91468683414E+02 0.  0.
         11    1    3    3    0    0 -0.27665794125E+02  0.66744849723E+01 -0.21642249342E+02  0.35753767226E+02  0.00000000000E+00 0. -1.
        -12    1    3    3    0    0 -0.47573058562E+01  0.30842880434E+02  0.55153688054E+02  0.63370691478E+02  0.00000000000E+00 0.  1.
        -11    1    4    4    0    0  0.22741090363E+02  0.29291504970E+02  0.13993816386E+02  0.39635544040E+02  0.00000000000E+00 0.  1.
         11    1    4    4    0    0  0.36544887277E+02 -0.70186241754E+02  0.40961801317E+02  0.89103908358E+02  0.00000000000E+00 0. -1.
          2    1    1    2  501    0 -0.26862877658E+02  0.33773713777E+01  0.68574138853E+02  0.73725391507E+02  0.00000000000E+00 0. -1.
<scales pt_clust_5="13000.00000" pt_clust_6="13000.00000" pt_clust_7="13000.00000" pt_clust_8="13000.00000" pt_clust_9="27.07437"></scales>
<clustering>
<clus scale="   27.074">  2  9  1 -1</clus>
<clus scale="   79.018">  5  6 -1 -1</clus>
<clus scale="   91.469">  7  8 -1 -1</clus>
<clus scale="   99.016">  1  5  2 -1</clus>
<clus scale="   27.074">  2  5  1 -1</clus>
</clustering>
</event>
<event>
 9    1  0.6345107E-005  0.1178283E+03  0.7546771E-02  0.1261054E+00
          1   -1    0    0  502    0 -0.00000000000E+00  0.00000000000E+00  0.13355068529E+03  0.13355068529E+03  0.00000000000E+00 0. -1.
         21   -1    0    0  501  502  0.00000000000E+00 -0.00000000000E+00 -0.21879635825E+03  0.21879635825E+03  0.00000000000E+00 0. -1.
        -24    2    1    2    0    0  0.30271085015E+02 -0.41452485760E+01 -0.69121853832E+02  0.11378821487E+03  0.85067064676E+02 0.  0.
         23    2    1    2    0    0 -0.16949760245E+02 -0.14807633784E+02 -0.98369147612E+02  0.15311315294E+03  0.11515462652E+03 0.  0.
         13    1    3    3    0    0  0.23601120469E+01  0.38706008138E+02 -0.35600166511E+02  0.52641210572E+02  0.00000000000E+00 0. -1.
        -14    1    3    3    0    0  0.27910972968E+02 -0.42851256714E+02 -0.33521687321E+02  0.61147004300E+02  0.00000000000E+00 0.  1.
        -11    1    4    4    0    0  0.48490169466E+01  0.43430347176E+02 -0.96195148917E+01  0.44746431008E+02  0.00000000000E+00 0.  1.
         11    1    4    4    0    0 -0.21798777191E+02 -0.58237980960E+02 -0.88749632721E+02  0.10836672193E+03  0.00000000000E+00 0. -1.
          2    1    1    2  501    0 -0.13321324770E+02  0.18952882360E+02  0.82245328491E+02  0.85445675736E+02  0.00000000000E+00 0. -1.
<scales pt_clust_5="13000.00000" pt_clust_6="13000.00000" pt_clust_7="13000.00000" pt_clust_8="13000.00000" pt_clust_9="23.16614"></scales>
<clustering>
<clus scale="   23.166">  2  9  1 -1</clus>
<clus scale="   85.067">  5  6 -1 -1</clus>
<clus scale="   88.653">  1  5  2 -1</clus>
<clus scale="  115.155">  7  8 -1 -1</clus>
<clus scale="   23.166">  2  5  1 -1</clus>
</clustering>
</event>
<event>
 9    1  0.6345107E-005  0.9644202E+02  0.7546771E-02  0.1292216E+00
          1   -1    0    0  502    0 -0.00000000000E+00  0.00000000000E+00  0.76694901729E+02  0.76694901729E+02  0.00000000000E+00 0. -1.
         21   -1    0    0  501  502  0.00000000000E+00 -0.00000000000E+00 -0.38471822526E+03  0.38471822526E+03  0.00000000000E+00 0.  1.
        -24    2    1    2    0    0  0.29597482444E+02 -0.17384660799E+02  0.16448631170E+02  0.88526058707E+02  0.79925391489E+02 0.  0.
         23    2    1    2    0    0 -0.82921063592E+02  0.10453297766E+02 -0.27145375018E+03  0.29737297615E+03  0.88081633928E+02 0.  0.
         13    1    3    3    0    0  0.41461695163E+02  0.21193250930E+02  0.71812181541E+01  0.47114710494E+02  0.00000000000E+00 0. -1.
        -14    1    3    3    0    0 -0.11864212719E+02 -0.38577911728E+02  0.92674130163E+01  0.41411348213E+02  0.00000000000E+00 0.  1.
        -13    1    4    4    0    0  0.10441287345E+01 -0.26796289678E+02 -0.91239128496E+02  0.95098422248E+02  0.00000000000E+00 0.  1.
         13    1    4    4    0    0 -0.83965192327E+02  0.37249587444E+02 -0.18021462168E+03  0.20227455390E+03  0.00000000000E+00 0. -1.
          2    1    1    2  501    0  0.53323581148E+02  0.69313630322E+01 -0.53018204521E+02  0.75514092132E+02  0.00000000000E+00 0. -1.
<scales pt_clust_5="13000.00000" pt_clust_6="13000.00000" pt_clust_7="13000.00000" pt_clust_8="13000.00000" pt_clust_9="53.77219"></scales>
<clustering>
<clus scale="   53.772">  2  9  1 -1</clus>
<clus scale="   79.925">  5  6 -1 -1</clus>
<clus scale="   88.082">  7  8 -1 -1</clus>
<clus scale="   89.055">  1  5  2 -1</clus>
<clus scale="   53.772">  2  5  1 -1</clus>
</clustering>
</event>
<event>
 9    1  0.6345107E-005  0.1307146E+03  0.7546771E-02  0.1227962E+00
         21   -1    0    0  501  502  0.00000000000E+00  0.00000000000E+00  0.23898699646E+03  0.23898699646E+03  0.00000000000E+00 0.  1.
          1   -1    0    0  502    0 -0.00000000000E+00 -0.00000000000E+00 -0.13678978049E+03  0.13678978049E+03  0.00000000000E+00 0. -1.
         23    2    1    2    0    0  0.78878947851E+02 -0.30730874200E+01 -0.14680518648E+02  0.12222968550E+03  0.92158809176E+02 0.  0.
        -24    2    1    2    0    0 -0.13017885260E+03  0.30513229551E+02  0.11325626736E+03  0.19525681223E+03  0.86143193490E+02 0.  0.
         11    1    4    4    0    0 -0.80783413275E+02  0.29452061242E+02  0.17852034095E+02  0.87818442784E+02  0.00000000000E+00 0. -1.
        -12    1    4    4    0    0 -0.49395439322E+02  0.10611683091E+01  0.95404233268E+02  0.10743836945E+03  0.00000000000E+00 0.  1.
        -13    1    3    3    0    0  0.66807751758E+02  0.38060028838E+02 -0.18832624686E+02  0.79161286262E+02  0.00000000000E+00 0. -1.
         13    1    3    3    0    0  0.12071196093E+02 -0.41133116258E+02  0.41521060384E+01  0.43068399236E+02  0.00000000000E+00 0.  1.
          2    1    1    2  501    0  0.51299904746E+02 -0.27440142131E+02  0.36214672578E+01  0.58290279226E+02  0.00000000000E+00 0. -1.
<scales pt_clust_5="13000.00000" pt_clust_6="13000.00000" pt_clust_7="13000.00000" pt_clust_8="13000.00000" pt_clust_9="58.17770"></scales>
<clustering>
<clus scale="   58.178">  1  9  2 -1</clus>
<clus scale="   86.143">  5  6 -1 -1</clus>
<clus scale="   92.159">  7  8 -1 -1</clus>
<clus scale="  126.545">  1  5  2 -1</clus>
<clus scale="   58.178">  1  5  2 -1</clus>
</clustering>
</event>
<event>
 9    1  0.6345107E-005  0.1393774E+03  0.7546771E-02  0.1221997E+00
          1   -1    0    0  502    0 -0.00000000000E+00  0.00000000000E+00  0.10938575754E+04  0.10938575754E+04  0.00000000000E+00 0. -1.
         21   -1    0    0  501  502  0.00000000000E+00 -0.00000000000E+00 -0.21262003894E+02  0.21262003894E+02  0.00000000000E+00 0.  1.
        -24    2    1    2    0    0 -0.11115712627E+03 -0.23508929702E+01  0.48714052701E+03  0.50280298173E+03  0.56067030915E+02 0.  0.
         23    2    1    2    0    0  0.91042221501E+02  0.26818932579E+02  0.34253329154E+03  0.36733849158E+03  0.92739259984E+02 0.  0.
         13    1    3    3    0    0 -0.40275628430E+02  0.26188308904E+02  0.18010759190E+03  0.18640466311E+03  0.00000000000E+00 0. -1.
        -14    1    3    3    0    0 -0.70881497839E+02 -0.28539201874E+02  0.30703293511E+03  0.31639831862E+03  0.00000000000E+00 0.  1.
        -13    1    4    4    0    0  0.92404587504E+02  0.52881325686E+02  0.26835035504E+03  0.28869872783E+03  0.00000000000E+00 0.  1.
         13    1    4    4    0    0 -0.13623660026E+01 -0.26062393107E+02  0.74182936495E+02  0.78639763750E+02  0.00000000000E+00 0. -1.
          2    1    1    2  501    0  0.20114904767E+02 -0.24468039609E+02  0.24292175298E+03  0.24497810602E+03  0.00000000000E+00 0. -1.
<scales pt_clust_5="13000.00000" pt_clust_6="13000.00000" pt_clust_7="13000.00000" pt_clust_8="13000.00000" pt_clust_9="31.67484"></scales>
<clustering>
<clus scale="   31.675">  2  9  1 -1</clus>
<clus scale="   56.067">  5  6 -1 -1</clus>
<clus scale="   92.739">  7  8 -1 -1</clus>
<clus scale="  118.191">  1  5  2 -1</clus>
<clus scale="   31.675">  2  5  1 -1</clus>
</clustering>
</event>
<event>
 9    1  0.6345107E-005  0.9891639E+02  0.7546771E-02  0.1290337E+00
          1   -1    0    0  502    0 -0.00000000000E+00  0.00000000000E+00  0.31443572712E+03  0.31443572712E+03  0.00000000000E+00 0. -1.
         21   -1    0    0  501  502  0.00000000000E+00 -0.00000000000E+00 -0.11711359064E+03  0.11711359064E+03  0.00000000000E+00 0.  1.
        -24    2    1    2    0    0 -0.37917879575E+01  0.32954401961E+02  0.26664869637E+03  0.28034790280E+03  0.79956544843E+02 0.  0.
         23    2    1    2    0    0 -0.11776599271E+02 -0.39569823361E+01 -0.29357127032E+02  0.99425159897E+02  0.94176300168E+02 0.  0.
         13    1    3    3    0    0 -0.34922447956E+02  0.21649303561E+02  0.21571233353E+03  0.21959071145E+03  0.00000000000E+00 0. -1.
        -14    1    3    3    0    0  0.31130659998E+02  0.11305098400E+02  0.50936362837E+02  0.60757191351E+02  0.00000000000E+00 0.  1.
        -11    1    4    4    0    0 -0.48797214700E+02  0.57281763365E+01  0.31247385763E+01  0.49231536212E+02  0.00000000000E+00 0. -1.
         11    1    4    4    0    0  0.37020615429E+02 -0.96851586726E+01 -0.32481865609E+02  0.50193623685E+02  0.00000000000E+00 0.  1.
          2    1    1    2  501    0  0.15568387229E+02 -0.28997419625E+02 -0.39969432857E+02  0.51776255066E+02  0.00000000000E+00 0. -1.
<scales pt_clust_5="13000.00000" pt_clust_6="13000.00000" pt_clust_7="13000.00000" pt_clust_8="13000.00000" pt_clust_9="32.91238"></scales>
<clustering>
<clus scale="   32.912">  2  9  1 -1</clus>
<clus scale="   79.957">  5  6 -1 -1</clus>
<clus scale="   85.489">  1  5  2 -1</clus>
<clus scale="   94.176">  7  8 -1 -1</clus>
<clus scale="   32.912">  2  5  1 -1</clus>
</clustering>
</event>
<event>
 9    1  0.6345107E-005  0.1091473E+03  0.7546771E-02  0.1266320E+00
         21   -1    0    0  501  502  0.00000000000E+00  0.00000000000E+00  0.13872075390E+03  0.13872075390E+03  0.00000000000E+00 0.  1.
          1   -1    0    0  502    0 -0.00000000000E+00 -0.00000000000E+00 -0.18316781629E+03  0.18316781629E+03  0.00000000000E+00 0. -1.
         23    2    1    2    0    0  0.39988710046E+02  0.36587361599E+02  0.18075823254E+01  0.10733206637E+03  0.92623826079E+02 0.  0.
        -24    2    1    2    0    0 -0.75031590674E+01 -0.72158467378E+02  0.39096592388E+02  0.11654911500E+03  0.82413657001E+02 0.  0.
         13    1    4    4    0    0 -0.26063540383E+02 -0.97031328297E+01 -0.15237575248E+02  0.31711868810E+02  0.00000000000E+00 0. -1.
        -14    1    4    4    0    0  0.18560381315E+02 -0.62455334548E+02  0.54334167636E+02  0.84837246188E+02  0.00000000000E+00 0.  1.
        -13    1    3    3    0    0 -0.58807026544E+01  0.53263298249E+02  0.16994438779E+02  0.56217190907E+02  0.00000000000E+00 0.  1.
         13    1    3    3    0    0  0.45869412701E+02 -0.16675936650E+02 -0.15186856454E+02  0.51114875463E+02  0.00000000000E+00 0. -1.
          2    1    1    2  501    0 -0.32485550979E+02  0.35571105779E+02 -0.85351237106E+02  0.98007388825E+02  0.00000000000E+00 0. -1.
<scales pt_clust_5="13000.00000" pt_clust_6="13000.00000" pt_clust_7="13000.00000" pt_clust_8="13000.00000" pt_clust_9="48.17278"></scales>
<clustering>
<clus scale="   48.173">  1  9  2 -1</clus>
<clus scale="   82.414">  5  6 -1 -1</clus>
<clus scale="   92.624">  7  8 -1 -1</clus>
<clus scale="  100.628">  1  5  2 -1</clus>
<clus scale="   48.173">  1  5  2 -1</clus>
</clustering>
</event>
<event>
 9    1  0.6345107E-005  0.1095027E+03  0.7546771E-02  0.1267076E+00
         21   -1    0    0  501  502  0.00000000000E+00  0.00000000000E+00  0.37159092103E+02  0.37159092103E+02  0.00000000000E+00 0.  1.
         -2   -1    0    0    0  501 -0.00000000000E+00 -0.00000000000E+00 -0.82440940187E+03  0.82440940187E+03  0.00000000000E+00 0.  1.
        -24    2    1    2    0    0 -0.58234066416E+02 -0.23010457245E+02 -0.43322103717E+03  0.44482052978E+03  0.79146377233E+02 0.  0.
         23    2    1    2    0    0  0.22144424190E+02  0.36202021522E+02 -0.56292814121E+02  0.11654223749E+03  0.92802210706E+02 0.  0.
         11    1    3    3    0    0 -0.41517295234E+02  0.26039618737E+02 -0.20109491179E+03  0.20698046066E+03  0.00000000000E+00 0. -1.
        -12    1    3    3    0    0 -0.16716771182E+02 -0.49050075981E+02 -0.23212612539E+03  0.23784006912E+03  0.00000000000E+00 0.  1.
        -11    1    4    4    0    0  0.35209437009E+02 -0.21714529024E+02 -0.14095689291E+02  0.43702559213E+02  0.00000000000E+00 0.  1.
         11    1    4    4    0    0 -0.13065012819E+02  0.57916550546E+02 -0.42197124830E+02  0.72839678274E+02  0.00000000000E+00 0. -1.
         -1    1    1    2    0  502  0.36089642227E+02 -0.13191564277E+02 -0.29773645847E+03  0.30020572671E+03  0.00000000000E+00 0.  1.
<scales pt_clust_5="13000.00000" pt_clust_6="13000.00000" pt_clust_7="13000.00000" pt_clust_8="13000.00000" pt_clust_9="38.42501"></scales>
<clustering>
<clus scale="   38.425">  1  9  2 -1</clus>
<clus scale="   79.146">  5  6 -1 -1</clus>
<clus scale="   92.802">  7  8 -1 -1</clus>
<clus scale="   98.197">  2  5  1 -1</clus>
<clus scale="   38.425">  1  5  2 -1</clus>
</clustering>
</event>
<event>
 9    1  0.6345107E-005  0.1896221E+03  0.7546771E-02  0.1160300E+00
         -2   -1    0    0    0  501 -0.00000000000E+00  0.00000000000E+00  0.63674295572E+02  0.63674295572E+02  0.00000000000E+00 0.  1.
         21   -1    0    0  501  502  0.00000000000E+00 -0.00000000000E+00 -0.19181694090E+04  0.19181694090E+04  0.00000000000E+00 0.  1.
        -24    2    1    2    0    0 -0.14504248909E+03  0.93375351126E+02 -0.17062096469E+03  0.25533249805E+03  0.79541757132E+02 0.  0.
         23    2    1    2    0    0  0.17724030478E+03  0.65364999769E+02 -0.11276283600E+04  0.11471628003E+04  0.93541772544E+02 0.  0.
         13    1    3    3    0    0 -0.11317512124E+03  0.10205108083E+03 -0.11606019109E+03  0.19155416759E+03  0.00000000000E+00 0. -1.
        -14    1    3    3    0    0 -0.31867367854E+02 -0.86757297050E+01 -0.54560773601E+02  0.63778330456E+02  0.00000000000E+00 0.  1.
        -11    1    4    4    0    0  0.15303392909E+03  0.17338888195E+02 -0.91298106859E+03  0.92588036597E+03  0.00000000000E+00 0.  1.
         11    1    4    4    0    0  0.24206375697E+02  0.48026111574E+02 -0.21464729142E+03  0.22128243430E+03  0.00000000000E+00 0. -1.
         -1    1    1    2    0  502 -0.32197815689E+02 -0.15874035090E+03 -0.55624578872E+03  0.57934840623E+03  0.00000000000E+00 0.  1.
<scales pt_clust_5="13000.00000" pt_clust_6="13000.00000" pt_clust_7="13000.00000" pt_clust_8="13000.00000" pt_clust_9="161.97283"></scales>
<clustering>
<clus scale="   79.542">  5  6 -1 -1</clus>
<clus scale="   93.542">  7  8 -1 -1</clus>
<clus scale="  161.973">  2  9  1 -1</clus>
<clus scale="  183.121">  1  5  2 -1</clus>
<clus scale="  161.973">  2  5  1 -1</clus>
</clustering>
</event>
<event>
 9    1  0.6345107E-005  0.9356266E+02  0.7546771E-02  0.1300447E+00
         21   -1    0    0  501  502  0.00000000000E+00  0.00000000000E+00  0.53618150837E+02  0.53618150837E+02  0.00000000000E+00 0. -1.
          1   -1    0    0  502    0 -0.00000000000E+00 -0.00000000000E+00 -0.20606621616E+03  0.20606621616E+03  0.00000000000E+00 0. -1.
        -24    2    1    2    0    0 -0.12191164555E+02  0.25351225144E+02 -0.86030398725E+02  0.12161399788E+03  0.81224539795E+02 0.  0.
         23    2    1    2    0    0 -0.12097605250E+02 -0.11693018572E+02 -0.46807758463E+02  0.10399634027E+03  0.91330136322E+02 0.  0.
         11    1    3    3    0    0 -0.35959866217E+02 -0.10378125609E+02 -0.62026044422E+02  0.72443410026E+02  0.00000000000E+00 0. -1.
        -12    1    3    3    0    0  0.23768701662E+02  0.35729350754E+02 -0.24004354302E+02  0.49170587849E+02  0.00000000000E+00 0.  1.
        -13    1    4    4    0    0 -0.24283388203E+01 -0.39302628196E+02  0.95316279147E+01  0.40514754636E+02  0.00000000000E+00 0.  1.
         13    1    4    4    0    0 -0.96692664297E+01  0.27609609624E+02 -0.56339386378E+02  0.63481585632E+02  0.00000000000E+00 0. -1.
          2    1    1    2  501    0  0.24288769805E+02 -0.13658206572E+02 -0.19609908138E+02  0.34074028858E+02  0.00000000000E+00 0. -1.
<scales pt_clust_5="13000.00000" pt_clust_6="13000.00000" pt_clust_7="13000.00000" pt_clust_8="13000.00000" pt_clust_9="27.86559"></scales>
<clustering>
<clus scale="   27.866">  1  9  2 -1</clus>
<clus scale="   81.225">  5  6 -1 -1</clus>
<clus scale="   83.727">  2  5  1 -1</clus>
<clus scale="   91.330">  7  8 -1 -1</clus>
<clus scale="   27.866">  1  5  2 -1</clus>
</clustering>
</event>
<event>
 9    1  0.6345107E-005  0.1536857E+03  0.7546771E-02  0.1214789E+00
         21   -1    0    0  501  502  0.00000000000E+00  0.00000000000E+00  0.11096887471E+03  0.11096887471E+03  0.00000000000E+00 0. -1.
          1   -1    0    0  502    0 -0.00000000000E+00 -0.00000000000E+00 -0.52561651581E+03  0.52561651581E+03  0.00000000000E+00 0. -1.
         23    2    1    2    0    0 -0.31935569096E+02  0.81105621283E+01 -0.44097930702E+01  0.10269818884E+03  0.97168976141E+02 0.  0.
        -24    2    1    2    0    0  0.85932504352E+02 -0.12207695238E+03 -0.35999330643E+03  0.39813551261E+03  0.81421914299E+02 0.  0.
         11    1    4    4    0    0  0.77649079467E+02 -0.86420461013E+02 -0.33290852887E+03  0.35259887155E+03  0.00000000000E+00 0. -1.
        -12    1    4    4    0    0  0.82834248851E+01 -0.35656491364E+02 -0.27084777553E+02  0.45536641063E+02  0.00000000000E+00 0.  1.
        -11    1    3    3    0    0  0.23545845255E+01  0.36486912364E+02 -0.33448355896E+02  0.49554327301E+02  0.00000000000E+00 0.  1.
         11    1    3    3    0    0 -0.34290153621E+02 -0.28376350236E+02  0.29038562826E+02  0.53143861537E+02  0.00000000000E+00 0. -1.
          2    1    1    2  501    0 -0.53996935256E+02  0.11396639025E+03 -0.50244541608E+02  0.13575168907E+03  0.00000000000E+00 0. -1.
<scales pt_clust_5="13000.00000" pt_clust_6="13000.00000" pt_clust_7="13000.00000" pt_clust_8="13000.00000" pt_clust_9="130.34482"></scales>
<clustering>
<clus scale="   81.422">  5  6 -1 -1</clus>
<clus scale="   97.169">  7  8 -1 -1</clus>
<clus scale="  102.604">  2  7  1 -1</clus>
<clus scale="  130.345">  1  9  2 -1</clus>
<clus scale="  130.345">  1  5  2 -1</clus>
</clustering>
</event>
<event>
 9    1  0.6345107E-005  0.9396124E+02  0.7546771E-02  0.1300586E+00
         21   -1    0    0  501  502  0.00000000000E+00  0.00000000000E+00  0.14288276328E+03  0.14288276328E+03  0.00000000000E+00 0. -1.
         -2   -1    0    0    0  501 -0.00000000000E+00 -0.00000000000E+00 -0.15798519510E+03  0.15798519510E+03  0.00000000000E+00 0.  1.
        -24    2    1    2    0    0  0.19011471876E+02  0.19747731421E+02 -0.77527580654E+02  0.11427417450E+03  0.79351447606E+02 0.  0.
         23    2    1    2    0    0 -0.28286562791E+02  0.44778087449E+02  0.59966748107E+02  0.12135842271E+03  0.91250474702E+02 0.  0.
         13    1    3    3    0    0  0.41783289844E+02 -0.62142807899E+01 -0.65035388855E+02  0.77550386198E+02  0.00000000000E+00 0. -1.
        -14    1    3    3    0    0 -0.22771817967E+02  0.25962012211E+02 -0.12492191799E+02  0.36723788306E+02  0.00000000000E+00 0.  1.
        -13    1    4    4    0    0 -0.19670032037E+02 -0.10680977431E+02 -0.15561055916E+02  0.27260592445E+02  0.00000000000E+00 0.  1.
         13    1    4    4    0    0 -0.86165307541E+01  0.55459064880E+02  0.75527804023E+02  0.94097830263E+02  0.00000000000E+00 0. -1.
         -1    1    1    2    0  502  0.92750909149E+01 -0.64525818870E+02  0.24584007290E+01  0.65235361166E+02  0.00000000000E+00 0.  1.
<scales pt_clust_5="13000.00000" pt_clust_6="13000.00000" pt_clust_7="13000.00000" pt_clust_8="13000.00000" pt_clust_9="65.18902"></scales>
<clustering>
<clus scale="   65.189">  1  9  2 -1</clus>
<clus scale="   79.351">  5  6 -1 -1</clus>
<clus scale="   82.454">  2  5  1 -1</clus>
<clus scale="   91.250">  7  8 -1 -1</clus>
<clus scale="   65.189">  1  5  2 -1</clus>
</clustering>
</event>
<event>
 9    1  0.6345107E-005  0.1418573E+03  0.7546771E-02  0.1228102E+00
         21   -1    0    0  501  502  0.00000000000E+00  0.00000000000E+00  0.21779378664E+03  0.21779378664E+03  0.00000000000E+00 0.  1.
          3   -1    0    0  502    0 -0.00000000000E+00 -0.00000000000E+00 -0.25257352632E+03  0.25257352632E+03  0.00000000000E+00 0. -1.
        -24    2    1    2    0    0 -0.85811517409E+01  0.60904642958E+02  0.10604975777E+03  0.14488631640E+03  0.77217108590E+02 0.  0.
         23    2    1    2    0    0  0.91201242566E+02  0.43127644542E+02 -0.66532213313E+01  0.13666344090E+03  0.91950912744E+02 0.  0.
         11    1    3    3    0    0  0.16606758656E+02  0.28769177401E+02  0.21915758140E+01  0.33290434150E+02  0.00000000000E+00 0. -1.
        -12    1    3    3    0    0 -0.25187910397E+02  0.32135465557E+02  0.10385818196E+03  0.11159588225E+03  0.00000000000E+00 0.  1.
        -13    1    4    4    0    0  0.89580406733E+02  0.67270814875E+02 -0.87936729975E+01  0.11237143983E+03  0.00000000000E+00 0.  1.
         13    1    4    4    0    0  0.16208358330E+01 -0.24143170334E+02  0.21404516662E+01  0.24292001068E+02  0.00000000000E+00 0. -1.
          4    1    1    2  501    0 -0.82620090826E+02 -0.10403228750E+03 -0.13417627612E+03  0.18881755565E+03  0.00000000000E+00 0. -1.
<scales pt_clust_5="13000.00000" pt_clust_6="13000.00000" pt_clust_7="13000.00000" pt_clust_8="13000.00000" pt_clust_9="108.02095"></scales>
<clustering>
<clus scale="   77.217">  5  6 -1 -1</clus>
<clus scale="   91.951">  7  8 -1 -1</clus>
<clus scale="   98.719">  2  5  1 -1</clus>
<clus scale="  108.021">  1  9  2 -1</clus>
<clus scale="  108.021">  1  5  2 -1</clus>
</clustering>
</event>
<event>
 9    1  0.6345107E-005  0.9640251E+02  0.7546771E-02  0.1291866E+00
          1   -1    0    0  502    0 -0.00000000000E+00  0.00000000000E+00  0.19981345764E+03  0.19981345764E+03  0.00000000000E+00 0. -1.
         21   -1    0    0  501  502  0.00000000000E+00 -0.00000000000E+00 -0.18573725697E+03  0.18573725697E+03  0.00000000000E+00 0.  1.
         23    2    1    2    0    0 -0.23295753172E+02  0.12749770057E+02  0.14348940561E+03  0.17230313932E+03  0.91618303558E+02 0.  0.
        -24    2    1    2    0    0  0.70059937979E+02 -0.30209268517E+01 -0.12320022565E+03  0.16507973869E+03  0.84590209952E+02 0.  0.
         13    1    4    4    0    0  0.42581321173E+02  0.26758059792E+02 -0.19843529250E+02  0.54064113142E+02  0.00000000000E+00 0. -1.
        -14    1    4    4    0    0  0.27478616805E+02 -0.29778986644E+02 -0.10335669640E+03  0.11101562555E+03  0.00000000000E+00 0.  1.
        -11    1    3    3    0    0 -0.38013577179E+02 -0.18729267814E+02  0.25850993480E+02  0.49639615094E+02  0.00000000000E+00 0. -1.
         11    1    3    3    0    0  0.14717824006E+02  0.31479037871E+02  0.11763841212E+03  0.12266352423E+03  0.00000000000E+00 0.  1.
          2    1    1    2  501    0 -0.46764184807E+02 -0.97288432052E+01 -0.62129792849E+01  0.48167836596E+02  0.00000000000E+00 0. -1.
<scales pt_clust_5="13000.00000" pt_clust_6="13000.00000" pt_clust_7="13000.00000" pt_clust_8="13000.00000" pt_clust_9="47.76546"></scales>
<clustering>
<clus scale="   47.765">  2  9  1 -1</clus>
<clus scale="   84.590">  5  6 -1 -1</clus>
<clus scale="   89.750">  2  5  1 -1</clus>
<clus scale="   91.618">  7  8 -1 -1</clus>
<clus scale="   47.765">  2  5  1 -1</clus>
</clustering>
</event>
<event>
 9    1  0.6345107E-005  0.9334965E+02  0.7546771E-02  0.1295060E+00
         21   -1    0    0  501  502  0.00000000000E+00  0.00000000000E+00  0.72914297006E+02  0.72914297006E+02  0.00000000000E+00 0. -1.
         -2   -1    0    0    0  501 -0.00000000000E+00 -0.00000000000E+00 -0.31473663162E+03  0.31473663162E+03  0.00000000000E+00 0.  1.
        -24    2    1    2    0    0  0.12083650900E+02  0.11083479569E+02 -0.25074160281E+03  0.26750730955E+03  0.91760291756E+02 0.  0.
         23    2    1    2    0    0  0.18149833055E+00 -0.30061180667E+02  0.12859319324E+02  0.97206508804E+02  0.91542535117E+02 0.  0.
         11    1    3    3    0    0  0.30994486513E+02 -0.30112184872E+02 -0.80867229289E+02  0.91689206807E+02  0.00000000000E+00 0. -1.
        -12    1    3    3    0    0 -0.18910835612E+02  0.41195664441E+02 -0.16987437352E+03  0.17581810274E+03  0.00000000000E+00 0.  1.
        -13    1    4    4    0    0  0.26441328211E+02 -0.43698087889E+02  0.33542667449E+02  0.61104641905E+02  0.00000000000E+00 0. -1.
         13    1    4    4    0    0 -0.26259829881E+02  0.13636907222E+02 -0.20683348125E+02  0.36101866899E+02  0.00000000000E+00 0.  1.
         -1    1    1    2    0  502 -0.12265149231E+02  0.18977701098E+02 -0.39400511219E+01  0.22937110268E+02  0.00000000000E+00 0.  1.
<scales pt_clust_5="13000.00000" pt_clust_6="13000.00000" pt_clust_7="13000.00000" pt_clust_8="13000.00000" pt_clust_9="22.59617"></scales>
<clustering>
<clus scale="   22.596">  1  9  2 -1</clus>
<clus scale="   91.543">  7  8 -1 -1</clus>
<clus scale="   91.760">  5  6 -1 -1</clus>
<clus scale="   93.136">  1  7  2 -1</clus>
<clus scale="   22.596">  1  5  2 -1</clus>
</clustering>
</event>
<event>
 9    1  0.6345107E-005  0.1782898E+03  0.7546771E-02  0.1173902E+00
          3   -1    0    0  502    0 -0.00000000000E+00  0.00000000000E+00  0.20223316875E+03  0.20223316875E+03  0.00000000000E+00 0. -1.
         21   -1    0    0  501  502  0.00000000000E+00 -0.00000000000E+00 -0.21155359210E+03  0.21155359210E+03  0.00000000000E+00 0. -1.
         23    2    1    2    0    0 -0.12647434072E+03  0.98552671652E+02  0.69846695215E+02  0.20725848215E+03  0.11121658888E+03 0.  0.
        -24    2    1    2    0    0  0.95459541300E+02 -0.53797808649E+02 -0.53842856251E+02  0.14647635278E+03  0.80929231508E+02 0.  0.
         11    1    4    4    0    0  0.21300320017E+02  0.85742380308E+01 -0.43289512464E+02  0.49002072201E+02  0.00000000000E+00 0. -1.
        -12    1    4    4    0    0  0.74159221284E+02 -0.62372046680E+02 -0.10553343787E+02  0.97474280574E+02  0.00000000000E+00 0.  1.
        -13    1    3    3    0    0 -0.33207062113E+02 -0.16860002682E+02 -0.10259155689E+02  0.38629249799E+02  0.00000000000E+00 0.  1.
         13    1    3    3    0    0 -0.93267278604E+02  0.11541267433E+03  0.80105850903E+02  0.16862923235E+03  0.00000000000E+00 0. -1.
          4    1    1    2  501    0  0.31014799416E+02 -0.44754863003E+02 -0.25324262318E+02  0.60051925924E+02  0.00000000000E+00 0. -1.
<scales pt_clust_5="13000.00000" pt_clust_6="13000.00000" pt_clust_7="13000.00000" pt_clust_8="13000.00000" pt_clust_9="54.45104"></scales>
<clustering>
<clus scale="   54.451">  2  9  1 -1</clus>
<clus scale="   80.929">  5  6 -1 -1</clus>
<clus scale="  111.217">  7  8 -1 -1</clus>
<clus scale="  161.145">  2  5  1 -1</clus>
<clus scale="   54.451">  2  5  1 -1</clus>
</clustering>
</event>
<event>
 9    1  0.6345107E-005  0.2342002E+03  0.7546771E-02  0.1160669E+00
         21   -1    0    0  501  502  0.00000000000E+00  0.00000000000E+00  0.90116857784E+02  0.90116857784E+02  0.00000000000E+00 0. -1.
          3   -1    0    0  502    0 -0.00000000000E+00 -0.00000000000E+00 -0.97383287463E+03  0.97383287463E+03  0.00000000000E+00 0. -1.
         23    2    1    2    0    0  0.30312319251E+02  0.90964568100E+01 -0.76789905114E+02  0.12321910934E+03  0.91020201899E+02 0.  0.
        -24    2    1    2    0    0  0.20736418034E+03  0.25848517982E+02 -0.25939235160E+03  0.34281383270E+03  0.81048643750E+02 0.  0.
         11    1    4    4    0    0  0.21337028737E+03  0.19206249600E+02 -0.25430036963E+03  0.33251231188E+03  0.00000000000E+00 0. -1.
        -12    1    4    4    0    0 -0.60061070301E+01  0.66422683824E+01 -0.50919819692E+01  0.10301520824E+02  0.00000000000E+00 0.  1.
        -11    1    3    3    0    0  0.79497189493E+01 -0.32505209417E+02 -0.67132951258E+02  0.75010797991E+02  0.00000000000E+00 0. -1.
         11    1    3    3    0    0  0.22362600302E+02  0.41601666227E+02 -0.96569538560E+01  0.48208311347E+02  0.00000000000E+00 0.  1.
          4    1    1    2  501    0 -0.23767649959E+03 -0.34944974792E+02 -0.54753376013E+03  0.59791679037E+03  0.00000000000E+00 0. -1.
<scales pt_clust_5="13000.00000" pt_clust_6="13000.00000" pt_clust_7="13000.00000" pt_clust_8="13000.00000" pt_clust_9="219.72915"></scales>
<clustering>
<clus scale="   81.049">  5  6 -1 -1</clus>
<clus scale="   91.020">  7  8 -1 -1</clus>
<clus scale="   96.365">  2  7  1 -1</clus>
<clus scale="  219.729">  1  9  2 -1</clus>
<clus scale="  219.729">  1  5  2 -1</clus>
</clustering>
</event>
<event>
 9    1  0.6345107E-005  0.1171981E+03  0.7546771E-02  0.1249856E+00
         21   -1    0    0  501  502  0.00000000000E+00  0.00000000000E+00  0.24170516096E+03  0.24170516096E+03  0.00000000000E+00 0.  1.
         -4   -1    0    0    0  501 -0.00000000000E+00 -0.00000000000E+00 -0.12054797671E+03  0.12054797671E+03  0.00000000000E+00 0.  1.
         23    2    1    2    0    0  0.50162477625E+02 -0.72927530459E+02 -0.45026654700E+02  0.12341358986E+03  0.73272202567E+02 0.  0.
        -24    2    1    2    0    0 -0.81259183086E+02  0.30538593269E+02  0.10501264104E+03  0.15818136446E+03  0.80361861415E+02 0.  0.
         11    1    4    4    0    0 -0.28492010507E+02 -0.12696116412E+02 -0.20196696209E+01  0.31258040566E+02  0.00000000000E+00 0. -1.
        -12    1    4    4    0    0 -0.52767172579E+02  0.43234709681E+02  0.10703231066E+03  0.12692332390E+03  0.00000000000E+00 0.  1.
        -11    1    3    3    0    0  0.42217790488E+02 -0.42642321156E+02  0.92882560440E+01  0.60720516200E+02  0.00000000000E+00 0. -1.
         11    1    3    3    0    0  0.79446871376E+01 -0.30285209302E+02 -0.54314910744E+02  0.62693073663E+02  0.00000000000E+00 0.  1.
         -3    1    1    2    0  502  0.31096705461E+02  0.42388937189E+02  0.61171197913E+02  0.80658183346E+02  0.00000000000E+00 0.  1.
<scales pt_clust_5="13000.00000" pt_clust_6="13000.00000" pt_clust_7="13000.00000" pt_clust_8="13000.00000" pt_clust_9="52.57211"></scales>
<clustering>
<clus scale="   52.572">  1  9  2 -1</clus>
<clus scale="   73.272">  7  8 -1 -1</clus>
<clus scale="   80.362">  5  6 -1 -1</clus>
<clus scale="  112.455">  2  7  1 -1</clus>
<clus scale="   52.572">  1  5  2 -1</clus>
</clustering>
</event>
<event>
 9    1  0.6345107E-005  0.1360816E+03  0.7546771E-02  0.1235079E+00
          3   -1    0    0  502    0 -0.00000000000E+00  0.00000000000E+00  0.20403983731E+03  0.20403983731E+03  0.00000000000E+00 0. -1.
         21   -1    0    0  501  502  0.00000000000E+00 -0.00000000000E+00 -0.28577290699E+03  0.28577290699E+03  0.00000000000E+00 0.  1.
        -24    2    1    2    0    0  0.31971000357E+02 -0.45716727434E+02  0.13581794529E+03  0.16681938824E+03  0.79183520994E+02 0.  0.
         23    2    1    2    0    0  0.71342184139E+02  0.18997479096E+01 -0.13070840565E+03  0.18109486918E+03  0.10304051657E+03 0.  0.
         11    1    3    3    0    0 -0.63387003030E+01 -0.52634677325E+02  0.51323244006E+02  0.73787964831E+02  0.00000000000E+00 0. -1.
        -12    1    3    3    0    0  0.38309700660E+02  0.69179498905E+01  0.84494701287E+02  0.93031423406E+02  0.00000000000E+00 0.  1.
        -13    1    4    4    0    0  0.20004997267E+01 -0.29201833562E+02 -0.90501462114E+02  0.95117105335E+02  0.00000000000E+00 0.  1.
         13    1    4    4    0    0  0.69341684413E+02  0.31101581471E+02 -0.40206943541E+02  0.85977763847E+02  0.00000000000E+00 0. -1.
          4    1    1    2  501    0 -0.10331318450E+03  0.43816979525E+02 -0.86842609319E+02  0.14189848688E+03  0.00000000000E+00 0. -1.
<scales pt_clust_5="13000.00000" pt_clust_6="13000.00000" pt_clust_7="13000.00000" pt_clust_8="13000.00000" pt_clust_9="88.88673"></scales>
<clustering>
<clus scale="   79.184">  5  6 -1 -1</clus>
<clus scale="   96.862">  1  5  2 -1</clus>
<clus scale="   88.887">  2  9  1 -1</clus>
<clus scale="  103.041">  7  8 -1 -1</clus>
<clus scale="   88.887">  2  5  1 -1</clus>
</clustering>
</event>
<event>
 9    1  0.6345107E-005  0.1859842E+03  0.7546771E-02  0.1190514E+00
         21   -1    0    0  501  502  0.00000000000E+00  0.00000000000E+00  0.65834433153E+02  0.65834433153E+02  0.00000000000E+00 0. -1.
          1   -1    0    0  502    0 -0.00000000000E+00 -0.00000000000E+00 -0.85830932336E+03  0.85830932336E+03  0.00000000000E+00 0. -1.
         23    2    1    2    0    0 -0.29144571687E+02  0.19398910156E+02 -0.28179671183E+03  0.29830464813E+03  0.91381357633E+02 0.  0.
        -24    2    1    2    0    0 -0.14585116072E+03  0.37815878077E+02 -0.31579944740E+03  0.35774442708E+03  0.74492834645E+02 0.  0.
         11    1    4    4    0    0 -0.13031919693E+03  0.40289084706E+01 -0.23353484831E+03  0.26746560632E+03  0.00000000000E+00 0. -1.
        -12    1    4    4    0    0 -0.15531963795E+02  0.33786969607E+02 -0.82264599089E+02  0.90278820760E+02  0.00000000000E+00 0.  1.
        -11    1    3    3    0    0 -0.49449825985E+02  0.17594712683E+02 -0.26935800621E+03  0.27442411467E+03  0.00000000000E+00 0. -1.
         11    1    3    3    0    0  0.20305254298E+02  0.18041974727E+01 -0.12438705619E+02  0.23880533455E+02  0.00000000000E+00 0.  1.
          2    1    1    2  501    0  0.17499573241E+03 -0.57214788233E+02 -0.19487873098E+03  0.26809468130E+03  0.00000000000E+00 0. -1.
<scales pt_clust_5="13000.00000" pt_clust_6="13000.00000" pt_clust_7="13000.00000" pt_clust_8="13000.00000" pt_clust_9="170.41404"></scales>
<clustering>
<clus scale="   74.493">  5  6 -1 -1</clus>
<clus scale="   91.381">  7  8 -1 -1</clus>
<clus scale="   97.858">  2  7  1 -1</clus>
<clus scale="  170.414">  1  9  2 -1</clus>
<clus scale="  170.414">  1  5  2 -1</clus>
</clustering>
</event>
<event>
 9    1  0.6345107E-005  0.1019281E+03  0.7546771E-02  0.1281033E+00
         -2   -1    0    0    0  501 -0.00000000000E+00  0.00000000000E+00  0.34341361506E+02  0.34341361506E+02  0.00000000000E+00 0.  1.
         21   -1    0    0  501  502  0.00000000000E+00 -0.00000000000E+00 -0.43700040262E+03  0.43700040262E+03  0.00000000000E+00 0.  1.
        -24    2    1    2    0    0 -0.24933699347E+02 -0.61467734899E+02 -0.14571996215E+03  0.17930973205E+03  0.80732278801E+02 0.  0.
         23    2    1    2    0    0  0.97354788685E+01  0.19637120711E+02 -0.18918741884E+03  0.21096987297E+03  0.90752475437E+02 0.  0.
         11    1    3    3    0    0  0.25775243809E+02 -0.14302282613E+02 -0.73792021185E+02  0.79461820216E+02  0.00000000000E+00 0. -1.
        -12    1    3    3    0    0 -0.50708943156E+02 -0.47165452285E+02 -0.71927940965E+02  0.99847911830E+02  0.00000000000E+00 0.  1.
        -11    1    4    4    0    0  0.31710860013E+02 -0.11091925175E+01 -0.16703265104E+02  0.35858165262E+02  0.00000000000E+00 0. -1.
         11    1    4    4    0    0 -0.21975381144E+02  0.20746313228E+02 -0.17248415373E+03  0.17511170771E+03  0.00000000000E+00 0.  1.
         -1    1    1    2    0  502  0.15198220478E+02  0.41830614188E+02 -0.67751660124E+02  0.81062159104E+02  0.00000000000E+00 0.  1.
<scales pt_clust_5="13000.00000" pt_clust_6="13000.00000" pt_clust_7="13000.00000" pt_clust_8="13000.00000" pt_clust_9="44.50605"></scales>
<clustering>
<clus scale="   44.506">  2  9  1 -1</clus>
<clus scale="   80.732">  5  6 -1 -1</clus>
<clus scale="   90.752">  7  8 -1 -1</clus>
<clus scale="   93.118">  1  5  2 -1</clus>
<clus scale="   44.506">  2  5  1 -1</clus>
</clustering>
</event>
<event>
 9    1  0.6345107E-005  0.1298411E+03  0.7546771E-02  0.1228411E+00
         21   -1    0    0  501  502  0.00000000000E+00  0.00000000000E+00  0.18139404913E+03  0.18139404913E+03  0.00000000000E+00 0.  1.
         -2   -1    0    0    0  501 -0.00000000000E+00 -0.00000000000E+00 -0.13780364373E+03  0.13780364373E+03  0.00000000000E+00 0.  1.
         23    2    1    2    0    0  0.12015662606E+02  0.10201854560E+03 -0.45122712541E+02  0.14389516660E+03  0.90097724661E+02 0.  0.
        -24    2    1    2    0    0  0.11183413141E+02 -0.75885766235E+02  0.66536590312E+02  0.13391511694E+03  0.87306485720E+02 0.  0.
         13    1    4    4    0    0 -0.14037483774E+02 -0.26633115885E+02 -0.16346885429E+02  0.34257765188E+02  0.00000000000E+00 0. -1.
        -14    1    4    4    0    0  0.25220896915E+02 -0.49252650349E+02  0.82883475741E+02  0.99657351754E+02  0.00000000000E+00 0.  1.
        -13    1    3    3    0    0 -0.27867908322E+02  0.26277877111E+02 -0.43934334725E+02  0.58286987463E+02  0.00000000000E+00 0. -1.
         13    1    3    3    0    0  0.39883570928E+02  0.75740668486E+02 -0.11883778158E+01  0.85608179133E+02  0.00000000000E+00 0.  1.
         -1    1    1    2    0  502 -0.23199075747E+02 -0.26132779362E+02  0.22176527627E+02  0.41387409321E+02  0.00000000000E+00 0.  1.
<scales pt_clust_5="13000.00000" pt_clust_6="13000.00000" pt_clust_7="13000.00000" pt_clust_8="13000.00000" pt_clust_9="34.94452"></scales>
<clustering>
<clus scale="   34.945">  1  9  2 -1</clus>
<clus scale="   87.306">  5  6 -1 -1</clus>
<clus scale="   90.098">  7  8 -1 -1</clus>
<clus scale="  127.920">  1  5  2 -1</clus>
<clus scale="   34.945">  1  5  2 -1</clus>
</clustering>
</event>
<event>
 9    1  0.6345107E-005  0.1050109E+03  0.7546771E-02  0.1272205E+00
         21   -1    0    0  501  502  0.00000000000E+00  0.00000000000E+00  0.70586749941E+02  0.70586749941E+02  0.00000000000E+00 0. -1.
          1   -1    0    0  502    0 -0.00000000000E+00 -0.00000000000E+00 -0.73698686716E+03  0.73698686716E+03  0.00000000000E+00 0. -1.
        -24    2    1    2    0    0 -0.65044905136E+02  0.18730093726E+02 -0.33989561059E+03  0.35587486897E+03  0.80847017083E+02 0.  0.
         23    2    1    2    0    0  0.16971504859E+02  0.44860944355E+02  0.16236229137E+02  0.99809441825E+02  0.86010308889E+02 0.  0.
         11    1    3    3    0    0 -0.69646422132E+02 -0.15043398166E+02 -0.22242315235E+03  0.23355724490E+03  0.00000000000E+00 0. -1.
        -12    1    3    3    0    0  0.46015169954E+01  0.33773491892E+02 -0.11747245823E+03  0.12231762406E+03  0.00000000000E+00 0.  1.
        -13    1    4    4    0    0 -0.23723790084E+02  0.30283567498E+02 -0.20040911008E+02  0.43376846247E+02  0.00000000000E+00 0.  1.
         13    1    4    4    0    0  0.40695294942E+02  0.14577376857E+02  0.36277140146E+02  0.56432595578E+02  0.00000000000E+00 0. -1.
          2    1    1    2  501    0  0.48073400278E+02 -0.63591038081E+02 -0.34274073577E+03  0.35188930631E+03  0.00000000000E+00 0. -1.
<scales pt_clust_5="13000.00000" pt_clust_6="13000.00000" pt_clust_7="13000.00000" pt_clust_8="13000.00000" pt_clust_9="79.71749"></scales>
<clustering>
<clus scale="   79.717">  1  9  2 -1</clus>
<clus scale="   80.847">  5  6 -1 -1</clus>
<clus scale="   86.010">  7  8 -1 -1</clus>
<clus scale="  100.825">  2  5  1 -1</clus>
<clus scale="   79.717">  1  5  2 -1</clus>
</clustering>
</event>
<event>
 9    1  0.6345107E-005  0.1396067E+03  0.7546771E-02  0.1216074E+00
          1   -1    0    0  502    0 -0.00000000000E+00  0.00000000000E+00  0.33258961839E+03  0.33258961839E+03  0.00000000000E+00 0. -1.
         21   -1    0    0  501  502  0.00000000000E+00 -0.00000000000E+00 -0.93785235509E+02  0.93785235509E+02  0.00000000000E+00 0. -1.
         23    2    1    2    0    0  0.12073993076E+03  0.40926035935E+01  0.15336364229E+03  0.21509872415E+03  0.90289390683E+02 0.  0.
        -24    2    1    2    0    0 -0.81789518279E+02  0.49250247424E+02  0.39057539245E+02  0.13056680095E+03  0.80044275043E+02 0.  0.
         13    1    4    4    0    0 -0.61732059223E+02  0.49052970740E+02  0.61844839841E+02  0.10020890823E+03  0.00000000000E+00 0. -1.
        -14    1    4    4    0    0 -0.20057459057E+02  0.19727668457E+00 -0.22787300596E+02  0.30357892719E+02  0.00000000000E+00 0.  1.
        -11    1    3    3    0    0  0.59977853411E+02 -0.75207595682E+01  0.13173579734E+02  0.61866371538E+02  0.00000000000E+00 0.  1.
         11    1    3    3    0    0  0.60762077353E+02  0.11613363162E+02  0.14019006255E+03  0.15323235261E+03  0.00000000000E+00 0. -1.
          2    1    1    2  501    0 -0.38950412484E+02 -0.53342851018E+02  0.46383201345E+02  0.80709328794E+02  0.00000000000E+00 0. -1.
<scales pt_clust_5="13000.00000" pt_clust_6="13000.00000" pt_clust_7="13000.00000" pt_clust_8="13000.00000" pt_clust_9="66.04997"></scales>
<clustering>
<clus scale="   66.050">  2  9  1 -1</clus>
<clus scale="   80.044">  5  6 -1 -1</clus>
<clus scale="   90.289">  7  8 -1 -1</clus>
<clus scale="  133.210">  2  5  1 -1</clus>
<clus scale="   66.050">  2  5  1 -1</clus>
</clustering>
</event>
<event>
 9    1  0.6345107E-005  0.9403322E+02  0.7546771E-02  0.1300632E+00
         21   -1    0    0  501  502  0.00000000000E+00  0.00000000000E+00  0.30458041745E+03  0.30458041745E+03  0.00000000000E+00 0.  1.
          3   -1    0    0  502    0 -0.00000000000E+00 -0.00000000000E+00 -0.94339081311E+02  0.94339081311E+02  0.00000000000E+00 0. -1.
         23    2    1    2    0    0  0.23580626621E+02  0.16079180239E+02 -0.17261201553E+01  0.95746260483E+02  0.91377135634E+02 0.  0.
        -24    2    1    2    0    0  0.18928586475E+02 -0.66436054160E+01  0.23856465736E+03  0.25214898546E+03  0.79142821823E+02 0.  0.
         11    1    4    4    0    0  0.13465862942E+02  0.35157827596E+02  0.86266963155E+02  0.94124339244E+02  0.00000000000E+00 0. -1.
        -12    1    4    4    0    0  0.54627235329E+01 -0.41801433012E+02  0.15229769421E+03  0.15802464622E+03  0.00000000000E+00 0.  1.
        -11    1    3    3    0    0  0.18406322995E+02  0.49233205836E+02  0.19476109108E+02  0.56053725202E+02  0.00000000000E+00 0.  1.
         11    1    3    3    0    0  0.51743036254E+01 -0.33154025596E+02 -0.21202229264E+02  0.39692535281E+02  0.00000000000E+00 0. -1.
          4    1    1    2  501    0 -0.42509213096E+02 -0.94355748233E+01 -0.26597201074E+02  0.51024252814E+02  0.00000000000E+00 0. -1.
<scales pt_clust_5="13000.00000" pt_clust_6="13000.00000" pt_clust_7="13000.00000" pt_clust_8="13000.00000" pt_clust_9="43.54383"></scales>
<clustering>
<clus scale="   43.544">  1  9  2 -1</clus>
<clus scale="   79.143">  5  6 -1 -1</clus>
<clus scale="   82.195">  1  5  2 -1</clus>
<clus scale="   91.377">  7  8 -1 -1</clus>
<clus scale="   43.544">  1  5  2 -1</clus>
</clustering>
</event>
<event>
 9    1  0.6345107E-005  0.1582198E+03  0.7546771E-02  0.1191864E+00
          1   -1    0    0  502    0 -0.00000000000E+00  0.00000000000E+00  0.31393865778E+03  0.31393865778E+03  0.00000000000E+00 0. -1.
         21   -1    0    0  501  502  0.00000000000E+00 -0.00000000000E+00 -0.35288108615E+03  0.35288108615E+03  0.00000000000E+00 0. -1.
         23    2    1    2    0    0 -0.48573749619E+02  0.11045471560E+03  0.19953781802E+03  0.24954291201E+03  0.88863213797E+02 0.  0.
        -24    2    1    2    0    0  0.13567606172E+03 -0.16833799966E+03 -0.12421284422E+03  0.26237581014E+03  0.81649000136E+02 0.  0.
         13    1    4    4    0    0  0.99548276023E+02 -0.10032174849E+03 -0.11973208410E+03  0.18522981521E+03  0.00000000000E+00 0. -1.
        -14    1    4    4    0    0  0.36127785695E+02 -0.68016251165E+02 -0.44807601190E+01  0.77145994926E+02  0.00000000000E+00 0.  1.
        -13    1    3    3    0    0 -0.65517856958E+02  0.97498347936E+02  0.19513465831E+03  0.22776314957E+03  0.00000000000E+00 0. -1.
         13    1    3    3    0    0  0.16944107339E+02  0.12956367664E+02  0.44031597123E+01  0.21779762442E+02  0.00000000000E+00 0.  1.
          2    1    1    2  501    0 -0.87102312100E+02  0.57883284060E+02 -0.11426740217E+03  0.15490102177E+03  0.00000000000E+00 0. -1.
<scales pt_clust_5="13000.00000" pt_clust_6="13000.00000" pt_clust_7="13000.00000" pt_clust_8="13000.00000" pt_clust_9="104.58149"></scales>
<clustering>
<clus scale="   81.649">  5  6 -1 -1</clus>
<clus scale="   88.863">  7  8 -1 -1</clus>
<clus scale="  104.581">  2  9  1 -1</clus>
<clus scale="  154.284">  2  5  1 -1</clus>
<clus scale="  104.581">  2  5  1 -1</clus>
</clustering>
</event>
<event>
 9    1  0.6345107E-005  0.1055205E+03  0.7546771E-02  0.1272133E+00
         -2   -1    0    0    0  501 -0.00000000000E+00  0.00000000000E+00  0.14805324583E+02  0.14805324583E+02  0.00000000000E+00 0.  1.
         21   -1    0    0  501  502  0.00000000000E+00 -0.00000000000E+00 -0.97966046904E+03  0.97966046904E+03  0.00000000000E+00 0.  1.
         23    2    1    2    0    0 -0.43024793378E+02  0.36632216486E+02 -0.30349504052E+03  0.32188457381E+03  0.91144868772E+02 0.  0.
        -24    2    1    2    0    0  0.22682723963E+02 -0.45143359649E+02 -0.48319618196E+03  0.49305789977E+03  0.84113693184E+02 0.  0.
         11    1    4    4    0    0  0.31778543431E+02  0.97571648286E+01 -0.89996938817E+02  0.95940226623E+02  0.00000000000E+00 0. -1.
        -12    1    4    4    0    0 -0.90958194673E+01 -0.54900524478E+02 -0.39319924314E+03  0.39711767315E+03  0.00000000000E+00 0.  1.
        -11    1    3    3    0    0 -0.47167200745E+02  0.61253748317E+02 -0.26462354121E+03  0.27568530079E+03  0.00000000000E+00 0.  1.
         11    1    3    3    0    0  0.41424073669E+01 -0.24621531831E+02 -0.38871499310E+02  0.46199273015E+02  0.00000000000E+00 0. -1.
         -1    1    1    2    0  502  0.20342069414E+02  0.85111431636E+01 -0.17816392198E+03  0.17952332005E+03  0.00000000000E+00 0.  1.
<scales pt_clust_5="13000.00000" pt_clust_6="13000.00000" pt_clust_7="13000.00000" pt_clust_8="13000.00000" pt_clust_9="22.05084"></scales>
<clustering>
<clus scale="   22.051">  2  9  1 -1</clus>
<clus scale="   84.114">  5  6 -1 -1</clus>
<clus scale="   91.145">  7  8 -1 -1</clus>
<clus scale="   99.510">  2  5  1 -1</clus>
<clus scale="   22.051">  2  5  1 -1</clus>
</clustering>
</event>
<event>
 9    1  0.6345107E-005  0.9829941E+02  0.7546771E-02  0.1287786E+00
         21   -1    0    0  501  502  0.00000000000E+00  0.00000000000E+00  0.28663237593E+02  0.28663237593E+02  0.00000000000E+00 0.  1.
          1   -1    0    0  502    0 -0.00000000000E+00 -0.00000000000E+00 -0.56960219468E+03  0.56960219468E+03  0.00000000000E+00 0. -1.
         23    2    1    2    0    0  0.32747885481E+02 -0.25469779907E+02 -0.22489370285E+03  0.24495350341E+03  0.87771906441E+02 0.  0.
        -24    2    1    2    0    0 -0.56960774962E+02 -0.24938091704E+02 -0.21953474689E+03  0.24177047663E+03  0.79943855146E+02 0.  0.
         13    1    4    4    0    0  0.13619254834E+01 -0.24574448602E+02 -0.14421226968E+02  0.28525955766E+02  0.00000000000E+00 0. -1.
        -14    1    4    4    0    0 -0.58322700446E+02 -0.36364310218E+00 -0.20511351993E+03  0.21324452087E+03  0.00000000000E+00 0.  1.
        -13    1    3    3    0    0 -0.20654675236E+02 -0.28720075732E+02 -0.14164064582E+03  0.14599154395E+03  0.00000000000E+00 0. -1.
         13    1    3    3    0    0  0.53402560717E+02  0.32502958255E+01 -0.83253057038E+02  0.98961959460E+02  0.00000000000E+00 0.  1.
          2    1    1    2  501    0  0.24212889481E+02  0.50407871611E+02 -0.96510507344E+02  0.11154145223E+03  0.00000000000E+00 0. -1.
<scales pt_clust_5="13000.00000" pt_clust_6="13000.00000" pt_clust_7="13000.00000" pt_clust_8="13000.00000" pt_clust_9="55.92153"></scales>
<clustering>
<clus scale="   55.922">  1  9  2 -1</clus>
<clus scale="   79.944">  5  6 -1 -1</clus>
<clus scale="   87.772">  7  8 -1 -1</clus>
<clus scale="   91.378">  1  5  2 -1</clus>
<clus scale="   55.922">  1  5  2 -1</clus>
</clustering>
</event>
<event>
 9    1  0.6345107E-005  0.2283689E+03  0.7546771E-02  0.1129096E+00
          1   -1    0    0  502    0 -0.00000000000E+00  0.00000000000E+00  0.61165132730E+03  0.61165132730E+03  0.00000000000E+00 0. -1.
         21   -1    0    0  501  502  0.00000000000E+00 -0.00000000000E+00 -0.11825919642E+03  0.11825919642E+03  0.00000000000E+00 0.  1.
         23    2    1    2    0    0 -0.12675074220E+03  0.15383012897E+03  0.30760321625E+03  0.37968445466E+03  0.99050932534E+02 0.  0.
        -24    2    1    2    0    0  0.14658500281E+03 -0.15715192890E+03  0.21510229537E+03  0.31467741874E+03  0.81049297272E+02 0.  0.
         13    1    4    4    0    0  0.70543303111E+02 -0.24775537210E+02  0.92099541037E+02  0.11862761195E+03  0.00000000000E+00 0. -1.
        -14    1    4    4    0    0  0.76041699695E+02 -0.13237639169E+03  0.12300275433E+03  0.19604980679E+03  0.00000000000E+00 0.  1.
        -11    1    3    3    0    0 -0.13568455628E+03  0.10500471914E+03  0.25514004141E+03  0.30746175467E+03  0.00000000000E+00 0.  1.
         11    1    3    3    0    0  0.89338140793E+01  0.48825409839E+02  0.52463174840E+02  0.72222699993E+02  0.00000000000E+00 0. -1.
          2    1    1    2  501    0 -0.19834260605E+02  0.33217999277E+01 -0.29313380746E+02  0.35548650316E+02  0.00000000000E+00 0. -1.
<scales pt_clust_5="13000.00000" pt_clust_6="13000.00000" pt_clust_7="13000.00000" pt_clust_8="13000.00000" pt_clust_9="20.11050"></scales>
<clustering>
<clus scale="   20.111">  2  9  1 -1</clus>
<clus scale="   81.049">  5  6 -1 -1</clus>
<clus scale="   99.051">  7  8 -1 -1</clus>
<clus scale="  221.157">  2  5  1 -1</clus>
<clus scale="   20.111">  2  5  1 -1</clus>
</clustering>
</event>
<event>
 9    1  0.6345107E-005  0.1462172E+03  0.7546771E-02  0.1225758E+00
         21   -1    0    0  501  502  0.00000000000E+00  0.00000000000E+00  0.89160897837E+03  0.89160897837E+03  0.00000000000E+00 0. -1.
          1   -1    0    0  502    0 -0.00000000000E+00 -0.00000000000E+00 -0.10224709620E+03  0.10224709620E+03  0.00000000000E+00 0. -1.
         23    2    1    2    0    0 -0.25728924853E+02  0.13368582416E+02 -0.48816424748E+02  0.10649114285E+03  0.90092306052E+02 0.  0.
        -24    2    1    2    0    0 -0.11364396247E+03 -0.11629086618E+02  0.54929857996E+03  0.56661686203E+03  0.79218385082E+02 0.  0.
         13    1    4    4    0    0 -0.10010008118E+03  0.30849903412E+01  0.29505297763E+03  0.31158594806E+03  0.00000000000E+00 0. -1.
        -14    1    4    4    0    0 -0.13543881290E+02 -0.14714076960E+02  0.25424560233E+03  0.25503091398E+03  0.00000000000E+00 0.  1.
        -13    1    3    3    0    0  0.11634934991E+02 -0.24178707963E+02  0.87874509134E+01  0.28234746760E+02  0.00000000000E+00 0.  1.
         13    1    3    3    0    0 -0.37363859844E+02  0.37547290380E+02 -0.57603875661E+02  0.78256396087E+02  0.00000000000E+00 0. -1.
          2    1    1    2  501    0  0.13937288732E+03 -0.17394957981E+01  0.28887972695E+03  0.32074806969E+03  0.00000000000E+00 0. -1.
<scales pt_clust_5="13000.00000" pt_clust_6="13000.00000" pt_clust_7="13000.00000" pt_clust_8="13000.00000" pt_clust_9="122.89810"></scales>
<clustering>
<clus scale="   79.218">  5  6 -1 -1</clus>
<clus scale="   90.092">  7  8 -1 -1</clus>
<clus scale="   94.643">  2  7  1 -1</clus>
<clus scale="  122.898">  1  9  2 -1</clus>
<clus scale="  122.898">  1  5  2 -1</clus>
</clustering>
</event>
<event>
 9    1  0.6345107E-005  0.1926108E+03  0.7546771E-02  0.1158961E+00
         21   -1    0    0  501  502  0.00000000000E+00  0.00000000000E+00  0.12659327205E+04  0.12659327205E+04  0.00000000000E+00 0.  1.
         -4   -1    0    0    0  501 -0.00000000000E+00 -0.00000000000E+00 -0.73592503125E+02  0.73592503125E+02  0.00000000000E+00 0.  1.
        -24    2    1    2    0    0 -0.34498361937E+01 -0.16311349916E+03  0.42500747003E+03  0.46165705987E+03  0.76667961769E+02 0.  0.
         23    2    1    2    0    0  0.14581776490E+03 -0.14245872254E+02  0.46474160655E+03  0.49933629953E+03  0.10902391356E+03 0.  0.
         13    1    3    3    0    0  0.23639741908E+02 -0.10329218599E+03  0.18893165434E+03  0.21661782727E+03  0.00000000000E+00 0. -1.
        -14    1    3    3    0    0 -0.27089578101E+02 -0.59821313177E+02  0.23607581570E+03  0.24503923259E+03  0.00000000000E+00 0.  1.
        -11    1    4    4    0    0  0.61047329407E+02 -0.60301847907E+02  0.23409607634E+03  0.24932721923E+03  0.00000000000E+00 0.  1.
         11    1    4    4    0    0  0.84770435493E+02  0.46055975653E+02  0.23064553021E+03  0.25000908030E+03  0.00000000000E+00 0. -1.
         -3    1    1    2    0  502 -0.14236792871E+03  0.17735937142E+03  0.30259114079E+03  0.37853186423E+03  0.00000000000E+00 0.  1.
<scales pt_clust_5="13000.00000" pt_clust_6="13000.00000" pt_clust_7="13000.00000" pt_clust_8="13000.00000" pt_clust_9="158.78512"></scales>
<clustering>
<clus scale="   76.668">  5  6 -1 -1</clus>
<clus scale="  109.024">  7  8 -1 -1</clus>
<clus scale="  180.266">  2  5  1 -1</clus>
<clus scale="  158.785">  1  9  2 -1</clus>
<clus scale="  158.785">  1  5  2 -1</clus>
</clustering>
</event>
<event>
 9    1  0.6345107E-005  0.9640925E+02  0.7546771E-02  0.1294390E+00
         21   -1    0    0  501  502  0.00000000000E+00  0.00000000000E+00  0.19257008036E+02  0.19257008036E+02  0.00000000000E+00 0. -1.
         -2   -1    0    0    0  501 -0.00000000000E+00 -0.00000000000E+00 -0.11500769982E+04  0.11500769982E+04  0.00000000000E+00 0.  1.
        -24    2    1    2    0    0  0.28819921533E+02 -0.22343864957E+02 -0.84235604116E+03  0.84693872711E+03  0.80072911914E+02 0.  0.
         23    2    1    2    0    0 -0.24648012365E+01  0.12698526336E+02 -0.27710831851E+03  0.29212028504E+03  0.91530939724E+02 0.  0.
         13    1    3    3    0    0  0.29225356780E+02  0.79583045151E+01 -0.11408597564E+03  0.11803840869E+03  0.00000000000E+00 0. -1.
        -14    1    3    3    0    0 -0.40543524705E+00 -0.30302169472E+02 -0.72827006553E+03  0.72890031842E+03  0.00000000000E+00 0.  1.
        -11    1    4    4    0    0 -0.42025025554E+02 -0.14393046063E+02 -0.13901386355E+03  0.14593874334E+03  0.00000000000E+00 0.  1.
         11    1    4    4    0    0  0.39560224318E+02  0.27091572399E+02 -0.13809445496E+03  0.14618154170E+03  0.00000000000E+00 0. -1.
         -1    1    1    2    0  502 -0.26355120296E+02  0.96453386207E+01 -0.11355630489E+02  0.30274994084E+02  0.00000000000E+00 0.  1.
<scales pt_clust_5="13000.00000" pt_clust_6="13000.00000" pt_clust_7="13000.00000" pt_clust_8="13000.00000" pt_clust_9="28.06466"></scales>
<clustering>
<clus scale="   28.065">  1  9  2 -1</clus>
<clus scale="   80.073">  5  6 -1 -1</clus>
<clus scale="   85.607">  2  5  1 -1</clus>
<clus scale="   91.531">  7  8 -1 -1</clus>
<clus scale="   28.065">  1  5  2 -1</clus>
</clustering>
</event>
<event>
 9    1  0.6345107E-005  0.2794031E+03  0.7546771E-02  0.1096923E+00
         21   -1    0    0  501  502  0.00000000000E+00  0.00000000000E+00  0.56559353839E+03  0.56559353839E+03  0.00000000000E+00 0. -1.
          3   -1    0    0  502    0 -0.00000000000E+00 -0.00000000000E+00 -0.14872152166E+03  0.14872152166E+03  0.00000000000E+00 0. -1.
         23    2    1    2    0    0  0.12527572797E+01 -0.27020836551E+03  0.17335688616E+03  0.33620626865E+03  0.99839445680E+02 0.  0.
        -24    2    1    2    0    0 -0.48222951949E+01  0.25001865344E+03  0.24287458971E+03  0.35759595719E+03  0.79713365732E+02 0.  0.
         13    1    4    4    0    0  0.26260580510E+02  0.20750756640E+03  0.18367071251E+03  0.27835936995E+03  0.00000000000E+00 0. -1.
        -14    1    4    4    0    0 -0.31082875705E+02  0.42511087036E+02  0.59203877202E+02  0.79236587248E+02  0.00000000000E+00 0.  1.
        -11    1    3    3    0    0  0.47247088491E+02 -0.92167885782E+02  0.52077732362E+02  0.11592798087E+03  0.00000000000E+00 0.  1.
         11    1    3    3    0    0 -0.45994331211E+02 -0.17804047972E+03  0.12127915380E+03  0.22027828779E+03  0.00000000000E+00 0. -1.
          4    1    1    2  501    0  0.35695379152E+01  0.20189712066E+02  0.64054085560E+00  0.20512834198E+02  0.00000000000E+00 0. -1.
<scales pt_clust_5="13000.00000" pt_clust_6="13000.00000" pt_clust_7="13000.00000" pt_clust_8="13000.00000" pt_clust_9="20.50284"></scales>
<clustering>
<clus scale="   20.503">  1  9  2 -1</clus>
<clus scale="   79.713">  5  6 -1 -1</clus>
<clus scale="   99.839">  7  8 -1 -1</clus>
<clus scale="  272.860">  1  5  2 -1</clus>
<clus scale="   20.503">  1  5  2 -1</clus>
</clustering>
</event>
<event>
 9    1  0.6345107E-005  0.1220844E+03  0.7546771E-02  0.1244227E+00
         -2   -1    0    0    0  501 -0.00000000000E+00  0.00000000000E+00  0.66391185403E+02  0.66391185403E+02  0.00000000000E+00 0.  1.
         21   -1    0    0  501  502  0.00000000000E+00 -0.00000000000E+00 -0.45509310031E+03  0.45509310031E+03  0.00000000000E+00 0. -1.
         23    2    1    2    0    0 -0.28846441731E+02 -0.79666248040E+02 -0.10269918508E+03  0.16030157570E+03  0.89278464810E+02 0.  0.
        -24    2    1    2    0    0 -0.46919925618E+02  0.90150316125E+02 -0.24261188404E+03  0.27324396086E+03  0.73980922869E+02 0.  0.
         13    1    4    4    0    0 -0.53578311573E+02  0.77217664144E+02 -0.24091580930E+03  0.25859936252E+03  0.00000000000E+00 0. -1.
        -14    1    4    4    0    0  0.66583859542E+01  0.12932651981E+02 -0.16960747407E+01  0.14644598332E+02  0.00000000000E+00 0.  1.
        -13    1    3    3    0    0 -0.43679311461E+02 -0.18852411532E+02 -0.10269140033E+02  0.48669815156E+02  0.00000000000E+00 0.  1.
         13    1    3    3    0    0  0.14832869730E+02 -0.60813836508E+02 -0.92430045043E+02  0.11163176054E+03  0.00000000000E+00 0. -1.
         -1    1    1    2    0  502  0.75766367350E+02 -0.10484068085E+02 -0.43390845786E+02  0.87938749155E+02  0.00000000000E+00 0.  1.
<scales pt_clust_5="13000.00000" pt_clust_6="13000.00000" pt_clust_7="13000.00000" pt_clust_8="13000.00000" pt_clust_9="76.48833"></scales>
<clustering>
<clus scale="   73.981">  5  6 -1 -1</clus>
<clus scale="   76.488">  2  9  1 -1</clus>
<clus scale="   89.278">  7  8 -1 -1</clus>
<clus scale="  111.387">  2  5  1 -1</clus>
<clus scale="   76.488">  2  5  1 -1</clus>
</clustering>
</event>
<event>
 9    1  0.6345107E-005  0.2173159E+03  0.7546771E-02  0.1176877E+00
         21   -1    0    0  501  502  0.00000000000E+00  0.00000000000E+00  0.90419608409E+03  0.90419608409E+03  0.00000000000E+00 0.  1.
         -4   -1    0    0    0  501 -0.00000000000E+00 -0.00000000000E+00 -0.10216044056E+03  0.10216044056E+03  0.00000000000E+00 0.  1.
        -24    2    1    2    0    0  0.86775062340E+01  0.16842508312E+02  0.13887766178E+03  0.16188481744E+03  0.80998271430E+02 0.  0.
         23    2    1    2    0    0 -0.13365729809E+03 -0.16400669558E+03  0.10500983506E+03  0.25387319719E+03  0.93070216859E+02 0.  0.
         11    1    3    3    0    0  0.26624011468E+02  0.16561112742E+02  0.14041240662E+03  0.14387060984E+03  0.00000000000E+00 0. -1.
        -12    1    3    3    0    0 -0.17946505234E+02  0.28139557021E+00 -0.15347448453E+01  0.18014207596E+02  0.00000000000E+00 0.  1.
        -13    1    4    4    0    0 -0.11509185248E+03 -0.86838875528E+02  0.35774369173E+02  0.14854942040E+03  0.00000000000E+00 0.  1.
         13    1    4    4    0    0 -0.18565445611E+02 -0.77167820049E+02  0.69235465892E+02  0.10532377680E+03  0.00000000000E+00 0. -1.
         -3    1    1    2    0  502  0.12497979186E+03  0.14716418726E+03  0.55814814669E+03  0.59059851002E+03  0.00000000000E+00 0.  1.
<scales pt_clust_5="13000.00000" pt_clust_6="13000.00000" pt_clust_7="13000.00000" pt_clust_8="13000.00000" pt_clust_9="196.37758"></scales>
<clustering>
<clus scale="   80.998">  5  6 -1 -1</clus>
<clus scale="   83.185">  2  5  1 -1</clus>
<clus scale="   93.070">  7  8 -1 -1</clus>
<clus scale="  196.378">  1  9  2 -1</clus>
<clus scale="  196.378">  1  5  2 -1</clus>
</clustering>
</event>
<event>
 9    1  0.6345107E-005  0.2319673E+03  0.7546771E-02  0.1125992E+00
         21   -1    0    0  501  502  0.00000000000E+00  0.00000000000E+00  0.34260908492E+03  0.34260908492E+03  0.00000000000E+00 0.  1.
         -2   -1    0    0    0  501 -0.00000000000E+00 -0.00000000000E+00 -0.20458136115E+03  0.20458136115E+03  0.00000000000E+00 0.  1.
         23    2    1    2    0    0 -0.95343875275E+02 -0.19760457117E+03 -0.20710819893E+02  0.23860038692E+03  0.91450453672E+02 0.  0.
        -24    2    1    2    0    0  0.10766356696E+03  0.17011785183E+03  0.17097329047E+03  0.27607877537E+03  0.80349841297E+02 0.  0.
         11    1    4    4    0    0  0.22997831633E+02  0.22018056798E+02 -0.35418623537E+01  0.32034978913E+02  0.00000000000E+00 0. -1.
        -12    1    4    4    0    0  0.84665735328E+02  0.14809979503E+03  0.17451515282E+03  0.24404379646E+03  0.00000000000E+00 0.  1.
        -13    1    3    3    0    0 -0.78214089890E+02 -0.95349254617E+02 -0.46434677613E+02  0.13177671835E+03  0.00000000000E+00 0.  1.
         13    1    3    3    0    0 -0.17129785385E+02 -0.10225531656E+03  0.25723857720E+02  0.10682366857E+03  0.00000000000E+00 0. -1.
         -1    1    1    2    0  502 -0.12319691686E+02  0.27486719341E+02 -0.12234746798E+02  0.32511283773E+02  0.00000000000E+00 0.  1.
<scales pt_clust_5="13000.00000" pt_clust_6="13000.00000" pt_clust_7="13000.00000" pt_clust_8="13000.00000" pt_clust_9="30.12135"></scales>
<clustering>
<clus scale="   30.121">  1  9  2 -1</clus>
<clus scale="   80.350">  5  6 -1 -1</clus>
<clus scale="   91.450">  7  8 -1 -1</clus>
<clus scale="  227.819">  1  5  2 -1</clus>
<clus scale="   30.121">  1  5  2 -1</clus>
</clustering>
</event>
<event>
 9    1  0.6345107E-005  0.1652307E+03  0.7546771E-02  0.1184845E+00
         21   -1    0    0  501  502  0.00000000000E+00  0.00000000000E+00  0.24481660946E+03  0.24481660946E+03  0.00000000000E+00 0. -1.
         -2   -1    0    0    0  501 -0.00000000000E+00 -0.00000000000E+00 -0.25423671215E+03  0.25423671215E+03  0.00000000000E+00 0.  1.
         23    2    1    2    0    0  0.11209075281E+03 -0.49042114511E+02 -0.79760299478E+02  0.17333388597E+03  0.93345941491E+02 0.  0.
        -24    2    1    2    0    0 -0.15482826980E+03  0.11358803201E+03  0.11349140144E+03  0.23709270553E+03  0.80365531622E+02 0.  0.
         11    1    4    4    0    0 -0.14085904097E+03  0.63811704548E+02  0.70940629764E+02  0.17013458206E+03  0.00000000000E+00 0. -1.
        -12    1    4    4    0    0 -0.13969228828E+02  0.49776327464E+02  0.42550771674E+02  0.66958123479E+02  0.00000000000E+00 0.  1.
        -11    1    3    3    0    0  0.19393938660E+02 -0.35148665521E+02  0.12266969581E+02  0.41976565931E+02  0.00000000000E+00 0.  1.
         11    1    3    3    0    0  0.92696814147E+02 -0.13893448990E+02 -0.92027269059E+02  0.13135732004E+03  0.00000000000E+00 0. -1.
         -1    1    1    2    0  502  0.42737516990E+02 -0.64545917500E+02 -0.43151204651E+02  0.88626730095E+02  0.00000000000E+00 0.  1.
<scales pt_clust_5="13000.00000" pt_clust_6="13000.00000" pt_clust_7="13000.00000" pt_clust_8="13000.00000" pt_clust_9="77.41238"></scales>
<clustering>
<clus scale="   77.412">  1  9  2 -1</clus>
<clus scale="   80.366">  5  6 -1 -1</clus>
<clus scale="   93.346">  7  8 -1 -1</clus>
<clus scale="  158.260">  1  5  2 -1</clus>
<clus scale="   77.412">  1  5  2 -1</clus>
</clustering>
</event>
<event>
 9    1  0.6345107E-005  0.1050179E+03  0.7546771E-02  0.1274112E+00
          3   -1    0    0  502    0 -0.00000000000E+00  0.00000000000E+00  0.13677485811E+03  0.13677485811E+03  0.00000000000E+00 0. -1.
         21   -1    0    0  501  502  0.00000000000E+00 -0.00000000000E+00 -0.28429581894E+03  0.28429581894E+03  0.00000000000E+00 0. -1.
         23    2    1    2    0    0  0.37460561722E+02  0.44822704290E+02  0.88430145101E+02  0.13865780331E+03  0.89407647047E+02 0.  0.
        -24    2    1    2    0    0 -0.42893471955E+01 -0.48702985956E+02 -0.81086858777E+02  0.12398837720E+03  0.80047858648E+02 0.  0.
         13    1    4    4    0    0 -0.88465918525E+01 -0.69005967489E+02 -0.75020346855E+02  0.10231391977E+03  0.00000000000E+00 0. -1.
        -14    1    4    4    0    0  0.45572446570E+01  0.20302981533E+02 -0.60665119215E+01  0.21674457430E+02  0.00000000000E+00 0.  1.
        -11    1    3    3    0    0  0.42391593091E+02  0.65896388104E+02  0.86828951012E+02  0.11695575173E+03  0.00000000000E+00 0. -1.
         11    1    3    3    0    0 -0.49310313697E+01 -0.21073683814E+02  0.16011940891E+01  0.21702051571E+02  0.00000000000E+00 0.  1.
          4    1    1    2  501    0 -0.33171214526E+02  0.38802816656E+01 -0.15486424715E+03  0.15842449654E+03  0.00000000000E+00 0. -1.
<scales pt_clust_5="13000.00000" pt_clust_6="13000.00000" pt_clust_7="13000.00000" pt_clust_8="13000.00000" pt_clust_9="33.39740"></scales>
<clustering>
<clus scale="   33.397">  2  9  1 -1</clus>
<clus scale="   80.048">  5  6 -1 -1</clus>
<clus scale="   89.408">  7  8 -1 -1</clus>
<clus scale="   97.174">  2  5  1 -1</clus>
<clus scale="   33.397">  2  5  1 -1</clus>
</clustering>
</event>
<event>
 9    1  0.6345107E-005  0.1406534E+03  0.7546771E-02  0.1233881E+00
          3   -1    0    0  502    0 -0.00000000000E+00  0.00000000000E+00  0.12931592996E+03  0.12931592996E+03  0.00000000000E+00 0. -1.
         21   -1    0    0  501  502  0.00000000000E+00 -0.00000000000E+00 -0.23788981676E+03  0.23788981676E+03  0.00000000000E+00 0. -1.
        -24    2    1    2    0    0 -0.34631857858E+02 -0.17942063802E+02 -0.38136676716E+01  0.89983090462E+02  0.81000797995E+02 0.  0.
         23    2    1    2    0    0  0.53492081435E+02  0.10736869549E+03 -0.10781616491E+03  0.18577775869E+03  0.92193333045E+02 0.  0.
         11    1    3    3    0    0 -0.37219000017E+02 -0.46205760295E+02 -0.11811758136E+02  0.60495817020E+02  0.00000000000E+00 0. -1.
        -12    1    3    3    0    0  0.25871421594E+01  0.28263696492E+02  0.79980904644E+01  0.29487273442E+02  0.00000000000E+00 0.  1.
        -11    1    4    4    0    0  0.67241054677E+02  0.55291736661E+02 -0.31942243748E+02  0.92729943992E+02  0.00000000000E+00 0. -1.
         11    1    4    4    0    0 -0.13748973242E+02  0.52076958830E+02 -0.75873921166E+02  0.93047814694E+02  0.00000000000E+00 0.  1.
          4    1    1    2  501    0 -0.18860223577E+02 -0.89426631689E+02  0.30559457848E+01  0.91444897579E+02  0.00000000000E+00 0. -1.
<scales pt_clust_5="13000.00000" pt_clust_6="13000.00000" pt_clust_7="13000.00000" pt_clust_8="13000.00000" pt_clust_9="106.22514"></scales>
<clustering>
<clus scale="   81.001">  5  6 -1 -1</clus>
<clus scale="   89.902">  1  5  2 -1</clus>
<clus scale="   92.193">  7  8 -1 -1</clus>
<clus scale="  106.225">  2  9  1 -1</clus>
<clus scale="  106.225">  2  5  1 -1</clus>
</clustering>
</event>
<event>
 9    1  0.6345107E-005  0.3599265E+03  0.7546771E-02  0.1058613E+00
          1   -1    0    0  502    0 -0.00000000000E+00  0.00000000000E+00  0.64617334657E+03  0.64617334657E+03  0.00000000000E+00 0. -1.
         21   -1    0    0  501  502  0.00000000000E+00 -0.00000000000E+00 -0.32169336270E+03  0.32169336270E+03  0.00000000000E+00 0. -1.
        -24    2    1    2    0    0  0.69173554467E+02 -0.81821329543E+02  0.14263781416E+03  0.19638405275E+03  0.82106269808E+02 0.  0.
         23    2    1    2    0    0  0.19868066138E+03 -0.85389697505E+01  0.37139202354E+03  0.43112988111E+03  0.91618884661E+02 0.  0.
         11    1    3    3    0    0  0.15506563981E+02 -0.77465390875E+02  0.10151098256E+03  0.12863055582E+03  0.00000000000E+00 0. -1.
        -12    1    3    3    0    0  0.53666990486E+02 -0.43559386679E+01  0.41126831604E+02  0.67753496938E+02  0.00000000000E+00 0.  1.
        -11    1    4    4    0    0  0.60525370378E+02  0.32618810667E+02  0.17073305286E+03  0.18405728078E+03  0.00000000000E+00 0.  1.
         11    1    4    4    0    0  0.13815529100E+03 -0.41157780417E+02  0.20065897068E+03  0.24707260034E+03  0.00000000000E+00 0. -1.
          2    1    1    2  501    0 -0.26785421585E+03  0.90360299294E+02 -0.18954985383E+03  0.34035277540E+03  0.00000000000E+00 0. -1.
<scales pt_clust_5="13000.00000" pt_clust_6="13000.00000" pt_clust_7="13000.00000" pt_clust_8="13000.00000" pt_clust_9="282.68510"></scales>
<clustering>
<clus scale="   82.106">  5  6 -1 -1</clus>
<clus scale="   91.619">  7  8 -1 -1</clus>
<clus scale="  130.327">  5  7 -1 -1</clus>
<clus scale="  282.685">  2  9  1 -1</clus>
<clus scale="  282.685">  2  5  1 -1</clus>
</clustering>
</event>
<event>
 9    1  0.6345107E-005  0.1036748E+03  0.7546771E-02  0.1276220E+00
         -4   -1    0    0    0  501 -0.00000000000E+00  0.00000000000E+00  0.13093787236E+03  0.13093787236E+03  0.00000000000E+00 0.  1.
         21   -1    0    0  501  502  0.00000000000E+00 -0.00000000000E+00 -0.10069728437E+03  0.10069728437E+03  0.00000000000E+00 0. -1.
         23    2    1    2    0    0  0.69825027528E+01  0.46989861899E+02  0.40507748350E+02  0.11152040763E+03  0.92407365376E+02 0.  0.
        -24    2    1    2    0    0  0.14153292311E+02 -0.46983315480E+02 -0.12718043811E+02  0.98837326668E+02  0.84848811942E+02 0.  0.
         13    1    4    4    0    0 -0.27305224350E+02 -0.22893998870E+01 -0.24488856412E+02  0.36749431520E+02  0.00000000000E+00 0. -1.
        -14    1    4    4    0    0  0.41458516661E+02 -0.44693915592E+02  0.11770812601E+02  0.62087895149E+02  0.00000000000E+00 0.  1.
        -13    1    3    3    0    0  0.48719058351E+02  0.16382482906E+02  0.26859209148E+02  0.57994392046E+02  0.00000000000E+00 0. -1.
         13    1    3    3    0    0 -0.41736555598E+02  0.30607378992E+02  0.13648539202E+02  0.53526015584E+02  0.00000000000E+00 0.  1.
         -3    1    1    2    0  502 -0.21135795063E+02 -0.65464193047E-02  0.24508834467E+01  0.21277422435E+02  0.00000000000E+00 0.  1.
<scales pt_clust_5="13000.00000" pt_clust_6="13000.00000" pt_clust_7="13000.00000" pt_clust_8="13000.00000" pt_clust_9="21.13580"></scales>
<clustering>
<clus scale="   21.136">  2  9  1 -1</clus>
<clus scale="   84.849">  5  6 -1 -1</clus>
<clus scale="   92.407">  7  8 -1 -1</clus>
<clus scale="   96.998">  2  5  1 -1</clus>
<clus scale="   21.136">  2  5  1 -1</clus>
</clustering>
</event>
<event>
 9    1  0.6345107E-005  0.1266856E+03  0.7546771E-02  0.1236118E+00
          1   -1    0    0  502    0 -0.00000000000E+00  0.00000000000E+00  0.28240356077E+03  0.28240356077E+03  0.00000000000E+00 0. -1.
         21   -1    0    0  501  502  0.00000000000E+00 -0.00000000000E+00 -0.11334554031E+03  0.11334554031E+03  0.00000000000E+00 0. -1.
        -24    2    1    2    0    0  0.53996365361E+01  0.76060420681E+02  0.82968950078E+02  0.13844354785E+03  0.80426522952E+02 0.  0.
         23    2    1    2    0    0  0.52475388118E+02 -0.10894964711E+03  0.55787146785E+01  0.15283959195E+03  0.93301269267E+02 0.  0.
         11    1    3    3    0    0  0.37875278454E+02  0.62922485587E+02  0.68865143214E+02  0.10067861670E+03  0.00000000000E+00 0. -1.
        -12    1    3    3    0    0 -0.32475641918E+02  0.13137935094E+02  0.14103806864E+02  0.37764931147E+02  0.00000000000E+00 0.  1.
        -13    1    4    4    0    0  0.60522337866E+02 -0.40524581502E+02 -0.25615922832E+02  0.77209912506E+02  0.00000000000E+00 0.  1.
         13    1    4    4    0    0 -0.80469497476E+01 -0.68425065604E+02  0.31194637511E+02  0.75629679443E+02  0.00000000000E+00 0. -1.
          2    1    1    2  501    0 -0.57875024654E+02  0.32889226425E+02  0.80510355702E+02  0.10446596129E+03  0.00000000000E+00 0. -1.
<scales pt_clust_5="13000.00000" pt_clust_6="13000.00000" pt_clust_7="13000.00000" pt_clust_8="13000.00000" pt_clust_9="66.56744"></scales>
<clustering>
<clus scale="   66.567">  2  9  1 -1</clus>
<clus scale="   80.427">  5  6 -1 -1</clus>
<clus scale="   93.301">  7  8 -1 -1</clus>
<clus scale="  117.527">  1  5  2 -1</clus>
<clus scale="   66.567">  2  5  1 -1</clus>
</clustering>
</event>
<event>
 9    1  0.6345107E-005  0.9489393E+02  0.7546771E-02  0.1299417E+00
         21   -1    0    0  501  502  0.00000000000E+00  0.00000000000E+00  0.17818834376E+03  0.17818834376E+03  0.00000000000E+00 0.  1.
          1   -1    0    0  502    0 -0.00000000000E+00 -0.00000000000E+00 -0.12728232413E+03  0.12728232413E+03  0.00000000000E+00 0. -1.
         23    2    1    2    0    0 -0.16321342496E+02 -0.17863752519E+02 -0.71994675602E+02  0.11859210859E+03  0.91078839635E+02 0.  0.
        -24    2    1    2    0    0  0.53904299650E+02 -0.36518917818E+01  0.10151359949E+03  0.13857939283E+03  0.77331930016E+02 0.  0.
         11    1    4    4    0    0  0.34130212617E+02  0.13302029517E+02  0.30824825913E+01  0.36760265253E+02  0.00000000000E+00 0. -1.
        -12    1    4    4    0    0  0.19774087034E+02 -0.16953921299E+02  0.98431116903E+02  0.10181912758E+03  0.00000000000E+00 0.  1.
        -13    1    3    3    0    0 -0.24602185742E+02 -0.39338053648E+02 -0.37247813058E+01  0.46547008538E+02  0.00000000000E+00 0. -1.
         13    1    3    3    0    0  0.82808432456E+01  0.21474301129E+02 -0.68269894296E+02  0.72045100049E+02  0.00000000000E+00 0.  1.
          2    1    1    2  501    0 -0.37582957154E+02  0.21515644301E+02  0.21387095742E+02  0.48299166477E+02  0.00000000000E+00 0. -1.
<scales pt_clust_5="13000.00000" pt_clust_6="13000.00000" pt_clust_7="13000.00000" pt_clust_8="13000.00000" pt_clust_9="43.30591"></scales>
<clustering>
<clus scale="   43.306">  1  9  2 -1</clus>
<clus scale="   77.332">  5  6 -1 -1</clus>
<clus scale="   81.791">  1  5  2 -1</clus>
<clus scale="   91.079">  7  8 -1 -1</clus>
<clus scale="   43.306">  1  5  2 -1</clus>
</clustering>
</event>
<event>
 9    1  0.6345107E-005  0.1093341E+03  0.7546771E-02  0.1264978E+00
          1   -1    0    0  502    0 -0.00000000000E+00  0.00000000000E+00  0.27802260172E+03  0.27802260172E+03  0.00000000000E+00 0. -1.
         21   -1    0    0  501  502  0.00000000000E+00 -0.00000000000E+00 -0.71650927086E+02  0.71650927086E+02  0.00000000000E+00 0. -1.
         23    2    1    2    0    0 -0.13759552716E+02  0.58497361881E+02  0.18620626257E+03  0.21468389911E+03  0.88346690252E+02 0.  0.
        -24    2    1    2    0    0  0.89553736500E+01 -0.78608831236E+02  0.19888944302E+02  0.11431046698E+03  0.80073501796E+02 0.  0.
         13    1    4    4    0    0 -0.33769085126E+01 -0.91555275551E+02  0.62651229631E+01  0.91831496548E+02  0.00000000000E+00 0. -1.
        -14    1    4    4    0    0  0.12332282163E+02  0.12946444316E+02  0.13623821339E+02  0.22478970431E+02  0.00000000000E+00 0.  1.
        -13    1    3    3    0    0  0.96352958315E+01  0.76202252572E+02  0.12321002797E+03  0.14519067882E+03  0.00000000000E+00 0. -1.
         13    1    3    3    0    0 -0.23394848547E+02 -0.17704890691E+02  0.62996234603E+02  0.69493220296E+02  0.00000000000E+00 0.  1.
          2    1    1    2  501    0  0.48041790658E+01  0.20111469355E+02  0.27646775629E+00  0.20679162713E+02  0.00000000000E+00 0. -1.
<scales pt_clust_5="13000.00000" pt_clust_6="13000.00000" pt_clust_7="13000.00000" pt_clust_8="13000.00000" pt_clust_9="20.67731"></scales>
<clustering>
<clus scale="   20.677">  2  9  1 -1</clus>
<clus scale="   80.074">  5  6 -1 -1</clus>
<clus scale="   88.347">  7  8 -1 -1</clus>
<clus scale="  102.765">  2  5  1 -1</clus>
<clus scale="   20.677">  2  5  1 -1</clus>
</clustering>
</event>
<event>
 9    1  0.6345107E-005  0.9130744E+02  0.7546771E-02  0.1305489E+00
         -2   -1    0    0    0  501 -0.00000000000E+00  0.00000000000E+00  0.56841707216E+03  0.56841707216E+03  0.00000000000E+00 0.  1.
         21   -1    0    0  501  502  0.00000000000E+00 -0.00000000000E+00 -0.46449427654E+02  0.46449427654E+02  0.00000000000E+00 0. -1.
        -24    2    1    2    0    0  0.35049368731E+01 -0.11896285042E+02  0.44950760374E+03  0.45683330324E+03  0.80534309151E+02 0.  0.
         23    2    1    2    0    0 -0.22625350120E+02  0.44076031474E+02  0.47856470889E+02  0.11323964867E+03  0.89879770840E+02 0.  0.
         11    1    3    3    0    0  0.18656553427E+02  0.25973829938E+02  0.10087716686E+03  0.10582490076E+03  0.00000000000E+00 0. -1.
        -12    1    3    3    0    0 -0.15151616554E+02 -0.37870114980E+02  0.34863043688E+03  0.35100840248E+03  0.00000000000E+00 0.  1.
        -13    1    4    4    0    0 -0.78725308697E+01 -0.23333504952E+02  0.35394411064E+02  0.43118366507E+02  0.00000000000E+00 0.  1.
         13    1    4    4    0    0 -0.14752819251E+02  0.67409536426E+02  0.12462059824E+02  0.70121282162E+02  0.00000000000E+00 0. -1.
         -1    1    1    2    0  502  0.19120413247E+02 -0.32179746432E+02  0.24603569883E+02  0.44793547908E+02  0.00000000000E+00 0.  1.
<scales pt_clust_5="13000.00000" pt_clust_6="13000.00000" pt_clust_7="13000.00000" pt_clust_8="13000.00000" pt_clust_9="37.43162"></scales>
<clustering>
<clus scale="   37.432">  2  9  1 -1</clus>
<clus scale="   80.534">  5  6 -1 -1</clus>
<clus scale="   82.125">  1  5  2 -1</clus>
<clus scale="   89.880">  7  8 -1 -1</clus>
<clus scale="   37.432">  2  5  1 -1</clus>
</clustering>
</event>
<event>
 9    1  0.6345107E-005  0.1002771E+03  0.7546771E-02  0.1282612E+00
         21   -1    0    0  501  502  0.00000000000E+00  0.00000000000E+00  0.90876078878E+03  0.90876078878E+03  0.00000000000E+00 0. -1.
          1   -1    0    0  502    0 -0.00000000000E+00 -0.00000000000E+00 -0.35225914710E+02  0.35225914710E+02  0.00000000000E+00 0. -1.
         23    2    1    2    0    0 -0.59786872196E+00 -0.45565795976E+02  0.73094979976E+02  0.12162501731E+03  0.85867162111E+02 0.  0.
        -24    2    1    2    0    0 -0.53325222806E+02  0.77634376686E+02  0.46240684264E+03  0.47855587246E+03  0.79529611566E+02 0.  0.
         11    1    4    4    0    0 -0.74105625998E+02  0.64651436852E+02  0.38510497490E+03  0.39746357542E+03  0.00000000000E+00 0. -1.
        -12    1    4    4    0    0  0.20780403192E+02  0.12982939833E+02  0.77301867739E+02  0.81092297042E+02  0.00000000000E+00 0.  1.
        -11    1    3    3    0    0  0.41931980381E+02 -0.15422966787E+02  0.28242420855E+02  0.52856345115E+02  0.00000000000E+00 0.  1.
         11    1    3    3    0    0 -0.42529849103E+02 -0.30142829189E+02  0.44852559121E+02  0.68768672199E+02  0.00000000000E+00 0. -1.
          2    1    1    2  501    0  0.53923091528E+02 -0.32068580710E+02  0.33803305145E+03  0.34380581371E+03  0.00000000000E+00 0. -1.
<scales pt_clust_5="13000.00000" pt_clust_6="13000.00000" pt_clust_7="13000.00000" pt_clust_8="13000.00000" pt_clust_9="62.73830"></scales>
<clustering>
<clus scale="   62.738">  1  9  2 -1</clus>
<clus scale="   79.530">  5  6 -1 -1</clus>
<clus scale="   85.867">  7  8 -1 -1</clus>
<clus scale="   94.907">  1  5  2 -1</clus>
<clus scale="   62.738">  1  5  2 -1</clus>
</clustering>
</event>
<event>
 9    1  0.6345107E-005  0.9643584E+02  0.7546771E-02  0.1295058E+00
          1   -1    0    0  502    0 -0.00000000000E+00  0.00000000000E+00  0.47713190344E+03  0.47713190344E+03  0.00000000000E+00 0. -1.
         21   -1    0    0  501  502  0.00000000000E+00 -0.00000000000E+00 -0.28882664005E+02  0.28882664005E+02  0.00000000000E+00 0.  1.
        -24    2    1    2    0    0 -0.32303066399E+02 -0.34169362116E+01  0.20692388332E+03  0.22391337328E+03  0.79148857810E+02 0.  0.
         23    2    1    2    0    0  0.21798863481E+02 -0.25173236947E+02  0.10913378330E+03  0.14644593918E+03  0.91800588993E+02 0.  0.
         13    1    3    3    0    0 -0.28935220702E+02  0.16710844078E+02  0.19937301494E+03  0.20215365045E+03  0.00000000000E+00 0. -1.
        -14    1    3    3    0    0 -0.33678456969E+01 -0.20127780290E+02  0.75508683835E+01  0.21759722824E+02  0.00000000000E+00 0.  1.
        -13    1    4    4    0    0  0.53304539323E+02 -0.13047332283E+01  0.84358490870E+02  0.99796949969E+02  0.00000000000E+00 0. -1.
         13    1    4    4    0    0 -0.31505675841E+02 -0.23868503718E+02  0.24775292425E+02  0.46648989214E+02  0.00000000000E+00 0.  1.
          2    1    1    2  501    0  0.10504202917E+02  0.28590173158E+02  0.13219157282E+03  0.13565525498E+03  0.00000000000E+00 0. -1.
<scales pt_clust_5="13000.00000" pt_clust_6="13000.00000" pt_clust_7="13000.00000" pt_clust_8="13000.00000" pt_clust_9="30.45878"></scales>
<clustering>
<clus scale="   30.459">  2  9  1 -1</clus>
<clus scale="   79.149">  5  6 -1 -1</clus>
<clus scale="   84.481">  1  5  2 -1</clus>
<clus scale="   91.801">  7  8 -1 -1</clus>
<clus scale="   30.459">  2  5  1 -1</clus>
</clustering>
</event>
<event>
 9    1  0.6345107E-005  0.1177644E+03  0.7546771E-02  0.1250395E+00
         -2   -1    0    0    0  501 -0.00000000000E+00  0.00000000000E+00  0.35363849211E+03  0.35363849211E+03  0.00000000000E+00 0.  1.
         21   -1    0    0  501  502  0.00000000000E+00 -0.00000000000E+00 -0.72298198110E+02  0.72298198110E+02  0.00000000000E+00 0. -1.
         23    2    1    2    0    0  0.64141499849E+02 -0.61385107306E+01  0.14706302254E+03  0.18447949527E+03  0.90847885285E+02 0.  0.
        -24    2    1    2    0    0 -0.10297554734E+03 -0.15479279371E+02  0.40122883062E+02  0.13733966065E+03  0.80054763779E+02 0.  0.
         11    1    4    4    0    0 -0.78668043051E+02 -0.44798200591E+02  0.40683694528E+02  0.99250706668E+02  0.00000000000E+00 0. -1.
        -12    1    4    4    0    0 -0.24307504285E+02  0.29318921220E+02 -0.56081146563E+00  0.38088953984E+02  0.00000000000E+00 0.  1.
        -11    1    3    3    0    0 -0.13585540432E+02 -0.22447823833E+02  0.65863371340E+02  0.70897499166E+02  0.00000000000E+00 0.  1.
         11    1    3    3    0    0  0.77727040281E+02  0.16309313102E+02  0.81199651199E+02  0.11358199611E+03  0.00000000000E+00 0. -1.
         -1    1    1    2    0  502  0.38834047488E+02  0.21617790101E+02  0.94154388396E+02  0.10411753429E+03  0.00000000000E+00 0.  1.
<scales pt_clust_5="13000.00000" pt_clust_6="13000.00000" pt_clust_7="13000.00000" pt_clust_8="13000.00000" pt_clust_9="44.44563"></scales>
<clustering>
<clus scale="   44.446">  2  9  1 -1</clus>
<clus scale="   80.055">  5  6 -1 -1</clus>
<clus scale="   90.848">  7  8 -1 -1</clus>
<clus scale="  109.654">  2  5  1 -1</clus>
<clus scale="   44.446">  2  5  1 -1</clus>
</clustering>
</event>
<event>
 9    1  0.6345107E-005  0.1424770E+03  0.7546771E-02  0.1211929E+00
          1   -1    0    0  502    0 -0.00000000000E+00  0.00000000000E+00  0.85277978347E+03  0.85277978347E+03  0.00000000000E+00 0. -1.
         21   -1    0    0  501  502  0.00000000000E+00 -0.00000000000E+00 -0.89956488625E+02  0.89956488625E+02  0.00000000000E+00 0.  1.
        -24    2    1    2    0    0  0.48305273198E+02 -0.10015789004E+03  0.72711574991E+03  0.74011406932E+03  0.81893342070E+02 0.  0.
         23    2    1    2    0    0 -0.75925004512E+01  0.10507814853E+03  0.63571757980E+02  0.15304243698E+03  0.91003053474E+02 0.  0.
         11    1    3    3    0    0  0.63369857664E+02 -0.38870375001E+02  0.42862801474E+03  0.43502714850E+03  0.00000000000E+00 0. -1.
        -12    1    3    3    0    0 -0.15064584467E+02 -0.61287515043E+02  0.29848773518E+03  0.30508692082E+03  0.00000000000E+00 0.  1.
        -13    1    4    4    0    0  0.37352140893E+02  0.23783452144E+02  0.33084231363E+02  0.55275685342E+02  0.00000000000E+00 0. -1.
         13    1    4    4    0    0 -0.44944641344E+02  0.81294696386E+02  0.30487526617E+02  0.97766751635E+02  0.00000000000E+00 0.  1.
          2    1    1    2  501    0 -0.40712772746E+02 -0.49202584851E+01 -0.27864213046E+02  0.49579765801E+02  0.00000000000E+00 0. -1.
<scales pt_clust_5="13000.00000" pt_clust_6="13000.00000" pt_clust_7="13000.00000" pt_clust_8="13000.00000" pt_clust_9="41.00901"></scales>
<clustering>
<clus scale="   41.009">  2  9  1 -1</clus>
<clus scale="   81.893">  5  6 -1 -1</clus>
<clus scale="   91.003">  7  8 -1 -1</clus>
<clus scale="  136.838">  1  5  2 -1</clus>
<clus scale="   41.009">  2  5  1 -1</clus>
</clustering>
</event>
<event>
 9    1  0.6345107E-005  0.1398394E+03  0.7546771E-02  0.1236018E+00
          1   -1    0    0  502    0 -0.00000000000E+00  0.00000000000E+00  0.11079714898E+04  0.11079714898E+04  0.00000000000E+00 0. -1.
         21   -1    0    0  501  502  0.00000000000E+00 -0.00000000000E+00 -0.26922173407E+02  0.26922173407E+02  0.00000000000E+00 0. -1.
        -24    2    1    2    0    0 -0.57480560337E+01  0.35455892131E+02  0.24858764696E+03  0.26355886266E+03  0.79857970357E+02 0.  0.
         23    2    1    2    0    0 -0.46657493998E+02 -0.11944725027E+03  0.56519819190E+03  0.58632487732E+03  0.88787940030E+02 0.  0.
         11    1    3    3    0    0  0.15377095637E+02 -0.13159332574E+02  0.18419827363E+02  0.27366277498E+02  0.00000000000E+00 0. -1.
        -12    1    3    3    0    0 -0.21125151671E+02  0.48615224705E+02  0.23016781960E+03  0.23619258516E+03  0.00000000000E+00 0.  1.
        -13    1    4    4    0    0  0.17057427172E+02 -0.71728283968E+02  0.32582734180E+03  0.33406490269E+03  0.00000000000E+00 0. -1.
         13    1    4    4    0    0 -0.63714921170E+02 -0.47718966302E+02  0.23937085011E+03  0.25225997464E+03  0.00000000000E+00 0.  1.
          2    1    1    2  501    0  0.52405550032E+02  0.83991358139E+02  0.26726347754E+03  0.28500992324E+03  0.00000000000E+00 0. -1.
<scales pt_clust_5="13000.00000" pt_clust_6="13000.00000" pt_clust_7="13000.00000" pt_clust_8="13000.00000" pt_clust_9="108.03587"></scales>
<clustering>
<clus scale="   79.858">  5  6 -1 -1</clus>
<clus scale="   87.564">  1  5  2 -1</clus>
<clus scale="   88.788">  7  8 -1 -1</clus>
<clus scale="  108.036">  2  9  1 -1</clus>
<clus scale="  108.036">  2  5  1 -1</clus>
</clustering>
</event>
<event>
 9    1  0.6345107E-005  0.2030250E+03  0.7546771E-02  0.1186187E+00
         -2   -1    0    0    0  501 -0.00000000000E+00  0.00000000000E+00  0.16460936455E+03  0.16460936455E+03  0.00000000000E+00 0.  1.
         21   -1    0    0  501  502  0.00000000000E+00 -0.00000000000E+00 -0.82167518111E+03  0.82167518111E+03  0.00000000000E+00 0. -1.
        -24    2    1    2    0    0 -0.21201019121E+02 -0.14230703019E+02  0.10070737030E+03  0.13037417331E+03  0.78762011871E+02 0.  0.
         23    2    1    2    0    0 -0.14810611064E+03 -0.71991302958E+02 -0.24505984590E+03  0.30912512336E+03  0.91574265519E+02 0.  0.
         11    1    3    3    0    0 -0.10908538304E+02  0.26719427260E+02  0.10389045729E+02  0.30673380514E+02  0.00000000000E+00 0. -1.
        -12    1    3    3    0    0 -0.10292480817E+02 -0.40950130279E+02  0.90318324574E+02  0.99700792801E+02  0.00000000000E+00 0.  1.
        -13    1    4    4    0    0 -0.55419405735E+02  0.17904041352E+02 -0.61491415598E+02  0.84693916080E+02  0.00000000000E+00 0.  1.
         13    1    4    4    0    0 -0.92686704906E+02 -0.89895344309E+02 -0.18356843031E+03  0.22443120728E+03  0.00000000000E+00 0. -1.
         -1    1    1    2    0  502  0.16930712976E+03  0.86222005977E+02 -0.51271334096E+03  0.54678524898E+03  0.00000000000E+00 0.  1.
<scales pt_clust_5="13000.00000" pt_clust_6="13000.00000" pt_clust_7="13000.00000" pt_clust_8="13000.00000" pt_clust_9="181.19959"></scales>
<clustering>
<clus scale="   78.762">  5  6 -1 -1</clus>
<clus scale="   82.798">  1  5  2 -1</clus>
<clus scale="   91.574">  7  8 -1 -1</clus>
<clus scale="  181.200">  2  9  1 -1</clus>
<clus scale="  181.200">  2  5  1 -1</clus>
</clustering>
</event>
<event>
 9    1  0.6345107E-005  0.1073553E+03  0.7546771E-02  0.1273357E+00
         -4   -1    0    0    0  501 -0.00000000000E+00  0.00000000000E+00  0.64549492015E+03  0.64549492015E+03  0.00000000000E+00 0.  1.
         21   -1    0    0  501  502  0.00000000000E+00 -0.00000000000E+00 -0.45026027660E+02  0.45026027660E+02  0.00000000000E+00 0. -1.
        -24    2    1    2    0    0 -0.26111088795E+02  0.41954560425E+02  0.43477123118E+03  0.44452960048E+03  0.78349014905E+02 0.  0.
         23    2    1    2    0    0  0.61473587729E+02 -0.10830923178E+02  0.16271189259E+03  0.19878857262E+03  0.95631719252E+02 0.  0.
         13    1    3    3    0    0  0.11463905820E+02  0.52384757386E+02  0.25509205162E+03  0.26066748693E+03  0.00000000000E+00 0. -1.
        -14    1    3    3    0    0 -0.37574994615E+02 -0.10430196961E+02  0.17967917956E+03  0.18386211355E+03  0.00000000000E+00 0.  1.
        -11    1    4    4    0    0  0.64146628416E+02  0.14276504685E+02  0.48126048177E+02  0.81453821496E+02  0.00000000000E+00 0. -1.
         11    1    4    4    0    0 -0.26730406865E+01 -0.25107427863E+02  0.11458584442E+03  0.11733475112E+03  0.00000000000E+00 0.  1.
         -3    1    1    2    0  502 -0.35362498934E+02 -0.31123637247E+02  0.29857687165E+01  0.47202774719E+02  0.00000000000E+00 0.  1.
<scales pt_clust_5="13000.00000" pt_clust_6="13000.00000" pt_clust_7="13000.00000" pt_clust_8="13000.00000" pt_clust_9="47.10825"></scales>
<clustering>
<clus scale="   47.108">  2  9  1 -1</clus>
<clus scale="   78.349">  5  6 -1 -1</clus>
<clus scale="   92.295">  1  5  2 -1</clus>
<clus scale="   95.632">  7  8 -1 -1</clus>
<clus scale="   47.108">  2  5  1 -1</clus>
</clustering>
</event>
<event>
 9    1  0.6345107E-005  0.1412885E+03  0.7546771E-02  0.1229763E+00
         21   -1    0    0  501  502  0.00000000000E+00  0.00000000000E+00  0.44430410339E+03  0.44430410339E+03  0.00000000000E+00 0.  1.
         -2   -1    0    0    0  501 -0.00000000000E+00 -0.00000000000E+00 -0.75398934907E+02  0.75398934907E+02  0.00000000000E+00 0.  1.
        -24    2    1    2    0    0  0.56865478103E+02  0.41522035399E+02  0.23105009064E+02  0.99268013340E+02  0.66049489059E+02 0.  0.
         23    2    1    2    0    0  0.45380510645E+02 -0.57372528943E+02  0.16370114801E+03  0.21099403012E+03  0.11121788104E+03 0.  0.
         13    1    3    3    0    0  0.30299208116E+02  0.20622942274E+02  0.45721054618E+02  0.58598315640E+02  0.00000000000E+00 0. -1.
        -14    1    3    3    0    0  0.26566269988E+02  0.20899093124E+02 -0.22616045554E+02  0.40669697700E+02  0.00000000000E+00 0.  1.
        -13    1    4    4    0    0 -0.19172340339E+02 -0.37315046448E+02  0.10062299817E+02  0.43142104760E+02  0.00000000000E+00 0. -1.
         13    1    4    4    0    0  0.64552850984E+02 -0.20057482495E+02  0.15363884819E+03  0.16785192536E+03  0.00000000000E+00 0.  1.
         -1    1    1    2    0  502 -0.10224598875E+03  0.15850493544E+02  0.18209901141E+03  0.20944099483E+03  0.00000000000E+00 0.  1.
<scales pt_clust_5="13000.00000" pt_clust_6="13000.00000" pt_clust_7="13000.00000" pt_clust_8="13000.00000" pt_clust_9="87.13798"></scales>
<clustering>
<clus scale="   66.049">  5  6 -1 -1</clus>
<clus scale="   96.542">  2  5  1 -1</clus>
<clus scale="   87.138">  1  9  2 -1</clus>
<clus scale="  111.218">  7  8 -1 -1</clus>
<clus scale="   87.138">  1  5  2 -1</clus>
</clustering>
</event>
<event>
 9    1  0.6345107E-005  0.1005522E+03  0.7546771E-02  0.1286769E+00
         21   -1    0    0  501  502  0.00000000000E+00  0.00000000000E+00  0.42001387312E+03  0.42001387312E+03  0.00000000000E+00 0.  1.
          3   -1    0    0  502    0 -0.00000000000E+00 -0.00000000000E+00 -0.53440687012E+02  0.53440687012E+02  0.00000000000E+00 0. -1.
        -24    2    1    2    0    0 -0.42997346714E+02 -0.50261261706E+01  0.24580423868E+02  0.92997453891E+02  0.78551228023E+02 0.  0.
         23    2    1    2    0    0  0.17452770920E+02 -0.44168715015E+02  0.16907627395E+03  0.19887304947E+03  0.93317891066E+02 0.  0.
         11    1    3    3    0    0 -0.39285612206E-01  0.32362075604E+02  0.13038226501E+02  0.34889838507E+02  0.00000000000E+00 0. -1.
        -12    1    3    3    0    0 -0.42958061102E+02 -0.37388201775E+02  0.11542197368E+02  0.58107615384E+02  0.00000000000E+00 0.  1.
        -13    1    4    4    0    0 -0.23497007570E+02  0.12429072752E+02  0.17092227093E+02  0.31602775847E+02  0.00000000000E+00 0. -1.
         13    1    4    4    0    0  0.40949778489E+02 -0.56597787767E+02  0.15198404685E+03  0.16727027362E+03  0.00000000000E+00 0.  1.
          4    1    1    2  501    0  0.25544575795E+02  0.49194841186E+02  0.17291648829E+03  0.18158405678E+03  0.00000000000E+00 0. -1.
<scales pt_clust_5="13000.00000" pt_clust_6="13000.00000" pt_clust_7="13000.00000" pt_clust_8="13000.00000" pt_clust_9="55.43156"></scales>
<clustering>
<clus scale="   55.432">  1  9  2 -1</clus>
<clus scale="   78.551">  5  6 -1 -1</clus>
<clus scale="   87.022">  2  5  1 -1</clus>
<clus scale="   93.318">  7  8 -1 -1</clus>
<clus scale="   55.432">  1  5  2 -1</clus>
</clustering>
</event>
<event>
 9    1  0.6345107E-005  0.2132878E+03  0.7546771E-02  0.1173143E+00
         -2   -1    0    0    0  501 -0.00000000000E+00  0.00000000000E+00  0.17377724973E+03  0.17377724973E+03  0.00000000000E+00 0.  1.
         21   -1    0    0  501  502  0.00000000000E+00 -0.00000000000E+00 -0.39438360631E+03  0.39438360631E+03  0.00000000000E+00 0.  1.
         23    2    1    2    0    0 -0.52554498640E+01 -0.30314932048E+02 -0.54767849926E+02  0.11031609862E+03  0.90683567263E+02 0.  0.
        -24    2    1    2    0    0 -0.19282581096E+03 -0.20140643165E+02 -0.13867107391E+03  0.25164092535E+03  0.80660087355E+02 0.  0.
         13    1    4    4    0    0 -0.10259473695E+03  0.17686866930E+02 -0.10578706353E+03  0.14842307139E+03  0.00000000000E+00 0. -1.
        -14    1    4    4    0    0 -0.90231074007E+02 -0.37827510095E+02 -0.32884010384E+02  0.10321785396E+03  0.00000000000E+00 0.  1.
        -11    1    3    3    0    0 -0.47452980616E+02 -0.23676478822E+02 -0.29445431310E+02  0.60658012198E+02  0.00000000000E+00 0. -1.
         11    1    3    3    0    0  0.42197530752E+02 -0.66384532266E+01 -0.25322418616E+02  0.49658086425E+02  0.00000000000E+00 0.  1.
         -1    1    1    2    0  502  0.19808126082E+03  0.50455575213E+02 -0.27167432749E+02  0.20620383207E+03  0.00000000000E+00 0.  1.
<scales pt_clust_5="13000.00000" pt_clust_6="13000.00000" pt_clust_7="13000.00000" pt_clust_8="13000.00000" pt_clust_9="197.44794"></scales>
<clustering>
<clus scale="   80.660">  5  6 -1 -1</clus>
<clus scale="   90.684">  7  8 -1 -1</clus>
<clus scale="   95.761">  1  7  2 -1</clus>
<clus scale="  197.448">  2  9  1 -1</clus>
<clus scale="  197.448">  2  5  1 -1</clus>
</clustering>
</event>
<event>
 9    1  0.6345107E-005  0.9740372E+02  0.7546771E-02  0.1289662E+00
         21   -1    0    0  501  502  0.00000000000E+00  0.00000000000E+00  0.19592149550E+02  0.19592149550E+02  0.00000000000E+00 0. -1.
          1   -1    0    0  502    0 -0.00000000000E+00 -0.00000000000E+00 -0.77334914467E+03  0.77334914467E+03  0.00000000000E+00 0. -1.
        -24    2    1    2    0    0  0.26465375429E+02  0.32946277763E+02 -0.28094864332E+03  0.29565043524E+03  0.81799549852E+02 0.  0.
         23    2    1    2    0    0 -0.47436802554E+02  0.51997908394E+01 -0.24004342714E+03  0.26049045050E+03  0.89202801684E+02 0.  0.
         13    1    3    3    0    0 -0.52525936822E+01  0.53835541993E+02 -0.16567964864E+03  0.17428597561E+03  0.00000000000E+00 0. -1.
        -14    1    3    3    0    0  0.31717969111E+02 -0.20889264230E+02 -0.11526899469E+03  0.12136445963E+03  0.00000000000E+00 0.  1.
        -13    1    4    4    0    0 -0.55206509833E+02 -0.21196214449E+02 -0.21600414040E+03  0.22395273364E+03  0.00000000000E+00 0. -1.
         13    1    4    4    0    0  0.77697072786E+01  0.26396005289E+02 -0.24039286735E+02  0.36537716857E+02  0.00000000000E+00 0.  1.
          2    1    1    2  501    0  0.20971427126E+02 -0.38146068602E+02 -0.23276492466E+03  0.23680040848E+03  0.00000000000E+00 0. -1.
<scales pt_clust_5="13000.00000" pt_clust_6="13000.00000" pt_clust_7="13000.00000" pt_clust_8="13000.00000" pt_clust_9="43.53074"></scales>
<clustering>
<clus scale="   43.531">  1  9  2 -1</clus>
<clus scale="   81.800">  5  6 -1 -1</clus>
<clus scale="   89.203">  7  8 -1 -1</clus>
<clus scale="   90.673">  2  5  1 -1</clus>
<clus scale="   43.531">  1  5  2 -1</clus>
</clustering>
</event>
<event>
 9    1  0.6345107E-005  0.1039150E+03  0.7546771E-02  0.1285095E+00
          1   -1    0    0  502    0 -0.00000000000E+00  0.00000000000E+00  0.13404234765E+03  0.13404234765E+03  0.00000000000E+00 0. -1.
         21   -1    0    0  501  502  0.00000000000E+00 -0.00000000000E+00 -0.12158765186E+03  0.12158765186E+03  0.00000000000E+00 0. -1.
         23    2    1    2    0    0  0.13274133297E+02  0.96340301035E+01  0.42091134385E+02  0.11282198677E+03  0.10338336401E+03 0.  0.
        -24    2    1    2    0    0  0.61644760529E+01 -0.20249609873E+01 -0.63596297712E+02  0.10294537990E+03  0.80691764934E+02 0.  0.
         13    1    4    4    0    0 -0.33181429747E+02 -0.16585697676E+02 -0.41009166498E+02  0.55297779199E+02  0.00000000000E+00 0. -1.
        -14    1    4    4    0    0  0.39345905800E+02  0.14560736688E+02 -0.22587131214E+02  0.47647600702E+02  0.00000000000E+00 0.  1.
        -13    1    3    3    0    0 -0.86653894805E+01  0.37094915767E+02 -0.18826090102E+02  0.42491686471E+02  0.00000000000E+00 0. -1.
         13    1    3    3    0    0  0.21939522778E+02 -0.27460885664E+02  0.60917224487E+02  0.70330300301E+02  0.00000000000E+00 0.  1.
          2    1    1    2  501    0 -0.19438609350E+02 -0.76090691162E+01  0.33959859114E+02  0.39862632844E+02  0.00000000000E+00 0. -1.
<scales pt_clust_5="13000.00000" pt_clust_6="13000.00000" pt_clust_7="13000.00000" pt_clust_8="13000.00000" pt_clust_9="20.87482"></scales>
<clustering>
<clus scale="   20.875">  2  9  1 -1</clus>
<clus scale="   80.692">  5  6 -1 -1</clus>
<clus scale="   81.372">  2  5  1 -1</clus>
<clus scale="  103.383">  7  8 -1 -1</clus>
<clus scale="   20.875">  2  5  1 -1</clus>
</clustering>
</event>
<event>
 9    1  0.6345107E-005  0.9070414E+02  0.7546771E-02  0.1307134E+00
         21   -1    0    0  501  502  0.00000000000E+00  0.00000000000E+00  0.30260350930E+02  0.30260350930E+02  0.00000000000E+00 0. -1.
         -2   -1    0    0    0  501 -0.00000000000E+00 -0.00000000000E+00 -0.51893967164E+03  0.51893967164E+03  0.00000000000E+00 0.  1.
         23    2    1    2    0    0 -0.19149092295E+01 -0.85943649325E+01 -0.38979096473E+03  0.40020505142E+03  0.90274896932E+02 0.  0.
        -24    2    1    2    0    0 -0.22410350936E+02  0.73229916422E+01 -0.61041850480E+02  0.10398727568E+03  0.80817052398E+02 0.  0.
         13    1    4    4    0    0 -0.40788205800E+02 -0.12797132828E+02 -0.68012035698E+01  0.43286264692E+02  0.00000000000E+00 0. -1.
        -14    1    4    4    0    0  0.18377854864E+02  0.20120124470E+02 -0.54240646910E+02  0.60701010991E+02  0.00000000000E+00 0.  1.
        -11    1    3    3    0    0  0.31826531939E+02 -0.34559300985E+02 -0.23591833169E+03  0.24055089409E+03  0.00000000000E+00 0.  1.
         11    1    3    3    0    0 -0.33741441168E+02  0.25964936052E+02 -0.15387263304E+03  0.15965415734E+03  0.00000000000E+00 0. -1.
         -1    1    1    2    0  502  0.24325260166E+02  0.12713732903E+01 -0.37846505504E+02  0.45007695464E+02  0.00000000000E+00 0.  1.
<scales pt_clust_5="13000.00000" pt_clust_6="13000.00000" pt_clust_7="13000.00000" pt_clust_8="13000.00000" pt_clust_9="24.35846"></scales>
<clustering>
<clus scale="   24.358">  1  9  2 -1</clus>
<clus scale="   80.817">  5  6 -1 -1</clus>
<clus scale="   81.296">  1  5  2 -1</clus>
<clus scale="   90.275">  7  8 -1 -1</clus>
<clus scale="   24.358">  1  5  2 -1</clus>
</clustering>
</event>
<event>
 9    1  0.7249165E-005  0.9710120E+02  0.7546771E-02  0.1293238E+00
         21   -1    0    0  501  502  0.00000000000E+00  0.00000000000E+00  0.26420028404E+03  0.26420028404E+03  0.00000000000E+00 0. -1.
          1   -1    0    0  502    0 -0.00000000000E+00 -0.00000000000E+00 -0.22404265819E+03  0.22404265819E+03  0.00000000000E+00 0. -1.
         23    2    1    2    0    0 -0.45964102192E+01 -0.27758342374E+02 -0.19641459194E+03  0.21904313685E+03  0.92787667904E+02 0.  0.
        -24    2    1    2    0    0  0.34585225241E+02  0.28768778144E+02  0.13722492251E+03  0.16542006224E+03  0.80680463758E+02 0.  0.
         11    1    4    4    0    0  0.51312432632E+02  0.44470054801E+02  0.88348440595E+02  0.11142709936E+03  0.00000000000E+00 0. -1.
        -12    1    4    4    0    0 -0.16727207391E+02 -0.15701276657E+02  0.48876481914E+02  0.53992962876E+02  0.00000000000E+00 0.  1.
        -13    1    3    3    0    0  0.27831512312E+02 -0.41922677808E+02 -0.16217921730E+03  0.16980636772E+03  0.00000000000E+00 0. -1.
         13    1    3    3    0    0 -0.32427922531E+02  0.14164335433E+02 -0.34235374637E+02  0.49236769131E+02  0.00000000000E+00 0.  1.
          2    1    1    2  501    0 -0.29988815022E+02 -0.10104357696E+01  0.99347295284E+02  0.10377974314E+03  0.00000000000E+00 0. -1.
<scales pt_clust_5="13000.00000" pt_clust_6="13000.00000" pt_clust_7="13000.00000" pt_clust_8="13000.00000" pt_clust_9="30.00583"></scales>
<clustering>
<clus scale="   30.006">  1  9  2 -1</clus>
<clus scale="   80.680">  5  6 -1 -1</clus>
<clus scale="   85.606">  1  5  2 -1</clus>
<clus scale="   92.788">  7  8 -1 -1</clus>
<clus scale="   30.006">  1  5  2 -1</clus>
</clustering>
</event>
<event>
 9    1  0.6345107E-005  0.1730864E+03  0.7546771E-02  0.1177538E+00
          1   -1    0    0  502    0 -0.00000000000E+00  0.00000000000E+00  0.18192074350E+03  0.18192074350E+03  0.00000000000E+00 0. -1.
         21   -1    0    0  501  502  0.00000000000E+00 -0.00000000000E+00 -0.27122903990E+03  0.27122903990E+03  0.00000000000E+00 0. -1.
         23    2    1    2    0    0  0.38220368281E+02 -0.14507992245E+03  0.80729023670E+02  0.19832602830E+03  0.10152368093E+03 0.  0.
        -24    2    1    2    0    0 -0.17182465650E+00  0.11641041836E+03 -0.12804511026E+03  0.19131802448E+03  0.81581990673E+02 0.  0.
         11    1    4    4    0    0 -0.27888610403E+02  0.91299024234E+02 -0.11950759833E+03  0.15295539374E+03  0.00000000000E+00 0. -1.
        -12    1    4    4    0    0  0.27716785746E+02  0.25111394129E+02 -0.85375119323E+01  0.38362630738E+02  0.00000000000E+00 0.  1.
        -13    1    3    3    0    0  0.19118600786E+02  0.62795299842E+01 -0.82103483206E+01  0.21733918478E+02  0.00000000000E+00 0.  1.
         13    1    3    3    0    0  0.19101767495E+02 -0.15135945244E+03  0.88939371990E+02  0.17659210983E+03  0.00000000000E+00 0. -1.
          2    1    1    2  501    0 -0.38048543625E+02  0.28669504088E+02 -0.41992209804E+02  0.63505730614E+02  0.00000000000E+00 0. -1.
<scales pt_clust_5="13000.00000" pt_clust_6="13000.00000" pt_clust_7="13000.00000" pt_clust_8="13000.00000" pt_clust_9="47.64066"></scales>
<clustering>
<clus scale="   47.641">  2  9  1 -1</clus>
<clus scale="   81.582">  5  6 -1 -1</clus>
<clus scale="  101.524">  7  8 -1 -1</clus>
<clus scale="  162.196">  2  5  1 -1</clus>
<clus scale="   47.641">  2  5  1 -1</clus>
</clustering>
</event>
<event>
 9    1  0.6345107E-005  0.1339833E+03  0.7546771E-02  0.1225019E+00
         21   -1    0    0  501  502  0.00000000000E+00  0.00000000000E+00  0.47798109785E+03  0.47798109785E+03  0.00000000000E+00 0. -1.
          1   -1    0    0  502    0 -0.00000000000E+00 -0.00000000000E+00 -0.95497424079E+02  0.95497424079E+02  0.00000000000E+00 0. -1.
         23    2    1    2    0    0 -0.64845404729E+02 -0.81545318747E+02  0.16157441501E+02  0.13858861796E+03  0.89950967687E+02 0.  0.
        -24    2    1    2    0    0  0.72986476710E+02  0.36831073106E+02  0.37268313899E+03  0.38899817183E+03  0.75784575392E+02 0.  0.
         11    1    4    4    0    0  0.83752136260E+02  0.30775700134E+02  0.36145619468E+03  0.37230651984E+03  0.00000000000E+00 0. -1.
        -12    1    4    4    0    0 -0.10765659550E+02  0.60553729717E+01  0.11226944318E+02  0.16691651988E+02  0.00000000000E+00 0.  1.
        -13    1    3    3    0    0 -0.85086604621E+02 -0.78141701762E+02  0.59809769687E+01  0.11567898653E+03  0.00000000000E+00 0. -1.
         13    1    3    3    0    0  0.20241199891E+02 -0.34036169850E+01  0.10176464532E+02  0.22909631424E+02  0.00000000000E+00 0.  1.
          2    1    1    2  501    0 -0.81410719809E+01  0.44714245641E+02 -0.63569067198E+01  0.45891732146E+02  0.00000000000E+00 0. -1.
<scales pt_clust_5="13000.00000" pt_clust_6="13000.00000" pt_clust_7="13000.00000" pt_clust_8="13000.00000" pt_clust_9="45.44934"></scales>
<clustering>
<clus scale="   45.449">  1  9  2 -1</clus>
<clus scale="   75.785">  5  6 -1 -1</clus>
<clus scale="   89.951">  7  8 -1 -1</clus>
<clus scale="  124.915">  1  5  2 -1</clus>
<clus scale="   45.449">  1  5  2 -1</clus>
</clustering>
</event>
<event>
 9    1  0.6345107E-005  0.9214936E+02  0.7546771E-02  0.1304727E+00
         21   -1    0    0  501  502  0.00000000000E+00  0.00000000000E+00  0.49723439048E+02  0.49723439048E+02  0.00000000000E+00 0. -1.
          1   -1    0    0  502    0 -0.00000000000E+00 -0.00000000000E+00 -0.42843897119E+03  0.42843897119E+03  0.00000000000E+00 0. -1.
        -24    2    1    2    0    0 -0.64985993880E+01  0.15746262033E+02 -0.30992791162E+03  0.32049285053E+03  0.79813409101E+02 0.  0.
         23    2    1    2    0    0  0.12344888621E+02  0.39096960314E+01 -0.89615787181E+02  0.12844032243E+03  0.91094704104E+02 0.  0.
         13    1    3    3    0    0 -0.30951667459E+02  0.35578197060E+02 -0.22567704324E+03  0.23055138618E+03  0.00000000000E+00 0. -1.
        -14    1    3    3    0    0  0.24453068071E+02 -0.19831935027E+02 -0.84250868386E+02  0.89941464346E+02  0.00000000000E+00 0.  1.
        -11    1    4    4    0    0  0.31556439779E+02  0.39106237730E+02 -0.61738113659E+02  0.79603400676E+02  0.00000000000E+00 0. -1.
         11    1    4    4    0    0 -0.19211551158E+02 -0.35196541699E+02 -0.27877673522E+02  0.48836921755E+02  0.00000000000E+00 0.  1.
          2    1    1    2  501    0 -0.58462892331E+01 -0.19655958064E+02  0.20828166667E+02  0.29229237279E+02  0.00000000000E+00 0. -1.
<scales pt_clust_5="13000.00000" pt_clust_6="13000.00000" pt_clust_7="13000.00000" pt_clust_8="13000.00000" pt_clust_9="20.50697"></scales>
<clustering>
<clus scale="   20.507">  1  9  2 -1</clus>
<clus scale="   79.813">  5  6 -1 -1</clus>
<clus scale="   81.015">  2  5  1 -1</clus>
<clus scale="   91.095">  7  8 -1 -1</clus>
<clus scale="   20.507">  1  5  2 -1</clus>
</clustering>
</event>
<event>
 9    1  0.6345107E-005  0.1457137E+03  0.7546771E-02  0.1233088E+00
         21   -1    0    0  501  502  0.00000000000E+00  0.00000000000E+00  0.32112289438E+02  0.32112289438E+02  0.00000000000E+00 0. -1.
         -2   -1    0    0    0  501 -0.00000000000E+00 -0.00000000000E+00 -0.15924178253E+04  0.15924178253E+04  0.00000000000E+00 0.  1.
        -24    2    1    2    0    0 -0.14457626214E+02  0.13792310098E+02 -0.72122790610E+03  0.72589518132E+03  0.79717444471E+02 0.  0.
         23    2    1    2    0    0  0.61208341055E+02 -0.93523671375E+02 -0.18314498818E+03  0.23622241119E+03  0.98822076135E+02 0.  0.
         13    1    3    3    0    0  0.32831330554E+01  0.37347981652E+02 -0.17992947493E+03  0.18379408762E+03  0.00000000000E+00 0. -1.
        -14    1    3    3    0    0 -0.17740759269E+02 -0.23555671554E+02 -0.54129843118E+03  0.54210109371E+03  0.00000000000E+00 0.  1.
        -11    1    4    4    0    0 -0.14387976049E+02 -0.36144516370E+02 -0.10916165995E+03  0.11588661667E+03  0.00000000000E+00 0.  1.
         11    1    4    4    0    0  0.75596317103E+02 -0.57379155005E+02 -0.73983328225E+02  0.12033579453E+03  0.00000000000E+00 0. -1.
         -1    1    1    2    0  502 -0.46750714841E+02  0.79731361277E+02 -0.65593264158E+03  0.66241252223E+03  0.00000000000E+00 0.  1.
<scales pt_clust_5="13000.00000" pt_clust_6="13000.00000" pt_clust_7="13000.00000" pt_clust_8="13000.00000" pt_clust_9="107.08260"></scales>
<clustering>
<clus scale="   79.717">  5  6 -1 -1</clus>
<clus scale="   82.183">  2  5  1 -1</clus>
<clus scale="   98.822">  7  8 -1 -1</clus>
<clus scale="  107.083">  1  9  2 -1</clus>
<clus scale="  107.083">  1  5  2 -1</clus>
</clustering>
</event>
<event>
 9    1  0.6345107E-005  0.2236996E+03  0.7546771E-02  0.1161387E+00
         21   -1    0    0  501  502  0.00000000000E+00  0.00000000000E+00  0.60232947739E+03  0.60232947739E+03  0.00000000000E+00 0.  1.
         -4   -1    0    0    0  501 -0.00000000000E+00 -0.00000000000E+00 -0.13528924276E+03  0.13528924276E+03  0.00000000000E+00 0.  1.
        -24    2    1    2    0    0  0.40002167384E+02 -0.60905448231E+02  0.73223449701E+02  0.13110577821E+03  0.80730443297E+02 0.  0.
         23    2    1    2    0    0  0.18749762920E+03 -0.15868150341E+02  0.25427614597E+03  0.32880458268E+03  0.89715862752E+02 0.  0.
         13    1    3    3    0    0 -0.22601865226E+02 -0.28989479908E+02  0.36565817325E+02  0.51848753637E+02  0.00000000000E+00 0. -1.
        -14    1    3    3    0    0  0.62604032611E+02 -0.31915968323E+02  0.36657632375E+02  0.79257024575E+02  0.00000000000E+00 0.  1.
        -13    1    4    4    0    0  0.58673549559E+02 -0.25015743500E+02  0.14936694960E+03  0.16241569651E+03  0.00000000000E+00 0. -1.
         13    1    4    4    0    0  0.12882407964E+03  0.91475931589E+01  0.10490919637E+03  0.16638888616E+03  0.00000000000E+00 0.  1.
         -3    1    1    2    0  502 -0.22749979659E+03  0.76773598572E+02  0.13954063896E+03  0.27770835926E+03  0.00000000000E+00 0.  1.
<scales pt_clust_5="13000.00000" pt_clust_6="13000.00000" pt_clust_7="13000.00000" pt_clust_8="13000.00000" pt_clust_9="204.92097"></scales>
<clustering>
<clus scale="   80.730">  5  6 -1 -1</clus>
<clus scale="   89.716">  7  8 -1 -1</clus>
<clus scale="  108.752">  2  5  1 -1</clus>
<clus scale="  204.921">  1  9  2 -1</clus>
<clus scale="  204.921">  1  5  2 -1</clus>
</clustering>
</event>
<event>
 9    1  0.6345107E-005  0.1119556E+03  0.7546771E-02  0.1262192E+00
         -2   -1    0    0    0  501 -0.00000000000E+00  0.00000000000E+00  0.13533358558E+03  0.13533358558E+03  0.00000000000E+00 0.  1.
         21   -1    0    0  501  502  0.00000000000E+00 -0.00000000000E+00 -0.32730359981E+03  0.32730359981E+03  0.00000000000E+00 0. -1.
        -24    2    1    2    0    0  0.42213987027E+02  0.60411849882E+02  0.24119331861E+02  0.11155431136E+03  0.80193577712E+02 0.  0.
         23    2    1    2    0    0  0.12954588730E+02  0.23424574397E+01 -0.24506837860E+03  0.26264386022E+03  0.93541320516E+02 0.  0.
         13    1    3    3    0    0 -0.17500250497E+02  0.34365744012E+02 -0.72616920411E+01  0.39242773860E+02  0.00000000000E+00 0. -1.
        -14    1    3    3    0    0  0.59714237524E+02  0.26046105870E+02  0.31381023902E+02  0.72311537497E+02  0.00000000000E+00 0.  1.
        -13    1    4    4    0    0  0.13238085755E+02 -0.45107989214E+02 -0.12269233461E+03  0.13139020732E+03  0.00000000000E+00 0.  1.
         13    1    4    4    0    0 -0.28349702495E+00  0.47450446654E+02 -0.12237604399E+03  0.13125365290E+03  0.00000000000E+00 0. -1.
         -1    1    1    2    0  502 -0.55168575756E+02 -0.62754307321E+02  0.28979032507E+02  0.88439013808E+02  0.00000000000E+00 0.  1.
<scales pt_clust_5="13000.00000" pt_clust_6="13000.00000" pt_clust_7="13000.00000" pt_clust_8="13000.00000" pt_clust_9="83.55646"></scales>
<clustering>
<clus scale="   80.194">  5  6 -1 -1</clus>
<clus scale="   83.556">  2  9  1 -1</clus>
<clus scale="   93.541">  7  8 -1 -1</clus>
<clus scale="  101.070">  1  5  2 -1</clus>
<clus scale="   83.556">  2  5  1 -1</clus>
</clustering>
</event>
<event>
 9    1  0.6345107E-005  0.1006643E+03  0.7546771E-02  0.1285105E+00
         21   -1    0    0  501  502  0.00000000000E+00  0.00000000000E+00  0.36524320367E+03  0.36524320367E+03  0.00000000000E+00 0. -1.
          1   -1    0    0  502    0 -0.00000000000E+00 -0.00000000000E+00 -0.38895282616E+03  0.38895282616E+03  0.00000000000E+00 0. -1.
        -24    2    1    2    0    0 -0.42075188527E+02 -0.11096369314E+02 -0.32328362235E+03  0.33595624772E+03  0.80379406599E+02 0.  0.
         23    2    1    2    0    0  0.13506267989E+02 -0.58084848434E+02  0.75477100968E+00  0.11018920892E+03  0.92654320954E+02 0.  0.
         13    1    3    3    0    0 -0.28738237735E+02 -0.45464103493E+02 -0.21244557429E+03  0.21914833572E+03  0.00000000000E+00 0. -1.
        -14    1    3    3    0    0 -0.13336950792E+02  0.34367734179E+02 -0.11083804806E+03  0.11680791200E+03  0.00000000000E+00 0.  1.
        -11    1    4    4    0    0 -0.21453095794E+02  0.12402397977E+01  0.28718632583E+02  0.35868278065E+02  0.00000000000E+00 0.  1.
         11    1    4    4    0    0  0.34959363782E+02 -0.59325088232E+02 -0.27963861573E+02  0.74320930860E+02  0.00000000000E+00 0. -1.
          2    1    1    2  501    0  0.28568920538E+02  0.69181217748E+02  0.29881922884E+03  0.30805057318E+03  0.00000000000E+00 0. -1.
<scales pt_clust_5="13000.00000" pt_clust_6="13000.00000" pt_clust_7="13000.00000" pt_clust_8="13000.00000" pt_clust_9="74.84801"></scales>
<clustering>
<clus scale="   74.848">  1  9  2 -1</clus>
<clus scale="   80.379">  5  6 -1 -1</clus>
<clus scale="   89.495">  2  5  1 -1</clus>
<clus scale="   92.654">  7  8 -1 -1</clus>
<clus scale="   74.848">  1  5  2 -1</clus>
</clustering>
</event>
<event>
 9    1  0.6345107E-005  0.9513488E+02  0.7546771E-02  0.1298915E+00
          3   -1    0    0  502    0 -0.00000000000E+00  0.00000000000E+00  0.79046045115E+02  0.79046045115E+02  0.00000000000E+00 0. -1.
         21   -1    0    0  501  502  0.00000000000E+00 -0.00000000000E+00 -0.18286500583E+03  0.18286500583E+03  0.00000000000E+00 0. -1.
         23    2    1    2    0    0 -0.40362899474E+02  0.30613830023E+02 -0.39130058903E+02  0.11103575872E+03  0.90727107095E+02 0.  0.
        -24    2    1    2    0    0 -0.82243761334E+01 -0.15011693485E+02 -0.61328093145E+02  0.99733870162E+02  0.76764044608E+02 0.  0.
         13    1    4    4    0    0  0.15633598011E+02 -0.29610684053E+02 -0.63387372767E+02  0.71687941965E+02  0.00000000000E+00 0. -1.
        -14    1    4    4    0    0 -0.23857974145E+02  0.14598990568E+02  0.20592796213E+01  0.28045928197E+02  0.00000000000E+00 0.  1.
        -11    1    3    3    0    0  0.23743861259E+02  0.13629574623E+02  0.93023479247E+01  0.28914873833E+02  0.00000000000E+00 0.  1.
         11    1    3    3    0    0 -0.64106760734E+02  0.16984255401E+02 -0.48432406828E+02  0.82120884886E+02  0.00000000000E+00 0. -1.
          4    1    1    2  501    0  0.48587275608E+02 -0.15602136538E+02 -0.33608086645E+01  0.51141422061E+02  0.00000000000E+00 0. -1.
<scales pt_clust_5="13000.00000" pt_clust_6="13000.00000" pt_clust_7="13000.00000" pt_clust_8="13000.00000" pt_clust_9="51.03090"></scales>
<clustering>
<clus scale="   51.031">  2  9  1 -1</clus>
<clus scale="   76.764">  5  6 -1 -1</clus>
<clus scale="   81.927">  2  5  1 -1</clus>
<clus scale="   90.727">  7  8 -1 -1</clus>
<clus scale="   51.031">  2  5  1 -1</clus>
</clustering>
</event>
<event>
 9    1  0.6345107E-005  0.1972062E+03  0.7546771E-02  0.1182631E+00
         -2   -1    0    0    0  501 -0.00000000000E+00  0.00000000000E+00  0.22809974540E+03  0.22809974540E+03  0.00000000000E+00 0.  1.
         21   -1    0    0  501  502  0.00000000000E+00 -0.00000000000E+00 -0.44554085490E+03  0.44554085490E+03  0.00000000000E+00 0.  1.
         23    2    1    2    0    0  0.35645684706E+02 -0.17116419027E+02 -0.26539130784E+03  0.28283919294E+03  0.89453206464E+02 0.  0.
        -24    2    1    2    0    0  0.16507302368E+03  0.22162371757E+01 -0.83874814025E+00  0.18370148797E+03  0.80569959215E+02 0.  0.
         13    1    4    4    0    0  0.46646359405E+02 -0.12921687986E+01 -0.37299542748E+02  0.59739504811E+02  0.00000000000E+00 0. -1.
        -14    1    4    4    0    0  0.11842666428E+03  0.35084059742E+01  0.36460794607E+02  0.12396198316E+03  0.00000000000E+00 0.  1.
        -11    1    3    3    0    0  0.20264838559E+02 -0.47300792242E+02 -0.85542805532E+02  0.99827852861E+02  0.00000000000E+00 0.  1.
         11    1    3    3    0    0  0.15380846147E+02  0.30184373216E+02 -0.17984850230E+03  0.18301134007E+03  0.00000000000E+00 0. -1.
         -1    1    1    2    0  502 -0.20071870839E+03  0.14900181851E+02  0.48788946483E+02  0.20709991940E+03  0.00000000000E+00 0.  1.
<scales pt_clust_5="13000.00000" pt_clust_6="13000.00000" pt_clust_7="13000.00000" pt_clust_8="13000.00000" pt_clust_9="179.99670"></scales>
<clustering>
<clus scale="   80.570">  5  6 -1 -1</clus>
<clus scale="   89.453">  7  8 -1 -1</clus>
<clus scale="   97.803">  1  7  2 -1</clus>
<clus scale="  179.997">  2  9  1 -1</clus>
<clus scale="  179.997">  2  5  1 -1</clus>
</clustering>
</event>
<event>
 9    1  0.6345107E-005  0.1458711E+03  0.7546771E-02  0.1207889E+00
          1   -1    0    0  502    0 -0.00000000000E+00  0.00000000000E+00  0.42029144752E+03  0.42029144752E+03  0.00000000000E+00 0. -1.
         21   -1    0    0  501  502  0.00000000000E+00 -0.00000000000E+00 -0.12105133622E+03  0.12105133622E+03  0.00000000000E+00 0. -1.
         23    2    1    2    0    0 -0.96391139573E+02 -0.58879574311E+02  0.26359796970E+03  0.30105036790E+03  0.91593549564E+02 0.  0.
        -24    2    1    2    0    0  0.60632248986E+02  0.11658509239E+03 -0.16309328143E+02  0.15480802965E+03  0.80194628728E+02 0.  0.
         13    1    4    4    0    0  0.76516944494E+02  0.76496023958E+02  0.13647941178E+01  0.10820511605E+03  0.00000000000E+00 0. -1.
        -14    1    4    4    0    0 -0.15884695507E+02  0.40089068427E+02 -0.17674122261E+02  0.46602913604E+02  0.00000000000E+00 0.  1.
        -13    1    3    3    0    0 -0.11440865707E+03 -0.49176590908E+02  0.23389640194E+03  0.26498151774E+03  0.00000000000E+00 0. -1.
         13    1    3    3    0    0  0.18017517501E+02 -0.97029834029E+01  0.29701567768E+02  0.36068850157E+02  0.00000000000E+00 0.  1.
          2    1    1    2  501    0  0.35758890587E+02 -0.57705518074E+02  0.51951469738E+02  0.85484386178E+02  0.00000000000E+00 0. -1.
<scales pt_clust_5="13000.00000" pt_clust_6="13000.00000" pt_clust_7="13000.00000" pt_clust_8="13000.00000" pt_clust_9="67.88689"></scales>
<clustering>
<clus scale="   67.887">  2  9  1 -1</clus>
<clus scale="   80.195">  5  6 -1 -1</clus>
<clus scale="   91.594">  7  8 -1 -1</clus>
<clus scale="  138.997">  2  5  1 -1</clus>
<clus scale="   67.887">  2  5  1 -1</clus>
</clustering>
</event>
<event>
 9    1  0.6345107E-005  0.3315880E+03  0.7546771E-02  0.1103675E+00
         21   -1    0    0  501  502  0.00000000000E+00  0.00000000000E+00  0.13360641392E+03  0.13360641392E+03  0.00000000000E+00 0. -1.
          1   -1    0    0  502    0 -0.00000000000E+00 -0.00000000000E+00 -0.15464284047E+04  0.15464284047E+04  0.00000000000E+00 0. -1.
        -24    2    1    2    0    0  0.54772266899E+01 -0.11118201377E+03 -0.73183255325E+02  0.15534159434E+03  0.79898572407E+02 0.  0.
         23    2    1    2    0    0  0.29629961349E+03  0.18721690655E+03 -0.10022306118E+04  0.10656781831E+04  0.91433907857E+02 0.  0.
         13    1    3    3    0    0  0.36417311177E+02 -0.95736299873E+02 -0.55627625449E+02  0.11655939422E+03  0.00000000000E+00 0. -1.
        -14    1    3    3    0    0 -0.30940084488E+02 -0.15445713899E+02 -0.17555629876E+02  0.38782200122E+02  0.00000000000E+00 0.  1.
        -11    1    4    4    0    0  0.24530160681E+03  0.13090760062E+03 -0.86792871153E+03  0.91137803709E+03  0.00000000000E+00 0. -1.
         11    1    4    4    0    0  0.50998006680E+02  0.56309305931E+02 -0.13430190030E+03  0.15430014596E+03  0.00000000000E+00 0.  1.
          2    1    1    2  501    0 -0.30177684018E+03 -0.76034892774E+02 -0.33740812367E+03  0.45901504127E+03  0.00000000000E+00 0. -1.
<scales pt_clust_5="13000.00000" pt_clust_6="13000.00000" pt_clust_7="13000.00000" pt_clust_8="13000.00000" pt_clust_9="318.73260"></scales>
<clustering>
<clus scale="   79.899">  5  6 -1 -1</clus>
<clus scale="   91.434">  7  8 -1 -1</clus>
<clus scale="  137.023">  2  5  1 -1</clus>
<clus scale="  318.733">  1  9  2 -1</clus>
<clus scale="  318.733">  1  5  2 -1</clus>
</clustering>
</event>
<event>
 9    1  0.6345107E-005  0.1143238E+03  0.7546771E-02  0.1255408E+00
         21   -1    0    0  501  502  0.00000000000E+00  0.00000000000E+00  0.93827907038E+02  0.93827907038E+02  0.00000000000E+00 0.  1.
         -2   -1    0    0    0  501 -0.00000000000E+00 -0.00000000000E+00 -0.59216433542E+03  0.59216433542E+03  0.00000000000E+00 0.  1.
        -24    2    1    2    0    0  0.17549439368E+02 -0.75983579544E+02 -0.45368560418E+03  0.46825402414E+03  0.85730487554E+02 0.  0.
         23    2    1    2    0    0 -0.59636572588E+02 -0.30840489709E+01 -0.61661978913E+02  0.12656587576E+03  0.93009080828E+02 0.  0.
         11    1    3    3    0    0  0.19237636037E+02 -0.52477001995E+02 -0.10655291609E+03  0.12032226022E+03  0.00000000000E+00 0. -1.
        -12    1    3    3    0    0 -0.16881966690E+01 -0.23506577549E+02 -0.34713268809E+03  0.34793176391E+03  0.00000000000E+00 0.  1.
        -11    1    4    4    0    0 -0.46683876456E+02 -0.33696958574E+02 -0.12215605452E+01  0.57587859383E+02  0.00000000000E+00 0.  1.
         11    1    4    4    0    0 -0.12952696132E+02  0.30612909603E+02 -0.60440418368E+02  0.68978016382E+02  0.00000000000E+00 0. -1.
         -1    1    1    2    0  502  0.42087133220E+02  0.79067628515E+02  0.17011154718E+02  0.91172342552E+02  0.00000000000E+00 0.  1.
<scales pt_clust_5="13000.00000" pt_clust_6="13000.00000" pt_clust_7="13000.00000" pt_clust_8="13000.00000" pt_clust_9="89.57129"></scales>
<clustering>
<clus scale="   85.730">  5  6 -1 -1</clus>
<clus scale="   89.571">  1  9  2 -1</clus>
<clus scale="   93.009">  7  8 -1 -1</clus>
<clus scale="  108.485">  2  5  1 -1</clus>
<clus scale="   89.571">  1  5  2 -1</clus>
</clustering>
</event>
<event>
 9    1  0.6345107E-005  0.1357940E+03  0.7546771E-02  0.1221437E+00
         21   -1    0    0  501  502  0.00000000000E+00  0.00000000000E+00  0.33975456913E+03  0.33975456913E+03  0.00000000000E+00 0. -1.
          3   -1    0    0  502    0 -0.00000000000E+00 -0.00000000000E+00 -0.11186615765E+03  0.11186615765E+03  0.00000000000E+00 0. -1.
         23    2    1    2    0    0 -0.96398933279E+02  0.77404406538E+02  0.10669854077E+03  0.18672229799E+03  0.90534200578E+02 0.  0.
        -24    2    1    2    0    0  0.80627572837E+02 -0.13273976186E+02  0.15331086601E+03  0.19145997670E+03  0.80471716111E+02 0.  0.
         13    1    4    4    0    0  0.58329840500E+02  0.30138866992E+02  0.93822912541E+02  0.11451401885E+03  0.00000000000E+00 0. -1.
        -14    1    4    4    0    0  0.22297732338E+02 -0.43412843179E+02  0.59487953469E+02  0.76945957842E+02  0.00000000000E+00 0.  1.
        -13    1    3    3    0    0 -0.99102224806E+01  0.52781087131E+02  0.73140760928E+02  0.90739333134E+02  0.00000000000E+00 0.  1.
         13    1    3    3    0    0 -0.86488710799E+02  0.24623319407E+02  0.33557779844E+02  0.95982964855E+02  0.00000000000E+00 0. -1.
          4    1    1    2  501    0  0.15771360442E+02 -0.64130430351E+02 -0.32120995308E+02  0.73438452100E+02  0.00000000000E+00 0. -1.
<scales pt_clust_5="13000.00000" pt_clust_6="13000.00000" pt_clust_7="13000.00000" pt_clust_8="13000.00000" pt_clust_9="66.04129"></scales>
<clustering>
<clus scale="   66.041">  1  9  2 -1</clus>
<clus scale="   80.472">  5  6 -1 -1</clus>
<clus scale="   90.534">  7  8 -1 -1</clus>
<clus scale="  129.303">  1  5  2 -1</clus>
<clus scale="   66.041">  1  5  2 -1</clus>
</clustering>
</event>
<event>
 9    1  0.8601054E-005  0.1145480E+03  0.7546771E-02  0.1254925E+00
         21   -1    0    0  501  502  0.00000000000E+00  0.00000000000E+00  0.13401541278E+03  0.13401541278E+03  0.00000000000E+00 0. -1.
          1   -1    0    0  502    0 -0.00000000000E+00 -0.00000000000E+00 -0.49634518918E+03  0.49634518918E+03  0.00000000000E+00 0. -1.
         23    2    1    2    0    0 -0.22650923487E+02 -0.68637002832E+02 -0.26934611899E+03  0.29264629398E+03  0.88715382404E+02 0.  0.
        -24    2    1    2    0    0  0.67179312280E+02  0.54724045675E+02  0.89896926651E+02  0.14897730627E+03  0.81271146095E+02 0.  0.
         13    1    4    4    0    0  0.85270530178E+02  0.52957800940E+02  0.79422450053E+02  0.12799811549E+03  0.00000000000E+00 0. -1.
        -14    1    4    4    0    0 -0.18091217898E+02  0.17662447343E+01  0.10474476598E+02  0.20979190773E+02  0.00000000000E+00 0.  1.
        -13    1    3    3    0    0 -0.42845829167E+02 -0.27466019447E+00 -0.11158106442E+03  0.11952478593E+03  0.00000000000E+00 0.  1.
         13    1    3    3    0    0  0.20194905680E+02 -0.68362342638E+02 -0.15776505457E+03  0.17312150805E+03  0.00000000000E+00 0. -1.
          2    1    1    2  501    0 -0.44528388792E+02  0.13912957157E+02 -0.18288058406E+03  0.18873700171E+03  0.00000000000E+00 0. -1.
<scales pt_clust_5="13000.00000" pt_clust_6="13000.00000" pt_clust_7="13000.00000" pt_clust_8="13000.00000" pt_clust_9="46.65137"></scales>
<clustering>
<clus scale="   46.651">  1  9  2 -1</clus>
<clus scale="   81.271">  5  6 -1 -1</clus>
<clus scale="   88.715">  7  8 -1 -1</clus>
<clus scale="  108.884">  1  5  2 -1</clus>
<clus scale="   46.651">  1  5  2 -1</clus>
</clustering>
</event>
<event>
 9    1  0.6345107E-005  0.1970270E+03  0.7546771E-02  0.1153239E+00
          1   -1    0    0  502    0 -0.00000000000E+00  0.00000000000E+00  0.92804202927E+03  0.92804202927E+03  0.00000000000E+00 0. -1.
         21   -1    0    0  501  502  0.00000000000E+00 -0.00000000000E+00 -0.12040647089E+03  0.12040647089E+03  0.00000000000E+00 0.  1.
        -24    2    1    2    0    0 -0.29325320507E+02  0.18409508433E+03  0.79948688613E+03  0.82483169904E+03  0.80106654776E+02 0.  0.
         23    2    1    2    0    0  0.79234098614E+01 -0.10677350227E+03 -0.13009826732E+02  0.14064481241E+03  0.90268191824E+02 0.  0.
         13    1    3    3    0    0 -0.42120618933E+02  0.14502529073E+03  0.49334273163E+03  0.51593946578E+03  0.00000000000E+00 0. -1.
        -14    1    3    3    0    0  0.12795298426E+02  0.39069793602E+02  0.30614415450E+03  0.30889223326E+03  0.00000000000E+00 0.  1.
        -11    1    4    4    0    0 -0.22778831208E+02  0.40965418616E+00 -0.18006379669E+02  0.29039157642E+02  0.00000000000E+00 0. -1.
         11    1    4    4    0    0  0.30702241070E+02 -0.10718315646E+03  0.49965529369E+01  0.11160565477E+03  0.00000000000E+00 0.  1.
          2    1    1    2  501    0  0.21401910646E+02 -0.77321582060E+02  0.21158498980E+02  0.82971988711E+02  0.00000000000E+00 0. -1.
<scales pt_clust_5="13000.00000" pt_clust_6="13000.00000" pt_clust_7="13000.00000" pt_clust_8="13000.00000" pt_clust_9="80.22885"></scales>
<clustering>
<clus scale="   80.107">  5  6 -1 -1</clus>
<clus scale="   80.229">  2  9  1 -1</clus>
<clus scale="   90.268">  7  8 -1 -1</clus>
<clus scale="  192.583">  1  5  2 -1</clus>
<clus scale="   80.229">  2  5  1 -1</clus>
</clustering>
</event>
<event>
 9    1  0.6345107E-005  0.1545920E+03  0.7546771E-02  0.1196355E+00
         -2   -1    0    0    0  501 -0.00000000000E+00  0.00000000000E+00  0.55822367986E+03  0.55822367986E+03  0.00000000000E+00 0.  1.
         21   -1    0    0  501  502  0.00000000000E+00 -0.00000000000E+00 -0.14560239636E+03  0.14560239636E+03  0.00000000000E+00 0.  1.
        -24    2    1    2    0    0  0.98751184391E+02 -0.76194039639E+02  0.39468161615E+03  0.42161961511E+03  0.80200957723E+02 0.  0.
         23    2    1    2    0    0 -0.10598071765E+03  0.99794141140E+02 -0.74864468949E+02  0.18617605625E+03  0.88690766661E+02 0.  0.
         11    1    3    3    0    0  0.65718918079E+02 -0.10764458384E+02  0.25879772993E+03  0.26722858151E+03  0.00000000000E+00 0. -1.
        -12    1    3    3    0    0  0.33032266313E+02 -0.65429581256E+02  0.13588388622E+03  0.15439103360E+03  0.00000000000E+00 0.  1.
        -11    1    4    4    0    0 -0.35847175349E+02  0.44321720818E+02  0.15473338889E+02  0.59066565273E+02  0.00000000000E+00 0. -1.
         11    1    4    4    0    0 -0.70133542305E+02  0.55472420322E+02 -0.90337807837E+02  0.12710949098E+03  0.00000000000E+00 0.  1.
         -1    1    1    2    0  502  0.72295332629E+01 -0.23600101501E+02  0.92804136301E+02  0.96030404855E+02  0.00000000000E+00 0.  1.
<scales pt_clust_5="13000.00000" pt_clust_6="13000.00000" pt_clust_7="13000.00000" pt_clust_8="13000.00000" pt_clust_9="24.68262"></scales>
<clustering>
<clus scale="   24.683">  2  9  1 -1</clus>
<clus scale="   80.201">  5  6 -1 -1</clus>
<clus scale="   88.691">  7  8 -1 -1</clus>
<clus scale="  149.883">  1  5  2 -1</clus>
<clus scale="   24.683">  2  5  1 -1</clus>
</clustering>
</event>
<event>
 9    1  0.7584520E-005  0.9863386E+02  0.7546771E-02  0.1287107E+00
          1   -1    0    0  502    0 -0.00000000000E+00  0.00000000000E+00  0.54827178604E+03  0.54827178604E+03  0.00000000000E+00 0. -1.
         21   -1    0    0  501  502  0.00000000000E+00 -0.00000000000E+00 -0.90403330880E+02  0.90403330880E+02  0.00000000000E+00 0.  1.
         23    2    1    2    0    0 -0.19619546986E+02 -0.33299613693E+02  0.26998092814E+03  0.28681092600E+03  0.88752548259E+02 0.  0.
        -24    2    1    2    0    0  0.94246364933E+02  0.34526989148E+02 -0.20491620010E+02  0.13052161181E+03  0.80879505287E+02 0.  0.
         13    1    4    4    0    0 -0.89871805213E+01  0.21811464487E+02  0.33040425744E+01  0.23820707255E+02  0.00000000000E+00 0. -1.
        -14    1    4    4    0    0  0.10323354545E+03  0.12715524661E+02 -0.23795662585E+02  0.10670090455E+03  0.00000000000E+00 0.  1.
        -13    1    3    3    0    0 -0.43725715649E+02  0.12119075475E+02  0.12854614150E+03  0.13631918682E+03  0.00000000000E+00 0.  1.
         13    1    3    3    0    0  0.24106168664E+02 -0.45418689169E+02  0.14143478663E+03  0.15049173919E+03  0.00000000000E+00 0. -1.
          2    1    1    2  501    0 -0.74626817947E+02 -0.12273754551E+01  0.20837914704E+03  0.22134257911E+03  0.00000000000E+00 0. -1.
<scales pt_clust_5="13000.00000" pt_clust_6="13000.00000" pt_clust_7="13000.00000" pt_clust_8="13000.00000" pt_clust_9="74.63695"></scales>
<clustering>
<clus scale="   74.637">  2  9  1 -1</clus>
<clus scale="   80.880">  5  6 -1 -1</clus>
<clus scale="   88.753">  7  8 -1 -1</clus>
<clus scale="   91.614">  2  5  1 -1</clus>
<clus scale="   74.637">  2  5  1 -1</clus>
</clustering>
</event>
<event>
 9    1  0.6345107E-005  0.1841532E+03  0.7546771E-02  0.1165256E+00
          1   -1    0    0  502    0 -0.00000000000E+00  0.00000000000E+00  0.12381351346E+04  0.12381351346E+04  0.00000000000E+00 0. -1.
         21   -1    0    0  501  502  0.00000000000E+00 -0.00000000000E+00 -0.48881867937E+02  0.48881867937E+02  0.00000000000E+00 0. -1.
         23    2    1    2    0    0  0.31731605285E+02  0.14479009799E+03  0.67025822599E+03  0.69281275585E+03  0.93660866537E+02 0.  0.
        -24    2    1    2    0    0  0.19781452684E+02 -0.19308807451E+03  0.31970154809E+03  0.38277060257E+03  0.81424467733E+02 0.  0.
         13    1    4    4    0    0 -0.20928034016E+02 -0.11627485720E+03  0.14031335669E+03  0.18342754180E+03  0.00000000000E+00 0. -1.
        -14    1    4    4    0    0  0.40709486700E+02 -0.76813217316E+02  0.17938819140E+03  0.19934306077E+03  0.00000000000E+00 0.  1.
        -13    1    3    3    0    0  0.11494742002E+02  0.15250089339E+03  0.56377820685E+03  0.58415282084E+03  0.00000000000E+00 0. -1.
         13    1    3    3    0    0  0.20236863283E+02 -0.77107954019E+01  0.10648001914E+03  0.10865993501E+03  0.00000000000E+00 0.  1.
          2    1    1    2  501    0 -0.51513057968E+02  0.48297976523E+02  0.19929349254E+03  0.21143364407E+03  0.00000000000E+00 0. -1.
<scales pt_clust_5="13000.00000" pt_clust_6="13000.00000" pt_clust_7="13000.00000" pt_clust_8="13000.00000" pt_clust_9="70.61370"></scales>
<clustering>
<clus scale="   70.614">  2  9  1 -1</clus>
<clus scale="   81.424">  5  6 -1 -1</clus>
<clus scale="   93.661">  7  8 -1 -1</clus>
<clus scale="  178.241">  2  5  1 -1</clus>
<clus scale="   70.614">  2  5  1 -1</clus>
</clustering>
</event>
<event>
 9    1  0.6345107E-005  0.1115391E+03  0.7546771E-02  0.1262613E+00
          3   -1    0    0  502    0 -0.00000000000E+00  0.00000000000E+00  0.60205295549E+03  0.60205295549E+03  0.00000000000E+00 0. -1.
         21   -1    0    0  501  502  0.00000000000E+00 -0.00000000000E+00 -0.44286808007E+02  0.44286808007E+02  0.00000000000E+00 0. -1.
        -24    2    1    2    0    0  0.56049680569E+02  0.66034961981E+02  0.28724188687E+03  0.31035809774E+03  0.79448501350E+02 0.  0.
         23    2    1    2    0    0  0.26255892886E+02 -0.37388439021E+02  0.94774319000E+02  0.13981114637E+03  0.92074523201E+02 0.  0.
         11    1    3    3    0    0  0.18162327965E+02  0.75627165530E+02  0.17496587378E+03  0.19147426801E+03  0.00000000000E+00 0. -1.
        -12    1    3    3    0    0  0.37887352604E+02 -0.95922035486E+01  0.11227601309E+03  0.11888382973E+03  0.00000000000E+00 0.  1.
        -11    1    4    4    0    0 -0.21919556045E+02  0.14851113619E+02  0.80141086879E+01  0.27663124390E+02  0.00000000000E+00 0.  1.
         11    1    4    4    0    0  0.48175448931E+02 -0.52239552640E+02  0.86760210313E+02  0.11214802198E+03  0.00000000000E+00 0. -1.
          4    1    1    2  501    0 -0.82305573455E+02 -0.28646522960E+02  0.17574994162E+03  0.19617051939E+03  0.00000000000E+00 0. -1.
<scales pt_clust_5="13000.00000" pt_clust_6="13000.00000" pt_clust_7="13000.00000" pt_clust_8="13000.00000" pt_clust_9="87.14837"></scales>
<clustering>
<clus scale="   79.449">  5  6 -1 -1</clus>
<clus scale="   87.148">  2  9  1 -1</clus>
<clus scale="   92.075">  7  8 -1 -1</clus>
<clus scale="  101.367">  1  5  2 -1</clus>
<clus scale="   87.148">  2  5  1 -1</clus>
</clustering>
</event>
<event>
 9    1  0.6345107E-005  0.2052911E+03  0.7546771E-02  0.1166223E+00
         -2   -1    0    0    0  501 -0.00000000000E+00  0.00000000000E+00  0.21355505516E+03  0.21355505516E+03  0.00000000000E+00 0.  1.
         21   -1    0    0  501  502  0.00000000000E+00 -0.00000000000E+00 -0.38613597111E+03  0.38613597111E+03  0.00000000000E+00 0. -1.
         23    2    1    2    0    0  0.52177164641E+01  0.85632136972E+02 -0.86933070728E+02  0.15293309991E+03  0.92038507230E+02 0.  0.
        -24    2    1    2    0    0  0.93133810435E+02 -0.18992844903E+03 -0.16730360960E+03  0.28177790512E+03  0.81618427015E+02 0.  0.
         13    1    4    4    0    0  0.75582869374E+02 -0.16905471914E+03 -0.17355553330E+03  0.25379872211E+03  0.00000000000E+00 0. -1.
        -14    1    4    4    0    0  0.17550941061E+02 -0.20873729897E+02  0.62519236974E+01  0.27979183009E+02  0.00000000000E+00 0.  1.
        -13    1    3    3    0    0  0.39405032732E+02  0.48853501021E+02 -0.13871064992E+02  0.64279293794E+02  0.00000000000E+00 0. -1.
         13    1    3    3    0    0 -0.34187316268E+02  0.36778635951E+02 -0.73062005736E+02  0.88653806112E+02  0.00000000000E+00 0.  1.
         -1    1    1    2    0  502 -0.98351526899E+02  0.10429631206E+03  0.81655764379E+02  0.16498002124E+03  0.00000000000E+00 0.  1.
<scales pt_clust_5="13000.00000" pt_clust_6="13000.00000" pt_clust_7="13000.00000" pt_clust_8="13000.00000" pt_clust_9="188.36909"></scales>
<clustering>
<clus scale="   81.618">  5  6 -1 -1</clus>
<clus scale="   92.039">  7  8 -1 -1</clus>
<clus scale="  125.822">  1  7  2 -1</clus>
<clus scale="  188.369">  2  9  1 -1</clus>
<clus scale="  188.369">  2  5  1 -1</clus>
</clustering>
</event>
<event>
 9    1  0.6345107E-005  0.9105793E+02  0.7546771E-02  0.1306325E+00
         21   -1    0    0  501  502  0.00000000000E+00  0.00000000000E+00  0.91329519433E+02  0.91329519433E+02  0.00000000000E+00 0. -1.
          1   -1    0    0  502    0 -0.00000000000E+00 -0.00000000000E+00 -0.20174360879E+03  0.20174360879E+03  0.00000000000E+00 0. -1.
        -24    2    1    2    0    0 -0.11459961130E+02 -0.11915234599E+02 -0.57268812392E+02  0.10042152321E+03  0.80817460535E+02 0.  0.
         23    2    1    2    0    0 -0.83752099825E+01 -0.19404088180E+01  0.37931028439E+02  0.98416228032E+02  0.90405097716E+02 0.  0.
         13    1    3    3    0    0 -0.44776174939E+02  0.13599848250E+01 -0.42123612884E+02  0.61491090113E+02  0.00000000000E+00 0. -1.
        -14    1    3    3    0    0  0.33316213809E+02 -0.13275219424E+02 -0.15145199507E+02  0.38930433102E+02  0.00000000000E+00 0.  1.
        -13    1    4    4    0    0  0.30422043842E+02 -0.18851820069E+02  0.42825374046E+02  0.55811329796E+02  0.00000000000E+00 0. -1.
         13    1    4    4    0    0 -0.38797253824E+02  0.16911411251E+02 -0.48943456071E+01  0.42604898236E+02  0.00000000000E+00 0.  1.
          2    1    1    2  501    0  0.19835171112E+02  0.13855643417E+02 -0.91076305401E+02  0.94235376972E+02  0.00000000000E+00 0. -1.
<scales pt_clust_5="13000.00000" pt_clust_6="13000.00000" pt_clust_7="13000.00000" pt_clust_8="13000.00000" pt_clust_9="24.19532"></scales>
<clustering>
<clus scale="   24.195">  1  9  2 -1</clus>
<clus scale="   80.817">  5  6 -1 -1</clus>
<clus scale="   81.547">  2  5  1 -1</clus>
<clus scale="   90.405">  7  8 -1 -1</clus>
<clus scale="   24.195">  1  5  2 -1</clus>
</clustering>
</event>
<event>
 9    1  0.6345107E-005  0.1831045E+03  0.7546771E-02  0.1165899E+00
         21   -1    0    0  501  502  0.00000000000E+00  0.00000000000E+00  0.40187640929E+03  0.40187640929E+03  0.00000000000E+00 0. -1.
         -2   -1    0    0    0  501 -0.00000000000E+00 -0.00000000000E+00 -0.31250853919E+03  0.31250853919E+03  0.00000000000E+00 0.  1.
         23    2    1    2    0    0  0.15495946543E+03 -0.31661359458E+02 -0.22138429513E+03  0.28677718724E+03  0.90638134263E+02 0.  0.
        -24    2    1    2    0    0 -0.17428404021E+03 -0.10544137963E+02  0.32609309788E+03  0.37871924093E+03  0.81273916186E+02 0.  0.
         11    1    4    4    0    0 -0.17537323961E+03 -0.19347416662E+01  0.32583452427E+03  0.37003736785E+03  0.00000000000E+00 0. -1.
        -12    1    4    4    0    0  0.10891994044E+01 -0.86093962973E+01  0.25857360789E+00  0.86818730846E+01  0.00000000000E+00 0.  1.
        -13    1    3    3    0    0  0.57038446687E+02  0.27555826051E+02 -0.11086931811E+03  0.12768991209E+03  0.00000000000E+00 0. -1.
         13    1    3    3    0    0  0.97921018738E+02 -0.59217185509E+02 -0.11051497702E+03  0.15908727515E+03  0.00000000000E+00 0.  1.
         -1    1    1    2    0  502  0.19324574785E+02  0.42205497421E+02 -0.15340932646E+02  0.48888520305E+02  0.00000000000E+00 0.  1.
<scales pt_clust_5="13000.00000" pt_clust_6="13000.00000" pt_clust_7="13000.00000" pt_clust_8="13000.00000" pt_clust_9="46.41923"></scales>
<clustering>
<clus scale="   46.419">  1  9  2 -1</clus>
<clus scale="   81.274">  5  6 -1 -1</clus>
<clus scale="   90.638">  7  8 -1 -1</clus>
<clus scale="  178.655">  1  5  2 -1</clus>
<clus scale="   46.419">  1  5  2 -1</clus>
</clustering>
</event>
<event>
 9    1  0.6345107E-005  0.1003248E+03  0.7546771E-02  0.1284946E+00
         21   -1    0    0  501  502  0.00000000000E+00  0.00000000000E+00  0.58609479708E+02  0.58609479708E+02  0.00000000000E+00 0. -1.
          1   -1    0    0  502    0 -0.00000000000E+00 -0.00000000000E+00 -0.30456818481E+03  0.30456818481E+03  0.00000000000E+00 0. -1.
        -24    2    1    2    0    0 -0.40060584035E+02  0.11122460320E+02 -0.18510113203E+03  0.20667438562E+03  0.81995811334E+02 0.  0.
         23    2    1    2    0    0  0.28707359233E+02  0.58241795811E+01 -0.51890249060E+01  0.97215239864E+02  0.92551841367E+02 0.  0.
         13    1    3    3    0    0 -0.48706796974E+02 -0.63731580562E+01 -0.17988846787E+03  0.18647474384E+03  0.00000000000E+00 0. -1.
        -14    1    3    3    0    0  0.86462129382E+01  0.17495618377E+02 -0.52126641540E+01  0.20199641782E+02  0.00000000000E+00 0.  1.
        -13    1    4    4    0    0  0.43640893270E+02 -0.29582712347E+02 -0.19494947524E+02  0.56211363745E+02  0.00000000000E+00 0.  1.
         13    1    4    4    0    0 -0.14933534036E+02  0.35406891928E+02  0.14305922618E+02  0.41003876119E+02  0.00000000000E+00 0. -1.
          2    1    1    2  501    0  0.11353224802E+02 -0.16946639901E+02 -0.55668548168E+02  0.59288039034E+02  0.00000000000E+00 0. -1.
<scales pt_clust_5="13000.00000" pt_clust_6="13000.00000" pt_clust_7="13000.00000" pt_clust_8="13000.00000" pt_clust_9="20.39816"></scales>
<clustering>
<clus scale="   20.398">  1  9  2 -1</clus>
<clus scale="   81.996">  5  6 -1 -1</clus>
<clus scale="   90.678">  2  5  1 -1</clus>
<clus scale="   92.552">  7  8 -1 -1</clus>
<clus scale="   20.398">  1  5  2 -1</clus>
</clustering>
</event>
<event>
 9    1  0.6345107E-005  0.1666681E+03  0.7546771E-02  0.1213592E+00
         21   -1    0    0  501  502  0.00000000000E+00  0.00000000000E+00  0.44703685048E+02  0.44703685048E+02  0.00000000000E+00 0.  1.
          1   -1    0    0  502    0 -0.00000000000E+00 -0.00000000000E+00 -0.94554550730E+03  0.94554550730E+03  0.00000000000E+00 0. -1.
         23    2    1    2    0    0 -0.12433871459E+01  0.19481629412E+02 -0.35372771745E+03  0.36322453677E+03  0.80172851563E+02 0.  0.
        -24    2    1    2    0    0 -0.11941655955E+03  0.45660823949E+02 -0.23751266752E+03  0.28841660497E+03  0.10211094580E+03 0.  0.
         11    1    4    4    0    0 -0.16810496562E+02  0.51409731863E+02 -0.12406793680E+03  0.13534550700E+03  0.00000000000E+00 0. -1.
        -12    1    4    4    0    0 -0.10260606299E+03 -0.57489079140E+01 -0.11344473072E+03  0.15307109796E+03  0.00000000000E+00 0.  1.
        -11    1    3    3    0    0  0.37879915919E+02  0.21093397392E+02 -0.18464458207E+03  0.18966665793E+03  0.00000000000E+00 0. -1.
         11    1    3    3    0    0 -0.39123303065E+02 -0.16117679798E+01 -0.16908313538E+03  0.17355787884E+03  0.00000000000E+00 0.  1.
          2    1    1    2  501    0  0.12065994669E+03 -0.65142453361E+02 -0.30960143729E+03  0.33860805061E+03  0.00000000000E+00 0. -1.
<scales pt_clust_5="13000.00000" pt_clust_6="13000.00000" pt_clust_7="13000.00000" pt_clust_8="13000.00000" pt_clust_9="131.72557"></scales>
<clustering>
<clus scale="   80.173">  7  8 -1 -1</clus>
<clus scale="   82.515">  2  7  1 -1</clus>
<clus scale="  102.111">  5  6 -1 -1</clus>
<clus scale="  131.726">  1  9  2 -1</clus>
<clus scale="  131.726">  1  5  2 -1</clus>
</clustering>
</event>
<event>
 9    1  0.6345107E-005  0.2175994E+03  0.7546771E-02  0.1136692E+00
         -2   -1    0    0    0  501 -0.00000000000E+00  0.00000000000E+00  0.36818126372E+03  0.36818126372E+03  0.00000000000E+00 0.  1.
         21   -1    0    0  501  502  0.00000000000E+00 -0.00000000000E+00 -0.21415767162E+03  0.21415767162E+03  0.00000000000E+00 0.  1.
         23    2    1    2    0    0 -0.11995312774E+03 -0.86769599594E+02  0.22526309963E+02  0.17498397429E+03  0.90522043440E+02 0.  0.
        -24    2    1    2    0    0  0.20390598183E+03  0.16293951994E+03  0.95702104462E+02  0.28848009734E+03  0.77038543473E+02 0.  0.
         13    1    4    4    0    0  0.80130534798E+02  0.64851057982E+02 -0.13859935771E+01  0.10309453577E+03  0.00000000000E+00 0. -1.
        -14    1    4    4    0    0  0.12377544703E+03  0.98088461959E+02  0.97088098039E+02  0.18538556157E+03  0.00000000000E+00 0.  1.
        -11    1    3    3    0    0 -0.99459827436E+02 -0.23242785005E+02 -0.61716929351E+01  0.10232582334E+03  0.00000000000E+00 0.  1.
         11    1    3    3    0    0 -0.20493300309E+02 -0.63526814589E+02  0.28698002898E+02  0.72658150951E+02  0.00000000000E+00 0. -1.
         -1    1    1    2    0  502 -0.83952854085E+02 -0.76169920347E+02  0.35795177676E+02  0.11887486370E+03  0.00000000000E+00 0.  1.
<scales pt_clust_5="13000.00000" pt_clust_6="13000.00000" pt_clust_7="13000.00000" pt_clust_8="13000.00000" pt_clust_9="113.35763"></scales>
<clustering>
<clus scale="   77.039">  5  6 -1 -1</clus>
<clus scale="   90.522">  7  8 -1 -1</clus>
<clus scale="  113.358">  2  9  1 -1</clus>
<clus scale="  212.345">  2  5  1 -1</clus>
<clus scale="  113.358">  2  5  1 -1</clus>
</clustering>
</event>
<event>
 9    1  0.6345107E-005  0.1947320E+03  0.7546771E-02  0.1185394E+00
          1   -1    0    0  502    0 -0.00000000000E+00  0.00000000000E+00  0.29623441679E+03  0.29623441679E+03  0.00000000000E+00 0. -1.
         21   -1    0    0  501  502  0.00000000000E+00 -0.00000000000E+00 -0.59718824450E+03  0.59718824450E+03  0.00000000000E+00 0. -1.
         23    2    1    2    0    0 -0.15202919248E-01 -0.29633889000E+02 -0.10415035009E+03  0.14130894261E+03  0.90789615214E+02 0.  0.
        -24    2    1    2    0    0  0.59434303645E+02  0.19467753351E+03  0.21353877524E+03  0.30585056917E+03  0.80709253677E+02 0.  0.
         11    1    4    4    0    0  0.15158851077E+02  0.15797029550E+03  0.17693676138E+03  0.23767840153E+03  0.00000000000E+00 0. -1.
        -12    1    4    4    0    0  0.44275452568E+02  0.36707238007E+02  0.36602013860E+02  0.68172167640E+02  0.00000000000E+00 0.  1.
        -11    1    3    3    0    0  0.40622882517E+02 -0.95797303677E+01 -0.79331410336E+02  0.89640741205E+02  0.00000000000E+00 0. -1.
         11    1    3    3    0    0 -0.40638085436E+02 -0.20054158633E+02 -0.24818939753E+02  0.51668201409E+02  0.00000000000E+00 0.  1.
          2    1    1    2  501    0 -0.59419100726E+02 -0.16504364451E+03 -0.41034225286E+03  0.44626314950E+03  0.00000000000E+00 0. -1.
<scales pt_clust_5="13000.00000" pt_clust_6="13000.00000" pt_clust_7="13000.00000" pt_clust_8="13000.00000" pt_clust_9="177.21899"></scales>
<clustering>
<clus scale="   80.709">  5  6 -1 -1</clus>
<clus scale="   90.790">  7  8 -1 -1</clus>
<clus scale="   95.504">  1  7  2 -1</clus>
<clus scale="  177.219">  2  9  1 -1</clus>
<clus scale="  177.219">  2  5  1 -1</clus>
</clustering>
</event>
<event>
 9    1  0.6345107E-005  0.1364388E+03  0.7546771E-02  0.1220683E+00
         -2   -1    0    0    0  501 -0.00000000000E+00  0.00000000000E+00  0.65445263636E+02  0.65445263636E+02  0.00000000000E+00 0.  1.
         21   -1    0    0  501  502  0.00000000000E+00 -0.00000000000E+00 -0.52536268122E+03  0.52536268122E+03  0.00000000000E+00 0.  1.
         23    2    1    2    0    0 -0.64026246208E+02 -0.79791284781E+02 -0.74550645841E+02  0.15531669399E+03  0.89997040541E+02 0.  0.
        -24    2    1    2    0    0  0.95266901163E+02  0.53648846774E+02 -0.36658536217E+03  0.39063429006E+03  0.79097026493E+02 0.  0.
         13    1    4    4    0    0  0.16814202643E+02 -0.15974572864E+02 -0.12690393505E+03  0.12900586467E+03  0.00000000000E+00 0. -1.
        -14    1    4    4    0    0  0.78452698520E+02  0.69623419639E+02 -0.23968142712E+03  0.26162842539E+03  0.00000000000E+00 0.  1.
        -11    1    3    3    0    0 -0.90382372518E+01  0.17975370100E+02  0.88758990228E+00  0.20139301842E+02  0.00000000000E+00 0. -1.
         11    1    3    3    0    0 -0.54988008956E+02 -0.97766654881E+02 -0.75438235744E+02  0.13517739215E+03  0.00000000000E+00 0.  1.
         -1    1    1    2    0  502 -0.31240654955E+02  0.26142438007E+02 -0.18781409577E+02  0.44856960804E+02  0.00000000000E+00 0.  1.
<scales pt_clust_5="13000.00000" pt_clust_6="13000.00000" pt_clust_7="13000.00000" pt_clust_8="13000.00000" pt_clust_9="40.73582"></scales>
<clustering>
<clus scale="   40.736">  2  9  1 -1</clus>
<clus scale="   79.097">  5  6 -1 -1</clus>
<clus scale="   89.997">  7  8 -1 -1</clus>
<clus scale="  129.508">  2  5  1 -1</clus>
<clus scale="   40.736">  2  5  1 -1</clus>
</clustering>
</event>
<event>
 9    1  0.6345107E-005  0.1226689E+03  0.7546771E-02  0.1242091E+00
         21   -1    0    0  501  502  0.00000000000E+00  0.00000000000E+00  0.52570395782E+03  0.52570395782E+03  0.00000000000E+00 0. -1.
          1   -1    0    0  502    0 -0.00000000000E+00 -0.00000000000E+00 -0.14622809322E+03  0.14622809322E+03  0.00000000000E+00 0. -1.
         23    2    1    2    0    0 -0.10774313431E+02  0.86514841078E+02 -0.10237020049E+03  0.16309412249E+03  0.92299140223E+02 0.  0.
        -24    2    1    2    0    0  0.91077566904E+01 -0.11515346342E+02  0.31917613979E+03  0.32970332490E+03  0.81334616276E+02 0.  0.
         13    1    4    4    0    0 -0.98512148352E+01  0.32660820508E+02  0.14994854990E+03  0.15378017833E+03  0.00000000000E+00 0. -1.
        -14    1    4    4    0    0  0.18958971526E+02 -0.44176166849E+02  0.16922758989E+03  0.17592314657E+03  0.00000000000E+00 0.  1.
        -11    1    3    3    0    0  0.38915966408E+02  0.24129008609E+02 -0.25930650306E+02  0.52621859746E+02  0.00000000000E+00 0.  1.
         11    1    3    3    0    0 -0.49690279839E+02  0.62385832469E+02 -0.76439550189E+02  0.11047226275E+03  0.00000000000E+00 0. -1.
          2    1    1    2  501    0  0.16665567405E+01 -0.74999494737E+02  0.16266992531E+03  0.17913460364E+03  0.00000000000E+00 0. -1.
<scales pt_clust_5="13000.00000" pt_clust_6="13000.00000" pt_clust_7="13000.00000" pt_clust_8="13000.00000" pt_clust_9="75.01801"></scales>
<clustering>
<clus scale="   75.018">  1  9  2 -1</clus>
<clus scale="   81.335">  5  6 -1 -1</clus>
<clus scale="   92.299">  7  8 -1 -1</clus>
<clus scale="  114.647">  1  5  2 -1</clus>
<clus scale="   75.018">  1  5  2 -1</clus>
</clustering>
</event>
<event>
 9    1  0.6345107E-005  0.1414407E+03  0.7546771E-02  0.1213319E+00
         21   -1    0    0  501  502  0.00000000000E+00  0.00000000000E+00  0.58505880243E+02  0.58505880243E+02  0.00000000000E+00 0. -1.
          1   -1    0    0  502    0 -0.00000000000E+00 -0.00000000000E+00 -0.67531664529E+03  0.67531664529E+03  0.00000000000E+00 0. -1.
        -24    2    1    2    0    0 -0.71468589749E+02 -0.89622911096E+02 -0.43641138093E+03  0.45861888333E+03  0.82075338760E+02 0.  0.
         23    2    1    2    0    0  0.92752959428E+01  0.98521474447E+02 -0.79234376245E+02  0.15611733299E+03  0.91115439075E+02 0.  0.
         11    1    3    3    0    0 -0.84697437054E+02 -0.51460260445E+02 -0.33833166910E+03  0.35254805710E+03  0.00000000000E+00 0. -1.
        -12    1    3    3    0    0  0.13228847305E+02 -0.38162650652E+02 -0.98079711829E+02  0.10607082624E+03  0.00000000000E+00 0.  1.
        -11    1    4    4    0    0  0.28962234537E+02 -0.24483171918E+01 -0.31015258264E+02  0.42505899963E+02  0.00000000000E+00 0.  1.
         11    1    4    4    0    0 -0.19686938594E+02  0.10096979164E+03 -0.48219117982E+02  0.11361143302E+03  0.00000000000E+00 0. -1.
          2    1    1    2  501    0  0.62193293806E+02 -0.88985633505E+01 -0.10116500788E+03  0.11908630922E+03  0.00000000000E+00 0. -1.
<scales pt_clust_5="13000.00000" pt_clust_6="13000.00000" pt_clust_7="13000.00000" pt_clust_8="13000.00000" pt_clust_9="62.82670"></scales>
<clustering>
<clus scale="   62.827">  1  9  2 -1</clus>
<clus scale="   82.075">  5  6 -1 -1</clus>
<clus scale="   91.115">  7  8 -1 -1</clus>
<clus scale="  135.793">  2  5  1 -1</clus>
<clus scale="   62.827">  1  5  2 -1</clus>
</clustering>
</event>
<event>
 9    1  0.6345107E-005  0.1053296E+03  0.7546771E-02  0.1272917E+00
         -4   -1    0    0    0  501 -0.00000000000E+00  0.00000000000E+00  0.53409874325E+03  0.53409874325E+03  0.00000000000E+00 0.  1.
         21   -1    0    0  501  502  0.00000000000E+00 -0.00000000000E+00 -0.57936414306E+02  0.57936414306E+02  0.00000000000E+00 0.  1.
         23    2    1    2    0    0  0.43114924310E+02  0.27874141029E+02  0.42405449707E+03  0.43690331129E+03  0.91795547238E+02 0.  0.
        -24    2    1    2    0    0 -0.64705866635E+02  0.55187368674E+01  0.33984183619E+02  0.11143150633E+03  0.83933010387E+02 0.  0.
         13    1    4    4    0    0 -0.26971746744E+02 -0.24201558420E+02 -0.18161975280E+02  0.40534527239E+02  0.00000000000E+00 0. -1.
        -14    1    4    4    0    0 -0.37734119891E+02  0.29720295288E+02  0.52146158900E+02  0.70896979089E+02  0.00000000000E+00 0.  1.
        -11    1    3    3    0    0  0.68924762895E+02  0.34469533645E+02  0.28026069674E+03  0.29066274241E+03  0.00000000000E+00 0.  1.
         11    1    3    3    0    0 -0.25809838585E+02 -0.65953926162E+01  0.14379380033E+03  0.14624056888E+03  0.00000000000E+00 0. -1.
         -3    1    1    2    0  502  0.21590942325E+02 -0.33392877896E+02  0.18123648254E+02  0.43700339938E+02  0.00000000000E+00 0.  1.
<scales pt_clust_5="13000.00000" pt_clust_6="13000.00000" pt_clust_7="13000.00000" pt_clust_8="13000.00000" pt_clust_9="39.76497"></scales>
<clustering>
<clus scale="   39.765">  2  9  1 -1</clus>
<clus scale="   83.933">  5  6 -1 -1</clus>
<clus scale="   91.796">  7  8 -1 -1</clus>
<clus scale="   98.553">  2  5  1 -1</clus>
<clus scale="   39.765">  2  5  1 -1</clus>
</clustering>
</event>
<event>
 9    1  0.6345107E-005  0.2930138E+03  0.7546771E-02  0.1089097E+00
          1   -1    0    0  502    0 -0.00000000000E+00  0.00000000000E+00  0.19070745154E+04  0.19070745154E+04  0.00000000000E+00 0. -1.
         21   -1    0    0  501  502  0.00000000000E+00 -0.00000000000E+00 -0.18454101250E+03  0.18454101250E+03  0.00000000000E+00 0. -1.
         23    2    1    2    0    0 -0.28381978186E+03 -0.46808326864E+02  0.16966426442E+04  0.17231057632E+04  0.88048402297E+02 0.  0.
        -24    2    1    2    0    0  0.22895781869E+03  0.28196191281E+02  0.10892444078E+03  0.26726341989E+03  0.79677436406E+02 0.  0.
         11    1    4    4    0    0  0.17928900472E+03 -0.31484368457E+01  0.10633430960E+03  0.20847408776E+03  0.00000000000E+00 0. -1.
        -12    1    4    4    0    0  0.49668813963E+02  0.31344628127E+02  0.25901311795E+01  0.58789332131E+02  0.00000000000E+00 0.  1.
        -13    1    3    3    0    0 -0.19028286665E+03 -0.72790043782E+02  0.11581301880E+04  0.11759130462E+04  0.00000000000E+00 0. -1.
         13    1    3    3    0    0 -0.93536915211E+02  0.25981716918E+02  0.53851245619E+03  0.54719271705E+03  0.00000000000E+00 0.  1.
          2    1    1    2  501    0  0.54861963171E+02  0.18612135583E+02 -0.83033582032E+02  0.10124634482E+03  0.00000000000E+00 0. -1.
<scales pt_clust_5="13000.00000" pt_clust_6="13000.00000" pt_clust_7="13000.00000" pt_clust_8="13000.00000" pt_clust_9="57.93312"></scales>
<clustering>
<clus scale="   57.933">  2  9  1 -1</clus>
<clus scale="   79.677">  5  6 -1 -1</clus>
<clus scale="   88.048">  7  8 -1 -1</clus>
<clus scale="  290.608">  2  5  1 -1</clus>
<clus scale="   57.933">  2  5  1 -1</clus>
</clustering>
</event>
<event>
 9    1  0.6345107E-005  0.2256107E+03  0.7546771E-02  0.1132927E+00
          1   -1    0    0  502    0 -0.00000000000E+00  0.00000000000E+00  0.47158121827E+03  0.47158121827E+03  0.00000000000E+00 0. -1.
         21   -1    0    0  501  502  0.00000000000E+00 -0.00000000000E+00 -0.61664685903E+03  0.61664685903E+03  0.00000000000E+00 0. -1.
        -24    2    1    2    0    0  0.15347427169E+03 -0.11598094794E+03  0.13998348605E+03  0.25138984858E+03  0.81212974602E+02 0.  0.
         23    2    1    2    0    0  0.16293847417E+03  0.11644766667E+03 -0.43443035473E+03  0.48693539247E+03  0.90924902463E+02 0.  0.
         13    1    3    3    0    0  0.13716068633E+03 -0.59693458501E+02  0.10909976462E+03  0.18514621655E+03  0.00000000000E+00 0. -1.
        -14    1    3    3    0    0  0.16313585363E+02 -0.56287489440E+02  0.30883721433E+02  0.66243632029E+02  0.00000000000E+00 0.  1.
        -13    1    4    4    0    0  0.68255024136E+02  0.14149958790E+01 -0.17377539923E+03  0.18670468636E+03  0.00000000000E+00 0. -1.
         13    1    4    4    0    0  0.94683450030E+02  0.11503267079E+03 -0.26065495551E+03  0.30023070611E+03  0.00000000000E+00 0.  1.
          2    1    1    2  501    0 -0.31641274586E+03 -0.46671872828E+00  0.14938122792E+03  0.34990283626E+03  0.00000000000E+00 0. -1.
<scales pt_clust_5="13000.00000" pt_clust_6="13000.00000" pt_clust_7="13000.00000" pt_clust_8="13000.00000" pt_clust_9="206.47730"></scales>
<clustering>
<clus scale="   81.213">  5  6 -1 -1</clus>
<clus scale="   90.925">  7  8 -1 -1</clus>
<clus scale="  208.810">  1  5  2 -1</clus>
<clus scale="  206.477">  2  9  1 -1</clus>
<clus scale="  206.477">  2  5  1 -1</clus>
</clustering>
</event>
<event>
 9    1  0.6345107E-005  0.2019421E+03  0.7546771E-02  0.1178596E+00
         -2   -1    0    0    0  501 -0.00000000000E+00  0.00000000000E+00  0.20933046799E+03  0.20933046799E+03  0.00000000000E+00 0.  1.
         21   -1    0    0  501  502  0.00000000000E+00 -0.00000000000E+00 -0.72895826682E+03  0.72895826682E+03  0.00000000000E+00 0.  1.
        -24    2    1    2    0    0 -0.60348025417E+02  0.76919232489E+01  0.15070276217E+02  0.10085299469E+03  0.79013691579E+02 0.  0.
         23    2    1    2    0    0 -0.17336411084E+03 -0.64845297840E+01 -0.56840954290E+03  0.60130170298E+03  0.91526856660E+02 0.  0.
         11    1    3    3    0    0 -0.35985923476E+02  0.41955715533E+02 -0.23980921420E+01  0.55326481907E+02  0.00000000000E+00 0. -1.
        -12    1    3    3    0    0 -0.24362101941E+02 -0.34263792284E+02  0.17468368359E+02  0.45526512779E+02  0.00000000000E+00 0.  1.
        -13    1    4    4    0    0 -0.16128018230E+03  0.20664693433E+02 -0.51648353436E+03  0.54147351553E+03  0.00000000000E+00 0.  1.
         13    1    4    4    0    0 -0.12083928543E+02 -0.27149223217E+02 -0.51926008545E+02  0.59828187451E+02  0.00000000000E+00 0. -1.
         -1    1    1    2    0  502  0.23371213626E+03 -0.12073934649E+01  0.33711467864E+02  0.23613403714E+03  0.00000000000E+00 0.  1.
<scales pt_clust_5="13000.00000" pt_clust_6="13000.00000" pt_clust_7="13000.00000" pt_clust_8="13000.00000" pt_clust_9="180.00961"></scales>
<clustering>
<clus scale="   79.014">  5  6 -1 -1</clus>
<clus scale="   91.527">  7  8 -1 -1</clus>
<clus scale="   99.721">  1  5  2 -1</clus>
<clus scale="  180.010">  2  9  1 -1</clus>
<clus scale="  180.010">  2  5  1 -1</clus>
</clustering>
</event>
<event>
 9    1  0.6345107E-005  0.1471374E+03  0.7546771E-02  0.1207617E+00
          3   -1    0    0  502    0 -0.00000000000E+00  0.00000000000E+00  0.64697135312E+03  0.64697135312E+03  0.00000000000E+00 0. -1.
         21   -1    0    0  501  502  0.00000000000E+00 -0.00000000000E+00 -0.97551194696E+02  0.97551194696E+02  0.00000000000E+00 0.  1.
         23    2    1    2    0    0 -0.39261615108E+02 -0.10325246135E+03  0.24190502890E+03  0.28202917308E+03  0.93914143047E+02 0.  0.
        -24    2    1    2    0    0  0.11142380325E+03  0.89526688129E+01  0.27882882241E+02  0.15869405612E+03  0.10913722608E+03 0.  0.
         11    1    4    4    0    0  0.10618177337E+02  0.41556925682E+02  0.30638649268E+02  0.52711010150E+02  0.00000000000E+00 0. -1.
        -12    1    4    4    0    0  0.10080562591E+03 -0.32604256869E+02 -0.27557670272E+01  0.10598304597E+03  0.00000000000E+00 0.  1.
        -11    1    3    3    0    0 -0.66576852185E+02 -0.55530990039E+02  0.17603184952E+03  0.19622278193E+03  0.00000000000E+00 0.  1.
         11    1    3    3    0    0  0.27315237077E+02 -0.47721471315E+02  0.65873179378E+02  0.85806391152E+02  0.00000000000E+00 0. -1.
          4    1    1    2  501    0 -0.72162188139E+02  0.94299792541E+02  0.27963224728E+03  0.30379931862E+03  0.00000000000E+00 0. -1.
<scales pt_clust_5="13000.00000" pt_clust_6="13000.00000" pt_clust_7="13000.00000" pt_clust_8="13000.00000" pt_clust_9="118.74277"></scales>
<clustering>
<clus scale="   93.914">  7  8 -1 -1</clus>
<clus scale="  109.137">  5  6 -1 -1</clus>
<clus scale="  118.743">  2  9  1 -1</clus>
<clus scale="  136.229">  1  7  2 -1</clus>
<clus scale="  118.743">  2  5  1 -1</clus>
</clustering>
</event>
<event>
 9    1  0.6345107E-005  0.1728937E+03  0.7546771E-02  0.1196779E+00
          1   -1    0    0  502    0 -0.00000000000E+00  0.00000000000E+00  0.59669948581E+03  0.59669948581E+03  0.00000000000E+00 0. -1.
         21   -1    0    0  501  502  0.00000000000E+00 -0.00000000000E+00 -0.11557260259E+03  0.11557260259E+03  0.00000000000E+00 0. -1.
         23    2    1    2    0    0 -0.53324408680E+02 -0.88420589559E+01  0.65541218500E+02  0.12476101987E+03  0.91367314657E+02 0.  0.
        -24    2    1    2    0    0  0.12179374287E+03  0.13872606690E+03  0.38922473405E+03  0.43833733121E+03  0.81025211461E+02 0.  0.
         13    1    4    4    0    0  0.12560169932E+03  0.11084399192E+03  0.36335938066E+03  0.40011525456E+03  0.00000000000E+00 0. -1.
        -14    1    4    4    0    0 -0.38079564451E+01  0.27882074977E+02  0.25865353394E+02  0.38222076651E+02  0.00000000000E+00 0.  1.
        -11    1    3    3    0    0 -0.31167831036E+02  0.89726975256E+01 -0.17594384535E+02  0.36898582080E+02  0.00000000000E+00 0. -1.
         11    1    3    3    0    0 -0.22156577645E+02 -0.17814756482E+02  0.83135603036E+02  0.87862437785E+02  0.00000000000E+00 0.  1.
          2    1    1    2  501    0 -0.68469334193E+02 -0.12988400794E+03  0.26360930668E+02  0.14917373733E+03  0.00000000000E+00 0. -1.
<scales pt_clust_5="13000.00000" pt_clust_6="13000.00000" pt_clust_7="13000.00000" pt_clust_8="13000.00000" pt_clust_9="152.73225"></scales>
<clustering>
<clus scale="   81.025">  5  6 -1 -1</clus>
<clus scale="   91.367">  7  8 -1 -1</clus>
<clus scale="  106.159">  1  7  2 -1</clus>
<clus scale="  152.732">  2  9  1 -1</clus>
<clus scale="  152.732">  2  5  1 -1</clus>
</clustering>
</event>
<event>
 9    1  0.6345107E-005  0.1467731E+03  0.7546771E-02  0.1207068E+00
         21   -1    0    0  501  502  0.00000000000E+00  0.00000000000E+00  0.17218145603E+03  0.17218145603E+03  0.00000000000E+00 0.  1.
          1   -1    0    0  502    0 -0.00000000000E+00 -0.00000000000E+00 -0.19853712532E+03  0.19853712532E+03  0.00000000000E+00 0. -1.
        -24    2    1    2    0    0  0.77252408883E+02 -0.10034346484E+03 -0.68344002600E+02  0.16327857447E+03  0.77150791144E+02 0.  0.
         23    2    1    2    0    0 -0.13114375391E+02  0.10381081874E+03  0.35440035271E+02  0.14287538739E+03  0.90601916606E+02 0.  0.
         13    1    3    3    0    0  0.85501767963E+02 -0.55846029328E+02 -0.38870023544E+02  0.10927126817E+03  0.00000000000E+00 0. -1.
        -14    1    3    3    0    0 -0.82493590799E+01 -0.44497435512E+02 -0.29473979056E+02  0.54007306300E+02  0.00000000000E+00 0.  1.
        -11    1    4    4    0    0 -0.21693646980E+02  0.72178861401E+02  0.64403059415E+02  0.99137058734E+02  0.00000000000E+00 0.  1.
         11    1    4    4    0    0  0.85792715884E+01  0.31631957343E+02 -0.28963024144E+02  0.43738328659E+02  0.00000000000E+00 0. -1.
          2    1    1    2  501    0 -0.64138033492E+02 -0.34673539033E+01  0.65482980387E+01  0.64564619494E+02  0.00000000000E+00 0. -1.
<scales pt_clust_5="13000.00000" pt_clust_6="13000.00000" pt_clust_7="13000.00000" pt_clust_8="13000.00000" pt_clust_9="64.23169"></scales>
<clustering>
<clus scale="   64.232">  1  9  2 -1</clus>
<clus scale="   77.151">  5  6 -1 -1</clus>
<clus scale="   90.602">  7  8 -1 -1</clus>
<clus scale="  138.874">  2  5  1 -1</clus>
<clus scale="   64.232">  1  5  2 -1</clus>
</clustering>
</event>
<event>
 9    1  0.6345107E-005  0.1651013E+03  0.7546771E-02  0.1184318E+00
         21   -1    0    0  501  502  0.00000000000E+00  0.00000000000E+00  0.50853354434E+02  0.50853354434E+02  0.00000000000E+00 0. -1.
          3   -1    0    0  502    0 -0.00000000000E+00 -0.00000000000E+00 -0.64278946476E+03  0.64278946476E+03  0.00000000000E+00 0. -1.
        -24    2    1    2    0    0 -0.15228197210E+03  0.13417915566E+02 -0.33753189420E+03  0.37934891433E+03  0.81289480986E+02 0.  0.
         23    2    1    2    0    0  0.12209973656E+03 -0.95630049081E+01 -0.22792263072E+03  0.27395655190E+03  0.90020386600E+02 0.  0.
         13    1    3    3    0    0 -0.14203780173E+03 -0.96671770747E+01 -0.24428802804E+03  0.28274517162E+03  0.00000000000E+00 0. -1.
        -14    1    3    3    0    0 -0.10244170366E+02  0.23085092641E+02 -0.93243866161E+02  0.96603742709E+02  0.00000000000E+00 0.  1.
        -11    1    4    4    0    0  0.31750944053E+02 -0.41292243259E+02 -0.11256986866E+03  0.12403687812E+03  0.00000000000E+00 0.  1.
         11    1    4    4    0    0  0.90348792506E+02  0.31729238351E+02 -0.11535276206E+03  0.14991967379E+03  0.00000000000E+00 0. -1.
          4    1    1    2  501    0  0.30182235538E+02 -0.38549106579E+01 -0.26481585405E+02  0.40337352960E+02  0.00000000000E+00 0. -1.
<scales pt_clust_5="13000.00000" pt_clust_6="13000.00000" pt_clust_7="13000.00000" pt_clust_8="13000.00000" pt_clust_9="30.42742"></scales>
<clustering>
<clus scale="   30.427">  1  9  2 -1</clus>
<clus scale="   81.289">  5  6 -1 -1</clus>
<clus scale="   90.020">  7  8 -1 -1</clus>
<clus scale="  160.508">  2  5  1 -1</clus>
<clus scale="   30.427">  1  5  2 -1</clus>
</clustering>
</event>
<event>
 9    1  0.6345107E-005  0.1571105E+03  0.7546771E-02  0.1220351E+00
         21   -1    0    0  501  502  0.00000000000E+00  0.00000000000E+00  0.87919823952E+03  0.87919823952E+03  0.00000000000E+00 0. -1.
         -2   -1    0    0    0  501 -0.00000000000E+00 -0.00000000000E+00 -0.45153270166E+02  0.45153270166E+02  0.00000000000E+00 0.  1.
        -24    2    1    2    0    0  0.21930355871E+02 -0.25530279299E+02  0.83659808529E+02  0.11955818903E+03  0.78501346053E+02 0.  0.
         23    2    1    2    0    0  0.72937321621E+02  0.10866478256E+03  0.49133831677E+03  0.51666749869E+03  0.91673741178E+02 0.  0.
         13    1    3    3    0    0  0.41694394562E+02 -0.31276799006E+01  0.14555349950E+02  0.44272600235E+02  0.00000000000E+00 0. -1.
        -14    1    3    3    0    0 -0.19764038690E+02 -0.22402599398E+02  0.69104458579E+02  0.75285588798E+02  0.00000000000E+00 0.  1.
        -11    1    4    4    0    0  0.90168360109E+02  0.67600340432E+02  0.39043831299E+03  0.40637693764E+03  0.00000000000E+00 0. -1.
         11    1    4    4    0    0 -0.17231038488E+02  0.41064442132E+02  0.10090000377E+03  0.11029056105E+03  0.00000000000E+00 0.  1.
         -1    1    1    2    0  502 -0.94867677493E+02 -0.83134503266E+02  0.25904684406E+03  0.28812582197E+03  0.00000000000E+00 0.  1.
<scales pt_clust_5="13000.00000" pt_clust_6="13000.00000" pt_clust_7="13000.00000" pt_clust_8="13000.00000" pt_clust_9="127.59176"></scales>
<clustering>
<clus scale="   78.501">  5  6 -1 -1</clus>
<clus scale="   85.412">  2  5  1 -1</clus>
<clus scale="   91.674">  7  8 -1 -1</clus>
<clus scale="  127.592">  1  9  2 -1</clus>
<clus scale="  127.592">  1  5  2 -1</clus>
</clustering>
</event>
<event>
 9    1  0.6345107E-005  0.3382547E+03  0.7546771E-02  0.1111559E+00
         -4   -1    0    0    0  501 -0.00000000000E+00  0.00000000000E+00  0.19674819300E+03  0.19674819300E+03  0.00000000000E+00 0.  1.
         21   -1    0    0  501  502  0.00000000000E+00 -0.00000000000E+00 -0.78246912706E+03  0.78246912706E+03  0.00000000000E+00 0.  1.
         23    2    1    2    0    0  0.18522568237E+02 -0.50092427176E+02 -0.60816361403E+02  0.12177333307E+03  0.90982295184E+02 0.  0.
        -24    2    1    2    0    0 -0.87069146948E+02  0.34913830297E+03 -0.24939972310E+03  0.44509705611E+03  0.80203344843E+02 0.  0.
         11    1    4    4    0    0  0.83787675552E+01  0.54561343825E+02 -0.62599374320E+02  0.83461521979E+02  0.00000000000E+00 0. -1.
        -12    1    4    4    0    0 -0.95447914504E+02  0.29457695914E+03 -0.18680034878E+03  0.36163553413E+03  0.00000000000E+00 0.  1.
        -13    1    3    3    0    0  0.41948926232E+02 -0.13913184472E+02  0.35174724776E+01  0.44335783818E+02  0.00000000000E+00 0.  1.
         13    1    3    3    0    0 -0.23426357995E+02 -0.36179242704E+02 -0.64333833881E+02  0.77437549247E+02  0.00000000000E+00 0. -1.
         -3    1    1    2    0  502  0.68546578711E+02 -0.29904587579E+03 -0.27550484955E+03  0.41234693088E+03  0.00000000000E+00 0.  1.
<scales pt_clust_5="13000.00000" pt_clust_6="13000.00000" pt_clust_7="13000.00000" pt_clust_8="13000.00000" pt_clust_9="328.60873"></scales>
<clustering>
<clus scale="   80.203">  5  6 -1 -1</clus>
<clus scale="   90.982">  7  8 -1 -1</clus>
<clus scale="  105.499">  1  7  2 -1</clus>
<clus scale="  328.609">  2  9  1 -1</clus>
<clus scale="  328.609">  2  5  1 -1</clus>
</clustering>
</event>
<event>
 9    1  0.6345107E-005  0.1039186E+03  0.7546771E-02  0.1277148E+00
          1   -1    0    0  502    0 -0.00000000000E+00  0.00000000000E+00  0.35132233873E+03  0.35132233873E+03  0.00000000000E+00 0. -1.
         21   -1    0    0  501  502  0.00000000000E+00 -0.00000000000E+00 -0.11563021973E+03  0.11563021973E+03  0.00000000000E+00 0. -1.
        -24    2    1    2    0    0 -0.17424029528E+02 -0.49494743726E+02  0.20088956269E+03  0.22276866540E+03  0.80721344291E+02 0.  0.
         23    2    1    2    0    0 -0.78140949304E+02  0.48497681943E+02  0.63493958543E+02  0.14439984687E+03  0.91442877757E+02 0.  0.
         13    1    3    3    0    0 -0.21258570142E+02 -0.52880925818E+02  0.20705579285E+03  0.21475665408E+03  0.00000000000E+00 0. -1.
        -14    1    3    3    0    0  0.38345406139E+01  0.33861820924E+01 -0.61662301621E+01  0.80120113140E+01  0.00000000000E+00 0.  1.
        -13    1    4    4    0    0 -0.83673811804E+02  0.43082924623E+01  0.51237166986E+02  0.98209548652E+02  0.00000000000E+00 0. -1.
         13    1    4    4    0    0  0.55328624999E+01  0.44189389481E+02  0.12256791557E+02  0.46190298217E+02  0.00000000000E+00 0.  1.
          2    1    1    2  501    0  0.95564978832E+02  0.99706178299E+00 -0.28691402233E+02  0.99784046187E+02  0.00000000000E+00 0. -1.
<scales pt_clust_5="13000.00000" pt_clust_6="13000.00000" pt_clust_7="13000.00000" pt_clust_8="13000.00000" pt_clust_9="95.57018"></scales>
<clustering>
<clus scale="   80.721">  5  6 -1 -1</clus>
<clus scale="   91.443">  7  8 -1 -1</clus>
<clus scale="   95.570">  2  9  1 -1</clus>
<clus scale="   94.621">  1  5  2 -1</clus>
<clus scale="   95.570">  2  5  1 -1</clus>
</clustering>
</event>
<event>
 9    1  0.6345107E-005  0.1010830E+03  0.7546771E-02  0.1278935E+00
         -2   -1    0    0    0  501 -0.00000000000E+00  0.00000000000E+00  0.42436485757E+02  0.42436485757E+02  0.00000000000E+00 0.  1.
         21   -1    0    0  501  502  0.00000000000E+00 -0.00000000000E+00 -0.51551787928E+03  0.51551787928E+03  0.00000000000E+00 0. -1.
        -24    2    1    2    0    0 -0.43519081452E+02 -0.11097210529E+02 -0.50176847482E+02  0.10956934672E+03  0.86433021382E+02 0.  0.
         23    2    1    2    0    0  0.68305736997E+02  0.14301567160E+02 -0.39581210754E+03  0.41152519713E+03  0.88405626865E+02 0.  0.
         13    1    3    3    0    0  0.21481870371E+02  0.95989628289E+01 -0.30598908931E+02  0.38599275509E+02  0.00000000000E+00 0. -1.
        -14    1    3    3    0    0 -0.65000951823E+02 -0.20696173358E+02 -0.19577938551E+02  0.70970071210E+02  0.00000000000E+00 0.  1.
        -13    1    4    4    0    0 -0.15096213960E+02 -0.17434329333E+02 -0.69175612704E+02  0.72918563537E+02  0.00000000000E+00 0.  1.
         13    1    4    4    0    0  0.83401950957E+02  0.31735896493E+02 -0.32663649484E+03  0.33860663359E+03  0.00000000000E+00 0. -1.
         -1    1    1    2    0  502 -0.24786655545E+02 -0.32043566305E+01 -0.27092438495E+02  0.36859821190E+02  0.00000000000E+00 0.  1.
<scales pt_clust_5="13000.00000" pt_clust_6="13000.00000" pt_clust_7="13000.00000" pt_clust_8="13000.00000" pt_clust_9="24.99294"></scales>
<clustering>
<clus scale="   24.993">  2  9  1 -1</clus>
<clus scale="   86.433">  5  6 -1 -1</clus>
<clus scale="   88.406">  7  8 -1 -1</clus>
<clus scale="   99.362">  1  5  2 -1</clus>
<clus scale="   24.993">  2  5  1 -1</clus>
</clustering>
</event>
<event>
 9    1  0.6345107E-005  0.1138700E+03  0.7546771E-02  0.1255081E+00
         -4   -1    0    0    0  501 -0.00000000000E+00  0.00000000000E+00  0.58166840977E+02  0.58166840977E+02  0.00000000000E+00 0.  1.
         21   -1    0    0  501  502  0.00000000000E+00 -0.00000000000E+00 -0.42990298916E+03  0.42990298916E+03  0.00000000000E+00 0.  1.
         23    2    1    2    0    0 -0.86424767634E+02  0.16000281660E+02 -0.43382046192E+02  0.12977619364E+03  0.85056504920E+02 0.  0.
        -24    2    1    2    0    0  0.44662217744E+02 -0.25021525933E+02 -0.17753475594E+03  0.20153915151E+03  0.80490058830E+02 0.  0.
         11    1    4    4    0    0  0.58749488186E+02 -0.27021290329E+02 -0.79507281176E+02  0.10248443908E+03  0.00000000000E+00 0. -1.
        -12    1    4    4    0    0 -0.14087270442E+02  0.19997643958E+01 -0.98027474764E+02  0.99054712431E+02  0.00000000000E+00 0.  1.
        -11    1    3    3    0    0 -0.50356320209E+02  0.50008855886E+02 -0.36253579005E+02  0.79692952278E+02  0.00000000000E+00 0.  1.
         11    1    3    3    0    0 -0.36068447425E+02 -0.34008574226E+02 -0.71284671862E+01  0.50083241358E+02  0.00000000000E+00 0. -1.
         -3    1    1    2    0  502  0.41762549890E+02  0.90212442728E+01 -0.15081934606E+03  0.15675448500E+03  0.00000000000E+00 0.  1.
<scales pt_clust_5="13000.00000" pt_clust_6="13000.00000" pt_clust_7="13000.00000" pt_clust_8="13000.00000" pt_clust_9="42.72579"></scales>
<clustering>
<clus scale="   42.726">  2  9  1 -1</clus>
<clus scale="   80.490">  5  6 -1 -1</clus>
<clus scale="   85.057">  7  8 -1 -1</clus>
<clus scale="  110.501">  2  5  1 -1</clus>
<clus scale="   42.726">  2  5  1 -1</clus>
</clustering>
</event>
<event>
 9    1  0.6345107E-005  0.9723148E+02  0.7546771E-02  0.1305707E+00
          1   -1    0    0  502    0 -0.00000000000E+00  0.00000000000E+00  0.24336875971E+03  0.24336875971E+03  0.00000000000E+00 0. -1.
         21   -1    0    0  501  502  0.00000000000E+00 -0.00000000000E+00 -0.47768680071E+02  0.47768680071E+02  0.00000000000E+00 0.  1.
        -24    2    1    2    0    0 -0.26006638100E+02  0.28064255145E+02  0.10633229441E+03  0.12746906526E+03  0.58973367901E+02 0.  0.
         23    2    1    2    0    0  0.29370206763E+02  0.53906415294E+01  0.40158082345E+02  0.10415109448E+03  0.91340630846E+02 0.  0.
         13    1    3    3    0    0 -0.30075034683E+02 -0.94352363341E+01  0.59521824653E+02  0.67352646614E+02  0.00000000000E+00 0. -1.
        -14    1    3    3    0    0  0.40683965835E+01  0.37499491479E+02  0.46810469756E+02  0.60116418645E+02  0.00000000000E+00 0.  1.
        -13    1    4    4    0    0 -0.31435598835E+02 -0.89147447526E+01  0.20884945910E+02  0.38779511521E+02  0.00000000000E+00 0.  1.
         13    1    4    4    0    0  0.60805805598E+02  0.14305386282E+02  0.19273136435E+02  0.65371582964E+02  0.00000000000E+00 0. -1.
          2    1    1    2  501    0 -0.33635686631E+01 -0.33454896674E+02  0.49109702883E+02  0.59517280036E+02  0.00000000000E+00 0. -1.
<scales pt_clust_5="13000.00000" pt_clust_6="13000.00000" pt_clust_7="13000.00000" pt_clust_8="13000.00000" pt_clust_9="33.62358"></scales>
<clustering>
<clus scale="   33.624">  2  9  1 -1</clus>
<clus scale="   58.973">  5  6 -1 -1</clus>
<clus scale="   67.740">  1  5  2 -1</clus>
<clus scale="   91.341">  7  8 -1 -1</clus>
<clus scale="   33.624">  2  5  1 -1</clus>
</clustering>
</event>
<event>
 9    1  0.6345107E-005  0.1908761E+03  0.7546771E-02  0.1158637E+00
          1   -1    0    0  502    0 -0.00000000000E+00  0.00000000000E+00  0.13239385430E+04  0.13239385430E+04  0.00000000000E+00 0. -1.
         21   -1    0    0  501  502  0.00000000000E+00 -0.00000000000E+00 -0.69362926022E+02  0.69362926022E+02  0.00000000000E+00 0.  1.
        -24    2    1    2    0    0  0.14697079464E+03 -0.64907866683E+02  0.90862158645E+03  0.92628295579E+03  0.81200253595E+02 0.  0.
         23    2    1    2    0    0 -0.15523067599E+03  0.14567883566E+03  0.27332334756E+03  0.35808095691E+03  0.90539678910E+02 0.  0.
         13    1    3    3    0    0  0.20848625837E+02 -0.32750632258E+02  0.10034174848E+03  0.10759059253E+03  0.00000000000E+00 0. -1.
        -14    1    3    3    0    0  0.12612216881E+03 -0.32157234425E+02  0.80827983797E+03  0.81869236326E+03  0.00000000000E+00 0.  1.
        -11    1    4    4    0    0 -0.96700010351E+02  0.60738706849E+02  0.20403506724E+03  0.23381700361E+03  0.00000000000E+00 0. -1.
         11    1    4    4    0    0 -0.58530665638E+02  0.84940128808E+02  0.69288280316E+02  0.12426395331E+03  0.00000000000E+00 0.  1.
          2    1    1    2  501    0  0.82598813443E+01 -0.80770968974E+02  0.72630682972E+02  0.10893755632E+03  0.00000000000E+00 0. -1.
<scales pt_clust_5="13000.00000" pt_clust_6="13000.00000" pt_clust_7="13000.00000" pt_clust_8="13000.00000" pt_clust_9="81.19221"></scales>
<clustering>
<clus scale="   81.192">  2  9  1 -1</clus>
<clus scale="   81.200">  5  6 -1 -1</clus>
<clus scale="   90.540">  7  8 -1 -1</clus>
<clus scale="  186.627">  1  5  2 -1</clus>
<clus scale="   81.192">  2  5  1 -1</clus>
</clustering>
</event>
<event>
 9    1  0.6345107E-005  0.1295580E+03  0.7546771E-02  0.1230476E+00
          1   -1    0    0  502    0 -0.00000000000E+00  0.00000000000E+00  0.29368362831E+03  0.29368362831E+03  0.00000000000E+00 0. -1.
         21   -1    0    0  501  502  0.00000000000E+00 -0.00000000000E+00 -0.11723278978E+03  0.11723278978E+03  0.00000000000E+00 0.  1.
        -24    2    1    2    0    0 -0.85080045708E+02 -0.58666449914E+02  0.18977740469E+03  0.23099217678E+03  0.81618355047E+02 0.  0.
         23    2    1    2    0    0  0.25055734299E+02  0.54163123036E+02 -0.37789972179E+02  0.11494996835E+03  0.90686159403E+02 0.  0.
         11    1    3    3    0    0 -0.25567068614E+02 -0.66842286875E+02  0.99944248498E+02  0.12292444476E+03  0.00000000000E+00 0. -1.
        -12    1    3    3    0    0 -0.59512977094E+02  0.81758369611E+01  0.89833156188E+02  0.10806773202E+03  0.00000000000E+00 0.  1.
        -13    1    4    4    0    0 -0.13014323787E+02  0.42981515442E+02  0.16380173272E+02  0.47802650238E+02  0.00000000000E+00 0. -1.
         13    1    4    4    0    0  0.38070058086E+02  0.11181607594E+02 -0.54170145451E+02  0.67147318109E+02  0.00000000000E+00 0.  1.
          2    1    1    2  501    0  0.60024311409E+02  0.45033268780E+01  0.24463406017E+02  0.64974272963E+02  0.00000000000E+00 0. -1.
<scales pt_clust_5="13000.00000" pt_clust_6="13000.00000" pt_clust_7="13000.00000" pt_clust_8="13000.00000" pt_clust_9="60.19301"></scales>
<clustering>
<clus scale="   60.193">  2  9  1 -1</clus>
<clus scale="   81.618">  5  6 -1 -1</clus>
<clus scale="   90.686">  7  8 -1 -1</clus>
<clus scale="  123.381">  1  5  2 -1</clus>
<clus scale="   60.193">  2  5  1 -1</clus>
</clustering>
</event>
<event>
 9    1  0.6345107E-005  0.1106611E+03  0.7546771E-02  0.1263470E+00
         21   -1    0    0  501  502  0.00000000000E+00  0.00000000000E+00  0.89528203234E+02  0.89528203234E+02  0.00000000000E+00 0.  1.
          1   -1    0    0  502    0 -0.00000000000E+00 -0.00000000000E+00 -0.27650350950E+03  0.27650350950E+03  0.00000000000E+00 0. -1.
        -24    2    1    2    0    0 -0.58227362189E+02 -0.15446573556E+01 -0.11823880044E+03  0.15416294775E+03  0.79956168340E+02 0.  0.
         23    2    1    2    0    0  0.66560782712E+02 -0.66400478409E+02 -0.56595254622E+02  0.14234612585E+03  0.90664410716E+02 0.  0.
         11    1    3    3    0    0 -0.40872457060E+02 -0.36787524985E+02 -0.91120961536E+02  0.10642795390E+03  0.00000000000E+00 0. -1.
        -12    1    3    3    0    0 -0.17354905128E+02  0.35242867629E+02 -0.27117838903E+02  0.47734993847E+02  0.00000000000E+00 0.  1.
        -11    1    4    4    0    0  0.16234197340E+02 -0.12959536960E+02  0.25056719571E+02  0.32547472362E+02  0.00000000000E+00 0.  1.
         11    1    4    4    0    0  0.50326585372E+02 -0.53440941449E+02 -0.81651974193E+02  0.10979865349E+03  0.00000000000E+00 0. -1.
          2    1    1    2  501    0 -0.83334205234E+01  0.67945135765E+02 -0.12141251207E+02  0.69522639137E+02  0.00000000000E+00 0. -1.
<scales pt_clust_5="13000.00000" pt_clust_6="13000.00000" pt_clust_7="13000.00000" pt_clust_8="13000.00000" pt_clust_9="68.45427"></scales>
<clustering>
<clus scale="   68.454">  1  9  2 -1</clus>
<clus scale="   79.956">  5  6 -1 -1</clus>
<clus scale="   90.664">  7  8 -1 -1</clus>
<clus scale="  102.073">  2  5  1 -1</clus>
<clus scale="   68.454">  1  5  2 -1</clus>
</clustering>
</event>
<event>
 9    1  0.6345107E-005  0.1503714E+03  0.7546771E-02  0.1200157E+00
          1   -1    0    0  502    0 -0.00000000000E+00  0.00000000000E+00  0.13600618526E+04  0.13600618526E+04  0.00000000000E+00 0. -1.
         21   -1    0    0  501  502  0.00000000000E+00 -0.00000000000E+00 -0.39624241414E+02  0.39624241414E+02  0.00000000000E+00 0. -1.
        -24    2    1    2    0    0  0.67245998709E+02 -0.10280462352E+03  0.10394043156E+04  0.10506300421E+04  0.91495022219E+02 0.  0.
         23    2    1    2    0    0 -0.80926062795E+02  0.65269521731E+02  0.11916226652E+03  0.18232795570E+03  0.90745245395E+02 0.  0.
         11    1    3    3    0    0  0.82512278741E+02 -0.68049957142E+02  0.58923039036E+03  0.59885851896E+03  0.00000000000E+00 0. -1.
        -12    1    3    3    0    0 -0.15266280032E+02 -0.34754666376E+02  0.45017392529E+03  0.45177152317E+03  0.00000000000E+00 0.  1.
        -13    1    4    4    0    0  0.33315340327E+01  0.21641045030E+02 -0.83094999978E+01  0.23419687001E+02  0.00000000000E+00 0.  1.
         13    1    4    4    0    0 -0.84257596827E+02  0.43628476701E+02  0.12747176652E+03  0.15890826870E+03  0.00000000000E+00 0. -1.
          2    1    1    2  501    0  0.13680064085E+02  0.37535101787E+02  0.16187102902E+03  0.16672809618E+03  0.00000000000E+00 0. -1.
<scales pt_clust_5="13000.00000" pt_clust_6="13000.00000" pt_clust_7="13000.00000" pt_clust_8="13000.00000" pt_clust_9="39.95034"></scales>
<clustering>
<clus scale="   39.950">  2  9  1 -1</clus>
<clus scale="   90.745">  7  8 -1 -1</clus>
<clus scale="   91.495">  5  6 -1 -1</clus>
<clus scale="  149.916">  2  7  1 -1</clus>
<clus scale="   39.950">  2  5  1 -1</clus>
</clustering>
</event>
<event>
 9    1  0.6345107E-005  0.1127267E+03  0.7546771E-02  0.1259091E+00
          1   -1    0    0  502    0 -0.00000000000E+00  0.00000000000E+00  0.10041419621E+04  0.10041419621E+04  0.00000000000E+00 0. -1.
         21   -1    0    0  501  502  0.00000000000E+00 -0.00000000000E+00 -0.28377576852E+02  0.28377576852E+02  0.00000000000E+00 0.  1.
        -24    2    1    2    0    0 -0.63363556162E+02  0.51355969414E+02  0.64806762951E+03  0.65823596505E+03  0.81428234824E+02 0.  0.
         23    2    1    2    0    0 -0.48349941630E+01 -0.28814389934E+02  0.11330859454E+03  0.14818304597E+03  0.90916067217E+02 0.  0.
         11    1    3    3    0    0 -0.58960807485E+02 -0.43191566071E+01  0.35628070865E+03  0.36115228823E+03  0.00000000000E+00 0. -1.
        -12    1    3    3    0    0 -0.44027486769E+01  0.55675126021E+02  0.29178692086E+03  0.29708367682E+03  0.00000000000E+00 0.  1.
        -11    1    4    4    0    0 -0.24004441083E+02  0.18149430904E+02  0.84830779340E+02  0.90010422492E+02  0.00000000000E+00 0.  1.
         11    1    4    4    0    0  0.19169446920E+02 -0.46963820838E+02  0.28477815205E+02  0.58172623473E+02  0.00000000000E+00 0. -1.
          2    1    1    2  501    0  0.68198550325E+02 -0.22541579480E+02  0.21438816118E+03  0.22610052792E+03  0.00000000000E+00 0. -1.
<scales pt_clust_5="13000.00000" pt_clust_6="13000.00000" pt_clust_7="13000.00000" pt_clust_8="13000.00000" pt_clust_9="71.82736"></scales>
<clustering>
<clus scale="   71.827">  2  9  1 -1</clus>
<clus scale="   81.428">  5  6 -1 -1</clus>
<clus scale="   90.916">  7  8 -1 -1</clus>
<clus scale="  105.224">  1  5  2 -1</clus>
<clus scale="   71.827">  2  5  1 -1</clus>
</clustering>
</event>
<event>
 9    1  0.6345107E-005  0.1103932E+03  0.7546771E-02  0.1274885E+00
          1   -1    0    0  502    0 -0.00000000000E+00  0.00000000000E+00  0.39838175862E+03  0.39838175862E+03  0.00000000000E+00 0. -1.
         21   -1    0    0  501  502  0.00000000000E+00 -0.00000000000E+00 -0.11172208494E+03  0.11172208494E+03  0.00000000000E+00 0. -1.
        -24    2    1    2    0    0  0.34448121484E+02 -0.96636941299E+01  0.33939997413E+03  0.34944720731E+03  0.75106246069E+02 0.  0.
         23    2    1    2    0    0 -0.16406185107E+02 -0.88717904291E+01 -0.55326681220E+01  0.10682693993E+03  0.10504053076E+03 0.  0.
         11    1    3    3    0    0  0.25059231688E+02 -0.38827045136E+02  0.26478268337E+03  0.26878499575E+03  0.00000000000E+00 0. -1.
        -12    1    3    3    0    0  0.93888897959E+01  0.29163351006E+02  0.74617290762E+02  0.80662211562E+02  0.00000000000E+00 0.  1.
        -11    1    4    4    0    0 -0.93493858660E+01  0.43604152302E+02  0.18996682288E+02  0.48472745456E+02  0.00000000000E+00 0.  1.
         11    1    4    4    0    0 -0.70567992412E+01 -0.52475942732E+02 -0.24529350410E+02  0.58354194473E+02  0.00000000000E+00 0. -1.
          2    1    1    2  501    0 -0.18041936377E+02  0.18535484559E+02 -0.47207632333E+02  0.53829696326E+02  0.00000000000E+00 0. -1.
<scales pt_clust_5="13000.00000" pt_clust_6="13000.00000" pt_clust_7="13000.00000" pt_clust_8="13000.00000" pt_clust_9="25.86650"></scales>
<clustering>
<clus scale="   25.866">  2  9  1 -1</clus>
<clus scale="   75.106">  5  6 -1 -1</clus>
<clus scale="   82.426">  1  5  2 -1</clus>
<clus scale="  105.041">  7  8 -1 -1</clus>
<clus scale="   25.866">  2  5  1 -1</clus>
</clustering>
</event>
<event>
 9    1  0.6345107E-005  0.1332275E+03  0.7546771E-02  0.1225850E+00
         -4   -1    0    0    0  501 -0.00000000000E+00  0.00000000000E+00  0.47759600898E+02  0.47759600898E+02  0.00000000000E+00 0.  1.
         21   -1    0    0  501  502  0.00000000000E+00 -0.00000000000E+00 -0.61723791331E+03  0.61723791331E+03  0.00000000000E+00 0.  1.
         23    2    1    2    0    0 -0.63442032700E+02  0.29198291519E+02 -0.20221741664E+03  0.23234516554E+03  0.90636419923E+02 0.  0.
        -24    2    1    2    0    0  0.11735459440E+03 -0.70994753462E+02 -0.28558447678E+03  0.32623549869E+03  0.77837981598E+02 0.  0.
         13    1    4    4    0    0  0.86965702511E+02 -0.78056516246E+02 -0.16843551503E+03  0.20500335574E+03  0.00000000000E+00 0. -1.
        -14    1    4    4    0    0  0.30388891893E+02  0.70617627834E+01 -0.11714896176E+03  0.12123214295E+03  0.00000000000E+00 0.  1.
        -13    1    3    3    0    0 -0.31195688277E+02 -0.91425290202E+01 -0.16931724273E+03  0.17240964442E+03  0.00000000000E+00 0.  1.
         13    1    3    3    0    0 -0.32246344422E+02  0.38340820539E+02 -0.32900173906E+02  0.59935521114E+02  0.00000000000E+00 0. -1.
         -3    1    1    2    0  502 -0.53912561705E+02  0.41796461944E+02 -0.81676418992E+02  0.10641684998E+03  0.00000000000E+00 0.  1.
<scales pt_clust_5="13000.00000" pt_clust_6="13000.00000" pt_clust_7="13000.00000" pt_clust_8="13000.00000" pt_clust_9="68.21666"></scales>
<clustering>
<clus scale="   68.217">  2  9  1 -1</clus>
<clus scale="   77.838">  5  6 -1 -1</clus>
<clus scale="   90.636">  7  8 -1 -1</clus>
<clus scale="  124.873">  2  5  1 -1</clus>
<clus scale="   68.217">  2  5  1 -1</clus>
</clustering>
</event>
<event>
 9    1  0.6345107E-005  0.9137811E+02  0.7546771E-02  0.1304435E+00
          1   -1    0    0  502    0 -0.00000000000E+00  0.00000000000E+00  0.80941722301E+02  0.80941722301E+02  0.00000000000E+00 0. -1.
         21   -1    0    0  501  502  0.00000000000E+00 -0.00000000000E+00 -0.37327343444E+03  0.37327343444E+03  0.00000000000E+00 0. -1.
        -24    2    1    2    0    0 -0.82820550287E+01  0.13815660462E+02  0.66355409009E+01  0.82885049346E+02  0.81033549179E+02 0.  0.
         23    2    1    2    0    0  0.69864746158E+02 -0.94583257265E+01 -0.28669040078E+03  0.30838461261E+03  0.89101855828E+02 0.  0.
         11    1    3    3    0    0 -0.27366196204E+02  0.77484842457E+01 -0.29871570637E+02  0.41246314200E+02  0.00000000000E+00 0. -1.
        -12    1    3    3    0    0  0.19084141175E+02  0.60671762159E+01  0.36507111538E+02  0.41638735145E+02  0.00000000000E+00 0.  1.
        -13    1    4    4    0    0 -0.10088790515E+01 -0.35688202321E+02 -0.12327823255E+03  0.12834402301E+03  0.00000000000E+00 0.  1.
         13    1    4    4    0    0  0.70873625209E+02  0.26229876595E+02 -0.16341216823E+03  0.18004058960E+03  0.00000000000E+00 0. -1.
          2    1    1    2  501    0 -0.61582691129E+02 -0.43573347352E+01 -0.12276852257E+02  0.62945494787E+02  0.00000000000E+00 0. -1.
<scales pt_clust_5="13000.00000" pt_clust_6="13000.00000" pt_clust_7="13000.00000" pt_clust_8="13000.00000" pt_clust_9="61.73668"></scales>
<clustering>
<clus scale="   61.737">  2  9  1 -1</clus>
<clus scale="   81.034">  5  6 -1 -1</clus>
<clus scale="   83.530">  1  5  2 -1</clus>
<clus scale="   89.102">  7  8 -1 -1</clus>
<clus scale="   61.737">  2  5  1 -1</clus>
</clustering>
</event>
<event>
 9    1  0.6345107E-005  0.9622009E+02  0.7546771E-02  0.1294616E+00
         21   -1    0    0  501  502  0.00000000000E+00  0.00000000000E+00  0.12267218511E+03  0.12267218511E+03  0.00000000000E+00 0.  1.
          3   -1    0    0  502    0 -0.00000000000E+00 -0.00000000000E+00 -0.10642347917E+03  0.10642347917E+03  0.00000000000E+00 0. -1.
         23    2    1    2    0    0  0.21216577259E+02  0.13624385272E+02 -0.12487832465E+02  0.94855735438E+02  0.90586409363E+02 0.  0.
        -24    2    1    2    0    0 -0.35886240609E+02 -0.28935446420E+02  0.49731917142E+02  0.10439979572E+03  0.79378658584E+02 0.  0.
         11    1    4    4    0    0  0.54967589268E+01  0.23845760586E+02  0.99323623892E+01  0.26409969316E+02  0.00000000000E+00 0. -1.
        -12    1    4    4    0    0 -0.41382999536E+02 -0.52781207006E+02  0.39799554752E+02  0.77989826401E+02  0.00000000000E+00 0.  1.
        -11    1    3    3    0    0  0.24185374422E+02 -0.36444355280E+02 -0.32914710212E+01  0.43862935939E+02  0.00000000000E+00 0.  1.
         11    1    3    3    0    0 -0.29687971631E+01  0.50068740552E+02 -0.91963614434E+01  0.50992799500E+02  0.00000000000E+00 0. -1.
          4    1    1    2  501    0  0.14669663350E+02  0.15311061149E+02 -0.20995378745E+02  0.29840133126E+02  0.00000000000E+00 0. -1.
<scales pt_clust_5="13000.00000" pt_clust_6="13000.00000" pt_clust_7="13000.00000" pt_clust_8="13000.00000" pt_clust_9="21.20444"></scales>
<clustering>
<clus scale="   21.204">  1  9  2 -1</clus>
<clus scale="   79.379">  5  6 -1 -1</clus>
<clus scale="   85.752">  1  5  2 -1</clus>
<clus scale="   90.586">  7  8 -1 -1</clus>
<clus scale="   21.204">  1  5  2 -1</clus>
</clustering>
</event>
<event>
 9    1  0.6345107E-005  0.2904204E+03  0.7546771E-02  0.1135444E+00
          1   -1    0    0  502    0 -0.00000000000E+00  0.00000000000E+00  0.19010706786E+03  0.19010706786E+03  0.00000000000E+00 0. -1.
         21   -1    0    0  501  502  0.00000000000E+00 -0.00000000000E+00 -0.15859310227E+04  0.15859310227E+04  0.00000000000E+00 0. -1.
         23    2    1    2    0    0  0.44414792747E+02  0.29152566939E+01 -0.63356456056E+02  0.11175980311E+03  0.80591814289E+02 0.  0.
        -24    2    1    2    0    0 -0.12880963761E+03 -0.26733301270E+03 -0.44339238570E+01  0.30754971634E+03  0.80674072145E+02 0.  0.
         13    1    4    4    0    0 -0.54069544205E+02 -0.18367015505E+03  0.20712802225E+02  0.19258053288E+03  0.00000000000E+00 0. -1.
        -14    1    4    4    0    0 -0.74740093408E+02 -0.83662857649E+02 -0.25146726082E+02  0.11496918346E+03  0.00000000000E+00 0.  1.
        -13    1    3    3    0    0  0.65969641096E+02  0.14539246979E+02 -0.45359840987E+02  0.81368903295E+02  0.00000000000E+00 0. -1.
         13    1    3    3    0    0 -0.21554848349E+02 -0.11623990285E+02 -0.17996615069E+02  0.30390899813E+02  0.00000000000E+00 0.  1.
          2    1    1    2  501    0  0.84394844867E+02  0.26441775601E+03 -0.13280335749E+04  0.13567285711E+04  0.00000000000E+00 0. -1.
<scales pt_clust_5="13000.00000" pt_clust_6="13000.00000" pt_clust_7="13000.00000" pt_clust_8="13000.00000" pt_clust_9="278.99050"></scales>
<clustering>
<clus scale="   80.592">  7  8 -1 -1</clus>
<clus scale="   80.674">  5  6 -1 -1</clus>
<clus scale="   92.066">  1  7  2 -1</clus>
<clus scale="  278.991">  2  9  1 -1</clus>
<clus scale="  278.991">  2  5  1 -1</clus>
</clustering>
</event>
<event>
 9    1  0.6345107E-005  0.2139731E+03  0.7546771E-02  0.1163731E+00
          1   -1    0    0  502    0 -0.00000000000E+00  0.00000000000E+00  0.78449489075E+03  0.78449489075E+03  0.00000000000E+00 0. -1.
         21   -1    0    0  501  502  0.00000000000E+00 -0.00000000000E+00 -0.10922360884E+03  0.10922360884E+03  0.00000000000E+00 0. -1.
         23    2    1    2    0    0 -0.59153049983E+02 -0.39951456597E+02  0.19026943394E+03  0.22372960502E+03  0.93580320935E+02 0.  0.
        -24    2    1    2    0    0  0.18528330583E+03 -0.99451163264E+02  0.10526401938E+03  0.24626404243E+03  0.73109695125E+02 0.  0.
         11    1    4    4    0    0  0.10042418224E+03 -0.80894272008E+02  0.32588982132E+02  0.13300729821E+03  0.00000000000E+00 0. -1.
        -12    1    4    4    0    0  0.84859123596E+02 -0.18556891256E+02  0.72675037251E+02  0.11325674421E+03  0.00000000000E+00 0.  1.
        -11    1    3    3    0    0  0.96119623730E+01 -0.33714361772E+02  0.12079499674E+03  0.12577948660E+03  0.00000000000E+00 0. -1.
         11    1    3    3    0    0 -0.68765012356E+02 -0.62370948247E+01  0.69474437194E+02  0.97950118425E+02  0.00000000000E+00 0.  1.
          2    1    1    2  501    0 -0.12613025585E+03  0.13940261986E+03  0.37973782859E+03  0.42372485215E+03  0.00000000000E+00 0. -1.
<scales pt_clust_5="13000.00000" pt_clust_6="13000.00000" pt_clust_7="13000.00000" pt_clust_8="13000.00000" pt_clust_9="201.09570"></scales>
<clustering>
<clus scale="   73.110">  5  6 -1 -1</clus>
<clus scale="   93.580">  7  8 -1 -1</clus>
<clus scale="  117.697">  1  7  2 -1</clus>
<clus scale="  201.096">  2  9  1 -1</clus>
<clus scale="  201.096">  2  5  1 -1</clus>
</clustering>
</event>
<event>
 9    1  0.6345107E-005  0.1111449E+03  0.7546771E-02  0.1274903E+00
         21   -1    0    0  501  502  0.00000000000E+00  0.00000000000E+00  0.44898717056E+02  0.44898717056E+02  0.00000000000E+00 0. -1.
          1   -1    0    0  502    0 -0.00000000000E+00 -0.00000000000E+00 -0.36832282331E+03  0.36832282331E+03  0.00000000000E+00 0. -1.
        -24    2    1    2    0    0 -0.39250345054E+02 -0.62203558040E+02 -0.11502771873E+03  0.14813225961E+03  0.57462318440E+02 0.  0.
         23    2    1    2    0    0  0.10671828835E+02  0.30139438824E+02 -0.76962605847E+02  0.12681535590E+03  0.95585658389E+02 0.  0.
         11    1    3    3    0    0  0.45130385663E+01 -0.43286643394E+02 -0.39262501702E+02  0.58614375825E+02  0.00000000000E+00 0. -1.
        -12    1    3    3    0    0 -0.43763383620E+02 -0.18916914646E+02 -0.75765217028E+02  0.89517883783E+02  0.00000000000E+00 0.  1.
        -11    1    4    4    0    0  0.33100744097E+02 -0.24812104379E+02 -0.29280114473E+02  0.50681603043E+02  0.00000000000E+00 0.  1.
         11    1    4    4    0    0 -0.22428915262E+02  0.54951543203E+02 -0.47682491375E+02  0.76133752856E+02  0.00000000000E+00 0. -1.
          2    1    1    2  501    0  0.28578516219E+02  0.32064119216E+02 -0.13143378168E+03  0.13827392486E+03  0.00000000000E+00 0. -1.
<scales pt_clust_5="13000.00000" pt_clust_6="13000.00000" pt_clust_7="13000.00000" pt_clust_8="13000.00000" pt_clust_9="42.95161"></scales>
<clustering>
<clus scale="   42.952">  1  9  2 -1</clus>
<clus scale="   57.462">  5  6 -1 -1</clus>
<clus scale="   80.737">  2  5  1 -1</clus>
<clus scale="   95.586">  7  8 -1 -1</clus>
<clus scale="   42.952">  1  5  2 -1</clus>
</clustering>
</event>
<event>
 9    1  0.6345107E-005  0.1532841E+03  0.7546771E-02  0.1223527E+00
          1   -1    0    0  502    0 -0.00000000000E+00  0.00000000000E+00  0.73932540959E+03  0.73932540959E+03  0.00000000000E+00 0. -1.
         21   -1    0    0  501  502  0.00000000000E+00 -0.00000000000E+00 -0.12533792053E+03  0.12533792053E+03  0.00000000000E+00 0. -1.
        -24    2    1    2    0    0 -0.11625923588E+02  0.18630567938E+02 -0.79790653297E+02  0.11735461807E+03  0.83206357131E+02 0.  0.
         23    2    1    2    0    0  0.97631551567E+02 -0.93663840339E+02  0.38077404070E+03  0.41414429670E+03  0.90674106365E+02 0.  0.
         11    1    3    3    0    0  0.27456642346E+02  0.33443737892E+02 -0.49441368983E+02  0.65702357492E+02  0.00000000000E+00 0. -1.
        -12    1    3    3    0    0 -0.39082565934E+02 -0.14813169954E+02 -0.30349284314E+02  0.51652260574E+02  0.00000000000E+00 0.  1.
        -11    1    4    4    0    0  0.54129629414E+02 -0.10461016237E+03  0.26574417844E+03  0.29067726300E+03  0.00000000000E+00 0. -1.
         11    1    4    4    0    0  0.43501922153E+02  0.10946322033E+02  0.11502986226E+03  0.12346703369E+03  0.00000000000E+00 0.  1.
          2    1    1    2  501    0 -0.86005627980E+02  0.75033272401E+02  0.31300410166E+03  0.33316441536E+03  0.00000000000E+00 0. -1.
<scales pt_clust_5="13000.00000" pt_clust_6="13000.00000" pt_clust_7="13000.00000" pt_clust_8="13000.00000" pt_clust_9="123.58899"></scales>
<clustering>
<clus scale="   83.206">  5  6 -1 -1</clus>
<clus scale="   86.056">  1  5  2 -1</clus>
<clus scale="   90.674">  7  8 -1 -1</clus>
<clus scale="  123.589">  2  9  1 -1</clus>
<clus scale="  123.589">  2  5  1 -1</clus>
</clustering>
</event>
<event>
 9    1  0.6345107E-005  0.9429292E+02  0.7546771E-02  0.1299676E+00
         21   -1    0    0  501  502  0.00000000000E+00  0.00000000000E+00  0.44855579803E+03  0.44855579803E+03  0.00000000000E+00 0.  1.
         -4   -1    0    0    0  501 -0.00000000000E+00 -0.00000000000E+00 -0.51899216839E+02  0.51899216839E+02  0.00000000000E+00 0.  1.
         23    2    1    2    0    0 -0.12977760500E+02  0.19236144425E+02  0.25086480213E+02  0.97952228965E+02  0.91797909289E+02 0.  0.
        -24    2    1    2    0    0  0.39404023632E+02  0.23123221822E+02  0.15598824585E+03  0.18121519124E+03  0.80120236062E+02 0.  0.
         13    1    4    4    0    0  0.14982217647E+02  0.40469226912E+02  0.14151206004E+03  0.14794555860E+03  0.00000000000E+00 0. -1.
        -14    1    4    4    0    0  0.24421805985E+02 -0.17346005090E+02  0.14476185802E+02  0.33269632633E+02  0.00000000000E+00 0.  1.
        -11    1    3    3    0    0 -0.49272561908E+02 -0.59301614961E+01  0.19951668321E+02  0.53488515039E+02  0.00000000000E+00 0.  1.
         11    1    3    3    0    0  0.36294801407E+02  0.25166305921E+02  0.51348118922E+01  0.44463713926E+02  0.00000000000E+00 0. -1.
         -3    1    1    2    0  502 -0.26426263131E+02 -0.42359366247E+02  0.21558185513E+03  0.22128759467E+03  0.00000000000E+00 0.  1.
<scales pt_clust_5="13000.00000" pt_clust_6="13000.00000" pt_clust_7="13000.00000" pt_clust_8="13000.00000" pt_clust_9="49.92658"></scales>
<clustering>
<clus scale="   49.927">  1  9  2 -1</clus>
<clus scale="   80.120">  5  6 -1 -1</clus>
<clus scale="   82.967">  1  5  2 -1</clus>
<clus scale="   91.798">  7  8 -1 -1</clus>
<clus scale="   49.927">  1  5  2 -1</clus>
</clustering>
</event>
<event>
 9    1  0.6345107E-005  0.9114454E+02  0.7546771E-02  0.1305885E+00
          1   -1    0    0  502    0 -0.00000000000E+00  0.00000000000E+00  0.35977661699E+03  0.35977661699E+03  0.00000000000E+00 0. -1.
         21   -1    0    0  501  502  0.00000000000E+00 -0.00000000000E+00 -0.66022463814E+02  0.66022463814E+02  0.00000000000E+00 0. -1.
        -24    2    1    2    0    0 -0.79942549168E+01  0.19900966868E+02  0.21074775773E+03  0.22682411795E+03  0.81083947248E+02 0.  0.
         23    2    1    2    0    0  0.76117890444E+01  0.49067915191E+02  0.18899045505E+02  0.10481230949E+03  0.90348473510E+02 0.  0.
         13    1    3    3    0    0 -0.39410116189E+02  0.14838452957E+02  0.63619492771E+02  0.76294015524E+02  0.00000000000E+00 0. -1.
        -14    1    3    3    0    0  0.31415861272E+02  0.50625139107E+01  0.14712826496E+03  0.15053010243E+03  0.00000000000E+00 0.  1.
        -13    1    4    4    0    0 -0.30370884974E+02  0.35224338887E+02  0.38038351339E+02  0.60083782145E+02  0.00000000000E+00 0.  1.
         13    1    4    4    0    0  0.37982674019E+02  0.13843576303E+02 -0.19139305835E+02  0.44728527344E+02  0.00000000000E+00 0. -1.
          2    1    1    2  501    0  0.38246587238E+00 -0.68968882059E+02  0.64107349943E+02  0.94162653368E+02  0.00000000000E+00 0. -1.
<scales pt_clust_5="13000.00000" pt_clust_6="13000.00000" pt_clust_7="13000.00000" pt_clust_8="13000.00000" pt_clust_9="68.96994"></scales>
<clustering>
<clus scale="   68.970">  2  9  1 -1</clus>
<clus scale="   81.084">  5  6 -1 -1</clus>
<clus scale="   81.970">  1  5  2 -1</clus>
<clus scale="   90.348">  7  8 -1 -1</clus>
<clus scale="   68.970">  2  5  1 -1</clus>
</clustering>
</event>
<event>
 9    1  0.6345107E-005  0.1624238E+03  0.7546771E-02  0.1187913E+00
         21   -1    0    0  501  502  0.00000000000E+00  0.00000000000E+00  0.36387511161E+03  0.36387511161E+03  0.00000000000E+00 0.  1.
         -2   -1    0    0    0  501 -0.00000000000E+00 -0.00000000000E+00 -0.10918005313E+03  0.10918005313E+03  0.00000000000E+00 0.  1.
        -24    2    1    2    0    0 -0.13470107949E+03 -0.44082076287E+02  0.36656355524E+02  0.16589482504E+03  0.78037134175E+02 0.  0.
         23    2    1    2    0    0  0.12873381928E+03 -0.12611354809E+02  0.14490757758E+03  0.21443539795E+03  0.90845425631E+02 0.  0.
         11    1    3    3    0    0 -0.12361010265E+03 -0.78367050158E+01  0.29455247470E+02  0.12731254073E+03  0.00000000000E+00 0. -1.
        -12    1    3    3    0    0 -0.11090976839E+02 -0.36245371271E+02  0.72011080542E+01  0.38582284316E+02  0.00000000000E+00 0.  1.
        -11    1    4    4    0    0  0.11033773391E+03  0.26196772917E+02  0.11848750802E+03  0.16401212148E+03  0.00000000000E+00 0. -1.
         11    1    4    4    0    0  0.18396085365E+02 -0.38808127726E+02  0.26420069566E+02  0.50423276473E+02  0.00000000000E+00 0.  1.
         -1    1    1    2    0  502  0.59672602140E+01  0.56693431095E+02  0.73131125367E+02  0.92724941743E+02  0.00000000000E+00 0.  1.
<scales pt_clust_5="13000.00000" pt_clust_6="13000.00000" pt_clust_7="13000.00000" pt_clust_8="13000.00000" pt_clust_9="57.00661"></scales>
<clustering>
<clus scale="   57.007">  1  9  2 -1</clus>
<clus scale="   78.037">  5  6 -1 -1</clus>
<clus scale="   90.845">  7  8 -1 -1</clus>
<clus scale="  155.623">  2  5  1 -1</clus>
<clus scale="   57.007">  1  5  2 -1</clus>
</clustering>
</event>
<event>
 9    1  0.6345107E-005  0.1111929E+03  0.7546771E-02  0.1263209E+00
          1   -1    0    0  502    0 -0.00000000000E+00  0.00000000000E+00  0.28505607003E+02  0.28505607003E+02  0.00000000000E+00 0. -1.
         21   -1    0    0  501  502  0.00000000000E+00 -0.00000000000E+00 -0.59629318833E+03  0.59629318833E+03  0.00000000000E+00 0. -1.
        -24    2    1    2    0    0  0.58055035781E+02 -0.46016888924E+02 -0.24216424488E+03  0.26591362953E+03  0.81108542249E+02 0.  0.
         23    2    1    2    0    0 -0.34485552565E+02  0.26554372783E+02 -0.30522842438E+03  0.32213924750E+03  0.93353712723E+02 0.  0.
         13    1    3    3    0    0  0.63628984339E+02 -0.25436486588E+02 -0.94567389444E+02  0.11678464644E+03  0.00000000000E+00 0. -1.
        -14    1    3    3    0    0 -0.55739485572E+01 -0.20580402336E+02 -0.14759685544E+03  0.14912898309E+03  0.00000000000E+00 0.  1.
        -11    1    4    4    0    0 -0.34620738593E+02 -0.23185561570E+02 -0.67986443017E+02  0.79739088533E+02  0.00000000000E+00 0.  1.
         11    1    4    4    0    0  0.13518602755E+00  0.49739934353E+02 -0.23724198137E+03  0.24240015897E+03  0.00000000000E+00 0. -1.
          2    1    1    2  501    0 -0.23569483217E+02  0.19462516141E+02 -0.20394912056E+02  0.36745918296E+02  0.00000000000E+00 0. -1.
<scales pt_clust_5="13000.00000" pt_clust_6="13000.00000" pt_clust_7="13000.00000" pt_clust_8="13000.00000" pt_clust_9="30.56650"></scales>
<clustering>
<clus scale="   30.567">  2  9  1 -1</clus>
<clus scale="   81.109">  5  6 -1 -1</clus>
<clus scale="   93.354">  7  8 -1 -1</clus>
<clus scale="  101.131">  1  5  2 -1</clus>
<clus scale="   30.567">  2  5  1 -1</clus>
</clustering>
</event>
<event>
 9    1  0.6345107E-005  0.1407509E+03  0.7546771E-02  0.1214846E+00
          1   -1    0    0  502    0 -0.00000000000E+00  0.00000000000E+00  0.29549575931E+03  0.29549575931E+03  0.00000000000E+00 0. -1.
         21   -1    0    0  501  502  0.00000000000E+00 -0.00000000000E+00 -0.25077965764E+03  0.25077965764E+03  0.00000000000E+00 0.  1.
         23    2    1    2    0    0 -0.23841781686E+02  0.93015504881E+02  0.13207505615E+03  0.18788346434E+03  0.92930409506E+02 0.  0.
        -24    2    1    2    0    0  0.10335753208E+03 -0.14993805562E+03 -0.14341556385E+03  0.24567427522E+03  0.81385659603E+02 0.  0.
         13    1    4    4    0    0  0.75521624219E+01 -0.63190859218E+02 -0.19341408476E+02  0.66514734667E+02  0.00000000000E+00 0. -1.
        -14    1    4    4    0    0  0.95805369660E+02 -0.86747196404E+02 -0.12407415537E+03  0.17915954055E+03  0.00000000000E+00 0.  1.
        -11    1    3    3    0    0 -0.22306935657E+02 -0.10015876506E+02  0.62287865408E+01  0.25233211099E+02  0.00000000000E+00 0.  1.
         11    1    3    3    0    0 -0.15348460291E+01  0.10303138139E+03  0.12584626961E+03  0.16265025324E+03  0.00000000000E+00 0. -1.
          2    1    1    2  501    0 -0.79515750396E+02  0.56922550741E+02  0.56056609361E+02  0.11271767739E+03  0.00000000000E+00 0. -1.
<scales pt_clust_5="13000.00000" pt_clust_6="13000.00000" pt_clust_7="13000.00000" pt_clust_8="13000.00000" pt_clust_9="97.79029"></scales>
<clustering>
<clus scale="   81.386">  5  6 -1 -1</clus>
<clus scale="   92.930">  7  8 -1 -1</clus>
<clus scale="   97.790">  2  9  1 -1</clus>
<clus scale="  133.411">  2  5  1 -1</clus>
<clus scale="   97.790">  2  5  1 -1</clus>
</clustering>
</event>
<event>
 9    1  0.6345107E-005  0.1143664E+03  0.7546771E-02  0.1256658E+00
          1   -1    0    0  502    0 -0.00000000000E+00  0.00000000000E+00  0.22741141460E+03  0.22741141460E+03  0.00000000000E+00 0. -1.
         21   -1    0    0  501  502  0.00000000000E+00 -0.00000000000E+00 -0.19749333874E+03  0.19749333874E+03  0.00000000000E+00 0. -1.
        -24    2    1    2    0    0 -0.60168271901E+02 -0.29942872035E+02  0.18122831453E+03  0.20935300951E+03  0.80425021462E+02 0.  0.
         23    2    1    2    0    0  0.80613042966E+02  0.20251136209E+02 -0.98367649153E+02  0.15797712969E+03  0.91498677000E+02 0.  0.
         13    1    3    3    0    0 -0.35941410185E+02  0.97117789088E+00  0.16139856840E+03  0.16535484884E+03  0.00000000000E+00 0. -1.
        -14    1    3    3    0    0 -0.24226861717E+02 -0.30914049926E+02  0.19829746126E+02  0.43998160676E+02  0.00000000000E+00 0.  1.
        -13    1    4    4    0    0  0.22093200079E+02  0.36807631709E+02 -0.85705894342E+02  0.95856202547E+02  0.00000000000E+00 0.  1.
         13    1    4    4    0    0  0.58519842887E+02 -0.16556495501E+02 -0.12661754812E+02  0.62120927148E+02  0.00000000000E+00 0. -1.
          2    1    1    2  501    0 -0.20444771065E+02  0.96917358263E+01 -0.52942589519E+02  0.57574614130E+02  0.00000000000E+00 0. -1.
<scales pt_clust_5="13000.00000" pt_clust_6="13000.00000" pt_clust_7="13000.00000" pt_clust_8="13000.00000" pt_clust_9="22.62561"></scales>
<clustering>
<clus scale="   22.626">  2  9  1 -1</clus>
<clus scale="   80.425">  5  6 -1 -1</clus>
<clus scale="   91.499">  7  8 -1 -1</clus>
<clus scale="  105.716">  1  5  2 -1</clus>
<clus scale="   22.626">  2  5  1 -1</clus>
</clustering>
</event>
<event>
 9    1  0.6345107E-005  0.1098484E+03  0.7546771E-02  0.1264645E+00
          1   -1    0    0  502    0 -0.00000000000E+00  0.00000000000E+00  0.38230612152E+03  0.38230612152E+03  0.00000000000E+00 0. -1.
         21   -1    0    0  501  502  0.00000000000E+00 -0.00000000000E+00 -0.84840396040E+02  0.84840396040E+02  0.00000000000E+00 0. -1.
        -24    2    1    2    0    0 -0.53605032781E+02 -0.27838158986E+02  0.30175176354E+03  0.31800873639E+03  0.80168366516E+02 0.  0.
         23    2    1    2    0    0  0.67426403540E+02  0.49526602505E+02  0.11469269858E+01  0.12285212003E+03  0.89956232161E+02 0.  0.
         13    1    3    3    0    0 -0.72122164047E+02 -0.32739073172E+02  0.26473544944E+03  0.27633007736E+03  0.00000000000E+00 0. -1.
        -14    1    3    3    0    0  0.18517131266E+02  0.49009141859E+01  0.37016314094E+02  0.41678659039E+02  0.00000000000E+00 0.  1.
        -13    1    4    4    0    0  0.54936186927E+02  0.71566943122E+02  0.18561472608E+02  0.92110478488E+02  0.00000000000E+00 0. -1.
         13    1    4    4    0    0  0.12490216613E+02 -0.22040340617E+02 -0.17414545622E+02  0.30741641543E+02  0.00000000000E+00 0.  1.
          2    1    1    2  501    0 -0.13821370760E+02 -0.21688443519E+02 -0.54329650462E+01  0.26285661132E+02  0.00000000000E+00 0. -1.
<scales pt_clust_5="13000.00000" pt_clust_6="13000.00000" pt_clust_7="13000.00000" pt_clust_8="13000.00000" pt_clust_9="25.71807"></scales>
<clustering>
<clus scale="   25.718">  2  9  1 -1</clus>
<clus scale="   80.168">  5  6 -1 -1</clus>
<clus scale="   89.956">  7  8 -1 -1</clus>
<clus scale="  101.988">  1  5  2 -1</clus>
<clus scale="   25.718">  2  5  1 -1</clus>
</clustering>
</event>
<event>
 9    1  0.6345107E-005  0.8202257E+02  0.7546771E-02  0.1327078E+00
         21   -1    0    0  501  502  0.00000000000E+00  0.00000000000E+00  0.80871911570E+03  0.80871911570E+03  0.00000000000E+00 0. -1.
          1   -1    0    0  502    0 -0.00000000000E+00 -0.00000000000E+00 -0.49171351786E+02  0.49171351786E+02  0.00000000000E+00 0. -1.
        -24    2    1    2    0    0 -0.81865053884E+00  0.11568039819E+02  0.93427251796E+00  0.76595725271E+02  0.75706951666E+02 0.  0.
         23    2    1    2    0    0 -0.72336850595E+02 -0.24599132812E+02  0.49847675137E+03  0.51075332165E+03  0.80945331122E+02 0.  0.
         11    1    3    3    0    0 -0.28686370352E+02  0.23167887815E+02 -0.17928602684E+02  0.41001142228E+02  0.00000000000E+00 0. -1.
        -12    1    3    3    0    0  0.27867719813E+02 -0.11599847996E+02  0.18862875202E+02  0.35594583043E+02  0.00000000000E+00 0.  1.
        -13    1    4    4    0    0 -0.48491509614E+02  0.23910493799E+02  0.30996842482E+03  0.31464831575E+03  0.00000000000E+00 0. -1.
         13    1    4    4    0    0 -0.23845340980E+02 -0.48509626611E+02  0.18850832655E+03  0.19610500590E+03  0.00000000000E+00 0.  1.
          2    1    1    2  501    0  0.73155501133E+02  0.13031092993E+02  0.26013674003E+03  0.27054142057E+03  0.00000000000E+00 0. -1.
<scales pt_clust_5="13000.00000" pt_clust_6="13000.00000" pt_clust_7="13000.00000" pt_clust_8="13000.00000" pt_clust_9="74.30704"></scales>
<clustering>
<clus scale="   74.307">  1  9  2 -1</clus>
<clus scale="   75.707">  5  6 -1 -1</clus>
<clus scale="   76.858">  2  5  1 -1</clus>
<clus scale="   80.945">  7  8 -1 -1</clus>
<clus scale="   74.307">  1  5  2 -1</clus>
</clustering>
</event>
<event>
 9    1  0.6345107E-005  0.1009795E+03  0.7546771E-02  0.1281228E+00
         -2   -1    0    0    0  501 -0.00000000000E+00  0.00000000000E+00  0.41472437564E+03  0.41472437564E+03  0.00000000000E+00 0.  1.
         21   -1    0    0  501  502  0.00000000000E+00 -0.00000000000E+00 -0.57944570944E+02  0.57944570944E+02  0.00000000000E+00 0. -1.
         23    2    1    2    0    0  0.49261108952E+00 -0.28089143172E+02  0.83235012281E+02  0.12386527867E+03  0.87322948647E+02 0.  0.
        -24    2    1    2    0    0  0.48250229102E+01  0.87670650940E+02  0.73843565865E+02  0.14033589298E+03  0.80819965094E+02 0.  0.
         11    1    4    4    0    0  0.40027214568E+02  0.30758819279E+02  0.19446229009E+02  0.54096568210E+02  0.00000000000E+00 0. -1.
        -12    1    4    4    0    0 -0.35202191657E+02  0.56911831662E+02  0.54397336856E+02  0.86239324775E+02  0.00000000000E+00 0.  1.
        -13    1    3    3    0    0  0.42243044027E+02 -0.15820696862E+02  0.58294800452E+02  0.73709246216E+02  0.00000000000E+00 0.  1.
         13    1    3    3    0    0 -0.41750432938E+02 -0.12268446310E+02  0.24940211829E+02  0.50156032453E+02  0.00000000000E+00 0. -1.
         -1    1    1    2    0  502 -0.53176339997E+01 -0.59581507769E+02  0.19970122655E+03  0.20846777493E+03  0.00000000000E+00 0.  1.
<scales pt_clust_5="13000.00000" pt_clust_6="13000.00000" pt_clust_7="13000.00000" pt_clust_8="13000.00000" pt_clust_9="59.81837"></scales>
<clustering>
<clus scale="   59.818">  2  9  1 -1</clus>
<clus scale="   80.820">  5  6 -1 -1</clus>
<clus scale="   87.323">  7  8 -1 -1</clus>
<clus scale="   95.412">  2  5  1 -1</clus>
<clus scale="   59.818">  2  5  1 -1</clus>
</clustering>
</event>
<event>
 9    1  0.6345107E-005  0.2414917E+03  0.7546771E-02  0.1119572E+00
         21   -1    0    0  501  502  0.00000000000E+00  0.00000000000E+00  0.15196884744E+03  0.15196884744E+03  0.00000000000E+00 0. -1.
          3   -1    0    0  502    0 -0.00000000000E+00 -0.00000000000E+00 -0.78411960070E+03  0.78411960070E+03  0.00000000000E+00 0. -1.
        -24    2    1    2    0    0  0.21837543272E+03 -0.49395654416E+02 -0.60708823719E+03  0.65193619938E+03  0.79604773902E+02 0.  0.
         23    2    1    2    0    0 -0.22242946050E+03  0.79017288463E+01 -0.26444516084E+02  0.24243785167E+03  0.92409400368E+02 0.  0.
         13    1    3    3    0    0  0.21136443860E+03 -0.64198498089E+02 -0.57335929920E+03  0.61444060661E+03  0.00000000000E+00 0. -1.
        -14    1    3    3    0    0  0.70109941203E+01  0.14802843673E+02 -0.33728937988E+02  0.37495592770E+02  0.00000000000E+00 0.  1.
        -11    1    4    4    0    0 -0.11775966218E+03 -0.23432156631E+02  0.23430844411E+02  0.12233318630E+03  0.00000000000E+00 0. -1.
         11    1    4    4    0    0 -0.10466979832E+03  0.31333885478E+02 -0.49875360495E+02  0.12010466537E+03  0.00000000000E+00 0.  1.
          4    1    1    2  501    0  0.40540277785E+01  0.41493925569E+02  0.13820000223E+01  0.41714397088E+02  0.00000000000E+00 0. -1.
<scales pt_clust_5="13000.00000" pt_clust_6="13000.00000" pt_clust_7="13000.00000" pt_clust_8="13000.00000" pt_clust_9="41.69150"></scales>
<clustering>
<clus scale="   41.691">  1  9  2 -1</clus>
<clus scale="   79.605">  5  6 -1 -1</clus>
<clus scale="   92.409">  7  8 -1 -1</clus>
<clus scale="  236.888">  2  5  1 -1</clus>
<clus scale="   41.691">  1  5  2 -1</clus>
</clustering>
</event>
<event>
 9    1  0.6345107E-005  0.1685285E+03  0.7546771E-02  0.1180069E+00
          3   -1    0    0  502    0 -0.00000000000E+00  0.00000000000E+00  0.59097521692E+03  0.59097521692E+03  0.00000000000E+00 0. -1.
         21   -1    0    0  501  502  0.00000000000E+00 -0.00000000000E+00 -0.94382810678E+02  0.94382810678E+02  0.00000000000E+00 0. -1.
         23    2    1    2    0    0 -0.15164094465E+03 -0.32261315564E+02  0.44159333747E+03  0.47595683816E+03  0.86570592681E+02 0.  0.
        -24    2    1    2    0    0  0.10899116247E+03  0.48470505118E+02  0.71107716717E+02  0.16101492811E+03  0.81492553864E+02 0.  0.
         11    1    4    4    0    0 -0.82883366711E+01  0.20499139657E+02  0.20847517332E+02  0.30389640181E+02  0.00000000000E+00 0. -1.
        -12    1    4    4    0    0  0.11727949914E+03  0.27971365461E+02  0.50260199384E+02  0.13062528793E+03  0.00000000000E+00 0.  1.
        -13    1    3    3    0    0 -0.10510924935E+03 -0.29992557278E+02  0.18266509944E+03  0.21287096173E+03  0.00000000000E+00 0.  1.
         13    1    3    3    0    0 -0.46531695297E+02 -0.22687582859E+01  0.25892823803E+03  0.26308587644E+03  0.00000000000E+00 0. -1.
          4    1    1    2  501    0  0.42649782176E+02 -0.16209189554E+02 -0.16108647950E+02  0.48386261319E+02  0.00000000000E+00 0. -1.
<scales pt_clust_5="13000.00000" pt_clust_6="13000.00000" pt_clust_7="13000.00000" pt_clust_8="13000.00000" pt_clust_9="45.62611"></scales>
<clustering>
<clus scale="   45.626">  2  9  1 -1</clus>
<clus scale="   81.493">  5  6 -1 -1</clus>
<clus scale="   86.571">  7  8 -1 -1</clus>
<clus scale="  165.977">  2  5  1 -1</clus>
<clus scale="   45.626">  2  5  1 -1</clus>
</clustering>
</event>
<event>
 9    1  0.6345107E-005  0.1053965E+03  0.7546771E-02  0.1275815E+00
         21   -1    0    0  501  502  0.00000000000E+00  0.00000000000E+00  0.12089687956E+03  0.12089687956E+03  0.00000000000E+00 0. -1.
          1   -1    0    0  502    0 -0.00000000000E+00 -0.00000000000E+00 -0.25006700727E+03  0.25006700727E+03  0.00000000000E+00 0. -1.
         23    2    1    2    0    0  0.30123167145E+02  0.36294774980E+02 -0.14870860556E+03  0.18193526675E+03  0.93602756525E+02 0.  0.
        -24    2    1    2    0    0 -0.67519211401E+02 -0.12624483341E+02  0.66657973018E+02  0.12438348372E+03  0.79433898095E+02 0.  0.
         13    1    4    4    0    0 -0.26307296983E+02  0.33748758074E+02  0.23614735160E+02  0.48874413170E+02  0.00000000000E+00 0. -1.
        -14    1    4    4    0    0 -0.41211914418E+02 -0.46373241414E+02  0.43043237858E+02  0.75509070545E+02  0.00000000000E+00 0.  1.
        -11    1    3    3    0    0  0.23356549892E+02 -0.26856395307E+02 -0.27081159529E+02  0.44723412137E+02  0.00000000000E+00 0.  1.
         11    1    3    3    0    0  0.67666172533E+01  0.63151170287E+02 -0.12162744603E+03  0.13721185461E+03  0.00000000000E+00 0. -1.
          2    1    1    2  501    0  0.37396044255E+02 -0.23670291639E+02 -0.47119495164E+02  0.64645136374E+02  0.00000000000E+00 0. -1.
<scales pt_clust_5="13000.00000" pt_clust_6="13000.00000" pt_clust_7="13000.00000" pt_clust_8="13000.00000" pt_clust_9="44.25775"></scales>
<clustering>
<clus scale="   44.258">  1  9  2 -1</clus>
<clus scale="   79.434">  5  6 -1 -1</clus>
<clus scale="   93.041">  1  5  2 -1</clus>
<clus scale="   93.603">  7  8 -1 -1</clus>
<clus scale="   44.258">  1  5  2 -1</clus>
</clustering>
</event>
<event>
 9    1  0.6345107E-005  0.1635957E+03  0.7546771E-02  0.1209260E+00
         21   -1    0    0  501  502  0.00000000000E+00  0.00000000000E+00  0.63424742507E+02  0.63424742507E+02  0.00000000000E+00 0. -1.
          1   -1    0    0  502    0 -0.00000000000E+00 -0.00000000000E+00 -0.75478953068E+03  0.75478953068E+03  0.00000000000E+00 0. -1.
        -24    2    1    2    0    0  0.46844420202E+02 -0.14533665670E+02 -0.47576012164E+02  0.10686073680E+03  0.82159071285E+02 0.  0.
         23    2    1    2    0    0  0.80452686924E+02 -0.74660128755E+02 -0.36417618063E+03  0.39144215812E+03  0.92498124090E+02 0.  0.
         13    1    3    3    0    0  0.67607398770E+02 -0.22827240346E+02 -0.26453135128E+02  0.76102638774E+02  0.00000000000E+00 0. -1.
        -14    1    3    3    0    0 -0.20762978569E+02  0.82935746765E+01 -0.21122877037E+02  0.30758098027E+02  0.00000000000E+00 0.  1.
        -13    1    4    4    0    0  0.28721979245E+02 -0.65348678791E+02 -0.10484580223E+03  0.12683865404E+03  0.00000000000E+00 0.  1.
         13    1    4    4    0    0  0.51730707678E+02 -0.93114499641E+01 -0.25933037839E+03  0.26460350409E+03  0.00000000000E+00 0. -1.
          2    1    1    2  501    0 -0.12729710713E+03  0.89193794424E+02 -0.27961259538E+03  0.31991137826E+03  0.00000000000E+00 0. -1.
<scales pt_clust_5="13000.00000" pt_clust_6="13000.00000" pt_clust_7="13000.00000" pt_clust_8="13000.00000" pt_clust_9="134.93572"></scales>
<clustering>
<clus scale="   82.159">  5  6 -1 -1</clus>
<clus scale="   92.498">  7  8 -1 -1</clus>
<clus scale="   95.686">  2  5  1 -1</clus>
<clus scale="  134.936">  1  9  2 -1</clus>
<clus scale="  134.936">  1  5  2 -1</clus>
</clustering>
</event>
<event>
 9    1  0.6345107E-005  0.1862932E+03  0.7546771E-02  0.1162844E+00
         21   -1    0    0  501  502  0.00000000000E+00  0.00000000000E+00  0.78502613628E+03  0.78502613628E+03  0.00000000000E+00 0. -1.
         -2   -1    0    0    0  501 -0.00000000000E+00 -0.00000000000E+00 -0.61992940757E+02  0.61992940757E+02  0.00000000000E+00 0.  1.
         23    2    1    2    0    0 -0.25722285453E+02  0.16600490970E+03  0.15103424031E+03  0.24301127785E+03  0.89576076077E+02 0.  0.
        -24    2    1    2    0    0  0.36794038586E+02 -0.14732889459E+03  0.49290630397E+03  0.52198935773E+03  0.80353348606E+02 0.  0.
         11    1    4    4    0    0  0.25216606336E+02 -0.15434051288E+03  0.42773540227E+03  0.45542776102E+03  0.00000000000E+00 0. -1.
        -12    1    4    4    0    0  0.11577432250E+02  0.70116182850E+01  0.65170901694E+02  0.66561596707E+02  0.00000000000E+00 0.  1.
        -13    1    3    3    0    0  0.14999836486E+02  0.62957271410E+02  0.10431829123E+03  0.12276367135E+03  0.00000000000E+00 0. -1.
         13    1    3    3    0    0 -0.40722121939E+02  0.10304763829E+03  0.46715949082E+02  0.12024760651E+03  0.00000000000E+00 0.  1.
         -1    1    1    2    0  502 -0.11071753133E+02 -0.18676015106E+02  0.79092651246E+02  0.82018441456E+02  0.00000000000E+00 0.  1.
<scales pt_clust_5="13000.00000" pt_clust_6="13000.00000" pt_clust_7="13000.00000" pt_clust_8="13000.00000" pt_clust_9="21.71122"></scales>
<clustering>
<clus scale="   21.711">  1  9  2 -1</clus>
<clus scale="   80.353">  5  6 -1 -1</clus>
<clus scale="   89.576">  7  8 -1 -1</clus>
<clus scale="  182.038">  1  5  2 -1</clus>
<clus scale="   21.711">  1  5  2 -1</clus>
</clustering>
</event>
<event>
 9    1  0.8177842E-005  0.9444773E+02  0.7546771E-02  0.1297126E+00
          1   -1    0    0  502    0 -0.00000000000E+00  0.00000000000E+00  0.23133986957E+03  0.23133986957E+03  0.00000000000E+00 0. -1.
         21   -1    0    0  501  502  0.00000000000E+00 -0.00000000000E+00 -0.15512182023E+03  0.15512182023E+03  0.00000000000E+00 0.  1.
         23    2    1    2    0    0 -0.70928917486E+01 -0.38168085381E+02  0.18620480827E+03  0.20882927591E+03  0.86199327135E+02 0.  0.
        -24    2    1    2    0    0  0.36376897385E+02  0.28934089355E+02 -0.11529746333E+03  0.14647116793E+03  0.77458619883E+02 0.  0.
         11    1    4    4    0    0  0.47807683213E+02  0.11475775018E+01 -0.31027884721E+02  0.57005448324E+02  0.00000000000E+00 0. -1.
        -12    1    4    4    0    0 -0.11430785829E+02  0.27786511853E+02 -0.84269578609E+02  0.89465719605E+02  0.00000000000E+00 0.  1.
        -11    1    3    3    0    0 -0.15571926665E+02  0.25526901082E+02  0.68112195267E+02  0.74386683774E+02  0.00000000000E+00 0. -1.
         11    1    3    3    0    0  0.84790349162E+01 -0.63694986463E+02  0.11809261300E+03  0.13444259213E+03  0.00000000000E+00 0.  1.
          2    1    1    2  501    0 -0.29284005636E+02  0.92339960258E+01  0.53107043938E+01  0.31161245961E+02  0.00000000000E+00 0. -1.
<scales pt_clust_5="13000.00000" pt_clust_6="13000.00000" pt_clust_7="13000.00000" pt_clust_8="13000.00000" pt_clust_9="30.70537"></scales>
<clustering>
<clus scale="   30.705">  2  9  1 -1</clus>
<clus scale="   77.459">  5  6 -1 -1</clus>
<clus scale="   86.199">  7  8 -1 -1</clus>
<clus scale="   86.544">  2  5  1 -1</clus>
<clus scale="   30.705">  2  5  1 -1</clus>
</clustering>
</event>
<event>
 9    1  0.6345107E-005  0.1182244E+03  0.7546771E-02  0.1247559E+00
         21   -1    0    0  501  502  0.00000000000E+00  0.00000000000E+00  0.18332549137E+03  0.18332549137E+03  0.00000000000E+00 0.  1.
          1   -1    0    0  502    0 -0.00000000000E+00 -0.00000000000E+00 -0.12847551107E+03  0.12847551107E+03  0.00000000000E+00 0. -1.
         23    2    1    2    0    0  0.31512023902E+02 -0.68022117705E+02 -0.36736240248E+02  0.12017348629E+03  0.86441305593E+02 0.  0.
        -24    2    1    2    0    0 -0.13149169259E+02  0.99276593875E+02  0.85439940317E+02  0.15486050005E+03  0.81566220534E+02 0.  0.
         11    1    4    4    0    0 -0.45831045037E+02  0.66245636032E+02  0.40277768428E+02  0.90062576090E+02  0.00000000000E+00 0. -1.
        -12    1    4    4    0    0  0.32681875778E+02  0.33030957843E+02  0.45162171889E+02  0.64797923965E+02  0.00000000000E+00 0.  1.
        -11    1    3    3    0    0  0.45589566118E+02 -0.16973993117E+01 -0.70722708340E+01  0.46166077567E+02  0.00000000000E+00 0. -1.
         11    1    3    3    0    0 -0.14077542215E+02 -0.66324718394E+02 -0.29663969414E+02  0.74007408725E+02  0.00000000000E+00 0.  1.
          2    1    1    2  501    0 -0.18362854644E+02 -0.31254476170E+02  0.61462802351E+01  0.36767016088E+02  0.00000000000E+00 0. -1.
<scales pt_clust_5="13000.00000" pt_clust_6="13000.00000" pt_clust_7="13000.00000" pt_clust_8="13000.00000" pt_clust_9="36.24966"></scales>
<clustering>
<clus scale="   36.250">  1  9  2 -1</clus>
<clus scale="   81.566">  5  6 -1 -1</clus>
<clus scale="   86.441">  7  8 -1 -1</clus>
<clus scale="  114.708">  1  5  2 -1</clus>
<clus scale="   36.250">  1  5  2 -1</clus>
</clustering>
</event>
<event>
 9    1  0.6345107E-005  0.9656000E+02  0.7546771E-02  0.1294382E+00
          1   -1    0    0  502    0 -0.00000000000E+00  0.00000000000E+00  0.16187745111E+03  0.16187745111E+03  0.00000000000E+00 0. -1.
         21   -1    0    0  501  502  0.00000000000E+00 -0.00000000000E+00 -0.13997351159E+03  0.13997351159E+03  0.00000000000E+00 0. -1.
         23    2    1    2    0    0 -0.17017429014E+02 -0.18901588038E+02  0.95395430651E+02  0.13451762389E+03  0.91366514800E+02 0.  0.
        -24    2    1    2    0    0  0.54139448946E+02  0.33005450387E+02 -0.77069008092E+02  0.12746152013E+03  0.79286615627E+02 0.  0.
         11    1    4    4    0    0  0.60759372608E+02  0.31409413806E+02 -0.21819222942E+02  0.71793670509E+02  0.00000000000E+00 0. -1.
        -12    1    4    4    0    0 -0.66199236621E+01  0.15960365812E+01 -0.55249785150E+02  0.55667849618E+02  0.00000000000E+00 0.  1.
        -13    1    3    3    0    0  0.29720721033E+02  0.37218045486E+01  0.71175400460E+02  0.77221180504E+02  0.00000000000E+00 0. -1.
         13    1    3    3    0    0 -0.46738150048E+02 -0.22623392587E+02  0.24220030191E+02  0.57296443384E+02  0.00000000000E+00 0.  1.
          2    1    1    2  501    0 -0.37122019932E+02 -0.14103862349E+02  0.35775169630E+01  0.39871818677E+02  0.00000000000E+00 0. -1.
<scales pt_clust_5="13000.00000" pt_clust_6="13000.00000" pt_clust_7="13000.00000" pt_clust_8="13000.00000" pt_clust_9="39.71102"></scales>
<clustering>
<clus scale="   39.711">  2  9  1 -1</clus>
<clus scale="   79.287">  5  6 -1 -1</clus>
<clus scale="   85.219">  2  5  1 -1</clus>
<clus scale="   91.367">  7  8 -1 -1</clus>
<clus scale="   39.711">  2  5  1 -1</clus>
</clustering>
</event>
<event>
 9    1  0.6345107E-005  0.1404197E+03  0.7546771E-02  0.1215175E+00
         21   -1    0    0  501  502  0.00000000000E+00  0.00000000000E+00  0.73708783487E+02  0.73708783487E+02  0.00000000000E+00 0.  1.
          1   -1    0    0  502    0 -0.00000000000E+00 -0.00000000000E+00 -0.70513747916E+03  0.70513747916E+03  0.00000000000E+00 0. -1.
        -24    2    1    2    0    0  0.98822889971E+02  0.64121614924E+02 -0.58501006040E+03  0.60212886599E+03  0.80279856739E+02 0.  0.
         23    2    1    2    0    0 -0.51436333542E+02 -0.28252009407E+02 -0.44050050864E+02  0.11723862295E+03  0.91436400223E+02 0.  0.
         13    1    3    3    0    0  0.26537261004E+02 -0.11262463744E+02 -0.56851820886E+02  0.63743225908E+02  0.00000000000E+00 0. -1.
        -14    1    3    3    0    0  0.72285628967E+02  0.75384078668E+02 -0.52815823952E+03  0.53838564008E+03  0.00000000000E+00 0.  1.
        -11    1    4    4    0    0 -0.69768259929E+02 -0.43387006300E+02 -0.22577700402E+02  0.85204430429E+02  0.00000000000E+00 0.  1.
         11    1    4    4    0    0  0.18331926387E+02  0.15134996893E+02 -0.21472350462E+02  0.32034192519E+02  0.00000000000E+00 0. -1.
          2    1    1    2  501    0 -0.47386556428E+02 -0.35869605516E+02 -0.23685844033E+01  0.59478773710E+02  0.00000000000E+00 0. -1.
<scales pt_clust_5="13000.00000" pt_clust_6="13000.00000" pt_clust_7="13000.00000" pt_clust_8="13000.00000" pt_clust_9="59.43159"></scales>
<clustering>
<clus scale="   59.432">  1  9  2 -1</clus>
<clus scale="   80.280">  5  6 -1 -1</clus>
<clus scale="   91.436">  7  8 -1 -1</clus>
<clus scale="  133.424">  2  5  1 -1</clus>
<clus scale="   59.432">  1  5  2 -1</clus>
</clustering>
</event>
<event>
 9    1  0.6345107E-005  0.8821922E+02  0.7546771E-02  0.1309293E+00
         21   -1    0    0  501  502  0.00000000000E+00  0.00000000000E+00  0.60937543522E+02  0.60937543522E+02  0.00000000000E+00 0.  1.
          1   -1    0    0  502    0 -0.00000000000E+00 -0.00000000000E+00 -0.31500127525E+03  0.31500127525E+03  0.00000000000E+00 0. -1.
         23    2    1    2    0    0 -0.37096756977E+02  0.27572559093E+02 -0.16190222098E+03  0.18837219478E+03  0.84470937095E+02 0.  0.
        -24    2    1    2    0    0  0.63845722093E+01  0.35611119633E+02 -0.72512435105E+02  0.11461800013E+03  0.81057498757E+02 0.  0.
         13    1    4    4    0    0  0.21406530719E+02  0.72539306840E+01 -0.78748007857E+02  0.81927454551E+02  0.00000000000E+00 0. -1.
        -14    1    4    4    0    0 -0.15021958509E+02  0.28357188949E+02  0.62355727524E+01  0.32690545577E+02  0.00000000000E+00 0.  1.
        -13    1    3    3    0    0  0.84268552374E+01 -0.25212650705E+02 -0.45256598510E+02  0.52486658814E+02  0.00000000000E+00 0. -1.
         13    1    3    3    0    0 -0.45523612214E+02  0.52785209798E+02 -0.11664562247E+03  0.13588553596E+03  0.00000000000E+00 0.  1.
          2    1    1    2  501    0  0.30712184767E+02 -0.63183678726E+02 -0.19649075644E+02  0.72948623868E+02  0.00000000000E+00 0. -1.
<scales pt_clust_5="13000.00000" pt_clust_6="13000.00000" pt_clust_7="13000.00000" pt_clust_8="13000.00000" pt_clust_9="70.25251"></scales>
<clustering>
<clus scale="   70.253">  1  9  2 -1</clus>
<clus scale="   81.057">  5  6 -1 -1</clus>
<clus scale="   84.471">  7  8 -1 -1</clus>
<clus scale="   84.957">  1  5  2 -1</clus>
<clus scale="   70.253">  1  5  2 -1</clus>
</clustering>
</event>
<event>
 9    1  0.6345107E-005  0.3408637E+03  0.7546771E-02  0.1066429E+00
          1   -1    0    0  502    0 -0.00000000000E+00  0.00000000000E+00  0.30590466567E+03  0.30590466567E+03  0.00000000000E+00 0. -1.
         21   -1    0    0  501  502  0.00000000000E+00 -0.00000000000E+00 -0.36666273024E+03  0.36666273024E+03  0.00000000000E+00 0. -1.
        -24    2    1    2    0    0  0.22424202906E+02 -0.11052654349E+03 -0.16039545877E+02  0.13923059089E+03  0.80055785011E+02 0.  0.
         23    2    1    2    0    0  0.39678530294E+02 -0.14972688875E+03  0.12243820193E+03  0.21785310067E+03  0.92067003856E+02 0.  0.
         13    1    3    3    0    0  0.10794934383E+02 -0.11682994819E+03 -0.28843467100E+02  0.12082099567E+03  0.00000000000E+00 0. -1.
        -14    1    3    3    0    0  0.11629268524E+02  0.63034046928E+01  0.12803921223E+02  0.18409595211E+02  0.00000000000E+00 0.  1.
        -11    1    4    4    0    0  0.46190666737E+02 -0.59091543331E+02  0.98645915644E+02  0.12392096215E+03  0.00000000000E+00 0. -1.
         11    1    4    4    0    0 -0.65121364433E+01 -0.90635345421E+02  0.23792286284E+02  0.93932138522E+02  0.00000000000E+00 0.  1.
          2    1    1    2  501    0 -0.62102733200E+02  0.26025343224E+03 -0.16715672061E+03  0.31548370435E+03  0.00000000000E+00 0. -1.
<scales pt_clust_5="13000.00000" pt_clust_6="13000.00000" pt_clust_7="13000.00000" pt_clust_8="13000.00000" pt_clust_9="267.56046"></scales>
<clustering>
<clus scale="   80.056">  5  6 -1 -1</clus>
<clus scale="   92.067">  7  8 -1 -1</clus>
<clus scale="  135.680">  5  7 -1 -1</clus>
<clus scale="  267.560">  2  9  1 -1</clus>
<clus scale="  267.560">  2  5  1 -1</clus>
</clustering>
</event>
<event>
 9    1  0.6345107E-005  0.9693427E+02  0.7546771E-02  0.1297803E+00
         -2   -1    0    0    0  501 -0.00000000000E+00  0.00000000000E+00  0.12863856895E+03  0.12863856895E+03  0.00000000000E+00 0.  1.
         21   -1    0    0  501  502  0.00000000000E+00 -0.00000000000E+00 -0.18117062409E+03  0.18117062409E+03  0.00000000000E+00 0. -1.
        -24    2    1    2    0    0 -0.12886088475E+02 -0.13635231552E+02  0.84965284496E+02  0.11652299085E+03  0.77501851666E+02 0.  0.
         23    2    1    2    0    0  0.86860680071E+00 -0.18278879479E+02 -0.12120005971E+03  0.15549028069E+03  0.95670794930E+02 0.  0.
         13    1    3    3    0    0  0.12930863485E+02  0.27872447957E+02  0.29552804565E+02  0.42631547511E+02  0.00000000000E+00 0. -1.
        -14    1    3    3    0    0 -0.25816951959E+02 -0.41507679508E+02  0.55412479931E+02  0.73891443339E+02  0.00000000000E+00 0.  1.
        -13    1    4    4    0    0  0.27223676054E+02 -0.38943326536E+02 -0.25133032791E+02  0.53752958587E+02  0.00000000000E+00 0.  1.
         13    1    4    4    0    0 -0.26355069253E+02  0.20664447056E+02 -0.96067026924E+02  0.10173732211E+03  0.00000000000E+00 0. -1.
         -1    1    1    2    0  502  0.12017481674E+02  0.31914111031E+02 -0.16297279925E+02  0.37795921495E+02  0.00000000000E+00 0.  1.
<scales pt_clust_5="13000.00000" pt_clust_6="13000.00000" pt_clust_7="13000.00000" pt_clust_8="13000.00000" pt_clust_9="34.10176"></scales>
<clustering>
<clus scale="   34.102">  2  9  1 -1</clus>
<clus scale="   77.502">  5  6 -1 -1</clus>
<clus scale="   79.056">  1  5  2 -1</clus>
<clus scale="   95.671">  7  8 -1 -1</clus>
<clus scale="   34.102">  2  5  1 -1</clus>
</clustering>
</event>
<event>
 9    1  0.6345107E-005  0.2629253E+03  0.7546771E-02  0.1126305E+00
          1   -1    0    0  502    0 -0.00000000000E+00  0.00000000000E+00  0.38431900103E+03  0.38431900103E+03  0.00000000000E+00 0. -1.
         21   -1    0    0  501  502  0.00000000000E+00 -0.00000000000E+00 -0.17047608767E+04  0.17047608767E+04  0.00000000000E+00 0. -1.
        -24    2    1    2    0    0  0.34829509799E+02  0.12981030330E+03  0.25636688200E+03  0.29970613155E+03  0.77691553620E+02 0.  0.
         23    2    1    2    0    0  0.15150607146E+03  0.48274112937E+02  0.82411937271E+01  0.18350377741E+03  0.91220827553E+02 0.  0.
         11    1    3    3    0    0 -0.11228070116E+02  0.67811851009E+02  0.17252089027E+03  0.18570938123E+03  0.00000000000E+00 0. -1.
        -12    1    3    3    0    0  0.46057579915E+02  0.61998452292E+02  0.83845991731E+02  0.11399675032E+03  0.00000000000E+00 0.  1.
        -13    1    4    4    0    0  0.21326067995E+02 -0.92743208770E+01  0.31633067860E+02  0.39261497503E+02  0.00000000000E+00 0.  1.
         13    1    4    4    0    0  0.13018000347E+03  0.57548433814E+02 -0.23391874133E+02  0.14424227991E+03  0.00000000000E+00 0. -1.
          2    1    1    2  501    0 -0.18633558126E+03 -0.17808441624E+03 -0.15850499514E+04  0.16058699688E+04  0.00000000000E+00 0. -1.
<scales pt_clust_5="13000.00000" pt_clust_6="13000.00000" pt_clust_7="13000.00000" pt_clust_8="13000.00000" pt_clust_9="246.59372"></scales>
<clustering>
<clus scale="   77.692">  5  6 -1 -1</clus>
<clus scale="   91.221">  7  8 -1 -1</clus>
<clus scale="  155.241">  1  5  2 -1</clus>
<clus scale="  246.594">  2  9  1 -1</clus>
<clus scale="  246.594">  2  5  1 -1</clus>
</clustering>
</event>
<event>
 9    1  0.6345107E-005  0.1442176E+03  0.7546771E-02  0.1227025E+00
         -2   -1    0    0    0  501 -0.00000000000E+00  0.00000000000E+00  0.99248840962E+02  0.99248840962E+02  0.00000000000E+00 0.  1.
         21   -1    0    0  501  502  0.00000000000E+00 -0.00000000000E+00 -0.37039992532E+03  0.37039992532E+03  0.00000000000E+00 0. -1.
         23    2    1    2    0    0  0.31164599893E+02  0.29000971935E+02 -0.88650318381E+02  0.13072344442E+03  0.86124626631E+02 0.  0.
        -24    2    1    2    0    0  0.45727526005E+02  0.78136916049E+02 -0.91568773239E+01  0.12112029483E+03  0.79936807126E+02 0.  0.
         13    1    4    4    0    0  0.42993314199E+02  0.94640018046E+02 -0.95670734179E+01  0.10438719737E+03  0.00000000000E+00 0. -1.
        -14    1    4    4    0    0  0.27342118058E+01 -0.16503101997E+02  0.41019609403E+00  0.16733097458E+02  0.00000000000E+00 0.  1.
        -11    1    3    3    0    0  0.21885248563E+02 -0.10345586892E+02  0.83734136395E+01  0.25614631147E+02  0.00000000000E+00 0.  1.
         11    1    3    3    0    0  0.92793513303E+01  0.39346558827E+02 -0.97023732020E+02  0.10510881327E+03  0.00000000000E+00 0. -1.
         -1    1    1    2    0  502 -0.76892125898E+02 -0.10713788798E+03 -0.17334388866E+03  0.21780502703E+03  0.00000000000E+00 0.  1.
<scales pt_clust_5="13000.00000" pt_clust_6="13000.00000" pt_clust_7="13000.00000" pt_clust_8="13000.00000" pt_clust_9="120.03677"></scales>
<clustering>
<clus scale="   79.937">  5  6 -1 -1</clus>
<clus scale="   86.125">  7  8 -1 -1</clus>
<clus scale="   96.072">  1  7  2 -1</clus>
<clus scale="  120.037">  2  9  1 -1</clus>
<clus scale="  120.037">  2  5  1 -1</clus>
</clustering>
</event>
<event>
 9    1  0.6345107E-005  0.1840038E+03  0.7546771E-02  0.1165225E+00
         21   -1    0    0  501  502  0.00000000000E+00  0.00000000000E+00  0.44843721485E+03  0.44843721485E+03  0.00000000000E+00 0.  1.
          1   -1    0    0  502    0 -0.00000000000E+00 -0.00000000000E+00 -0.15061258173E+03  0.15061258173E+03  0.00000000000E+00 0. -1.
         23    2    1    2    0    0 -0.14920623784E+03  0.16940895629E+02  0.30834150225E+01  0.17580467497E+03  0.91368927631E+02 0.  0.
        -24    2    1    2    0    0  0.18407066483E+03  0.60140691881E+02  0.15834205872E+03  0.26274019931E+03  0.80382164095E+02 0.  0.
         13    1    4    4    0    0  0.83480458426E+02  0.72760839314E+01  0.24792586450E+02  0.87387646034E+02  0.00000000000E+00 0. -1.
        -14    1    4    4    0    0  0.10059020640E+03  0.52864607950E+02  0.13354947227E+03  0.17535255328E+03  0.00000000000E+00 0.  1.
        -13    1    3    3    0    0 -0.33891900819E+02  0.27080040726E+00  0.41075927997E+02  0.53253789863E+02  0.00000000000E+00 0.  1.
         13    1    3    3    0    0 -0.11531433702E+03  0.16670095222E+02 -0.37992512974E+02  0.12255088511E+03  0.00000000000E+00 0. -1.
          2    1    1    2  501    0 -0.34864426984E+02 -0.77081587510E+02  0.13639915938E+03  0.16050492230E+03  0.00000000000E+00 0. -1.
<scales pt_clust_5="13000.00000" pt_clust_6="13000.00000" pt_clust_7="13000.00000" pt_clust_8="13000.00000" pt_clust_9="84.59964"></scales>
<clustering>
<clus scale="   80.382">  5  6 -1 -1</clus>
<clus scale="   84.600">  1  9  2 -1</clus>
<clus scale="   91.369">  7  8 -1 -1</clus>
<clus scale="  178.803">  1  5  2 -1</clus>
<clus scale="   84.600">  1  5  2 -1</clus>
</clustering>
</event>
<event>
 9    1  0.6345107E-005  0.1327446E+03  0.7546771E-02  0.1228186E+00
         21   -1    0    0  501  502  0.00000000000E+00  0.00000000000E+00  0.49042435620E+03  0.49042435620E+03  0.00000000000E+00 0. -1.
          3   -1    0    0  502    0 -0.00000000000E+00 -0.00000000000E+00 -0.87381765060E+02  0.87381765060E+02  0.00000000000E+00 0. -1.
         23    2    1    2    0    0 -0.85326779723E+02  0.44554666022E+02 -0.10634360125E+02  0.13238433744E+03  0.90259324073E+02 0.  0.
        -24    2    1    2    0    0  0.75067721322E+02 -0.78103381611E+02  0.34156330093E+03  0.36522737528E+03  0.70641673997E+02 0.  0.
         13    1    4    4    0    0  0.29348950075E+02 -0.70161878432E+02  0.15068837569E+03  0.16879288084E+03  0.00000000000E+00 0. -1.
        -14    1    4    4    0    0  0.45718771247E+02 -0.79415031785E+01  0.19087492524E+03  0.19643449444E+03  0.00000000000E+00 0.  1.
        -13    1    3    3    0    0 -0.36942447090E+02  0.42938532346E+02 -0.45557783352E+02  0.72690945660E+02  0.00000000000E+00 0. -1.
         13    1    3    3    0    0 -0.48384332633E+02  0.16161336758E+01  0.34923423227E+02  0.59693391781E+02  0.00000000000E+00 0.  1.
          4    1    1    2  501    0  0.10259058401E+02  0.33548715589E+02  0.72113650335E+02  0.80194408543E+02  0.00000000000E+00 0. -1.
<scales pt_clust_5="13000.00000" pt_clust_6="13000.00000" pt_clust_7="13000.00000" pt_clust_8="13000.00000" pt_clust_9="35.08225"></scales>
<clustering>
<clus scale="   35.082">  1  9  2 -1</clus>
<clus scale="   70.642">  5  6 -1 -1</clus>
<clus scale="   90.259">  7  8 -1 -1</clus>
<clus scale="  120.269">  1  5  2 -1</clus>
<clus scale="   35.082">  1  5  2 -1</clus>
</clustering>
</event>
<event>
 9    1  0.6345107E-005  0.2076428E+03  0.7546771E-02  0.1144293E+00
         21   -1    0    0  501  502  0.00000000000E+00  0.00000000000E+00  0.76454912564E+02  0.76454912564E+02  0.00000000000E+00 0. -1.
          1   -1    0    0  502    0 -0.00000000000E+00 -0.00000000000E+00 -0.10284338150E+04  0.10284338150E+04  0.00000000000E+00 0. -1.
        -24    2    1    2    0    0  0.68428435778E+02  0.13424227562E+03 -0.22414597047E+03  0.28113937046E+03  0.78067215635E+02 0.  0.
         23    2    1    2    0    0 -0.65251124541E+02 -0.23490713350E+03 -0.36871369415E+03  0.45077464497E+03  0.88368103288E+02 0.  0.
         13    1    3    3    0    0  0.74382266766E+02  0.82055260828E+02 -0.11308863818E+03  0.15828716791E+03  0.00000000000E+00 0. -1.
        -14    1    3    3    0    0 -0.59538309883E+01  0.52187014796E+02 -0.11105733229E+03  0.12285220255E+03  0.00000000000E+00 0.  1.
        -11    1    4    4    0    0 -0.69781664325E+02 -0.19068222302E+03 -0.34518195251E+03  0.40047443263E+03  0.00000000000E+00 0. -1.
         11    1    4    4    0    0  0.45305397836E+01 -0.44224910478E+02 -0.23531741638E+02  0.50300212346E+02  0.00000000000E+00 0.  1.
          2    1    1    2  501    0 -0.31773112363E+01  0.10066485787E+03 -0.35911923782E+03  0.37297471213E+03  0.00000000000E+00 0. -1.
<scales pt_clust_5="13000.00000" pt_clust_6="13000.00000" pt_clust_7="13000.00000" pt_clust_8="13000.00000" pt_clust_9="100.71504"></scales>
<clustering>
<clus scale="   78.067">  5  6 -1 -1</clus>
<clus scale="   88.368">  7  8 -1 -1</clus>
<clus scale="  100.715">  1  9  2 -1</clus>
<clus scale="  203.473">  2  5  1 -1</clus>
<clus scale="  100.715">  1  5  2 -1</clus>
</clustering>
</event>
<event>
 9    1  0.6345107E-005  0.1342011E+03  0.7546771E-02  0.1223196E+00
         21   -1    0    0  501  502  0.00000000000E+00  0.00000000000E+00  0.49819108396E+02  0.49819108396E+02  0.00000000000E+00 0.  1.
         -2   -1    0    0    0  501 -0.00000000000E+00 -0.00000000000E+00 -0.57208426382E+03  0.57208426382E+03  0.00000000000E+00 0.  1.
         23    2    1    2    0    0  0.56193584342E+02 -0.58202329716E+02 -0.15721355330E+03  0.19798444172E+03  0.89087079414E+02 0.  0.
        -24    2    1    2    0    0 -0.47799176114E+02  0.11748786965E+03 -0.21638555650E+03  0.26364780253E+03  0.81236038597E+02 0.  0.
         11    1    4    4    0    0 -0.19564086623E+02  0.10514584252E+03 -0.11222745747E+03  0.15502710697E+03  0.00000000000E+00 0. -1.
        -12    1    4    4    0    0 -0.28235089491E+02  0.12342027136E+02 -0.10415809903E+03  0.10862069557E+03  0.00000000000E+00 0.  1.
        -13    1    3    3    0    0  0.34003312245E+02 -0.81295454991E+02 -0.11022667765E+03  0.14112085853E+03  0.00000000000E+00 0. -1.
         13    1    3    3    0    0  0.22190272097E+02  0.23093125276E+02 -0.46986875644E+02  0.56863583193E+02  0.00000000000E+00 0.  1.
         -1    1    1    2    0  502 -0.83944082285E+01 -0.59285539937E+02 -0.14866604563E+03  0.16027112796E+03  0.00000000000E+00 0.  1.
<scales pt_clust_5="13000.00000" pt_clust_6="13000.00000" pt_clust_7="13000.00000" pt_clust_8="13000.00000" pt_clust_9="59.87691"></scales>
<clustering>
<clus scale="   59.877">  1  9  2 -1</clus>
<clus scale="   81.236">  5  6 -1 -1</clus>
<clus scale="   89.087">  7  8 -1 -1</clus>
<clus scale="  129.123">  1  5  2 -1</clus>
<clus scale="   59.877">  1  5  2 -1</clus>
</clustering>
</event>
<event>
 9    1  0.6345107E-005  0.1161430E+03  0.7546771E-02  0.1252941E+00
          1   -1    0    0  502    0 -0.00000000000E+00  0.00000000000E+00  0.48520638710E+03  0.48520638710E+03  0.00000000000E+00 0. -1.
         21   -1    0    0  501  502  0.00000000000E+00 -0.00000000000E+00 -0.10250670401E+03  0.10250670401E+03  0.00000000000E+00 0.  1.
         23    2    1    2    0    0 -0.46955828671E+02 -0.50853772345E+02  0.37555535277E+03  0.39265891482E+03  0.91368727613E+02 0.  0.
        -24    2    1    2    0    0  0.24035096968E+02  0.88698774893E+02  0.50698898379E+02  0.13296871455E+03  0.81640322135E+02 0.  0.
         11    1    4    4    0    0 -0.35269743361E+01  0.30018662520E+02  0.60280596024E+02  0.67433744553E+02  0.00000000000E+00 0. -1.
        -12    1    4    4    0    0  0.27562071304E+02  0.58680112373E+02 -0.95816976446E+01  0.65534969996E+02  0.00000000000E+00 0.  1.
        -13    1    3    3    0    0 -0.48879999554E+01 -0.64632524545E+02  0.27914797602E+03  0.28657433292E+03  0.00000000000E+00 0. -1.
         13    1    3    3    0    0 -0.42067828716E+02  0.13778752200E+02  0.96407376751E+02  0.10608458190E+03  0.00000000000E+00 0.  1.
          2    1    1    2  501    0  0.22920731704E+02 -0.37845002548E+02 -0.43554568067E+02  0.62085461738E+02  0.00000000000E+00 0. -1.
<scales pt_clust_5="13000.00000" pt_clust_6="13000.00000" pt_clust_7="13000.00000" pt_clust_8="13000.00000" pt_clust_9="44.24482"></scales>
<clustering>
<clus scale="   44.245">  2  9  1 -1</clus>
<clus scale="   81.640">  5  6 -1 -1</clus>
<clus scale="   91.369">  7  8 -1 -1</clus>
<clus scale="  108.656">  2  5  1 -1</clus>
<clus scale="   44.245">  2  5  1 -1</clus>
</clustering>
</event>
<event>
 9    1  0.6345107E-005  0.1087189E+03  0.7546771E-02  0.1267290E+00
         21   -1    0    0  501  502  0.00000000000E+00  0.00000000000E+00  0.63131450965E+03  0.63131450965E+03  0.00000000000E+00 0.  1.
         -4   -1    0    0    0  501 -0.00000000000E+00 -0.00000000000E+00 -0.38426579853E+03  0.38426579853E+03  0.00000000000E+00 0.  1.
         23    2    1    2    0    0 -0.67112649981E+02  0.18470179467E+02 -0.23275720794E+03  0.25902501639E+03  0.89848683659E+02 0.  0.
        -24    2    1    2    0    0  0.16358147580E+02 -0.70522184322E+02 -0.11508760347E+03  0.15723589959E+03  0.78974705917E+02 0.  0.
         11    1    4    4    0    0  0.23890512930E+02 -0.66832518604E+02 -0.39581225874E+02  0.81265094553E+02  0.00000000000E+00 0. -1.
        -12    1    4    4    0    0 -0.75323653508E+01 -0.36896657181E+01 -0.75506377594E+02  0.75970805039E+02  0.00000000000E+00 0.  1.
        -13    1    3    3    0    0 -0.51510778266E+02 -0.71122469228E+01 -0.22067073840E+03  0.22671462044E+03  0.00000000000E+00 0.  1.
         13    1    3    3    0    0 -0.15601871715E+02  0.25582426390E+02 -0.12086469534E+02  0.32310395956E+02  0.00000000000E+00 0. -1.
         -3    1    1    2    0  502  0.50754502401E+02  0.52052004854E+02  0.59489352252E+03  0.59931939220E+03  0.00000000000E+00 0.  1.
<scales pt_clust_5="13000.00000" pt_clust_6="13000.00000" pt_clust_7="13000.00000" pt_clust_8="13000.00000" pt_clust_9="72.70097"></scales>
<clustering>
<clus scale="   72.701">  1  9  2 -1</clus>
<clus scale="   78.975">  5  6 -1 -1</clus>
<clus scale="   89.849">  7  8 -1 -1</clus>
<clus scale="   99.920">  1  5  2 -1</clus>
<clus scale="   72.701">  1  5  2 -1</clus>
</clustering>
</event>
<event>
 9    1  0.6345107E-005  0.1216583E+03  0.7546771E-02  0.1243198E+00
         21   -1    0    0  501  502  0.00000000000E+00  0.00000000000E+00  0.17762444408E+02  0.17762444408E+02  0.00000000000E+00 0. -1.
          1   -1    0    0  502    0 -0.00000000000E+00 -0.00000000000E+00 -0.10733894909E+04  0.10733894909E+04  0.00000000000E+00 0. -1.
         23    2    1    2    0    0 -0.13017804222E+02  0.94648560611E+02 -0.64410110720E+03  0.65738797075E+03  0.90359805935E+02 0.  0.
        -24    2    1    2    0    0  0.18405373098E+02 -0.61290614637E+02 -0.30601472412E+03  0.32297409596E+03  0.81067614259E+02 0.  0.
         13    1    4    4    0    0  0.47232764585E+02 -0.36272755469E+02 -0.13184822961E+03  0.14467412516E+03  0.00000000000E+00 0. -1.
        -14    1    4    4    0    0 -0.28827391487E+02 -0.25017859168E+02 -0.17416649451E+03  0.17829997080E+03  0.00000000000E+00 0.  1.
        -11    1    3    3    0    0  0.36483181283E+02  0.62322761151E+02 -0.33771869500E+03  0.34535353774E+03  0.00000000000E+00 0.  1.
         11    1    3    3    0    0 -0.49500985505E+02  0.32325799460E+02 -0.30638241220E+03  0.31203443301E+03  0.00000000000E+00 0. -1.
          2    1    1    2  501    0 -0.53875688761E+01 -0.33357945974E+02 -0.10551121513E+03  0.11078986856E+03  0.00000000000E+00 0. -1.
<scales pt_clust_5="13000.00000" pt_clust_6="13000.00000" pt_clust_7="13000.00000" pt_clust_8="13000.00000" pt_clust_9="33.79021"></scales>
<clustering>
<clus scale="   33.790">  1  9  2 -1</clus>
<clus scale="   81.068">  5  6 -1 -1</clus>
<clus scale="   90.360">  7  8 -1 -1</clus>
<clus scale="  114.925">  1  5  2 -1</clus>
<clus scale="   33.790">  1  5  2 -1</clus>
</clustering>
</event>
<event>
 9    1  0.6345107E-005  0.2488544E+03  0.7546771E-02  0.1114712E+00
          1   -1    0    0  502    0 -0.00000000000E+00  0.00000000000E+00  0.34208013121E+03  0.34208013121E+03  0.00000000000E+00 0. -1.
         21   -1    0    0  501  502  0.00000000000E+00 -0.00000000000E+00 -0.23393899696E+03  0.23393899696E+03  0.00000000000E+00 0.  1.
        -24    2    1    2    0    0  0.18475983497E+03  0.15135789604E+03  0.91136019680E+02  0.26814092500E+03  0.80922013480E+02 0.  0.
         23    2    1    2    0    0 -0.12981363210E+03 -0.18383010621E+03  0.10420735183E+02  0.24371525673E+03  0.92970143656E+02 0.  0.
         11    1    3    3    0    0  0.12787731734E+03  0.79568954089E+02  0.92106124213E+02  0.17654281312E+03  0.00000000000E+00 0. -1.
        -12    1    3    3    0    0  0.56882517631E+02  0.71788941953E+02 -0.97010453257E+00  0.91598111889E+02  0.00000000000E+00 0.  1.
        -13    1    4    4    0    0 -0.79501563988E+02 -0.11786775440E+03  0.51408383966E+02  0.15118243332E+03  0.00000000000E+00 0. -1.
         13    1    4    4    0    0 -0.50312068110E+02 -0.65962351812E+02 -0.40987648783E+02  0.92532823402E+02  0.00000000000E+00 0.  1.
          2    1    1    2  501    0 -0.54946202876E+02  0.32472210168E+02  0.65843793929E+01  0.64162946438E+02  0.00000000000E+00 0. -1.
<scales pt_clust_5="13000.00000" pt_clust_6="13000.00000" pt_clust_7="13000.00000" pt_clust_8="13000.00000" pt_clust_9="63.82421"></scales>
<clustering>
<clus scale="   63.824">  2  9  1 -1</clus>
<clus scale="   80.922">  5  6 -1 -1</clus>
<clus scale="   92.970">  7  8 -1 -1</clus>
<clus scale="  244.609">  1  5  2 -1</clus>
<clus scale="   63.824">  2  5  1 -1</clus>
</clustering>
</event>
<event>
 9    1  0.6345107E-005  0.1118818E+03  0.7546771E-02  0.1272284E+00
         21   -1    0    0  501  502  0.00000000000E+00  0.00000000000E+00  0.13424665260E+03  0.13424665260E+03  0.00000000000E+00 0.  1.
          1   -1    0    0  502    0 -0.00000000000E+00 -0.00000000000E+00 -0.22308176342E+03  0.22308176342E+03  0.00000000000E+00 0. -1.
        -24    2    1    2    0    0  0.65191876939E+02  0.10478928975E+02 -0.15212368071E+03  0.17372576850E+03  0.51761372044E+02 0.  0.
         23    2    1    2    0    0 -0.51026568315E+02 -0.33039050400E+02  0.93092737984E+02  0.14362886257E+03  0.90926908957E+02 0.  0.
         13    1    3    3    0    0  0.55809026444E+02 -0.11688268977E+02 -0.84439248871E+02  0.10188841845E+03  0.00000000000E+00 0. -1.
        -14    1    3    3    0    0  0.93828504955E+01  0.22167197951E+02 -0.67684431843E+02  0.71837350051E+02  0.00000000000E+00 0.  1.
        -13    1    4    4    0    0 -0.14855373316E+01 -0.47187878650E+02  0.14014645153E+02  0.49247466853E+02  0.00000000000E+00 0. -1.
         13    1    4    4    0    0 -0.49541030984E+02  0.14148828250E+02  0.79078092830E+02  0.94381395717E+02  0.00000000000E+00 0.  1.
          2    1    1    2  501    0 -0.14165308624E+02  0.22560121425E+02 -0.29804168090E+02  0.39973784943E+02  0.00000000000E+00 0. -1.
<scales pt_clust_5="13000.00000" pt_clust_6="13000.00000" pt_clust_7="13000.00000" pt_clust_8="13000.00000" pt_clust_9="26.63861"></scales>
<clustering>
<clus scale="   26.639">  1  9  2 -1</clus>
<clus scale="   51.761">  5  6 -1 -1</clus>
<clus scale="   83.241">  2  5  1 -1</clus>
<clus scale="   90.927">  7  8 -1 -1</clus>
<clus scale="   26.639">  1  5  2 -1</clus>
</clustering>
</event>
<event>
 9    1  0.6345107E-005  0.9476094E+02  0.7546771E-02  0.1297385E+00
         21   -1    0    0  501  502  0.00000000000E+00  0.00000000000E+00  0.43185718181E+02  0.43185718181E+02  0.00000000000E+00 0.  1.
          3   -1    0    0  502    0 -0.00000000000E+00 -0.00000000000E+00 -0.39144846537E+03  0.39144846537E+03  0.00000000000E+00 0. -1.
        -24    2    1    2    0    0 -0.21488415799E+02  0.22882965187E+01 -0.27165080477E+03  0.28459470579E+03  0.82054850677E+02 0.  0.
         23    2    1    2    0    0  0.31608992172E+02  0.20928743246E+02 -0.43847070716E+02  0.10862699390E+03  0.91870112187E+02 0.  0.
         13    1    3    3    0    0 -0.34284865586E+02 -0.31983345744E+02 -0.17744869408E+03  0.18353862112E+03  0.00000000000E+00 0. -1.
        -14    1    3    3    0    0  0.12796449787E+02  0.34271642263E+02 -0.94202110685E+02  0.10105608467E+03  0.00000000000E+00 0.  1.
        -11    1    4    4    0    0  0.42123812145E+02  0.44301387023E+02 -0.40161276265E+01  0.61263020844E+02  0.00000000000E+00 0.  1.
         11    1    4    4    0    0 -0.10514819974E+02 -0.23372643777E+02 -0.39830943090E+02  0.47363973056E+02  0.00000000000E+00 0. -1.
          4    1    1    2  501    0 -0.10120576373E+02 -0.23217039765E+02 -0.32764871707E+02  0.41412483861E+02  0.00000000000E+00 0. -1.
<scales pt_clust_5="13000.00000" pt_clust_6="13000.00000" pt_clust_7="13000.00000" pt_clust_8="13000.00000" pt_clust_9="25.32700"></scales>
<clustering>
<clus scale="   25.327">  1  9  2 -1</clus>
<clus scale="   82.055">  5  6 -1 -1</clus>
<clus scale="   85.279">  2  5  1 -1</clus>
<clus scale="   91.870">  7  8 -1 -1</clus>
<clus scale="   25.327">  1  5  2 -1</clus>
</clustering>
</event>
<event>
 9    1  0.6345107E-005  0.1699226E+03  0.7546771E-02  0.1179221E+00
          3   -1    0    0  502    0 -0.00000000000E+00  0.00000000000E+00  0.13263832007E+03  0.13263832007E+03  0.00000000000E+00 0. -1.
         21   -1    0    0  501  502  0.00000000000E+00 -0.00000000000E+00 -0.27305227613E+03  0.27305227613E+03  0.00000000000E+00 0. -1.
         23    2    1    2    0    0 -0.45600864492E+02  0.12866645077E+03 -0.14201239752E+02  0.16458733117E+03  0.90845032740E+02 0.  0.
        -24    2    1    2    0    0  0.31745740959E+02 -0.15332846503E+03 -0.10165266712E+03  0.20364161249E+03  0.81358658690E+02 0.  0.
         13    1    4    4    0    0 -0.64942161204E+01 -0.47393237742E+02 -0.73255617677E+02  0.87491024385E+02  0.00000000000E+00 0. -1.
        -14    1    4    4    0    0  0.38239957079E+02 -0.10593522729E+03 -0.28397049446E+02  0.11615058810E+03  0.00000000000E+00 0.  1.
        -11    1    3    3    0    0 -0.43767903794E+02  0.24508654140E+02  0.21345771830E+02  0.54515552875E+02  0.00000000000E+00 0. -1.
         11    1    3    3    0    0 -0.18329606987E+01  0.10415779663E+03 -0.35547011581E+02  0.11007177829E+03  0.00000000000E+00 0.  1.
          4    1    1    2  501    0  0.13855123533E+02  0.24662014263E+02 -0.24560049182E+02  0.37461652546E+02  0.00000000000E+00 0. -1.
<scales pt_clust_5="13000.00000" pt_clust_6="13000.00000" pt_clust_7="13000.00000" pt_clust_8="13000.00000" pt_clust_9="28.28744"></scales>
<clustering>
<clus scale="   28.287">  2  9  1 -1</clus>
<clus scale="   81.359">  5  6 -1 -1</clus>
<clus scale="   90.845">  7  8 -1 -1</clus>
<clus scale="  165.046">  2  5  1 -1</clus>
<clus scale="   28.287">  2  5  1 -1</clus>
</clustering>
</event>
<event>
 9    1  0.6345107E-005  0.9143147E+02  0.7546771E-02  0.1301973E+00
         21   -1    0    0  501  502  0.00000000000E+00  0.00000000000E+00  0.40644222045E+03  0.40644222045E+03  0.00000000000E+00 0.  1.
          1   -1    0    0  502    0 -0.00000000000E+00 -0.00000000000E+00 -0.37602481563E+02  0.37602481563E+02  0.00000000000E+00 0. -1.
         23    2    1    2    0    0 -0.23274219834E+02 -0.12216160241E+02  0.52941025281E+02  0.10366989689E+03  0.85169075868E+02 0.  0.
        -24    2    1    2    0    0  0.47062648991E+02  0.23398899186E+02  0.20608216009E+03  0.22745616875E+03  0.80647694226E+02 0.  0.
         13    1    4    4    0    0 -0.19197570036E+02  0.76441549191E+01  0.17935438511E+02  0.27361647507E+02  0.00000000000E+00 0. -1.
        -14    1    4    4    0    0  0.66260219027E+02  0.15754744267E+02  0.18814672158E+03  0.20009452124E+03  0.00000000000E+00 0.  1.
        -13    1    3    3    0    0  0.28887126663E+02 -0.33594766107E+01  0.39554217479E+02  0.49094686987E+02  0.00000000000E+00 0.  1.
         13    1    3    3    0    0 -0.52161346496E+02 -0.88566836304E+01  0.13386807801E+02  0.54575209907E+02  0.00000000000E+00 0. -1.
          2    1    1    2  501    0 -0.23788429157E+02 -0.11182738945E+02  0.10981655352E+03  0.11291863637E+03  0.00000000000E+00 0. -1.
<scales pt_clust_5="13000.00000" pt_clust_6="13000.00000" pt_clust_7="13000.00000" pt_clust_8="13000.00000" pt_clust_9="26.28579"></scales>
<clustering>
<clus scale="   26.286">  1  9  2 -1</clus>
<clus scale="   80.648">  5  6 -1 -1</clus>
<clus scale="   85.169">  7  8 -1 -1</clus>
<clus scale="   87.235">  1  5  2 -1</clus>
<clus scale="   26.286">  1  5  2 -1</clus>
</clustering>
</event>
<event>
 9    1  0.6345107E-005  0.1066257E+03  0.7546771E-02  0.1271464E+00
         21   -1    0    0  501  502  0.00000000000E+00  0.00000000000E+00  0.19355763790E+03  0.19355763790E+03  0.00000000000E+00 0. -1.
          3   -1    0    0  502    0 -0.00000000000E+00 -0.00000000000E+00 -0.24365528109E+03  0.24365528109E+03  0.00000000000E+00 0. -1.
        -24    2    1    2    0    0  0.56280437046E+02 -0.30127338844E+01 -0.16788797933E+03  0.19474611141E+03  0.81013024557E+02 0.  0.
         23    2    1    2    0    0 -0.28516961638E+02  0.62079754704E+02  0.13311613107E+03  0.17542500341E+03  0.91580098414E+02 0.  0.
         13    1    3    3    0    0  0.49775605405E+02  0.32009664258E+02 -0.76910366526E+02  0.97043464378E+02  0.00000000000E+00 0. -1.
        -14    1    3    3    0    0  0.65048316407E+01 -0.35022398142E+02 -0.90977612803E+02  0.97702647035E+02  0.00000000000E+00 0.  1.
        -11    1    4    4    0    0 -0.31859465104E+02  0.32901265091E+02  0.13822486861E+03  0.14561467325E+03  0.00000000000E+00 0. -1.
         11    1    4    4    0    0  0.33425034657E+01  0.29178489612E+02 -0.51087375395E+01  0.29810330168E+02  0.00000000000E+00 0.  1.
          4    1    1    2  501    0 -0.27763475408E+02 -0.59067020819E+02 -0.15325794941E+02  0.67041804165E+02  0.00000000000E+00 0. -1.
<scales pt_clust_5="13000.00000" pt_clust_6="13000.00000" pt_clust_7="13000.00000" pt_clust_8="13000.00000" pt_clust_9="65.26659"></scales>
<clustering>
<clus scale="   65.267">  1  9  2 -1</clus>
<clus scale="   81.013">  5  6 -1 -1</clus>
<clus scale="   91.580">  7  8 -1 -1</clus>
<clus scale="   97.700">  2  5  1 -1</clus>
<clus scale="   65.267">  1  5  2 -1</clus>
</clustering>
</event>
<event>
 9    1  0.6345107E-005  0.1127317E+03  0.7546771E-02  0.1260998E+00
          1   -1    0    0  502    0 -0.00000000000E+00  0.00000000000E+00  0.10162958358E+03  0.10162958358E+03  0.00000000000E+00 0. -1.
         21   -1    0    0  501  502  0.00000000000E+00 -0.00000000000E+00 -0.28370054442E+03  0.28370054442E+03  0.00000000000E+00 0.  1.
         23    2    1    2    0    0  0.63639555275E+02  0.35477676355E+02  0.50483729096E+02  0.12530706584E+03  0.88569720169E+02 0.  0.
        -24    2    1    2    0    0 -0.43410835164E+02 -0.27543563408E+02 -0.21160857872E+03  0.22984209397E+03  0.73525839520E+02 0.  0.
         13    1    4    4    0    0 -0.43837072748E+02  0.98564562188E+01 -0.68459560531E+02  0.81887423359E+02  0.00000000000E+00 0. -1.
        -14    1    4    4    0    0  0.42623758446E+00 -0.37400019627E+02 -0.14314901819E+03  0.14795467061E+03  0.00000000000E+00 0.  1.
        -11    1    3    3    0    0  0.30351952130E+02 -0.20548946899E+02  0.47595727696E+02  0.60073733958E+02  0.00000000000E+00 0.  1.
         11    1    3    3    0    0  0.33287603145E+02  0.56026623253E+02  0.28880013997E+01  0.65233331881E+02  0.00000000000E+00 0. -1.
          2    1    1    2  501    0 -0.20228720111E+02 -0.79341129466E+01 -0.20946111217E+02  0.30180968187E+02  0.00000000000E+00 0. -1.
<scales pt_clust_5="13000.00000" pt_clust_6="13000.00000" pt_clust_7="13000.00000" pt_clust_8="13000.00000" pt_clust_9="21.72904"></scales>
<clustering>
<clus scale="   21.729">  2  9  1 -1</clus>
<clus scale="   73.526">  5  6 -1 -1</clus>
<clus scale="   88.570">  7  8 -1 -1</clus>
<clus scale="  101.340">  2  5  1 -1</clus>
<clus scale="   21.729">  2  5  1 -1</clus>
</clustering>
</event>
<event>
 9    1  0.6345107E-005  0.1256676E+03  0.7546771E-02  0.1238414E+00
         21   -1    0    0  501  502  0.00000000000E+00  0.00000000000E+00  0.28254154388E+03  0.28254154388E+03  0.00000000000E+00 0. -1.
          1   -1    0    0  502    0 -0.00000000000E+00 -0.00000000000E+00 -0.95905181204E+02  0.95905181204E+02  0.00000000000E+00 0. -1.
         23    2    1    2    0    0 -0.62014381795E+02 -0.43990822732E+02  0.72532822700E+01  0.12110351972E+03  0.93981255322E+02 0.  0.
        -24    2    1    2    0    0  0.10094858351E+03  0.38657805917E+02  0.17096613792E+03  0.21715417636E+03  0.79002996926E+02 0.  0.
         11    1    4    4    0    0  0.31188052103E+02  0.32311593551E+01  0.11940174555E+03  0.12345003777E+03  0.00000000000E+00 0. -1.
        -12    1    4    4    0    0  0.69760531403E+02  0.35426646561E+02  0.51564392376E+02  0.93704138592E+02  0.00000000000E+00 0.  1.
        -13    1    3    3    0    0 -0.77201268215E+02 -0.30970259234E+01  0.46452687466E+01  0.77402880472E+02  0.00000000000E+00 0.  1.
         13    1    3    3    0    0  0.15186886420E+02 -0.40893796809E+02  0.26080135235E+01  0.43700639253E+02  0.00000000000E+00 0. -1.
          2    1    1    2  501    0 -0.38934201711E+02  0.53330168159E+01  0.84169424828E+01  0.40189029000E+02  0.00000000000E+00 0. -1.
<scales pt_clust_5="13000.00000" pt_clust_6="13000.00000" pt_clust_7="13000.00000" pt_clust_8="13000.00000" pt_clust_9="39.29777"></scales>
<clustering>
<clus scale="   39.298">  1  9  2 -1</clus>
<clus scale="   79.003">  5  6 -1 -1</clus>
<clus scale="   93.981">  7  8 -1 -1</clus>
<clus scale="  114.897">  1  5  2 -1</clus>
<clus scale="   39.298">  1  5  2 -1</clus>
</clustering>
</event>
<event>
 9    1  0.6345107E-005  0.1056078E+03  0.7546771E-02  0.1272147E+00
          1   -1    0    0  502    0 -0.00000000000E+00  0.00000000000E+00  0.32750058004E+03  0.32750058004E+03  0.00000000000E+00 0. -1.
         21   -1    0    0  501  502  0.00000000000E+00 -0.00000000000E+00 -0.45490065866E+02  0.45490065866E+02  0.00000000000E+00 0.  1.
        -24    2    1    2    0    0 -0.47332648654E+02 -0.33965787526E+02  0.18167192085E+03  0.20869297552E+03  0.84581421471E+02 0.  0.
         23    2    1    2    0    0  0.29258725234E+02  0.24144621979E+02  0.53095418530E+02  0.11277059434E+03  0.91973081421E+02 0.  0.
         13    1    3    3    0    0  0.13144966900E+02 -0.28902097329E+02  0.24172168569E+02  0.39905076346E+02  0.00000000000E+00 0. -1.
        -14    1    3    3    0    0 -0.60477615554E+02 -0.50636901975E+01  0.15749975228E+03  0.16878789918E+03  0.00000000000E+00 0.  1.
        -13    1    4    4    0    0  0.48099107387E+02  0.11765367520E+02 -0.56592988243E+01  0.49839499069E+02  0.00000000000E+00 0. -1.
         13    1    4    4    0    0 -0.18840382153E+02  0.12379254459E+02  0.58754717354E+02  0.62931095271E+02  0.00000000000E+00 0.  1.
          2    1    1    2  501    0  0.18073923420E+02  0.98211655473E+01  0.47243174798E+02  0.51527076043E+02  0.00000000000E+00 0. -1.
<scales pt_clust_5="13000.00000" pt_clust_6="13000.00000" pt_clust_7="13000.00000" pt_clust_8="13000.00000" pt_clust_9="20.56994"></scales>
<clustering>
<clus scale="   20.570">  2  9  1 -1</clus>
<clus scale="   84.581">  5  6 -1 -1</clus>
<clus scale="   91.973">  7  8 -1 -1</clus>
<clus scale="   99.237">  1  5  2 -1</clus>
<clus scale="   20.570">  2  5  1 -1</clus>
</clustering>
</event>
<event>
 9    1  0.6345107E-005  0.1687716E+03  0.7546771E-02  0.1188646E+00
          3   -1    0    0  502    0 -0.00000000000E+00  0.00000000000E+00  0.69589659486E+03  0.69589659486E+03  0.00000000000E+00 0. -1.
         21   -1    0    0  501  502  0.00000000000E+00 -0.00000000000E+00 -0.81110775290E+02  0.81110775290E+02  0.00000000000E+00 0. -1.
        -24    2    1    2    0    0 -0.10337709039E+03  0.40133716349E+02  0.13111695238E+03  0.18925680189E+03  0.79554659545E+02 0.  0.
         23    2    1    2    0    0  0.14132536038E+03  0.93682825708E+02  0.31049513686E+03  0.36563330418E+03  0.92364245226E+02 0.  0.
         11    1    3    3    0    0 -0.57445983211E+02  0.35756618670E+02  0.12575942431E+03  0.14280759633E+03  0.00000000000E+00 0. -1.
        -12    1    3    3    0    0 -0.45931107175E+02  0.43770976782E+01  0.53575280704E+01  0.46449205563E+02  0.00000000000E+00 0.  1.
        -13    1    4    4    0    0  0.11360882732E+03  0.73680581852E+02  0.15231763918E+03  0.20380494840E+03  0.00000000000E+00 0. -1.
         13    1    4    4    0    0  0.27716533066E+02  0.20002243856E+02  0.15817749768E+03  0.16182835579E+03  0.00000000000E+00 0.  1.
          4    1    1    2  501    0 -0.37948269996E+02 -0.13381654206E+03  0.17317373033E+03  0.22211726407E+03  0.00000000000E+00 0. -1.
<scales pt_clust_5="13000.00000" pt_clust_6="13000.00000" pt_clust_7="13000.00000" pt_clust_8="13000.00000" pt_clust_9="141.25407"></scales>
<clustering>
<clus scale="   79.555">  5  6 -1 -1</clus>
<clus scale="   92.364">  7  8 -1 -1</clus>
<clus scale="  136.479">  1  5  2 -1</clus>
<clus scale="  141.254">  2  9  1 -1</clus>
<clus scale="  141.254">  2  5  1 -1</clus>
</clustering>
</event>
<event>
 9    1  0.6345107E-005  0.1163758E+03  0.7546771E-02  0.1260216E+00
         -2   -1    0    0    0  501 -0.00000000000E+00  0.00000000000E+00  0.48965044693E+03  0.48965044693E+03  0.00000000000E+00 0.  1.
         21   -1    0    0  501  502  0.00000000000E+00 -0.00000000000E+00 -0.15867874744E+03  0.15867874744E+03  0.00000000000E+00 0.  1.
        -24    2    1    2    0    0 -0.81724915773E+01 -0.47849410139E+02  0.42082890413E+03  0.43127859028E+03  0.80919096737E+02 0.  0.
         23    2    1    2    0    0  0.22264969857E+02  0.27595416637E+02  0.11409528948E+02  0.11282117673E+03  0.10649509221E+03 0.  0.
         11    1    3    3    0    0 -0.43578889938E+02 -0.34116115150E+02  0.28011522785E+03  0.28553033085E+03  0.00000000000E+00 0. -1.
        -12    1    3    3    0    0  0.35406398360E+02 -0.13733294989E+02  0.14071367628E+03  0.14574825944E+03  0.00000000000E+00 0.  1.
        -11    1    4    4    0    0  0.58597937931E+02  0.14100623899E+02 -0.19392921970E+02  0.63313753219E+02  0.00000000000E+00 0.  1.
         11    1    4    4    0    0 -0.36332968074E+02  0.13494792738E+02  0.30802450918E+02  0.49507423510E+02  0.00000000000E+00 0. -1.
         -1    1    1    2    0  502 -0.14092478280E+02  0.20253993502E+02 -0.10126673358E+03  0.10422942736E+03  0.00000000000E+00 0.  1.
<scales pt_clust_5="13000.00000" pt_clust_6="13000.00000" pt_clust_7="13000.00000" pt_clust_8="13000.00000" pt_clust_9="24.67432"></scales>
<clustering>
<clus scale="   24.674">  2  9  1 -1</clus>
<clus scale="   80.919">  5  6 -1 -1</clus>
<clus scale="   93.542">  1  5  2 -1</clus>
<clus scale="  106.495">  7  8 -1 -1</clus>
<clus scale="   24.674">  2  5  1 -1</clus>
</clustering>
</event>
<event>
 9    1  0.6345107E-005  0.3747107E+03  0.7546771E-02  0.1084797E+00
         21   -1    0    0  501  502  0.00000000000E+00  0.00000000000E+00  0.67517965084E+03  0.67517965084E+03  0.00000000000E+00 0. -1.
          1   -1    0    0  502    0 -0.00000000000E+00 -0.00000000000E+00 -0.41958170839E+03  0.41958170839E+03  0.00000000000E+00 0. -1.
        -24    2    1    2    0    0 -0.10876996092E+03  0.78511302283E+02  0.26894344799E+01  0.15581295433E+03  0.79218146248E+02 0.  0.
         23    2    1    2    0    0  0.26205931694E+03  0.25606161231E+03 -0.13814944730E+03  0.40195400435E+03  0.90769581499E+02 0.  0.
         11    1    3    3    0    0 -0.76395176697E+02  0.17555697211E+02 -0.23745574499E+02  0.81904077037E+02  0.00000000000E+00 0. -1.
        -12    1    3    3    0    0 -0.32374784224E+02  0.60955605072E+02  0.26435008979E+02  0.73908877295E+02  0.00000000000E+00 0.  1.
        -13    1    4    4    0    0  0.20551916370E+03  0.14521185984E+03 -0.10847477086E+03  0.27402807667E+03  0.00000000000E+00 0. -1.
         13    1    4    4    0    0  0.56540153241E+02  0.11084975247E+03 -0.29674676432E+02  0.12792592768E+03  0.00000000000E+00 0.  1.
          2    1    1    2  501    0 -0.15328935602E+03 -0.33457291460E+03  0.39105795526E+03  0.53699440055E+03  0.00000000000E+00 0. -1.
<scales pt_clust_5="13000.00000" pt_clust_6="13000.00000" pt_clust_7="13000.00000" pt_clust_8="13000.00000" pt_clust_9="363.55057"></scales>
<clustering>
<clus scale="   79.218">  5  6 -1 -1</clus>
<clus scale="   90.770">  7  8 -1 -1</clus>
<clus scale="  155.790">  2  5  1 -1</clus>
<clus scale="  363.551">  1  9  2 -1</clus>
<clus scale="  363.551">  1  5  2 -1</clus>
</clustering>
</event>
<event>
 9    1  0.6345107E-005  0.1053033E+03  0.7546771E-02  0.1274425E+00
          1   -1    0    0  502    0 -0.00000000000E+00  0.00000000000E+00  0.11554329122E+03  0.11554329122E+03  0.00000000000E+00 0. -1.
         21   -1    0    0  501  502  0.00000000000E+00 -0.00000000000E+00 -0.33589361580E+03  0.33589361580E+03  0.00000000000E+00 0. -1.
         23    2    1    2    0    0  0.41474559990E+00 -0.49538694159E+02  0.22270004400E+02  0.10645534269E+03  0.91556172146E+02 0.  0.
        -24    2    1    2    0    0  0.53549943881E+02  0.43621424493E+02 -0.10449584071E+02  0.10654822651E+03  0.80454369684E+02 0.  0.
         11    1    4    4    0    0  0.67689050849E+02  0.30067089490E+02 -0.29028425575E+02  0.79551787954E+02  0.00000000000E+00 0. -1.
        -12    1    4    4    0    0 -0.14139106968E+02  0.13554335002E+02  0.18578841504E+02  0.26996438559E+02  0.00000000000E+00 0.  1.
        -11    1    3    3    0    0 -0.15548386255E+02  0.17835496247E+02  0.28376610883E+02  0.36947114728E+02  0.00000000000E+00 0. -1.
         11    1    3    3    0    0  0.15963131855E+02 -0.67374190405E+02 -0.61066064833E+01  0.69508227960E+02  0.00000000000E+00 0.  1.
          2    1    1    2  501    0 -0.53964689481E+02  0.59172696663E+01 -0.23217074491E+03  0.23843333782E+03  0.00000000000E+00 0. -1.
<scales pt_clust_5="13000.00000" pt_clust_6="13000.00000" pt_clust_7="13000.00000" pt_clust_8="13000.00000" pt_clust_9="54.28814"></scales>
<clustering>
<clus scale="   54.288">  2  9  1 -1</clus>
<clus scale="   80.454">  5  6 -1 -1</clus>
<clus scale="   91.556">  7  8 -1 -1</clus>
<clus scale="   95.808">  2  5  1 -1</clus>
<clus scale="   54.288">  2  5  1 -1</clus>
</clustering>
</event>
<event>
 9    1  0.6345107E-005  0.1793412E+03  0.7546771E-02  0.1169439E+00
         21   -1    0    0  501  502  0.00000000000E+00  0.00000000000E+00  0.14921418286E+03  0.14921418286E+03  0.00000000000E+00 0. -1.
          1   -1    0    0  502    0 -0.00000000000E+00 -0.00000000000E+00 -0.54036202058E+03  0.54036202058E+03  0.00000000000E+00 0. -1.
        -24    2    1    2    0    0 -0.13007387102E+03 -0.83388925453E+02 -0.39628868938E+03  0.43306541671E+03  0.81412560536E+02 0.  0.
         23    2    1    2    0    0  0.16484025314E+03  0.35680037177E+02  0.28178020983E+02  0.19314241514E+03  0.89803215712E+02 0.  0.
         13    1    3    3    0    0 -0.82475758431E+02 -0.77575732443E+02 -0.34382753509E+03  0.36199118619E+03  0.00000000000E+00 0. -1.
        -14    1    3    3    0    0 -0.47598112591E+02 -0.58131930097E+01 -0.52461154286E+02  0.71074230521E+02  0.00000000000E+00 0.  1.
        -13    1    4    4    0    0  0.24592052112E+02  0.32880448918E+02  0.33160302430E+02  0.52777823045E+02  0.00000000000E+00 0.  1.
         13    1    4    4    0    0  0.14024820103E+03  0.27995882595E+01 -0.49822814478E+01  0.14036459210E+03  0.00000000000E+00 0. -1.
          2    1    1    2  501    0 -0.34766382120E+02  0.47708888276E+02 -0.23037169321E+02  0.63368371579E+02  0.00000000000E+00 0. -1.
<scales pt_clust_5="13000.00000" pt_clust_6="13000.00000" pt_clust_7="13000.00000" pt_clust_8="13000.00000" pt_clust_9="59.03253"></scales>
<clustering>
<clus scale="   59.033">  1  9  2 -1</clus>
<clus scale="   81.413">  5  6 -1 -1</clus>
<clus scale="   89.803">  7  8 -1 -1</clus>
<clus scale="  175.290">  2  5  1 -1</clus>
<clus scale="   59.033">  1  5  2 -1</clus>
</clustering>
</event>
<event>
 9    1  0.6345107E-005  0.1082338E+03  0.7546771E-02  0.1268319E+00
         21   -1    0    0  501  502  0.00000000000E+00  0.00000000000E+00  0.18343817123E+03  0.18343817123E+03  0.00000000000E+00 0.  1.
          1   -1    0    0  502    0 -0.00000000000E+00 -0.00000000000E+00 -0.18197255664E+03  0.18197255664E+03  0.00000000000E+00 0. -1.
        -24    2    1    2    0    0  0.22150632416E+01 -0.57420318909E+02 -0.12582962546E+03  0.16041366368E+03  0.81224684202E+02 0.  0.
         23    2    1    2    0    0  0.39685072057E+02  0.53806579115E+02  0.11370632769E+03  0.16080046937E+03  0.91965260263E+02 0.  0.
         13    1    3    3    0    0 -0.33808266474E+02 -0.46211486042E+02 -0.51292987414E+02  0.76873082949E+02  0.00000000000E+00 0. -1.
        -14    1    3    3    0    0  0.36023329716E+02 -0.11208832867E+02 -0.74536638048E+02  0.83540580735E+02  0.00000000000E+00 0.  1.
        -13    1    4    4    0    0  0.67802736445E+02  0.47399586194E+02  0.69643818596E+02  0.10813969350E+03  0.00000000000E+00 0.  1.
         13    1    4    4    0    0 -0.28117664388E+02  0.64069929210E+01  0.44062509089E+02  0.52660775878E+02  0.00000000000E+00 0. -1.
          2    1    1    2  501    0 -0.41900135299E+02  0.36137397935E+01  0.13588912369E+02  0.44196594809E+02  0.00000000000E+00 0. -1.
<scales pt_clust_5="13000.00000" pt_clust_6="13000.00000" pt_clust_7="13000.00000" pt_clust_8="13000.00000" pt_clust_9="42.05568"></scales>
<clustering>
<clus scale="   42.056">  1  9  2 -1</clus>
<clus scale="   81.225">  5  6 -1 -1</clus>
<clus scale="   91.965">  7  8 -1 -1</clus>
<clus scale="   99.269">  2  5  1 -1</clus>
<clus scale="   42.056">  1  5  2 -1</clus>
</clustering>
</event>
<event>
 9    1  0.6345107E-005  0.1130902E+03  0.7546771E-02  0.1260193E+00
         21   -1    0    0  501  502  0.00000000000E+00  0.00000000000E+00  0.35454092224E+02  0.35454092224E+02  0.00000000000E+00 0. -1.
          1   -1    0    0  502    0 -0.00000000000E+00 -0.00000000000E+00 -0.70740970603E+03  0.70740970603E+03  0.00000000000E+00 0. -1.
        -24    2    1    2    0    0  0.26248999872E+02  0.55960490679E+02 -0.47177248416E+03  0.48240259822E+03  0.79513542511E+02 0.  0.
         23    2    1    2    0    0 -0.65902578054E+02 -0.47710549039E+02 -0.13072468315E+03  0.18005632711E+03  0.93337515856E+02 0.  0.
         13    1    3    3    0    0  0.31192173303E+02  0.74901230916E+02 -0.37937649831E+03  0.38795576235E+03  0.00000000000E+00 0. -1.
        -14    1    3    3    0    0 -0.49431734312E+01 -0.18940740237E+02 -0.92395985850E+02  0.94446835869E+02  0.00000000000E+00 0.  1.
        -11    1    4    4    0    0  0.12028583458E+01 -0.30575718280E+02 -0.99473593539E+02  0.10407361447E+03  0.00000000000E+00 0.  1.
         11    1    4    4    0    0 -0.67105436400E+02 -0.17134830758E+02 -0.31251089606E+02  0.75982712647E+02  0.00000000000E+00 0. -1.
          2    1    1    2  501    0  0.39653578183E+02 -0.82499416402E+01 -0.69458446493E+02  0.80404872918E+02  0.00000000000E+00 0. -1.
<scales pt_clust_5="13000.00000" pt_clust_6="13000.00000" pt_clust_7="13000.00000" pt_clust_8="13000.00000" pt_clust_9="40.50269"></scales>
<clustering>
<clus scale="   40.503">  1  9  2 -1</clus>
<clus scale="   79.514">  5  6 -1 -1</clus>
<clus scale="   93.338">  7  8 -1 -1</clus>
<clus scale="  101.980">  2  5  1 -1</clus>
<clus scale="   40.503">  1  5  2 -1</clus>
</clustering>
</event>
<event>
 9    1  0.6345107E-005  0.1217798E+03  0.7546771E-02  0.1248858E+00
         -4   -1    0    0    0  501 -0.00000000000E+00  0.00000000000E+00  0.44469544355E+02  0.44469544355E+02  0.00000000000E+00 0.  1.
         21   -1    0    0  501  502  0.00000000000E+00 -0.00000000000E+00 -0.43941720235E+03  0.43941720235E+03  0.00000000000E+00 0. -1.
         23    2    1    2    0    0 -0.32209448429E+02 -0.72407951504E+02 -0.83810585447E+02  0.14935377503E+03  0.94878743007E+02 0.  0.
        -24    2    1    2    0    0  0.46014685469E+02  0.55678467927E+02 -0.22883236210E+03  0.24941819298E+03  0.68027508948E+02 0.  0.
         11    1    4    4    0    0  0.62862023744E+02  0.33458210925E+02 -0.15865316554E+03  0.17390202081E+03  0.00000000000E+00 0. -1.
        -12    1    4    4    0    0 -0.16847338274E+02  0.22220257002E+02 -0.70179196561E+02  0.75516172162E+02  0.00000000000E+00 0.  1.
        -11    1    3    3    0    0 -0.53305133741E+02 -0.28962183497E+02 -0.10504170594E+02  0.61567710336E+02  0.00000000000E+00 0.  1.
         11    1    3    3    0    0  0.21095685312E+02 -0.43445768007E+02 -0.73306414853E+02  0.87786064698E+02  0.00000000000E+00 0. -1.
         -3    1    1    2    0  502 -0.13805237040E+02  0.16729483577E+02 -0.82304710454E+02  0.85114778701E+02  0.00000000000E+00 0.  1.
<scales pt_clust_5="13000.00000" pt_clust_6="13000.00000" pt_clust_7="13000.00000" pt_clust_8="13000.00000" pt_clust_9="21.69009"></scales>
<clustering>
<clus scale="   21.690">  2  9  1 -1</clus>
<clus scale="   68.028">  5  6 -1 -1</clus>
<clus scale="   94.879">  7  8 -1 -1</clus>
<clus scale="  102.255">  2  5  1 -1</clus>
<clus scale="   21.690">  2  5  1 -1</clus>
</clustering>
</event>
<event>
 9    1  0.6345107E-005  0.1293758E+03  0.7546771E-02  0.1231849E+00
         -4   -1    0    0    0  501 -0.00000000000E+00  0.00000000000E+00  0.71309563988E+02  0.71309563988E+02  0.00000000000E+00 0.  1.
         21   -1    0    0  501  502  0.00000000000E+00 -0.00000000000E+00 -0.42232611529E+03  0.42232611529E+03  0.00000000000E+00 0.  1.
        -24    2    1    2    0    0  0.18924441896E+02  0.83423637354E+02 -0.22287482719E+02  0.11842870041E+03  0.78809818075E+02 0.  0.
         23    2    1    2    0    0 -0.44533377288E+01 -0.11385870694E+03 -0.25246674801E+03  0.29183043626E+03  0.91879852623E+02 0.  0.
         13    1    3    3    0    0 -0.15646904803E+02  0.18049005020E+02 -0.36011062871E+02  0.43213294959E+02  0.00000000000E+00 0. -1.
        -14    1    3    3    0    0  0.34571346699E+02  0.65374632334E+02  0.13723580152E+02  0.75215405453E+02  0.00000000000E+00 0.  1.
        -11    1    4    4    0    0 -0.16040252180E+02 -0.60538865580E+02 -0.21909440248E+03  0.22786970210E+03  0.00000000000E+00 0.  1.
         11    1    4    4    0    0  0.11586914451E+02 -0.53319841360E+02 -0.33372345526E+02  0.63960734166E+02  0.00000000000E+00 0. -1.
         -3    1    1    2    0  502 -0.14471104167E+02  0.30435069587E+02 -0.76262320575E+02  0.83376542601E+02  0.00000000000E+00 0.  1.
<scales pt_clust_5="13000.00000" pt_clust_6="13000.00000" pt_clust_7="13000.00000" pt_clust_8="13000.00000" pt_clust_9="33.70024"></scales>
<clustering>
<clus scale="   33.700">  2  9  1 -1</clus>
<clus scale="   78.810">  5  6 -1 -1</clus>
<clus scale="   91.880">  7  8 -1 -1</clus>
<clus scale="  120.446">  1  5  2 -1</clus>
<clus scale="   33.700">  2  5  1 -1</clus>
</clustering>
</event>
<event>
 9    1  0.6345107E-005  0.2950676E+03  0.7546771E-02  0.1127836E+00
         21   -1    0    0  501  502  0.00000000000E+00  0.00000000000E+00  0.17756715206E+03  0.17756715206E+03  0.00000000000E+00 0. -1.
          1   -1    0    0  502    0 -0.00000000000E+00 -0.00000000000E+00 -0.68185434385E+03  0.68185434385E+03  0.00000000000E+00 0. -1.
        -24    2    1    2    0    0  0.50643512149E+02  0.46820971823E+02 -0.85775105912E+02  0.13617132961E+03  0.80176639289E+02 0.  0.
         23    2    1    2    0    0  0.21605230190E+03  0.70844119711E+02 -0.33003026541E+03  0.41861798882E+03  0.12092790424E+03 0.  0.
         13    1    3    3    0    0  0.26989909419E+02  0.64164389679E+02 -0.80409079768E+02  0.10635386322E+03  0.00000000000E+00 0. -1.
        -14    1    3    3    0    0  0.23653602731E+02 -0.17343417856E+02 -0.53660261439E+01  0.29817466385E+02  0.00000000000E+00 0.  1.
        -11    1    4    4    0    0  0.33957585457E+02 -0.31512808769E+02 -0.83483513171E+02  0.95476026824E+02  0.00000000000E+00 0. -1.
         11    1    4    4    0    0  0.18209471644E+03  0.10235692848E+03 -0.24654675224E+03  0.32314196200E+03  0.00000000000E+00 0.  1.
          2    1    1    2  501    0 -0.26669581405E+03 -0.11766509153E+03 -0.88481820463E+02  0.30463217747E+03  0.00000000000E+00 0. -1.
<scales pt_clust_5="13000.00000" pt_clust_6="13000.00000" pt_clust_7="13000.00000" pt_clust_8="13000.00000" pt_clust_9="269.14927"></scales>
<clustering>
<clus scale="   80.177">  5  6 -1 -1</clus>
<clus scale="  105.760">  2  5  1 -1</clus>
<clus scale="  120.928">  7  8 -1 -1</clus>
<clus scale="  269.149">  1  9  2 -1</clus>
<clus scale="  269.149">  1  5  2 -1</clus>
</clustering>
</event>
<event>
 9    1  0.6345107E-005  0.1307716E+03  0.7546771E-02  0.1239588E+00
          1   -1    0    0  502    0 -0.00000000000E+00  0.00000000000E+00  0.11004491783E+03  0.11004491783E+03  0.00000000000E+00 0. -1.
         21   -1    0    0  501  502  0.00000000000E+00 -0.00000000000E+00 -0.34753168357E+03  0.34753168357E+03  0.00000000000E+00 0. -1.
        -24    2    1    2    0    0 -0.15075421443E+02 -0.54550630238E+02  0.29738517318E+02  0.10390214933E+03  0.81903831612E+02 0.  0.
         23    2    1    2    0    0 -0.20027758486E+02 -0.59085919615E+02 -0.10681055793E+03  0.15397872666E+03  0.91698942052E+02 0.  0.
         11    1    3    3    0    0 -0.16707579909E+02 -0.38308242659E+02  0.57866369046E+02  0.71380539005E+02  0.00000000000E+00 0. -1.
        -12    1    3    3    0    0  0.16321584654E+01 -0.16242387579E+02 -0.28127851728E+02  0.32521610329E+02  0.00000000000E+00 0.  1.
        -11    1    4    4    0    0  0.36277086822E+02 -0.15473710974E+02 -0.33182197668E+02  0.51541449356E+02  0.00000000000E+00 0.  1.
         11    1    4    4    0    0 -0.56304845309E+02 -0.43612208641E+02 -0.73628360259E+02  0.10243727731E+03  0.00000000000E+00 0. -1.
          2    1    1    2  501    0  0.35103179930E+02  0.11363654985E+03 -0.16041472514E+03  0.19969572540E+03  0.00000000000E+00 0. -1.
<scales pt_clust_5="13000.00000" pt_clust_6="13000.00000" pt_clust_7="13000.00000" pt_clust_8="13000.00000" pt_clust_9="93.23367"></scales>
<clustering>
<clus scale="   81.904">  5  6 -1 -1</clus>
<clus scale="   91.699">  7  8 -1 -1</clus>
<clus scale="   99.555">  1  5  2 -1</clus>
<clus scale="   93.234">  2  9  1 -1</clus>
<clus scale="   93.234">  2  5  1 -1</clus>
</clustering>
</event>
<event>
 9    1  0.6345107E-005  0.2331959E+03  0.7546771E-02  0.1165702E+00
         -4   -1    0    0    0  501 -0.00000000000E+00  0.00000000000E+00  0.83392839271E+03  0.83392839271E+03  0.00000000000E+00 0.  1.
         21   -1    0    0  501  502  0.00000000000E+00 -0.00000000000E+00 -0.11154468118E+03  0.11154468118E+03  0.00000000000E+00 0.  1.
        -24    2    1    2    0    0 -0.33291725220E+02 -0.42348926620E+01  0.27198454728E+03  0.28552364550E+03  0.80136663878E+02 0.  0.
         23    2    1    2    0    0  0.18646131388E+03 -0.13588421111E+03  0.35033265838E+03  0.42949858389E+03  0.92215625772E+02 0.  0.
         11    1    3    3    0    0 -0.54636441754E+02 -0.68503006964E+01  0.24451201149E+03  0.25063557439E+03  0.00000000000E+00 0. -1.
        -12    1    3    3    0    0  0.21344716534E+02  0.26154080344E+01  0.27472535787E+02  0.34888071108E+02  0.00000000000E+00 0.  1.
        -11    1    4    4    0    0  0.11540984657E+03 -0.12914592790E+03  0.28038830525E+03  0.32956896866E+03  0.00000000000E+00 0. -1.
         11    1    4    4    0    0  0.71051467306E+02 -0.67382832088E+01  0.69944353131E+02  0.99929615239E+02  0.00000000000E+00 0.  1.
         -3    1    1    2    0  502 -0.15316958866E+03  0.14011910377E+03  0.10006650586E+03  0.23045084449E+03  0.00000000000E+00 0.  1.
<scales pt_clust_5="13000.00000" pt_clust_6="13000.00000" pt_clust_7="13000.00000" pt_clust_8="13000.00000" pt_clust_9="214.18828"></scales>
<clustering>
<clus scale="   80.137">  5  6 -1 -1</clus>
<clus scale="   86.880">  1  5  2 -1</clus>
<clus scale="   92.216">  7  8 -1 -1</clus>
<clus scale="  214.188">  2  9  1 -1</clus>
<clus scale="  214.188">  2  5  1 -1</clus>
</clustering>
</event>
<event>
 9    1  0.6345107E-005  0.1342218E+03  0.7546771E-02  0.1221629E+00
         21   -1    0    0  501  502  0.00000000000E+00  0.00000000000E+00  0.18619980062E+03  0.18619980062E+03  0.00000000000E+00 0.  1.
         -2   -1    0    0    0  501 -0.00000000000E+00 -0.00000000000E+00 -0.20561334605E+03  0.20561334605E+03  0.00000000000E+00 0.  1.
         23    2    1    2    0    0  0.61109760923E+02 -0.98349584489E+02 -0.92569296517E+02  0.16733666711E+03  0.77623719661E+02 0.  0.
        -24    2    1    2    0    0 -0.49712659701E+02  0.69417662910E+02  0.12157491300E+03  0.16693201637E+03  0.76129351488E+02 0.  0.
         11    1    4    4    0    0 -0.14588194570E+01  0.27345295313E+02 -0.23117511238E+01  0.27481585166E+02  0.00000000000E+00 0. -1.
        -12    1    4    4    0    0 -0.48253840244E+02  0.42072367597E+02  0.12388666413E+03  0.13945043120E+03  0.00000000000E+00 0.  1.
        -13    1    3    3    0    0  0.67964483326E+02 -0.39712290626E+02 -0.65439153508E+02  0.10236464151E+03  0.00000000000E+00 0.  1.
         13    1    3    3    0    0 -0.68547224035E+01 -0.58637293863E+02 -0.27130143009E+02  0.64972025599E+02  0.00000000000E+00 0. -1.
         -1    1    1    2    0  502 -0.11397101221E+02  0.28931921579E+02 -0.48419161919E+02  0.57544463186E+02  0.00000000000E+00 0.  1.
<scales pt_clust_5="13000.00000" pt_clust_6="13000.00000" pt_clust_7="13000.00000" pt_clust_8="13000.00000" pt_clust_9="31.09584"></scales>
<clustering>
<clus scale="   31.096">  1  9  2 -1</clus>
<clus scale="   76.129">  5  6 -1 -1</clus>
<clus scale="   77.624">  7  8 -1 -1</clus>
<clus scale="  133.363">  1  5  2 -1</clus>
<clus scale="   31.096">  1  5  2 -1</clus>
</clustering>
</event>
<event>
 9    1  0.6345107E-005  0.1797936E+03  0.7546771E-02  0.1197410E+00
          1   -1    0    0  502    0 -0.00000000000E+00  0.00000000000E+00  0.67524048426E+03  0.67524048426E+03  0.00000000000E+00 0. -1.
         21   -1    0    0  501  502  0.00000000000E+00 -0.00000000000E+00 -0.99316149509E+02  0.99316149509E+02  0.00000000000E+00 0. -1.
         23    2    1    2    0    0  0.20685899844E+02 -0.56547063436E+01  0.35651777874E+03  0.36847530169E+03  0.90604852202E+02 0.  0.
        -24    2    1    2    0    0 -0.17093352327E+03  0.21350741233E+02  0.12601202036E+03  0.22847712845E+03  0.81539226266E+02 0.  0.
         13    1    4    4    0    0 -0.47854593773E+02  0.41380332687E+02  0.25097066059E+02  0.68060684710E+02  0.00000000000E+00 0. -1.
        -14    1    4    4    0    0 -0.12307892950E+03 -0.20029591454E+02  0.10091495430E+03  0.16041644374E+03  0.00000000000E+00 0.  1.
        -13    1    3    3    0    0 -0.12066722659E+02 -0.37479886771E+02  0.92417832650E+02  0.10045597792E+03  0.00000000000E+00 0.  1.
         13    1    3    3    0    0  0.32752622503E+02  0.31825180428E+02  0.26409994609E+03  0.26801932377E+03  0.00000000000E+00 0. -1.
          2    1    1    2  501    0  0.15024762343E+03 -0.15696034889E+02  0.93394535653E+02  0.17760420363E+03  0.00000000000E+00 0. -1.
<scales pt_clust_5="13000.00000" pt_clust_6="13000.00000" pt_clust_7="13000.00000" pt_clust_8="13000.00000" pt_clust_9="160.24075"></scales>
<clustering>
<clus scale="   81.539">  5  6 -1 -1</clus>
<clus scale="   90.605">  7  8 -1 -1</clus>
<clus scale="   93.108">  1  7  2 -1</clus>
<clus scale="  160.241">  2  9  1 -1</clus>
<clus scale="  160.241">  2  5  1 -1</clus>
</clustering>
</event>
<event>
 9    1  0.6345107E-005  0.1003638E+03  0.7546771E-02  0.1286836E+00
         -2   -1    0    0    0  501 -0.00000000000E+00  0.00000000000E+00  0.83971967765E+03  0.83971967765E+03  0.00000000000E+00 0.  1.
         21   -1    0    0  501  502  0.00000000000E+00 -0.00000000000E+00 -0.20984069185E+02  0.20984069185E+02  0.00000000000E+00 0.  1.
        -24    2    1    2    0    0 -0.45576750244E+02  0.23159641703E+02  0.59745469253E+03  0.60440127327E+03  0.75730973469E+02 0.  0.
         23    2    1    2    0    0  0.17995644220E+02  0.13620005792E+01  0.15052453181E+03  0.17649962747E+03  0.90381334160E+02 0.  0.
         13    1    3    3    0    0 -0.62385984145E+02  0.71792888897E+01  0.32850685345E+03  0.33445523762E+03  0.00000000000E+00 0. -1.
        -14    1    3    3    0    0  0.16809233901E+02  0.15980352813E+02  0.26894783908E+03  0.26994603565E+03  0.00000000000E+00 0.  1.
        -11    1    4    4    0    0  0.40439587756E+02 -0.30853497363E+02  0.10283301777E+03  0.11472544661E+03  0.00000000000E+00 0. -1.
         11    1    4    4    0    0 -0.22443943535E+02  0.32215497942E+02  0.47691514041E+02  0.61774180858E+02  0.00000000000E+00 0.  1.
         -1    1    1    2    0  502  0.27581106024E+02 -0.24521642282E+02  0.70756384128E+02  0.79802846093E+02  0.00000000000E+00 0.  1.
<scales pt_clust_5="13000.00000" pt_clust_6="13000.00000" pt_clust_7="13000.00000" pt_clust_8="13000.00000" pt_clust_9="36.90567"></scales>
<clustering>
<clus scale="   36.906">  2  9  1 -1</clus>
<clus scale="   75.731">  5  6 -1 -1</clus>
<clus scale="   87.403">  1  5  2 -1</clus>
<clus scale="   90.381">  7  8 -1 -1</clus>
<clus scale="   36.906">  2  5  1 -1</clus>
</clustering>
</event>
<event>
 9    1  0.6345107E-005  0.1276472E+03  0.7546771E-02  0.1235391E+00
         21   -1    0    0  501  502  0.00000000000E+00  0.00000000000E+00  0.25818246701E+03  0.25818246701E+03  0.00000000000E+00 0. -1.
          1   -1    0    0  502    0 -0.00000000000E+00 -0.00000000000E+00 -0.10580229580E+03  0.10580229580E+03  0.00000000000E+00 0. -1.
         23    2    1    2    0    0  0.59098405182E+02  0.74250726025E+02 -0.24343734704E+02  0.13412028371E+03  0.91596076733E+02 0.  0.
        -24    2    1    2    0    0 -0.25640741167E+02 -0.67651986340E+02  0.16181034154E+03  0.19264387931E+03  0.75464155365E+02 0.  0.
         11    1    4    4    0    0 -0.13410945773E+02 -0.79087950295E+02  0.15507981387E+03  0.17459812719E+03  0.00000000000E+00 0. -1.
        -12    1    4    4    0    0 -0.12229795395E+02  0.11435963955E+02  0.67305276672E+01  0.18045752122E+02  0.00000000000E+00 0.  1.
        -13    1    3    3    0    0 -0.24239690553E+02  0.26004975931E+02 -0.49892373787E+01  0.35898660991E+02  0.00000000000E+00 0.  1.
         13    1    3    3    0    0  0.83338095736E+02  0.48245750093E+02 -0.19354497325E+02  0.98221622720E+02  0.00000000000E+00 0. -1.
          2    1    1    2  501    0 -0.33457664015E+02 -0.65987396847E+01  0.14913564378E+02  0.37220599797E+02  0.00000000000E+00 0. -1.
<scales pt_clust_5="13000.00000" pt_clust_6="13000.00000" pt_clust_7="13000.00000" pt_clust_8="13000.00000" pt_clust_9="34.10220"></scales>
<clustering>
<clus scale="   34.102">  1  9  2 -1</clus>
<clus scale="   75.464">  5  6 -1 -1</clus>
<clus scale="   91.596">  7  8 -1 -1</clus>
<clus scale="  116.614">  1  5  2 -1</clus>
<clus scale="   34.102">  1  5  2 -1</clus>
</clustering>
</event>
<event>
 9    1  0.6345107E-005  0.1051273E+03  0.7546771E-02  0.1275229E+00
          1   -1    0    0  502    0 -0.00000000000E+00  0.00000000000E+00  0.23495160498E+03  0.23495160498E+03  0.00000000000E+00 0. -1.
         21   -1    0    0  501  502  0.00000000000E+00 -0.00000000000E+00 -0.18617360247E+03  0.18617360247E+03  0.00000000000E+00 0. -1.
        -24    2    1    2    0    0 -0.80612688426E+00 -0.39861468867E+02  0.19187179909E+03  0.21457862028E+03  0.87404865160E+02 0.  0.
         23    2    1    2    0    0  0.13176466764E+02 -0.23563509023E+01 -0.12310565467E+03  0.15822583147E+03  0.98494872288E+02 0.  0.
         13    1    3    3    0    0 -0.35365358488E+02 -0.33495625891E+02  0.15959998237E+03  0.16686767185E+03  0.00000000000E+00 0. -1.
        -14    1    3    3    0    0  0.34559231604E+02 -0.63658429762E+01  0.32271816719E+02  0.47710948431E+02  0.00000000000E+00 0.  1.
        -13    1    4    4    0    0  0.54243466818E+02 -0.43442405632E+01 -0.47811275238E+02  0.72437173871E+02  0.00000000000E+00 0.  1.
         13    1    4    4    0    0 -0.41067000054E+02  0.19878896609E+01 -0.75294379433E+02  0.85788657601E+02  0.00000000000E+00 0. -1.
          2    1    1    2  501    0 -0.12370339880E+02  0.42217819770E+02 -0.19988141908E+02  0.48320755704E+02  0.00000000000E+00 0. -1.
<scales pt_clust_5="13000.00000" pt_clust_6="13000.00000" pt_clust_7="13000.00000" pt_clust_8="13000.00000" pt_clust_9="43.99284"></scales>
<clustering>
<clus scale="   43.993">  2  9  1 -1</clus>
<clus scale="   87.405">  5  6 -1 -1</clus>
<clus scale="   94.816">  1  5  2 -1</clus>
<clus scale="   98.495">  7  8 -1 -1</clus>
<clus scale="   43.993">  2  5  1 -1</clus>
</clustering>
</event>
<event>
 9    1  0.6345107E-005  0.1014770E+03  0.7546771E-02  0.1282552E+00
          3   -1    0    0  502    0 -0.00000000000E+00  0.00000000000E+00  0.12420836020E+03  0.12420836020E+03  0.00000000000E+00 0. -1.
         21   -1    0    0  501  502  0.00000000000E+00 -0.00000000000E+00 -0.19317206144E+03  0.19317206144E+03  0.00000000000E+00 0.  1.
        -24    2    1    2    0    0 -0.33599492675E+02 -0.31267961628E+02  0.76170904277E+02  0.11813413867E+03  0.77762823563E+02 0.  0.
         23    2    1    2    0    0  0.53406291527E+02  0.36296135822E+02 -0.95988568668E+02  0.14602105629E+03  0.89099394586E+02 0.  0.
         11    1    3    3    0    0 -0.46684132313E+02  0.86535186416E+00  0.17288229432E+02  0.49789958030E+02  0.00000000000E+00 0. -1.
        -12    1    3    3    0    0  0.13084639638E+02 -0.32133313492E+02  0.58882674845E+02  0.68344180640E+02  0.00000000000E+00 0.  1.
        -13    1    4    4    0    0  0.77794842066E+02  0.22166179047E+02 -0.79231846731E+02  0.11323013063E+03  0.00000000000E+00 0.  1.
         13    1    4    4    0    0 -0.24388550539E+02  0.14129956775E+02 -0.16756721937E+02  0.32790925665E+02  0.00000000000E+00 0. -1.
          4    1    1    2  501    0 -0.19806798852E+02 -0.50281741946E+01 -0.49146036851E+02  0.53225226675E+02  0.00000000000E+00 0. -1.
<scales pt_clust_5="13000.00000" pt_clust_6="13000.00000" pt_clust_7="13000.00000" pt_clust_8="13000.00000" pt_clust_9="20.43506"></scales>
<clustering>
<clus scale="   20.435">  2  9  1 -1</clus>
<clus scale="   77.763">  5  6 -1 -1</clus>
<clus scale="   89.099">  7  8 -1 -1</clus>
<clus scale="   91.684">  1  5  2 -1</clus>
<clus scale="   20.435">  2  5  1 -1</clus>
</clustering>
</event>
<event>
 9    1  0.6345107E-005  0.1335442E+03  0.7546771E-02  0.1240471E+00
          1   -1    0    0  502    0 -0.00000000000E+00  0.00000000000E+00  0.95587080382E+03  0.95587080382E+03  0.00000000000E+00 0. -1.
         21   -1    0    0  501  502  0.00000000000E+00 -0.00000000000E+00 -0.30598602185E+02  0.30598602185E+02  0.00000000000E+00 0. -1.
         23    2    1    2    0    0 -0.48110646489E+01 -0.12701050295E+02  0.15390103485E+03  0.17921124794E+03  0.90811231902E+02 0.  0.
        -24    2    1    2    0    0 -0.29217966436E+02  0.10618564527E+03  0.45272066264E+03  0.47343861363E+03  0.84018103235E+02 0.  0.
         13    1    4    4    0    0 -0.65195433819E+01  0.95169855856E+02  0.42654990575E+03  0.43708652234E+03  0.00000000000E+00 0. -1.
        -14    1    4    4    0    0 -0.22698423054E+02  0.11015789411E+02  0.26170756890E+02  0.36352091297E+02  0.00000000000E+00 0.  1.
        -11    1    3    3    0    0 -0.32853133092E+02 -0.37693753886E+02  0.11360866137E+03  0.12412524068E+03  0.00000000000E+00 0. -1.
         11    1    3    3    0    0  0.28042068443E+02  0.24992703590E+02  0.40292373477E+02  0.55086007258E+02  0.00000000000E+00 0.  1.
          2    1    1    2  501    0  0.34029031084E+02 -0.93484594972E+02  0.31865050415E+03  0.33381954444E+03  0.00000000000E+00 0. -1.
<scales pt_clust_5="13000.00000" pt_clust_6="13000.00000" pt_clust_7="13000.00000" pt_clust_8="13000.00000" pt_clust_9="103.80281"></scales>
<clustering>
<clus scale="   84.018">  5  6 -1 -1</clus>
<clus scale="   90.811">  7  8 -1 -1</clus>
<clus scale="   91.821">  1  7  2 -1</clus>
<clus scale="  103.803">  2  9  1 -1</clus>
<clus scale="  103.803">  2  5  1 -1</clus>
</clustering>
</event>
<event>
 9    1  0.6345107E-005  0.2236041E+03  0.7546771E-02  0.1171669E+00
          1   -1    0    0  502    0 -0.00000000000E+00  0.00000000000E+00  0.35085058012E+03  0.35085058012E+03  0.00000000000E+00 0. -1.
         21   -1    0    0  501  502  0.00000000000E+00 -0.00000000000E+00 -0.22142983629E+03  0.22142983629E+03  0.00000000000E+00 0. -1.
        -24    2    1    2    0    0  0.13074978953E+02 -0.32262727504E+02  0.41256533988E+02  0.95335945029E+02  0.78581181954E+02 0.  0.
         23    2    1    2    0    0  0.18682102918E+03 -0.30462801713E+02  0.14979490790E+03  0.25856120961E+03  0.92656923387E+02 0.  0.
         11    1    3    3    0    0  0.24933364867E+02  0.93843885329E+01 -0.98026143857E+01  0.28387156964E+02  0.00000000000E+00 0. -1.
        -12    1    3    3    0    0 -0.11858385914E+02 -0.41647116037E+02  0.51059148374E+02  0.66948788065E+02  0.00000000000E+00 0.  1.
        -11    1    4    4    0    0  0.68092230726E+02  0.21577352855E+02  0.92401893023E+02  0.11679145463E+03  0.00000000000E+00 0.  1.
         11    1    4    4    0    0  0.11872879845E+03 -0.52040154568E+02  0.57393014875E+02  0.14176975498E+03  0.00000000000E+00 0. -1.
          2    1    1    2  501    0 -0.19989600813E+03  0.62725529217E+02 -0.61630698055E+02  0.21838326178E+03  0.00000000000E+00 0. -1.
<scales pt_clust_5="13000.00000" pt_clust_6="13000.00000" pt_clust_7="13000.00000" pt_clust_8="13000.00000" pt_clust_9="203.50306"></scales>
<clustering>
<clus scale="   78.581">  5  6 -1 -1</clus>
<clus scale="   85.947">  1  5  2 -1</clus>
<clus scale="   92.657">  7  8 -1 -1</clus>
<clus scale="  203.503">  2  9  1 -1</clus>
<clus scale="  203.503">  2  5  1 -1</clus>
</clustering>
</event>
<event>
 9    1  0.6345107E-005  0.1101843E+03  0.7546771E-02  0.1261310E+00
         21   -1    0    0  501  502  0.00000000000E+00  0.00000000000E+00  0.16906822962E+03  0.16906822962E+03  0.00000000000E+00 0.  1.
          3   -1    0    0  502    0 -0.00000000000E+00 -0.00000000000E+00 -0.15542956625E+03  0.15542956625E+03  0.00000000000E+00 0. -1.
        -24    2    1    2    0    0  0.26919655887E+02  0.27943558898E+02  0.50389400169E+01  0.95995174817E+02  0.87659410873E+02 0.  0.
         23    2    1    2    0    0 -0.10962421922E+03 -0.41848000648E+01  0.82993693315E+01  0.14245255638E+03  0.90492371487E+02 0.  0.
         13    1    3    3    0    0  0.32342741255E+02 -0.18423597272E+02  0.25402312410E+02  0.45063947054E+02  0.00000000000E+00 0. -1.
        -14    1    3    3    0    0 -0.54230853680E+01  0.46367156169E+02 -0.20363372394E+02  0.50931227762E+02  0.00000000000E+00 0.  1.
        -13    1    4    4    0    0 -0.10407118883E+03 -0.33523353776E+02  0.18515313227E+02  0.11089384301E+03  0.00000000000E+00 0.  1.
         13    1    4    4    0    0 -0.55530303925E+01  0.29338553711E+02 -0.10215943896E+02  0.31558713378E+02  0.00000000000E+00 0. -1.
          4    1    1    2  501    0  0.82704563335E+02 -0.23758758833E+02  0.30035402253E+00  0.86050064673E+02  0.00000000000E+00 0. -1.
<scales pt_clust_5="13000.00000" pt_clust_6="13000.00000" pt_clust_7="13000.00000" pt_clust_8="13000.00000" pt_clust_9="86.04958"></scales>
<clustering>
<clus scale="   86.050">  1  9  2 -1</clus>
<clus scale="   87.659">  5  6 -1 -1</clus>
<clus scale="   90.492">  7  8 -1 -1</clus>
<clus scale="  107.870">  2  5  1 -1</clus>
<clus scale="   86.050">  1  5  2 -1</clus>
</clustering>
</event>
<event>
 9    1  0.6345107E-005  0.1432316E+03  0.7546771E-02  0.1211413E+00
         21   -1    0    0  501  502  0.00000000000E+00  0.00000000000E+00  0.26481473342E+03  0.26481473342E+03  0.00000000000E+00 0. -1.
          1   -1    0    0  502    0 -0.00000000000E+00 -0.00000000000E+00 -0.57240429887E+03  0.57240429887E+03  0.00000000000E+00 0. -1.
        -24    2    1    2    0    0  0.11725330724E+03 -0.91865952546E+01 -0.50017651691E+03  0.51998866110E+03  0.79868191534E+02 0.  0.
         23    2    1    2    0    0 -0.37186420286E+02 -0.79569412160E+02  0.65174367620E+02  0.14252404114E+03  0.91385353878E+02 0.  0.
         11    1    3    3    0    0  0.11940377373E+03  0.74916680688E+01 -0.47408218020E+03  0.48894508880E+03  0.00000000000E+00 0. -1.
        -12    1    3    3    0    0 -0.21504664867E+01 -0.16678263323E+02 -0.26094336704E+02  0.31043572308E+02  0.00000000000E+00 0.  1.
        -11    1    4    4    0    0  0.15304347756E+02 -0.15803307921E+02  0.55088530614E+02  0.59318747514E+02  0.00000000000E+00 0.  1.
         11    1    4    4    0    0 -0.52490768042E+02 -0.63766104239E+02  0.10085837007E+02  0.83205293628E+02  0.00000000000E+00 0. -1.
          2    1    1    2  501    0 -0.80066886957E+02  0.88756007415E+02  0.12741258384E+03  0.17470633005E+03  0.00000000000E+00 0. -1.
<scales pt_clust_5="13000.00000" pt_clust_6="13000.00000" pt_clust_7="13000.00000" pt_clust_8="13000.00000" pt_clust_9="119.53382"></scales>
<clustering>
<clus scale="   79.868">  5  6 -1 -1</clus>
<clus scale="   91.385">  7  8 -1 -1</clus>
<clus scale="  119.534">  1  9  2 -1</clus>
<clus scale="  136.172">  2  5  1 -1</clus>
<clus scale="  119.534">  1  5  2 -1</clus>
</clustering>
</event>
<event>
 9    1  0.6345107E-005  0.1493295E+03  0.7546771E-02  0.1221040E+00
         21   -1    0    0  501  502  0.00000000000E+00  0.00000000000E+00  0.21912280867E+03  0.21912280867E+03  0.00000000000E+00 0. -1.
          3   -1    0    0  502    0 -0.00000000000E+00 -0.00000000000E+00 -0.20331979245E+03  0.20331979245E+03  0.00000000000E+00 0. -1.
        -24    2    1    2    0    0  0.30956464794E+02  0.46313237816E+02  0.88950590085E+02  0.13238194975E+03  0.80681809813E+02 0.  0.
         23    2    1    2    0    0  0.58925898214E+02  0.57147554767E+02 -0.90173957690E+02  0.15195608038E+03  0.90670851001E+02 0.  0.
         11    1    3    3    0    0  0.56858316203E+02  0.38114614962E+02  0.49468947263E+02  0.84455720578E+02  0.00000000000E+00 0. -1.
        -12    1    3    3    0    0 -0.25901851408E+02  0.81986228538E+01  0.39481642822E+02  0.47926229176E+02  0.00000000000E+00 0.  1.
        -11    1    4    4    0    0 -0.75443979004E+01  0.23503672905E+02  0.10407261257E+02  0.26789021381E+02  0.00000000000E+00 0.  1.
         11    1    4    4    0    0  0.66470296115E+02  0.33643881862E+02 -0.10058121895E+03  0.12516705899E+03  0.00000000000E+00 0. -1.
          4    1    1    2  501    0 -0.89882363009E+02 -0.10346079258E+03  0.17026383820E+02  0.13810457099E+03  0.00000000000E+00 0. -1.
<scales pt_clust_5="13000.00000" pt_clust_6="13000.00000" pt_clust_7="13000.00000" pt_clust_8="13000.00000" pt_clust_9="118.65116"></scales>
<clustering>
<clus scale="   80.682">  5  6 -1 -1</clus>
<clus scale="   90.671">  7  8 -1 -1</clus>
<clus scale="   98.045">  2  5  1 -1</clus>
<clus scale="  118.651">  1  9  2 -1</clus>
<clus scale="  118.651">  1  5  2 -1</clus>
</clustering>
</event>
<event>
 9    1  0.6345107E-005  0.3165873E+03  0.7546771E-02  0.1077231E+00
         21   -1    0    0  501  502  0.00000000000E+00  0.00000000000E+00  0.24600984327E+03  0.24600984327E+03  0.00000000000E+00 0. -1.
         -2   -1    0    0    0  501 -0.00000000000E+00 -0.00000000000E+00 -0.33376890481E+03  0.33376890481E+03  0.00000000000E+00 0.  1.
        -24    2    1    2    0    0 -0.47253852078E+02  0.13988116664E+03  0.27373283360E+02  0.16906541748E+03  0.77679800648E+02 0.  0.
         23    2    1    2    0    0 -0.91124221080E+02  0.63730504472E+02 -0.22175077006E+02  0.14756459433E+03  0.94437146243E+02 0.  0.
         11    1    3    3    0    0 -0.33076674970E+02  0.12205356127E+03  0.50903173878E+02  0.13631680512E+03  0.00000000000E+00 0. -1.
        -12    1    3    3    0    0 -0.14177177108E+02  0.17827605370E+02 -0.23529890518E+02  0.32748612365E+02  0.00000000000E+00 0.  1.
        -11    1    4    4    0    0 -0.10374827590E+03  0.32663397643E+02 -0.27345565199E+01  0.10880294158E+03  0.00000000000E+00 0. -1.
         11    1    4    4    0    0  0.12624054817E+02  0.31067106830E+02 -0.19440520486E+02  0.38761652745E+02  0.00000000000E+00 0.  1.
         -1    1    1    2    0  502  0.13837807316E+03 -0.20361167112E+03 -0.92957267892E+02  0.26314873627E+03  0.00000000000E+00 0.  1.
<scales pt_clust_5="13000.00000" pt_clust_6="13000.00000" pt_clust_7="13000.00000" pt_clust_8="13000.00000" pt_clust_9="246.18340"></scales>
<clustering>
<clus scale="   77.680">  5  6 -1 -1</clus>
<clus scale="   94.437">  7  8 -1 -1</clus>
<clus scale="  123.692">  5  7 -1 -1</clus>
<clus scale="  246.183">  1  9  2 -1</clus>
<clus scale="  246.183">  1  5  2 -1</clus>
</clustering>
</event>
<event>
 9    1  0.6345107E-005  0.2181415E+03  0.7546771E-02  0.1136150E+00
          1   -1    0    0  502    0 -0.00000000000E+00  0.00000000000E+00  0.15369587464E+04  0.15369587464E+04  0.00000000000E+00 0. -1.
         21   -1    0    0  501  502  0.00000000000E+00 -0.00000000000E+00 -0.84397684296E+02  0.84397684296E+02  0.00000000000E+00 0.  1.
         23    2    1    2    0    0 -0.13411901871E+03 -0.18955717101E+03  0.48038988457E+03  0.54153387510E+03  0.92545472172E+02 0.  0.
        -24    2    1    2    0    0  0.18626225652E+02  0.15345458643E+03  0.10391598829E+03  0.20317607296E+03  0.81158718713E+02 0.  0.
         13    1    4    4    0    0  0.26594482118E+02  0.20354722441E+02  0.48137490069E+02  0.58641275181E+02  0.00000000000E+00 0. -1.
        -14    1    4    4    0    0 -0.79682564670E+01  0.13309986399E+03  0.55778498219E+02  0.14453479778E+03  0.00000000000E+00 0.  1.
        -11    1    3    3    0    0 -0.48292973410E+01 -0.81001962325E+02  0.15459474368E+03  0.17459717863E+03  0.00000000000E+00 0.  1.
         11    1    3    3    0    0 -0.12928972137E+03 -0.10855520869E+03  0.32579514089E+03  0.36693669647E+03  0.00000000000E+00 0. -1.
          2    1    1    2  501    0  0.11549279306E+03  0.36102584579E+02  0.86825518923E+03  0.87664648262E+03  0.00000000000E+00 0. -1.
<scales pt_clust_5="13000.00000" pt_clust_6="13000.00000" pt_clust_7="13000.00000" pt_clust_8="13000.00000" pt_clust_9="121.00412"></scales>
<clustering>
<clus scale="   81.159">  5  6 -1 -1</clus>
<clus scale="   92.545">  7  8 -1 -1</clus>
<clus scale="  121.004">  2  9  1 -1</clus>
<clus scale="  213.560">  2  5  1 -1</clus>
<clus scale="  121.004">  2  5  1 -1</clus>
</clustering>
</event>
<event>
 9    1  0.6345107E-005  0.2853637E+03  0.7546771E-02  0.1129467E+00
          1   -1    0    0  502    0 -0.00000000000E+00  0.00000000000E+00  0.17725695227E+04  0.17725695227E+04  0.00000000000E+00 0. -1.
         21   -1    0    0  501  502  0.00000000000E+00 -0.00000000000E+00 -0.22697158738E+03  0.22697158738E+03  0.00000000000E+00 0. -1.
        -24    2    1    2    0    0 -0.23979396183E+02  0.75984985466E+02  0.28826526990E+02  0.11595931888E+03  0.79163536548E+02 0.  0.
         23    2    1    2    0    0  0.18766924365E+03  0.19305027822E+03 -0.48515021619E+02  0.28693031168E+03  0.86528269989E+02 0.  0.
         11    1    3    3    0    0  0.18344782472E+02  0.66131244138E+02  0.21286573023E+02  0.71853953866E+02  0.00000000000E+00 0. -1.
        -12    1    3    3    0    0 -0.42324178655E+02  0.98537413279E+01  0.75399539669E+01  0.44105365012E+02  0.00000000000E+00 0.  1.
        -11    1    4    4    0    0  0.24937728111E+02 -0.60247586704E+01 -0.53972167644E+01  0.26216749401E+02  0.00000000000E+00 0.  1.
         11    1    4    4    0    0  0.16273151554E+03  0.19907503689E+03 -0.43117804855E+02  0.26071356228E+03  0.00000000000E+00 0. -1.
          2    1    1    2  501    0 -0.16368984747E+03 -0.26903526369E+03  0.15652864300E+04  0.15966514795E+04  0.00000000000E+00 0. -1.
<scales pt_clust_5="13000.00000" pt_clust_6="13000.00000" pt_clust_7="13000.00000" pt_clust_8="13000.00000" pt_clust_9="271.92903"></scales>
<clustering>
<clus scale="   79.164">  5  6 -1 -1</clus>
<clus scale="   86.528">  7  8 -1 -1</clus>
<clus scale="  112.319">  1  5  2 -1</clus>
<clus scale="  271.929">  2  9  1 -1</clus>
<clus scale="  271.929">  2  5  1 -1</clus>
</clustering>
</event>
<event>
 9    1  0.6345107E-005  0.2603208E+03  0.7546771E-02  0.1107844E+00
          1   -1    0    0  502    0 -0.00000000000E+00  0.00000000000E+00  0.73401046397E+03  0.73401046397E+03  0.00000000000E+00 0. -1.
         21   -1    0    0  501  502  0.00000000000E+00 -0.00000000000E+00 -0.16418026060E+03  0.16418026060E+03  0.00000000000E+00 0. -1.
        -24    2    1    2    0    0  0.13750435156E+03 -0.22383630197E+03  0.44189565430E+03  0.52048422151E+03  0.81375172945E+02 0.  0.
         23    2    1    2    0    0 -0.18224312207E+02  0.20617900110E+03  0.51156167374E+02  0.23475746334E+03  0.98245646646E+02 0.  0.
         13    1    3    3    0    0  0.10635768228E+03 -0.19943090888E+03  0.41526111484E+03  0.47278582624E+03  0.00000000000E+00 0. -1.
        -14    1    3    3    0    0  0.31146669274E+02 -0.24405393090E+02  0.26634539464E+02  0.47698395269E+02  0.00000000000E+00 0.  1.
        -11    1    4    4    0    0 -0.25346490145E+02  0.18081745157E+03  0.76720978866E+02  0.19804924628E+03  0.00000000000E+00 0.  1.
         11    1    4    4    0    0  0.71221779380E+01  0.25361549532E+02 -0.25564811492E+02  0.36708217063E+02  0.00000000000E+00 0. -1.
          2    1    1    2  501    0 -0.11928003935E+03  0.17657300875E+02  0.76778381687E+02  0.14294903972E+03  0.00000000000E+00 0. -1.
<scales pt_clust_5="13000.00000" pt_clust_6="13000.00000" pt_clust_7="13000.00000" pt_clust_8="13000.00000" pt_clust_9="120.57988"></scales>
<clustering>
<clus scale="   81.375">  5  6 -1 -1</clus>
<clus scale="   98.246">  7  8 -1 -1</clus>
<clus scale="  120.580">  2  9  1 -1</clus>
<clus scale="  254.434">  1  5  2 -1</clus>
<clus scale="  120.580">  2  5  1 -1</clus>
</clustering>
</event>
<event>
 9    1  0.6345107E-005  0.1688974E+03  0.7546771E-02  0.1179423E+00
         21   -1    0    0  501  502  0.00000000000E+00  0.00000000000E+00  0.46606686283E+03  0.46606686283E+03  0.00000000000E+00 0. -1.
          1   -1    0    0  502    0 -0.00000000000E+00 -0.00000000000E+00 -0.11567946582E+03  0.11567946582E+03  0.00000000000E+00 0. -1.
        -24    2    1    2    0    0 -0.18003944604E+02 -0.12086871786E+03  0.71982127076E+02  0.17010503760E+03  0.93919690262E+02 0.  0.
         23    2    1    2    0    0  0.29721623613E+02  0.18483318313E+03  0.27712606187E+03  0.34659981819E+03  0.91026915291E+02 0.  0.
         13    1    3    3    0    0  0.32008914253E+02 -0.88097792683E+02  0.51190772406E+02  0.10680021932E+03  0.00000000000E+00 0. -1.
        -14    1    3    3    0    0 -0.50012858857E+02 -0.32770925180E+02  0.20791354670E+02  0.63304818279E+02  0.00000000000E+00 0.  1.
        -11    1    4    4    0    0  0.61379023957E+02  0.10827498292E+03  0.15075720368E+03  0.19549575691E+03  0.00000000000E+00 0. -1.
         11    1    4    4    0    0 -0.31657400344E+02  0.76558200212E+02  0.12636885819E+03  0.15110406129E+03  0.00000000000E+00 0.  1.
          2    1    1    2  501    0 -0.11717679009E+02 -0.63964465268E+02  0.12792080588E+01  0.65041472858E+02  0.00000000000E+00 0. -1.
<scales pt_clust_5="13000.00000" pt_clust_6="13000.00000" pt_clust_7="13000.00000" pt_clust_8="13000.00000" pt_clust_9="65.02892"></scales>
<clustering>
<clus scale="   65.029">  1  9  2 -1</clus>
<clus scale="   91.027">  7  8 -1 -1</clus>
<clus scale="   93.920">  5  6 -1 -1</clus>
<clus scale="  167.306">  1  7  2 -1</clus>
<clus scale="   65.029">  1  5  2 -1</clus>
</clustering>
</event>
<event>
 9    1  0.6345107E-005  0.1888844E+03  0.7546771E-02  0.1160571E+00
         21   -1    0    0  501  502  0.00000000000E+00  0.00000000000E+00  0.12575576909E+03  0.12575576909E+03  0.00000000000E+00 0. -1.
          1   -1    0    0  502    0 -0.00000000000E+00 -0.00000000000E+00 -0.83596167131E+03  0.83596167131E+03  0.00000000000E+00 0. -1.
        -24    2    1    2    0    0 -0.12653654683E+03 -0.11887110235E+03 -0.56275678390E+03  0.59443975172E+03  0.80756324487E+02 0.  0.
         23    2    1    2    0    0  0.36540971802E+02  0.12532855969E+03  0.35662985520E+02  0.16314306434E+03  0.91111582200E+02 0.  0.
         11    1    3    3    0    0 -0.10783024066E+03 -0.50689421254E+02 -0.38935844564E+03  0.40718150427E+03  0.00000000000E+00 0. -1.
        -12    1    3    3    0    0 -0.18706306164E+02 -0.68181681094E+02 -0.17339833825E+03  0.18725824745E+03  0.00000000000E+00 0.  1.
        -13    1    4    4    0    0  0.28851902359E+02  0.64464688610E+02  0.64234550921E+02  0.95468350145E+02  0.00000000000E+00 0. -1.
         13    1    4    4    0    0  0.76890694428E+01  0.60863871076E+02 -0.28571565401E+02  0.67674714190E+02  0.00000000000E+00 0.  1.
          2    1    1    2  501    0  0.89995575024E+02 -0.64574573389E+01 -0.18311210384E+03  0.20413462434E+03  0.00000000000E+00 0. -1.
<scales pt_clust_5="13000.00000" pt_clust_6="13000.00000" pt_clust_7="13000.00000" pt_clust_8="13000.00000" pt_clust_9="90.22699"></scales>
<clustering>
<clus scale="   80.756">  5  6 -1 -1</clus>
<clus scale="   90.227">  1  9  2 -1</clus>
<clus scale="   91.112">  7  8 -1 -1</clus>
<clus scale="  184.113">  2  5  1 -1</clus>
<clus scale="   90.227">  1  5  2 -1</clus>
</clustering>
</event>
<event>
 9    1  0.6345107E-005  0.1770269E+03  0.7546771E-02  0.1197925E+00
          1   -1    0    0  502    0 -0.00000000000E+00  0.00000000000E+00  0.12227095903E+04  0.12227095903E+04  0.00000000000E+00 0. -1.
         21   -1    0    0  501  502  0.00000000000E+00 -0.00000000000E+00 -0.90564850071E+02  0.90564850071E+02  0.00000000000E+00 0.  1.
        -24    2    1    2    0    0  0.49825821207E+02  0.18973278819E+02  0.25785903659E+03  0.27530810328E+03  0.80378300621E+02 0.  0.
         23    2    1    2    0    0  0.14766234735E+03  0.77668279610E+01  0.35461420477E+02  0.17579304358E+03  0.88211050244E+02 0.  0.
         11    1    3    3    0    0 -0.18368286046E+02  0.19812404752E+02  0.54715354832E+02  0.61022089187E+02  0.00000000000E+00 0. -1.
        -12    1    3    3    0    0  0.68194107254E+02 -0.83912593312E+00  0.20314368176E+03  0.21428601409E+03  0.00000000000E+00 0.  1.
        -11    1    4    4    0    0  0.55084666301E+02  0.42022860088E+02 -0.42001830330E+01  0.69410970091E+02  0.00000000000E+00 0.  1.
         11    1    4    4    0    0  0.92577681053E+02 -0.34256032127E+02  0.39661603510E+02  0.10638207349E+03  0.00000000000E+00 0. -1.
          2    1    1    2  501    0 -0.19748816856E+03 -0.26740106780E+02  0.83882428320E+03  0.86217329356E+03  0.00000000000E+00 0. -1.
<scales pt_clust_5="13000.00000" pt_clust_6="13000.00000" pt_clust_7="13000.00000" pt_clust_8="13000.00000" pt_clust_9="153.48411"></scales>
<clustering>
<clus scale="   80.378">  5  6 -1 -1</clus>
<clus scale="   88.211">  7  8 -1 -1</clus>
<clus scale="   96.453">  1  5  2 -1</clus>
<clus scale="  153.484">  2  9  1 -1</clus>
<clus scale="  153.484">  2  5  1 -1</clus>
</clustering>
</event>
<event>
 9    1  0.6345107E-005  0.9519516E+02  0.7546771E-02  0.1294658E+00
         21   -1    0    0  501  502  0.00000000000E+00  0.00000000000E+00  0.12085583608E+03  0.12085583608E+03  0.00000000000E+00 0. -1.
         -2   -1    0    0    0  501 -0.00000000000E+00 -0.00000000000E+00 -0.14281205401E+03  0.14281205401E+03  0.00000000000E+00 0.  1.
         23    2    1    2    0    0 -0.12799345477E+02 -0.39898689695E+02 -0.73099315800E+02  0.12387953439E+03  0.90812446211E+02 0.  0.
        -24    2    1    2    0    0 -0.77267556261E+01 -0.11927777780E+01  0.31222419778E+02  0.89721770626E+02  0.83749812873E+02 0.  0.
         13    1    4    4    0    0  0.23457068833E+02 -0.28774753856E+02 -0.90435127125E+00  0.37135406136E+02  0.00000000000E+00 0. -1.
        -14    1    4    4    0    0 -0.31183824459E+02  0.27581976078E+02  0.32126771049E+02  0.52586364490E+02  0.00000000000E+00 0.  1.
        -11    1    3    3    0    0 -0.38273845871E+02 -0.57162842957E+02 -0.44972878958E+02  0.82189036583E+02  0.00000000000E+00 0.  1.
         11    1    3    3    0    0  0.25474500394E+02  0.17264153261E+02 -0.28126436843E+02  0.41690497810E+02  0.00000000000E+00 0. -1.
         -1    1    1    2    0  502  0.20526101103E+02  0.41091467473E+02  0.19920678092E+02  0.50066585077E+02  0.00000000000E+00 0.  1.
<scales pt_clust_5="13000.00000" pt_clust_6="13000.00000" pt_clust_7="13000.00000" pt_clust_8="13000.00000" pt_clust_9="45.93288"></scales>
<clustering>
<clus scale="   45.933">  1  9  2 -1</clus>
<clus scale="   83.750">  5  6 -1 -1</clus>
<clus scale="   88.483">  1  5  2 -1</clus>
<clus scale="   90.812">  7  8 -1 -1</clus>
<clus scale="   45.933">  1  5  2 -1</clus>
</clustering>
</event>
<event>
 9    1  0.6345107E-005  0.9569023E+02  0.7546771E-02  0.1292120E+00
         21   -1    0    0  501  502  0.00000000000E+00  0.00000000000E+00  0.13762157675E+03  0.13762157675E+03  0.00000000000E+00 0. -1.
          1   -1    0    0  502    0 -0.00000000000E+00 -0.00000000000E+00 -0.12384536269E+03  0.12384536269E+03  0.00000000000E+00 0. -1.
        -24    2    1    2    0    0 -0.21277168471E+02  0.22770214396E+01 -0.70505608411E+02  0.11955184160E+03  0.94147221348E+02 0.  0.
         23    2    1    2    0    0 -0.91497857015E+00 -0.95327578912E+01  0.72596139713E+02  0.11580586033E+03  0.89716704834E+02 0.  0.
         13    1    3    3    0    0  0.29071948900E+01 -0.33651996040E+02 -0.68287787146E+02  0.76184844246E+02  0.00000000000E+00 0. -1.
        -14    1    3    3    0    0 -0.24184363361E+02  0.35929017479E+02 -0.22178212654E+01  0.43366997353E+02  0.00000000000E+00 0.  1.
        -13    1    4    4    0    0  0.40815003056E+02 -0.88598750311E+01  0.14373149442E+02  0.44169551559E+02  0.00000000000E+00 0.  1.
         13    1    4    4    0    0 -0.41729981626E+02 -0.67288286010E+00  0.58222990271E+02  0.71636308769E+02  0.00000000000E+00 0. -1.
          2    1    1    2  501    0  0.22192147041E+02  0.72557364517E+01  0.11685682760E+02  0.26109237510E+02  0.00000000000E+00 0. -1.
<scales pt_clust_5="13000.00000" pt_clust_6="13000.00000" pt_clust_7="13000.00000" pt_clust_8="13000.00000" pt_clust_9="23.34817"></scales>
<clustering>
<clus scale="   23.348">  1  9  2 -1</clus>
<clus scale="   89.717">  7  8 -1 -1</clus>
<clus scale="   91.335">  1  7  2 -1</clus>
<clus scale="   94.147">  5  6 -1 -1</clus>
<clus scale="   23.348">  1  5  2 -1</clus>
</clustering>
</event>
<event>
 9    1  0.6345107E-005  0.1359052E+03  0.7546771E-02  0.1240732E+00
         21   -1    0    0  501  502  0.00000000000E+00  0.00000000000E+00  0.93319360940E+02  0.93319360940E+02  0.00000000000E+00 0. -1.
          1   -1    0    0  502    0 -0.00000000000E+00 -0.00000000000E+00 -0.78154905785E+03  0.78154905785E+03  0.00000000000E+00 0. -1.
        -24    2    1    2    0    0  0.30025898625E+02  0.18913482971E+02 -0.20128765626E+03  0.21914924936E+03  0.79059461835E+02 0.  0.
         23    2    1    2    0    0 -0.12747615843E+03  0.91136390406E+00 -0.52604543021E+03  0.54886107304E+03  0.90959778473E+02 0.  0.
         13    1    3    3    0    0  0.67073288622E+01  0.46066427283E+02 -0.14639869787E+03  0.15362188230E+03  0.00000000000E+00 0. -1.
        -14    1    3    3    0    0  0.23318569763E+02 -0.27152944312E+02 -0.54888958383E+02  0.65527367053E+02  0.00000000000E+00 0.  1.
        -13    1    4    4    0    0 -0.11881301045E+03  0.25539903662E+02 -0.48668976319E+03  0.50163307678E+03  0.00000000000E+00 0. -1.
         13    1    4    4    0    0 -0.86631479769E+01 -0.24628539758E+02 -0.39355667026E+02  0.47227996258E+02  0.00000000000E+00 0.  1.
          2    1    1    2  501    0  0.97450259805E+02 -0.19824846875E+02  0.39103389559E+02  0.10685809639E+03  0.00000000000E+00 0. -1.
<scales pt_clust_5="13000.00000" pt_clust_6="13000.00000" pt_clust_7="13000.00000" pt_clust_8="13000.00000" pt_clust_9="100.97792"></scales>
<clustering>
<clus scale="   79.059">  5  6 -1 -1</clus>
<clus scale="   86.658">  2  5  1 -1</clus>
<clus scale="   90.960">  7  8 -1 -1</clus>
<clus scale="  100.978">  1  9  2 -1</clus>
<clus scale="  100.978">  1  5  2 -1</clus>
</clustering>
</event>
<event>
 9    1  0.6345107E-005  0.9150260E+02  0.7546771E-02  0.1306264E+00
         -4   -1    0    0    0  501 -0.00000000000E+00  0.00000000000E+00  0.48847159300E+03  0.48847159300E+03  0.00000000000E+00 0.  1.
         21   -1    0    0  501  502  0.00000000000E+00 -0.00000000000E+00 -0.55960797301E+02  0.55960797301E+02  0.00000000000E+00 0. -1.
        -24    2    1    2    0    0  0.94555997969E+01 -0.16523525410E+01  0.23001063866E+03  0.24384478072E+03  0.80394306703E+02 0.  0.
         23    2    1    2    0    0  0.49319321287E+02  0.93786266447E+01  0.16816286778E+02  0.10567048274E+03  0.91450037355E+02 0.  0.
         11    1    3    3    0    0  0.43494137491E+01  0.33440962464E+02  0.49576475196E+02  0.59958671294E+02  0.00000000000E+00 0. -1.
        -12    1    3    3    0    0  0.51061860478E+01 -0.35093315005E+02  0.18043416347E+03  0.18388610943E+03  0.00000000000E+00 0.  1.
        -11    1    4    4    0    0  0.63948921123E+02  0.27163740612E+02 -0.10141730331E+02  0.70215297556E+02  0.00000000000E+00 0. -1.
         11    1    4    4    0    0 -0.14629599835E+02 -0.17785113968E+02  0.26958017109E+02  0.35455185187E+02  0.00000000000E+00 0.  1.
         -3    1    1    2    0  502 -0.58774921084E+02 -0.77262741037E+01  0.18568387026E+03  0.19491712683E+03  0.00000000000E+00 0.  1.
<scales pt_clust_5="13000.00000" pt_clust_6="13000.00000" pt_clust_7="13000.00000" pt_clust_8="13000.00000" pt_clust_9="59.28061"></scales>
<clustering>
<clus scale="   59.281">  2  9  1 -1</clus>
<clus scale="   80.394">  5  6 -1 -1</clus>
<clus scale="   80.454">  1  5  2 -1</clus>
<clus scale="   91.450">  7  8 -1 -1</clus>
<clus scale="   59.281">  2  5  1 -1</clus>
</clustering>
</event>
<event>
 9    1  0.6345107E-005  0.1634239E+03  0.7546771E-02  0.1208423E+00
          1   -1    0    0  502    0 -0.00000000000E+00  0.00000000000E+00  0.82187552398E+03  0.82187552398E+03  0.00000000000E+00 0. -1.
         21   -1    0    0  501  502  0.00000000000E+00 -0.00000000000E+00 -0.13004356658E+03  0.13004356658E+03  0.00000000000E+00 0.  1.
        -24    2    1    2    0    0 -0.46997189650E+02 -0.26348585775E+02 -0.68641569603E+02  0.11942018407E+03  0.81526262511E+02 0.  0.
         23    2    1    2    0    0 -0.77132336264E+02  0.10487784406E+03  0.22093054048E+03  0.27331949170E+03  0.94575268185E+02 0.  0.
         13    1    3    3    0    0 -0.19606267066E+02 -0.14898139053E+02  0.16239430978E+02  0.29497107892E+02  0.00000000000E+00 0. -1.
        -14    1    3    3    0    0 -0.27390922584E+02 -0.11450446722E+02 -0.84881000581E+02  0.89923076180E+02  0.00000000000E+00 0.  1.
        -11    1    4    4    0    0 -0.88771533292E+02  0.70061025047E+02  0.11534710396E+03  0.16153602306E+03  0.00000000000E+00 0.  1.
         11    1    4    4    0    0  0.11639197028E+02  0.34816819015E+02  0.10558343651E+03  0.11178346863E+03  0.00000000000E+00 0. -1.
          2    1    1    2  501    0  0.12412952591E+03 -0.78529258287E+02  0.53954298653E+03  0.55917941479E+03  0.00000000000E+00 0. -1.
<scales pt_clust_5="13000.00000" pt_clust_6="13000.00000" pt_clust_7="13000.00000" pt_clust_8="13000.00000" pt_clust_9="133.27755"></scales>
<clustering>
<clus scale="   81.526">  5  6 -1 -1</clus>
<clus scale="   94.575">  7  8 -1 -1</clus>
<clus scale="   97.722">  1  5  2 -1</clus>
<clus scale="  133.278">  2  9  1 -1</clus>
<clus scale="  133.278">  2  5  1 -1</clus>
</clustering>
</event>
<event>
 9    1  0.6345107E-005  0.1064304E+03  0.7546771E-02  0.1271113E+00
         21   -1    0    0  501  502  0.00000000000E+00  0.00000000000E+00  0.42466162365E+03  0.42466162365E+03  0.00000000000E+00 0. -1.
         -2   -1    0    0    0  501 -0.00000000000E+00 -0.00000000000E+00 -0.39601378214E+02  0.39601378214E+02  0.00000000000E+00 0.  1.
         23    2    1    2    0    0 -0.49924775427E+01 -0.48308981909E+02  0.84505968859E+02  0.13308057034E+03  0.90611792077E+02 0.  0.
        -24    2    1    2    0    0 -0.27162145312E+01  0.69789857212E+02  0.18979134445E+03  0.21809273673E+03  0.81643648822E+02 0.  0.
         13    1    4    4    0    0 -0.31647012107E+02  0.43782146684E+02  0.16063889252E+03  0.16947938970E+03  0.00000000000E+00 0. -1.
        -14    1    4    4    0    0  0.28930797576E+02  0.26007710528E+02  0.29152451930E+02  0.48613347023E+02  0.00000000000E+00 0.  1.
        -13    1    3    3    0    0 -0.37674447607E+02 -0.28494118684E+01  0.62275551830E+02  0.72840424945E+02  0.00000000000E+00 0. -1.
         13    1    3    3    0    0  0.32681970064E+02 -0.45459570041E+02  0.22230417029E+02  0.60240145392E+02  0.00000000000E+00 0.  1.
         -1    1    1    2    0  502  0.77086920739E+01 -0.21480875302E+02  0.11076293213E+03  0.11308969480E+03  0.00000000000E+00 0.  1.
<scales pt_clust_5="13000.00000" pt_clust_6="13000.00000" pt_clust_7="13000.00000" pt_clust_8="13000.00000" pt_clust_9="22.82218"></scales>
<clustering>
<clus scale="   22.822">  1  9  2 -1</clus>
<clus scale="   81.644">  5  6 -1 -1</clus>
<clus scale="   90.612">  7  8 -1 -1</clus>
<clus scale="   98.907">  1  5  2 -1</clus>
<clus scale="   22.822">  1  5  2 -1</clus>
</clustering>
</event>
<event>
 9    1  0.6345107E-005  0.1100170E+03  0.7546771E-02  0.1266922E+00
          1   -1    0    0  502    0 -0.00000000000E+00  0.00000000000E+00  0.27796094828E+03  0.27796094828E+03  0.00000000000E+00 0. -1.
         21   -1    0    0  501  502  0.00000000000E+00 -0.00000000000E+00 -0.12262195067E+03  0.12262195067E+03  0.00000000000E+00 0. -1.
        -24    2    1    2    0    0 -0.27092373673E+02  0.63839604482E+02  0.20179228735E+03  0.22754819896E+03  0.79047857684E+02 0.  0.
         23    2    1    2    0    0  0.14628118035E+02 -0.49768069214E+00 -0.37846742055E+01  0.95651447731E+02  0.94449172421E+02 0.  0.
         11    1    3    3    0    0  0.27451675494E+02  0.12248408828E+02  0.59667945893E+02  0.66812287593E+02  0.00000000000E+00 0. -1.
        -12    1    3    3    0    0 -0.54544049167E+02  0.51591195654E+02  0.14212434146E+03  0.16073591137E+03  0.00000000000E+00 0.  1.
        -11    1    4    4    0    0  0.29636334423E+02 -0.36349670850E+02  0.18995672614E+02  0.50600854410E+02  0.00000000000E+00 0.  1.
         11    1    4    4    0    0 -0.15008216387E+02  0.35851990158E+02 -0.22780346820E+02  0.45050593322E+02  0.00000000000E+00 0. -1.
          2    1    1    2  501    0  0.12464255637E+02 -0.63341923790E+02 -0.42668615536E+02  0.77383252256E+02  0.00000000000E+00 0. -1.
<scales pt_clust_5="13000.00000" pt_clust_6="13000.00000" pt_clust_7="13000.00000" pt_clust_8="13000.00000" pt_clust_9="64.55662"></scales>
<clustering>
<clus scale="   64.557">  2  9  1 -1</clus>
<clus scale="   79.048">  5  6 -1 -1</clus>
<clus scale="   94.449">  7  8 -1 -1</clus>
<clus scale="   97.117">  1  5  2 -1</clus>
<clus scale="   64.557">  2  5  1 -1</clus>
</clustering>
</event>
<event>
 9    1  0.6345107E-005  0.2264112E+03  0.7546771E-02  0.1156472E+00
         21   -1    0    0  501  502  0.00000000000E+00  0.00000000000E+00  0.96718747780E+03  0.96718747780E+03  0.00000000000E+00 0. -1.
          1   -1    0    0  502    0 -0.00000000000E+00 -0.00000000000E+00 -0.10202301007E+03  0.10202301007E+03  0.00000000000E+00 0. -1.
         23    2    1    2    0    0 -0.46375303740E+02  0.59220026740E+02  0.31138279718E+02  0.12168294860E+03  0.90440406640E+02 0.  0.
        -24    2    1    2    0    0 -0.15079688917E+03 -0.14937716593E+03  0.34913828780E+03  0.41637646926E+03  0.80116044976E+02 0.  0.
         11    1    4    4    0    0 -0.15840727525E+03 -0.14313936155E+03  0.31270149968E+03  0.37863434813E+03  0.00000000000E+00 0. -1.
        -12    1    4    4    0    0  0.76103860757E+01 -0.62378043801E+01  0.36436788115E+02  0.37742121136E+02  0.00000000000E+00 0.  1.
        -13    1    3    3    0    0 -0.27825534045E+02 -0.17286585556E+02  0.27675082520E+02  0.42883523381E+02  0.00000000000E+00 0. -1.
         13    1    3    3    0    0 -0.18549769695E+02  0.76506612295E+02  0.34631971975E+01  0.78799425223E+02  0.00000000000E+00 0.  1.
          2    1    1    2  501    0  0.19717219291E+03  0.90157139190E+02  0.48488790021E+03  0.53115107001E+03  0.00000000000E+00 0. -1.
<scales pt_clust_5="13000.00000" pt_clust_6="13000.00000" pt_clust_7="13000.00000" pt_clust_8="13000.00000" pt_clust_9="211.76273"></scales>
<clustering>
<clus scale="   80.116">  5  6 -1 -1</clus>
<clus scale="   90.440">  7  8 -1 -1</clus>
<clus scale="  117.631">  2  7  1 -1</clus>
<clus scale="  211.763">  1  9  2 -1</clus>
<clus scale="  211.763">  1  5  2 -1</clus>
</clustering>
</event>
<event>
 9    1  0.6345107E-005  0.9082200E+02  0.7546771E-02  0.1306135E+00
         21   -1    0    0  501  502  0.00000000000E+00  0.00000000000E+00  0.21195766616E+03  0.21195766616E+03  0.00000000000E+00 0.  1.
          3   -1    0    0  502    0 -0.00000000000E+00 -0.00000000000E+00 -0.17465788925E+03  0.17465788925E+03  0.00000000000E+00 0. -1.
         23    2    1    2    0    0 -0.36554635679E+02 -0.39043311719E+01 -0.11384470086E+03  0.14878431015E+03  0.88457163877E+02 0.  0.
        -24    2    1    2    0    0 -0.45500745564E+02 -0.43527894089E+01  0.42109031458E+02  0.10111989174E+03  0.79767144564E+02 0.  0.
         11    1    4    4    0    0 -0.95126204804E+01  0.22222374138E+02 -0.15095700389E+02  0.28499193514E+02  0.00000000000E+00 0. -1.
        -12    1    4    4    0    0 -0.35988125083E+02 -0.26575163547E+02  0.57204731847E+02  0.72620698222E+02  0.00000000000E+00 0.  1.
        -13    1    3    3    0    0 -0.27231723286E+02  0.30746113706E+02 -0.10363568261E+03  0.11147755367E+03  0.00000000000E+00 0. -1.
         13    1    3    3    0    0 -0.93229123934E+01 -0.34650444878E+02 -0.10209018250E+02  0.37306756484E+02  0.00000000000E+00 0.  1.
          4    1    1    2  501    0  0.82055381243E+02  0.82571205808E+01  0.10903544632E+03  0.13671135353E+03  0.00000000000E+00 0. -1.
<scales pt_clust_5="13000.00000" pt_clust_6="13000.00000" pt_clust_7="13000.00000" pt_clust_8="13000.00000" pt_clust_9="82.46979"></scales>
<clustering>
<clus scale="   79.767">  5  6 -1 -1</clus>
<clus scale="   82.470">  1  9  2 -1</clus>
<clus scale="   82.470">  1  5  2 -1</clus>
<clus scale="   88.457">  7  8 -1 -1</clus>
<clus scale="   82.470">  1  5  2 -1</clus>
</clustering>
</event>
<event>
 9    1  0.6345107E-005  0.1464351E+03  0.7546771E-02  0.1207283E+00
          1   -1    0    0  502    0 -0.00000000000E+00  0.00000000000E+00  0.58158565108E+03  0.58158565108E+03  0.00000000000E+00 0. -1.
         21   -1    0    0  501  502  0.00000000000E+00 -0.00000000000E+00 -0.74156401813E+02  0.74156401813E+02  0.00000000000E+00 0. -1.
        -24    2    1    2    0    0 -0.61142540657E+02  0.89851468750E+02  0.25090879636E+03  0.28484056700E+03  0.79794910890E+02 0.  0.
         23    2    1    2    0    0 -0.12250221895E+02 -0.14724465618E+03  0.15364997446E+03  0.23211095705E+03  0.91848380633E+02 0.  0.
         11    1    3    3    0    0 -0.37595225156E+02  0.53532461233E+02  0.22517444500E+03  0.23448380763E+03  0.00000000000E+00 0. -1.
        -12    1    3    3    0    0 -0.23547315501E+02  0.36319007517E+02  0.25734351361E+02  0.50356759371E+02  0.00000000000E+00 0.  1.
        -13    1    4    4    0    0 -0.31085306018E+02 -0.30302723966E+02  0.84384485312E+02  0.94896220638E+02  0.00000000000E+00 0.  1.
         13    1    4    4    0    0  0.18835084123E+02 -0.11694193221E+03  0.69265489144E+02  0.13721473642E+03  0.00000000000E+00 0. -1.
          2    1    1    2  501    0  0.73392762552E+02  0.57393187428E+02  0.10287047845E+03  0.13879052883E+03  0.00000000000E+00 0. -1.
<scales pt_clust_5="13000.00000" pt_clust_6="13000.00000" pt_clust_7="13000.00000" pt_clust_8="13000.00000" pt_clust_9="93.16907"></scales>
<clustering>
<clus scale="   79.795">  5  6 -1 -1</clus>
<clus scale="   91.848">  7  8 -1 -1</clus>
<clus scale="   93.169">  2  9  1 -1</clus>
<clus scale="  139.192">  1  5  2 -1</clus>
<clus scale="   93.169">  2  5  1 -1</clus>
</clustering>
</event>
<event>
 9    1  0.6345107E-005  0.1084042E+03  0.7546771E-02  0.1268411E+00
          1   -1    0    0  502    0 -0.00000000000E+00  0.00000000000E+00  0.43430738334E+02  0.43430738334E+02  0.00000000000E+00 0. -1.
         21   -1    0    0  501  502  0.00000000000E+00 -0.00000000000E+00 -0.49890821301E+03  0.49890821301E+03  0.00000000000E+00 0. -1.
         23    2    1    2    0    0  0.46548795783E+01  0.64302930115E+02 -0.85017865351E+02  0.13928076653E+03  0.89524073694E+02 0.  0.
        -24    2    1    2    0    0 -0.45095756040E+02 -0.44547821578E+02 -0.32080288677E+03  0.33603938971E+03  0.77394080251E+02 0.  0.
         13    1    4    4    0    0 -0.52226722191E+02 -0.83863690398E+00 -0.12865973853E+03  0.13885842481E+03  0.00000000000E+00 0. -1.
        -14    1    4    4    0    0  0.71309661517E+01 -0.43709184674E+02 -0.19214314824E+03  0.19718096490E+03  0.00000000000E+00 0.  1.
        -13    1    3    3    0    0  0.32492986224E+02  0.49423918489E+02 -0.12873002773E+02  0.60532900749E+02  0.00000000000E+00 0. -1.
         13    1    3    3    0    0 -0.27838106646E+02  0.14879011626E+02 -0.72144862578E+02  0.78747865780E+02  0.00000000000E+00 0.  1.
          2    1    1    2  501    0  0.40440876461E+02 -0.19755108537E+02 -0.49656722557E+02  0.67018795106E+02  0.00000000000E+00 0. -1.
<scales pt_clust_5="13000.00000" pt_clust_6="13000.00000" pt_clust_7="13000.00000" pt_clust_8="13000.00000" pt_clust_9="45.00812"></scales>
<clustering>
<clus scale="   45.008">  2  9  1 -1</clus>
<clus scale="   77.394">  5  6 -1 -1</clus>
<clus scale="   89.524">  7  8 -1 -1</clus>
<clus scale="   98.624">  2  5  1 -1</clus>
<clus scale="   45.008">  2  5  1 -1</clus>
</clustering>
</event>
<event>
 9    1  0.6345107E-005  0.1476823E+03  0.7546771E-02  0.1227778E+00
          1   -1    0    0  502    0 -0.00000000000E+00  0.00000000000E+00  0.10694027835E+03  0.10694027835E+03  0.00000000000E+00 0. -1.
         21   -1    0    0  501  502  0.00000000000E+00 -0.00000000000E+00 -0.46343236485E+03  0.46343236485E+03  0.00000000000E+00 0.  1.
         23    2    1    2    0    0  0.18790898582E+02 -0.80252811386E+01 -0.23088605591E+03  0.24711697401E+03  0.85679198316E+02 0.  0.
        -24    2    1    2    0    0  0.75295932979E+02 -0.72757035677E+02  0.13645453212E+02  0.13679095316E+03  0.86962651226E+02 0.  0.
         11    1    4    4    0    0  0.29359958236E+02 -0.77669002362E+02 -0.12089865662E+02  0.83908556937E+02  0.00000000000E+00 0. -1.
        -12    1    4    4    0    0  0.45935974743E+02  0.49119666849E+01  0.25735318874E+02  0.52882396219E+02  0.00000000000E+00 0.  1.
        -11    1    3    3    0    0  0.14700050719E+02 -0.44745145670E+02 -0.91406479388E+02  0.10282686432E+03  0.00000000000E+00 0. -1.
         11    1    3    3    0    0  0.40908478635E+01  0.36719864532E+02 -0.13947957652E+03  0.14429010969E+03  0.00000000000E+00 0.  1.
          2    1    1    2  501    0 -0.94086831561E+02  0.80782316816E+02 -0.13925148380E+03  0.18646471603E+03  0.00000000000E+00 0. -1.
<scales pt_clust_5="13000.00000" pt_clust_6="13000.00000" pt_clust_7="13000.00000" pt_clust_8="13000.00000" pt_clust_9="119.36318"></scales>
<clustering>
<clus scale="   85.679">  7  8 -1 -1</clus>
<clus scale="   86.963">  5  6 -1 -1</clus>
<clus scale="   88.082">  1  7  2 -1</clus>
<clus scale="  119.363">  2  9  1 -1</clus>
<clus scale="  119.363">  2  5  1 -1</clus>
</clustering>
</event>
<event>
 9    1  0.6345107E-005  0.1108821E+03  0.7546771E-02  0.1262809E+00
          1   -1    0    0  502    0 -0.00000000000E+00  0.00000000000E+00  0.49238418753E+03  0.49238418753E+03  0.00000000000E+00 0. -1.
         21   -1    0    0  501  502  0.00000000000E+00 -0.00000000000E+00 -0.34086527872E+02  0.34086527872E+02  0.00000000000E+00 0.  1.
         23    2    1    2    0    0  0.13238545700E+02  0.69306719215E+02  0.34675710165E+03  0.36530505232E+03  0.90711704241E+02 0.  0.
        -24    2    1    2    0    0 -0.54824778458E+01 -0.48770241364E+02  0.90002798908E+02  0.13041214982E+03  0.80611605880E+02 0.  0.
         11    1    4    4    0    0 -0.39316126377E+02 -0.45859153136E+02  0.56618114491E+02  0.82791488742E+02  0.00000000000E+00 0. -1.
        -12    1    4    4    0    0  0.33833648531E+02 -0.29110882277E+01  0.33384684417E+02  0.47620661075E+02  0.00000000000E+00 0.  1.
        -11    1    3    3    0    0  0.19831210863E+02 -0.18269181347E+02  0.89195278677E+02  0.93181745260E+02  0.00000000000E+00 0.  1.
         11    1    3    3    0    0 -0.65926651623E+01  0.87575900562E+02  0.25756182297E+03  0.27212330706E+03  0.00000000000E+00 0. -1.
          2    1    1    2  501    0 -0.77560678547E+01 -0.20536477851E+02  0.21537759104E+02  0.30753513268E+02  0.00000000000E+00 0. -1.
<scales pt_clust_5="13000.00000" pt_clust_6="13000.00000" pt_clust_7="13000.00000" pt_clust_8="13000.00000" pt_clust_9="21.95230"></scales>
<clustering>
<clus scale="   21.952">  2  9  1 -1</clus>
<clus scale="   80.612">  5  6 -1 -1</clus>
<clus scale="   90.712">  7  8 -1 -1</clus>
<clus scale="  102.784">  2  5  1 -1</clus>
<clus scale="   21.952">  2  5  1 -1</clus>
</clustering>
</event>
<event>
 9    1  0.1221988E-004  0.1760037E+03  0.7546771E-02  0.1205598E+00
         21   -1    0    0  501  502  0.00000000000E+00  0.00000000000E+00  0.14564046973E+03  0.14564046973E+03  0.00000000000E+00 0.  1.
          1   -1    0    0  502    0 -0.00000000000E+00 -0.00000000000E+00 -0.55915796005E+03  0.55915796005E+03  0.00000000000E+00 0. -1.
        -24    2    1    2    0    0  0.36029902184E+01  0.16109533663E+02 -0.27654372267E+03  0.28876531871E+03  0.81464594319E+02 0.  0.
         23    2    1    2    0    0  0.70107630570E+02  0.12601113220E+03  0.40112773070E+02  0.17730485094E+03  0.95047831652E+02 0.  0.
         11    1    3    3    0    0  0.17132979954E+02  0.41399470998E+02 -0.22817307737E+03  0.23253044626E+03  0.00000000000E+00 0. -1.
        -12    1    3    3    0    0 -0.13529989736E+02 -0.25289937334E+02 -0.48370645296E+02  0.56234872445E+02  0.00000000000E+00 0.  1.
        -11    1    4    4    0    0  0.91908983478E+02  0.11450842599E+03  0.41598906993E+02  0.15261032052E+03  0.00000000000E+00 0.  1.
         11    1    4    4    0    0 -0.21801352907E+02  0.11502706214E+02 -0.14861339226E+01  0.24694530424E+02  0.00000000000E+00 0. -1.
          2    1    1    2  501    0 -0.73710620789E+02 -0.14212066586E+03 -0.17708654071E+03  0.23872826013E+03  0.00000000000E+00 0. -1.
<scales pt_clust_5="13000.00000" pt_clust_6="13000.00000" pt_clust_7="13000.00000" pt_clust_8="13000.00000" pt_clust_9="148.13244"></scales>
<clustering>
<clus scale="   81.465">  5  6 -1 -1</clus>
<clus scale="   83.120">  2  5  1 -1</clus>
<clus scale="   95.048">  7  8 -1 -1</clus>
<clus scale="  148.132">  1  9  2 -1</clus>
<clus scale="  148.132">  1  5  2 -1</clus>
</clustering>
</event>
<event>
 9    1  0.6345107E-005  0.1293425E+03  0.7546771E-02  0.1240945E+00
         21   -1    0    0  501  502  0.00000000000E+00  0.00000000000E+00  0.87511916242E+02  0.87511916242E+02  0.00000000000E+00 0.  1.
          3   -1    0    0  502    0 -0.00000000000E+00 -0.00000000000E+00 -0.37210412014E+03  0.37210412014E+03  0.00000000000E+00 0. -1.
        -24    2    1    2    0    0 -0.19110712639E+00  0.59995085135E+02 -0.32234100351E+02  0.10515877620E+03  0.80124180026E+02 0.  0.
         23    2    1    2    0    0  0.94186662726E+02 -0.83369531970E+01 -0.80620343954E+02  0.15197865603E+03  0.87505655849E+02 0.  0.
         11    1    3    3    0    0  0.23021804193E+02  0.15645124675E+02 -0.45531069491E+02  0.53365266639E+02  0.00000000000E+00 0. -1.
        -12    1    3    3    0    0 -0.23212911319E+02  0.44349960459E+02  0.13296969141E+02  0.51793509564E+02  0.00000000000E+00 0.  1.
        -11    1    4    4    0    0  0.79554043861E+02  0.24938374803E+02 -0.80114170386E+02  0.11562460261E+03  0.00000000000E+00 0. -1.
         11    1    4    4    0    0  0.14632618865E+02 -0.33275328000E+02 -0.50617356842E+00  0.36354053419E+02  0.00000000000E+00 0.  1.
          4    1    1    2  501    0 -0.93995555600E+02 -0.51658131938E+02 -0.17173775960E+03  0.20247860415E+03  0.00000000000E+00 0. -1.
<scales pt_clust_5="13000.00000" pt_clust_6="13000.00000" pt_clust_7="13000.00000" pt_clust_8="13000.00000" pt_clust_9="95.24838"></scales>
<clustering>
<clus scale="   80.124">  5  6 -1 -1</clus>
<clus scale="   87.506">  7  8 -1 -1</clus>
<clus scale="  100.097">  2  5  1 -1</clus>
<clus scale="   95.248">  1  9  2 -1</clus>
<clus scale="   95.248">  1  5  2 -1</clus>
</clustering>
</event>
<event>
 9    1  0.6345107E-005  0.1120984E+03  0.7546771E-02  0.1261546E+00
         21   -1    0    0  501  502  0.00000000000E+00  0.00000000000E+00  0.17758551442E+03  0.17758551442E+03  0.00000000000E+00 0. -1.
          1   -1    0    0  502    0 -0.00000000000E+00 -0.00000000000E+00 -0.14269336701E+03  0.14269336701E+03  0.00000000000E+00 0. -1.
        -24    2    1    2    0    0  0.67895357376E+02 -0.97960872038E+01 -0.88507306569E+02  0.13774268656E+03  0.80210731877E+02 0.  0.
         23    2    1    2    0    0 -0.38701669967E+02  0.11383468470E+02  0.74714189304E+02  0.12574670500E+03  0.92750316023E+02 0.  0.
         11    1    3    3    0    0  0.71381999493E+02  0.19350321398E+02 -0.75327481339E+02  0.10556540264E+03  0.00000000000E+00 0. -1.
        -12    1    3    3    0    0 -0.34866421174E+01 -0.29146408601E+02 -0.13179825230E+02  0.32177283924E+02  0.00000000000E+00 0.  1.
        -11    1    4    4    0    0 -0.38440985787E+02  0.35858201324E+02  0.84392608083E+02  0.99426517034E+02  0.00000000000E+00 0. -1.
         11    1    4    4    0    0 -0.26068418037E+00 -0.24474732854E+02 -0.96784187786E+01  0.26320187966E+02  0.00000000000E+00 0.  1.
          2    1    1    2  501    0 -0.29193687409E+02 -0.15873812663E+01  0.48685264675E+02  0.56789489875E+02  0.00000000000E+00 0. -1.
<scales pt_clust_5="13000.00000" pt_clust_6="13000.00000" pt_clust_7="13000.00000" pt_clust_8="13000.00000" pt_clust_9="29.23681"></scales>
<clustering>
<clus scale="   29.237">  1  9  2 -1</clus>
<clus scale="   80.211">  5  6 -1 -1</clus>
<clus scale="   92.750">  7  8 -1 -1</clus>
<clus scale="  101.967">  2  5  1 -1</clus>
<clus scale="   29.237">  1  5  2 -1</clus>
</clustering>
</event>
<event>
 9    1  0.6345107E-005  0.1018856E+03  0.7546771E-02  0.1282315E+00
         21   -1    0    0  501  502  0.00000000000E+00  0.00000000000E+00  0.18089440739E+03  0.18089440739E+03  0.00000000000E+00 0. -1.
          1   -1    0    0  502    0 -0.00000000000E+00 -0.00000000000E+00 -0.27459079386E+03  0.27459079386E+03  0.00000000000E+00 0. -1.
         23    2    1    2    0    0 -0.22811960309E+02 -0.37749644975E+02 -0.22436800470E+03  0.24613892256E+03  0.91093064682E+02 0.  0.
        -24    2    1    2    0    0  0.44776655298E+02  0.35689544058E+02  0.23785603260E+02  0.10020732121E+03  0.78721406793E+02 0.  0.
         11    1    4    4    0    0 -0.28313807217E+01 -0.21218763109E+02 -0.23660369735E+01  0.21537194702E+02  0.00000000000E+00 0. -1.
        -12    1    4    4    0    0  0.47608036020E+02  0.56908307168E+02  0.26151640233E+02  0.78670126511E+02  0.00000000000E+00 0.  1.
        -13    1    3    3    0    0 -0.20676132113E+02 -0.61422543063E+02 -0.20641945496E+03  0.21635439127E+03  0.00000000000E+00 0. -1.
         13    1    3    3    0    0 -0.21358281962E+01  0.23672898088E+02 -0.17948549740E+02  0.29784531283E+02  0.00000000000E+00 0.  1.
          2    1    1    2  501    0 -0.21964694989E+02  0.20601009165E+01  0.10688601498E+03  0.10913895748E+03  0.00000000000E+00 0. -1.
<scales pt_clust_5="13000.00000" pt_clust_6="13000.00000" pt_clust_7="13000.00000" pt_clust_8="13000.00000" pt_clust_9="22.06109"></scales>
<clustering>
<clus scale="   22.061">  1  9  2 -1</clus>
<clus scale="   78.721">  5  6 -1 -1</clus>
<clus scale="   90.993">  1  5  2 -1</clus>
<clus scale="   91.093">  7  8 -1 -1</clus>
<clus scale="   22.061">  1  5  2 -1</clus>
</clustering>
</event>
<event>
 9    1  0.6345107E-005  0.1019085E+03  0.7546771E-02  0.1279893E+00
         21   -1    0    0  501  502  0.00000000000E+00  0.00000000000E+00  0.31866041315E+02  0.31866041315E+02  0.00000000000E+00 0.  1.
         -2   -1    0    0    0  501 -0.00000000000E+00 -0.00000000000E+00 -0.12621355058E+04  0.12621355058E+04  0.00000000000E+00 0.  1.
        -24    2    1    2    0    0  0.22989281954E+02  0.37095906137E+02 -0.10474368542E+04  0.10519231452E+04  0.86681753985E+02 0.  0.
         23    2    1    2    0    0 -0.24192461197E+02 -0.38482156885E+01 -0.18478074691E+03  0.20875195900E+03  0.93986020307E+02 0.  0.
         13    1    3    3    0    0  0.26687867479E+01  0.46179762902E+02 -0.25422167050E+03  0.25839572495E+03  0.00000000000E+00 0. -1.
        -14    1    3    3    0    0  0.20320495206E+02 -0.90838567651E+01 -0.79321518373E+03  0.79352742024E+03  0.00000000000E+00 0.  1.
        -11    1    4    4    0    0 -0.54010063339E+02  0.74232683980E+00 -0.16251459002E+03  0.17125603627E+03  0.00000000000E+00 0. -1.
         11    1    4    4    0    0  0.29817602142E+02 -0.45905425283E+01 -0.22266156896E+02  0.37495922727E+02  0.00000000000E+00 0.  1.
         -1    1    1    2    0  502  0.12031792430E+01 -0.33247690448E+02  0.19481366661E+01  0.33326442908E+02  0.00000000000E+00 0.  1.
<scales pt_clust_5="13000.00000" pt_clust_6="13000.00000" pt_clust_7="13000.00000" pt_clust_8="13000.00000" pt_clust_9="33.26945"></scales>
<clustering>
<clus scale="   33.269">  1  9  2 -1</clus>
<clus scale="   86.682">  5  6 -1 -1</clus>
<clus scale="   93.986">  7  8 -1 -1</clus>
<clus scale="   95.214">  2  5  1 -1</clus>
<clus scale="   33.269">  1  5  2 -1</clus>
</clustering>
</event>
<event>
 9    1  0.6345107E-005  0.3402643E+03  0.7546771E-02  0.1067073E+00
         -2   -1    0    0    0  501 -0.00000000000E+00  0.00000000000E+00  0.16455285314E+04  0.16455285314E+04  0.00000000000E+00 0.  1.
         21   -1    0    0  501  502  0.00000000000E+00 -0.00000000000E+00 -0.41687065104E+03  0.41687065104E+03  0.00000000000E+00 0.  1.
         23    2    1    2    0    0  0.43112554860E+02 -0.31879749910E+03  0.14619288533E+04  0.14996308259E+04  0.90366498859E+02 0.  0.
        -24    2    1    2    0    0 -0.33813135236E+02  0.35098170949E+03 -0.43359765409E+02  0.36992497615E+03  0.10311610065E+03 0.  0.
         11    1    4    4    0    0 -0.15711294877E+01  0.13400539039E+03 -0.66029055071E+02  0.14939795586E+03  0.00000000000E+00 0. -1.
        -12    1    4    4    0    0 -0.32242005749E+02  0.21697631910E+03  0.22669289663E+02  0.22052702029E+03  0.00000000000E+00 0.  1.
        -11    1    3    3    0    0  0.23556866737E+02 -0.17243016348E+03  0.58434485957E+03  0.60970976879E+03  0.00000000000E+00 0. -1.
         11    1    3    3    0    0  0.19555688123E+02 -0.14636733561E+03  0.87758399374E+03  0.88992105714E+03  0.00000000000E+00 0.  1.
         -1    1    1    2    0  502 -0.92994196238E+01 -0.32184210389E+02 -0.18991120753E+03  0.19284338036E+03  0.00000000000E+00 0.  1.
<scales pt_clust_5="13000.00000" pt_clust_6="13000.00000" pt_clust_7="13000.00000" pt_clust_8="13000.00000" pt_clust_9="33.50079"></scales>
<clustering>
<clus scale="   33.501">  2  9  1 -1</clus>
<clus scale="   90.366">  7  8 -1 -1</clus>
<clus scale="  103.116">  5  6 -1 -1</clus>
<clus scale="  336.620">  1  7  2 -1</clus>
<clus scale="   33.501">  2  5  1 -1</clus>
</clustering>
</event>
<event>
 9    1  0.6345107E-005  0.1351013E+03  0.7546771E-02  0.1222239E+00
          1   -1    0    0  502    0 -0.00000000000E+00  0.00000000000E+00  0.12732787769E+03  0.12732787769E+03  0.00000000000E+00 0. -1.
         21   -1    0    0  501  502  0.00000000000E+00 -0.00000000000E+00 -0.33856464643E+03  0.33856464643E+03  0.00000000000E+00 0.  1.
        -24    2    1    2    0    0  0.96742915406E+02  0.38217197373E+01  0.55034779929E+02  0.13788911041E+03  0.81306718945E+02 0.  0.
         23    2    1    2    0    0 -0.11491608068E+03 -0.13155701216E+02 -0.14992925223E+03  0.20988094723E+03  0.90512171892E+02 0.  0.
         13    1    3    3    0    0  0.46621524516E+02 -0.34554500280E+02  0.46142719343E+02  0.74139939211E+02  0.00000000000E+00 0. -1.
        -14    1    3    3    0    0  0.50121390889E+02  0.38376220017E+02  0.88920605860E+01  0.63749171202E+02  0.00000000000E+00 0.  1.
        -11    1    4    4    0    0 -0.54814597632E+02 -0.44317663578E+02 -0.40763547420E+02  0.81427036154E+02  0.00000000000E+00 0. -1.
         11    1    4    4    0    0 -0.60101483051E+02  0.31161962362E+02 -0.10916570481E+03  0.12845391108E+03  0.00000000000E+00 0.  1.
          2    1    1    2  501    0  0.18173165277E+02  0.93339814788E+01 -0.11634229643E+03  0.11812246647E+03  0.00000000000E+00 0. -1.
<scales pt_clust_5="13000.00000" pt_clust_6="13000.00000" pt_clust_7="13000.00000" pt_clust_8="13000.00000" pt_clust_9="20.43005"></scales>
<clustering>
<clus scale="   20.430">  2  9  1 -1</clus>
<clus scale="   81.307">  5  6 -1 -1</clus>
<clus scale="   90.512">  7  8 -1 -1</clus>
<clus scale="  129.115">  1  5  2 -1</clus>
<clus scale="   20.430">  2  5  1 -1</clus>
</clustering>
</event>
<event>
 9    1  0.6345107E-005  0.1425209E+03  0.7546771E-02  0.1215415E+00
          1   -1    0    0  502    0 -0.00000000000E+00  0.00000000000E+00  0.85226748913E+03  0.85226748913E+03  0.00000000000E+00 0. -1.
         21   -1    0    0  501  502  0.00000000000E+00 -0.00000000000E+00 -0.42668222837E+02  0.42668222837E+02  0.00000000000E+00 0. -1.
         23    2    1    2    0    0  0.70676724458E+02 -0.64858425930E+02  0.41113578889E+03  0.43454954392E+03  0.10295073782E+03 0.  0.
        -24    2    1    2    0    0 -0.10577089341E+03  0.35720959439E+02  0.13358790724E+03  0.19161180112E+03  0.80036769881E+02 0.  0.
         11    1    4    4    0    0 -0.70957738241E+02  0.29123370006E+01  0.29202311385E+02  0.76787090799E+02  0.00000000000E+00 0. -1.
        -12    1    4    4    0    0 -0.34813155168E+02  0.32808622438E+02  0.10438559586E+03  0.11482471033E+03  0.00000000000E+00 0.  1.
        -11    1    3    3    0    0  0.44523593961E+02 -0.86985996100E+02  0.22524621268E+03  0.24552957106E+03  0.00000000000E+00 0. -1.
         11    1    3    3    0    0  0.26153130497E+02  0.22127570170E+02  0.18588957622E+03  0.18901997286E+03  0.00000000000E+00 0.  1.
          2    1    1    2  501    0  0.35094168951E+02  0.29137466491E+02  0.26487557016E+03  0.26877436692E+03  0.00000000000E+00 0. -1.
<scales pt_clust_5="13000.00000" pt_clust_6="13000.00000" pt_clust_7="13000.00000" pt_clust_8="13000.00000" pt_clust_9="45.61354"></scales>
<clustering>
<clus scale="   45.614">  2  9  1 -1</clus>
<clus scale="   80.037">  5  6 -1 -1</clus>
<clus scale="  102.951">  7  8 -1 -1</clus>
<clus scale="  126.962">  2  5  1 -1</clus>
<clus scale="   45.614">  2  5  1 -1</clus>
</clustering>
</event>
<event>
 9    1  0.6345107E-005  0.1235694E+03  0.7546771E-02  0.1240503E+00
          1   -1    0    0  502    0 -0.00000000000E+00  0.00000000000E+00  0.52802830249E+03  0.52802830249E+03  0.00000000000E+00 0. -1.
         21   -1    0    0  501  502  0.00000000000E+00 -0.00000000000E+00 -0.81999064665E+02  0.81999064665E+02  0.00000000000E+00 0. -1.
        -24    2    1    2    0    0  0.49946192832E+01  0.67565163183E+02  0.23834549337E+03  0.26088613606E+03  0.81627227559E+02 0.  0.
         23    2    1    2    0    0 -0.58593294675E+02 -0.14402231158E+03  0.10003370761E+03  0.20663844524E+03  0.92288157312E+02 0.  0.
         11    1    3    3    0    0  0.38525178518E+02  0.15134104660E+02  0.12364277877E+03  0.13038699033E+03  0.00000000000E+00 0. -1.
        -12    1    3    3    0    0 -0.33530559235E+02  0.52431058523E+02  0.11470271460E+03  0.13049914573E+03  0.00000000000E+00 0.  1.
        -13    1    4    4    0    0 -0.49483746998E+02 -0.98311243379E+02  0.16931059501E+02  0.11135709482E+03  0.00000000000E+00 0. -1.
         13    1    4    4    0    0 -0.91095476767E+01 -0.45711068199E+02  0.83102648106E+02  0.95281350416E+02  0.00000000000E+00 0.  1.
          2    1    1    2  501    0  0.53598675392E+02  0.76457148395E+02  0.10765003685E+03  0.14250278586E+03  0.00000000000E+00 0. -1.
<scales pt_clust_5="13000.00000" pt_clust_6="13000.00000" pt_clust_7="13000.00000" pt_clust_8="13000.00000" pt_clust_9="93.37303"></scales>
<clustering>
<clus scale="   81.627">  5  6 -1 -1</clus>
<clus scale="   92.288">  7  8 -1 -1</clus>
<clus scale="   93.373">  2  9  1 -1</clus>
<clus scale="  115.824">  1  5  2 -1</clus>
<clus scale="   93.373">  2  5  1 -1</clus>
</clustering>
</event>
<event>
 9    1  0.6345107E-005  0.1021529E+03  0.7546771E-02  0.1281236E+00
          1   -1    0    0  502    0 -0.00000000000E+00  0.00000000000E+00  0.78849005323E+03  0.78849005323E+03  0.00000000000E+00 0. -1.
         21   -1    0    0  501  502  0.00000000000E+00 -0.00000000000E+00 -0.46145273693E+02  0.46145273693E+02  0.00000000000E+00 0.  1.
        -24    2    1    2    0    0  0.42296563936E+02  0.94692073691E+00  0.35218304889E+03  0.36380728851E+03  0.80826649513E+02 0.  0.
         23    2    1    2    0    0 -0.49745356203E+02 -0.62021242798E+02  0.61224458946E+02  0.13618601171E+03  0.92070409953E+02 0.  0.
         11    1    3    3    0    0  0.42154648087E+02  0.84627365887E+01  0.74456925889E+02  0.85979451491E+02  0.00000000000E+00 0. -1.
        -12    1    3    3    0    0  0.14191584891E+00 -0.75158158518E+01  0.27772612300E+03  0.27782783702E+03  0.00000000000E+00 0.  1.
        -11    1    4    4    0    0  0.10780142426E+02  0.18171723988E+02  0.12118795964E+02  0.24357508884E+02  0.00000000000E+00 0. -1.
         11    1    4    4    0    0 -0.60525498628E+02 -0.80192966786E+02  0.49105662982E+02  0.11182850282E+03  0.00000000000E+00 0.  1.
          2    1    1    2  501    0  0.74487922664E+01  0.61074322061E+02  0.32893727170E+03  0.33464202671E+03  0.00000000000E+00 0. -1.
<scales pt_clust_5="13000.00000" pt_clust_6="13000.00000" pt_clust_7="13000.00000" pt_clust_8="13000.00000" pt_clust_9="61.52691"></scales>
<clustering>
<clus scale="   61.527">  2  9  1 -1</clus>
<clus scale="   80.827">  5  6 -1 -1</clus>
<clus scale="   92.070">  7  8 -1 -1</clus>
<clus scale="   92.148">  1  5  2 -1</clus>
<clus scale="   61.527">  2  5  1 -1</clus>
</clustering>
</event>
<event>
 9    1  0.6345107E-005  0.1544580E+03  0.7546771E-02  0.1197603E+00
         21   -1    0    0  501  502  0.00000000000E+00  0.00000000000E+00  0.27017924058E+03  0.27017924058E+03  0.00000000000E+00 0.  1.
          1   -1    0    0  502    0 -0.00000000000E+00 -0.00000000000E+00 -0.23328287560E+03  0.23328287560E+03  0.00000000000E+00 0. -1.
        -24    2    1    2    0    0 -0.68076765572E+01  0.12326319968E+03 -0.16652365653E+03  0.22120131257E+03  0.77199298223E+02 0.  0.
         23    2    1    2    0    0  0.39534624830E+02 -0.12686844585E+03  0.15622800696E+03  0.22471832208E+03  0.91828889833E+02 0.  0.
         13    1    3    3    0    0  0.30747561665E+02  0.36450306774E+02 -0.34799103586E+02  0.59034015810E+02  0.00000000000E+00 0. -1.
        -14    1    3    3    0    0 -0.37555238222E+02  0.86812892908E+02 -0.13172455294E+03  0.16216729676E+03  0.00000000000E+00 0.  1.
        -13    1    4    4    0    0  0.40939325041E+02 -0.51254886379E+02  0.12830478994E+03  0.14410139081E+03  0.00000000000E+00 0.  1.
         13    1    4    4    0    0 -0.14047002113E+01 -0.75613559471E+02  0.27923217019E+02  0.80616931269E+02  0.00000000000E+00 0. -1.
          2    1    1    2  501    0 -0.32726948272E+02  0.36052461676E+01  0.47192014541E+02  0.57542481521E+02  0.00000000000E+00 0. -1.
<scales pt_clust_5="13000.00000" pt_clust_6="13000.00000" pt_clust_7="13000.00000" pt_clust_8="13000.00000" pt_clust_9="32.92493"></scales>
<clustering>
<clus scale="   32.925">  1  9  2 -1</clus>
<clus scale="   77.199">  5  6 -1 -1</clus>
<clus scale="   91.829">  7  8 -1 -1</clus>
<clus scale="  146.234">  2  5  1 -1</clus>
<clus scale="   32.925">  1  5  2 -1</clus>
</clustering>
</event>
<event>
 9    1  0.6345107E-005  0.1984445E+03  0.7546771E-02  0.1170353E+00
         21   -1    0    0  501  502  0.00000000000E+00  0.00000000000E+00  0.17730552419E+03  0.17730552419E+03  0.00000000000E+00 0. -1.
          1   -1    0    0  502    0 -0.00000000000E+00 -0.00000000000E+00 -0.78824068181E+03  0.78824068181E+03  0.00000000000E+00 0. -1.
         23    2    1    2    0    0 -0.89119338681E+01 -0.87962434393E+02 -0.28836813439E+02  0.12994815961E+03  0.90764254783E+02 0.  0.
        -24    2    1    2    0    0 -0.29802036624E+01 -0.10248792709E+03 -0.62629838845E+03  0.63972459991E+03  0.80530960181E+02 0.  0.
         11    1    4    4    0    0  0.14013204474E+02 -0.10698197905E+03 -0.45926408412E+03  0.47176796490E+03  0.00000000000E+00 0. -1.
        -12    1    4    4    0    0 -0.16993408136E+02  0.44940519616E+01 -0.16703430432E+03  0.16795663501E+03  0.00000000000E+00 0.  1.
        -11    1    3    3    0    0 -0.21557874397E+02 -0.10386547958E+03 -0.27502021822E+02  0.10958622633E+03  0.00000000000E+00 0. -1.
         11    1    3    3    0    0  0.12645940529E+02  0.15903045188E+02 -0.13347916173E+01  0.20361933277E+02  0.00000000000E+00 0.  1.
          2    1    1    2  501    0  0.11892137531E+02  0.19045036148E+03  0.44200044260E+02  0.19587344648E+03  0.00000000000E+00 0. -1.
<scales pt_clust_5="13000.00000" pt_clust_6="13000.00000" pt_clust_7="13000.00000" pt_clust_8="13000.00000" pt_clust_9="181.36979"></scales>
<clustering>
<clus scale="   80.531">  5  6 -1 -1</clus>
<clus scale="   90.764">  7  8 -1 -1</clus>
<clus scale="  126.708">  2  7  1 -1</clus>
<clus scale="  181.370">  1  9  2 -1</clus>
<clus scale="  181.370">  1  5  2 -1</clus>
</clustering>
</event>
<event>
 9    1  0.6345107E-005  0.1012067E+03  0.7546771E-02  0.1282391E+00
         21   -1    0    0  501  502  0.00000000000E+00  0.00000000000E+00  0.40248731179E+02  0.40248731179E+02  0.00000000000E+00 0. -1.
         -4   -1    0    0    0  501 -0.00000000000E+00 -0.00000000000E+00 -0.45264360568E+03  0.45264360568E+03  0.00000000000E+00 0.  1.
         23    2    1    2    0    0  0.21006105432E+02  0.34285460005E+02 -0.33086559189E+03  0.34549196667E+03  0.90972028160E+02 0.  0.
        -24    2    1    2    0    0 -0.21709080846E+02 -0.55497088922E+02 -0.72999164589E+02  0.12452701693E+03  0.81405705234E+02 0.  0.
         11    1    4    4    0    0  0.57411350309E+01 -0.63593856676E+02 -0.24856457877E+02  0.68519944078E+02  0.00000000000E+00 0. -1.
        -12    1    4    4    0    0 -0.27450215877E+02  0.80967677532E+01 -0.48142706712E+02  0.56007072851E+02  0.00000000000E+00 0.  1.
        -11    1    3    3    0    0  0.39146981840E+02 -0.75820188305E+01 -0.69102148547E+02  0.79781452296E+02  0.00000000000E+00 0.  1.
         11    1    3    3    0    0 -0.18140876408E+02  0.41867478836E+02 -0.26176344334E+03  0.26571051438E+03  0.00000000000E+00 0. -1.
         -3    1    1    2    0  502  0.70297541476E+00  0.21211628917E+02 -0.85301180282E+01  0.22873353259E+02  0.00000000000E+00 0.  1.
<scales pt_clust_5="13000.00000" pt_clust_6="13000.00000" pt_clust_7="13000.00000" pt_clust_8="13000.00000" pt_clust_9="21.22327"></scales>
<clustering>
<clus scale="   21.223">  1  9  2 -1</clus>
<clus scale="   81.406">  5  6 -1 -1</clus>
<clus scale="   90.972">  7  8 -1 -1</clus>
<clus scale="   92.703">  1  5  2 -1</clus>
<clus scale="   21.223">  1  5  2 -1</clus>
</clustering>
</event>
<event>
 9    1  0.6345107E-005  0.1035402E+03  0.7546771E-02  0.1279030E+00
         21   -1    0    0  501  502  0.00000000000E+00  0.00000000000E+00  0.13198156655E+03  0.13198156655E+03  0.00000000000E+00 0. -1.
         -4   -1    0    0    0  501 -0.00000000000E+00 -0.00000000000E+00 -0.14020809682E+03  0.14020809682E+03  0.00000000000E+00 0.  1.
        -24    2    1    2    0    0  0.20200245885E+02 -0.60363731597E+02 -0.58184938507E+02  0.11740754523E+03  0.79669408061E+02 0.  0.
         23    2    1    2    0    0 -0.65885166188E+01  0.90478066853E+01  0.27347151881E+02  0.97077072977E+02  0.92470644124E+02 0.  0.
         13    1    3    3    0    0 -0.83287285186E+01 -0.70843370033E+02 -0.36968543236E+02  0.80341919229E+02  0.00000000000E+00 0. -1.
        -14    1    3    3    0    0  0.28528974404E+02  0.10479638436E+02 -0.21216395270E+02  0.37065625997E+02  0.00000000000E+00 0.  1.
        -11    1    4    4    0    0 -0.35746360976E+02 -0.25765759337E+02 -0.55953186277E-02  0.44064460834E+02  0.00000000000E+00 0.  1.
         11    1    4    4    0    0  0.29157844358E+02  0.34813566023E+02  0.27352747200E+02  0.53012612143E+02  0.00000000000E+00 0. -1.
         -3    1    1    2    0  502 -0.13611729266E+02  0.51315924911E+02  0.22611256359E+02  0.57705045163E+02  0.00000000000E+00 0.  1.
<scales pt_clust_5="13000.00000" pt_clust_6="13000.00000" pt_clust_7="13000.00000" pt_clust_8="13000.00000" pt_clust_9="53.09052"></scales>
<clustering>
<clus scale="   53.091">  1  9  2 -1</clus>
<clus scale="   79.669">  5  6 -1 -1</clus>
<clus scale="   92.287">  2  5  1 -1</clus>
<clus scale="   92.471">  7  8 -1 -1</clus>
<clus scale="   53.091">  1  5  2 -1</clus>
</clustering>
</event>
<event>
 9    1  0.6345107E-005  0.9674709E+02  0.7546771E-02  0.1291359E+00
         21   -1    0    0  501  502  0.00000000000E+00  0.00000000000E+00  0.19426187523E+03  0.19426187523E+03  0.00000000000E+00 0. -1.
          1   -1    0    0  502    0 -0.00000000000E+00 -0.00000000000E+00 -0.17808328195E+03  0.17808328195E+03  0.00000000000E+00 0. -1.
        -24    2    1    2    0    0  0.63087161759E+01 -0.44788027329E+02 -0.95776709355E+02  0.13364055678E+03  0.81491429420E+02 0.  0.
         23    2    1    2    0    0  0.60482239129E+02  0.90235722345E+01  0.58800970563E+01  0.10835093841E+03  0.89251466128E+02 0.  0.
         13    1    3    3    0    0  0.18738922608E+02 -0.53595823382E+02 -0.10235395221E+03  0.11704696082E+03  0.00000000000E+00 0. -1.
        -14    1    3    3    0    0 -0.12430206432E+02  0.88077960531E+01  0.65772428528E+01  0.16593595958E+02  0.00000000000E+00 0.  1.
        -11    1    4    4    0    0  0.67610624520E+02 -0.11938704774E+02 -0.22596483673E+02  0.72279528872E+02  0.00000000000E+00 0. -1.
         11    1    4    4    0    0 -0.71283853914E+01  0.20962277009E+02  0.28476580729E+02  0.36071409533E+02  0.00000000000E+00 0.  1.
          2    1    1    2  501    0 -0.66790955304E+02  0.35764455094E+02  0.10607520557E+03  0.13035366200E+03  0.00000000000E+00 0. -1.
<scales pt_clust_5="13000.00000" pt_clust_6="13000.00000" pt_clust_7="13000.00000" pt_clust_8="13000.00000" pt_clust_9="75.76363"></scales>
<clustering>
<clus scale="   75.764">  1  9  2 -1</clus>
<clus scale="   81.491">  5  6 -1 -1</clus>
<clus scale="   89.251">  7  8 -1 -1</clus>
<clus scale="   89.638">  2  5  1 -1</clus>
<clus scale="   75.764">  1  5  2 -1</clus>
</clustering>
</event>
<event>
 9    1  0.6345107E-005  0.1083009E+03  0.7546771E-02  0.1267894E+00
         21   -1    0    0  501  502  0.00000000000E+00  0.00000000000E+00  0.13763882851E+03  0.13763882851E+03  0.00000000000E+00 0. -1.
          1   -1    0    0  502    0 -0.00000000000E+00 -0.00000000000E+00 -0.76830273657E+03  0.76830273657E+03  0.00000000000E+00 0. -1.
        -24    2    1    2    0    0 -0.56672136243E+02  0.24240948842E+02 -0.67219501402E+03  0.67968137451E+03  0.79506473621E+02 0.  0.
         23    2    1    2    0    0  0.63216903179E+02  0.28315443767E+02 -0.47248604884E+02  0.12288299079E+03  0.89831272722E+02 0.  0.
         11    1    3    3    0    0 -0.71619169095E+02  0.15284639709E+02 -0.38153544728E+03  0.38849996541E+03  0.00000000000E+00 0. -1.
        -12    1    3    3    0    0  0.14947032851E+02  0.89563091327E+01 -0.29065956675E+03  0.29118140910E+03  0.00000000000E+00 0.  1.
        -13    1    4    4    0    0  0.25183626623E+02  0.13188030424E+02  0.26289895899E+02  0.38720767332E+02  0.00000000000E+00 0.  1.
         13    1    4    4    0    0  0.38033276555E+02  0.15127413343E+02 -0.73538500784E+02  0.84162223458E+02  0.00000000000E+00 0. -1.
          2    1    1    2  501    0 -0.65447669352E+01 -0.52556392609E+02  0.88779710844E+02  0.10337719979E+03  0.00000000000E+00 0. -1.
<scales pt_clust_5="13000.00000" pt_clust_6="13000.00000" pt_clust_7="13000.00000" pt_clust_8="13000.00000" pt_clust_9="52.96233"></scales>
<clustering>
<clus scale="   52.962">  1  9  2 -1</clus>
<clus scale="   79.506">  5  6 -1 -1</clus>
<clus scale="   89.831">  7  8 -1 -1</clus>
<clus scale="   99.903">  2  5  1 -1</clus>
<clus scale="   52.962">  1  5  2 -1</clus>
</clustering>
</event>
<event>
 9    1  0.6345107E-005  0.9812488E+02  0.7546771E-02  0.1286864E+00
          1   -1    0    0  502    0 -0.00000000000E+00  0.00000000000E+00  0.20437929493E+03  0.20437929493E+03  0.00000000000E+00 0. -1.
         21   -1    0    0  501  502  0.00000000000E+00 -0.00000000000E+00 -0.92672704015E+02  0.92672704015E+02  0.00000000000E+00 0. -1.
         23    2    1    2    0    0 -0.12651091220E+02  0.69920270440E+02  0.36744077627E+02  0.11869566735E+03  0.87690591736E+02 0.  0.
        -24    2    1    2    0    0  0.23030760202E+02 -0.10864081184E+02  0.53228237256E+01  0.86459338285E+02  0.82452656408E+02 0.  0.
         11    1    4    4    0    0  0.49887833729E+02 -0.12308576059E+02 -0.14100290336E+02  0.53283348115E+02  0.00000000000E+00 0. -1.
        -12    1    4    4    0    0 -0.26857073527E+02  0.14444948747E+01  0.19423114062E+02  0.33175990170E+02  0.00000000000E+00 0.  1.
        -11    1    3    3    0    0  0.34997991486E+02  0.10344769772E+02  0.14035110921E+02  0.39100613911E+02  0.00000000000E+00 0.  1.
         11    1    3    3    0    0 -0.47649082706E+02  0.59575500668E+02  0.22708966706E+02  0.79595053436E+02  0.00000000000E+00 0. -1.
          2    1    1    2  501    0 -0.10379668982E+02 -0.59056189255E+02  0.69639689561E+02  0.91896993312E+02  0.00000000000E+00 0. -1.
<scales pt_clust_5="13000.00000" pt_clust_6="13000.00000" pt_clust_7="13000.00000" pt_clust_8="13000.00000" pt_clust_9="59.96144"></scales>
<clustering>
<clus scale="   59.961">  2  9  1 -1</clus>
<clus scale="   82.453">  5  6 -1 -1</clus>
<clus scale="   87.691">  7  8 -1 -1</clus>
<clus scale="   93.473">  2  5  1 -1</clus>
<clus scale="   59.961">  2  5  1 -1</clus>
</clustering>
</event>
<event>
 9    1  0.6345107E-005  0.1240847E+03  0.7546771E-02  0.1242473E+00
         21   -1    0    0  501  502  0.00000000000E+00  0.00000000000E+00  0.38465892142E+03  0.38465892142E+03  0.00000000000E+00 0. -1.
          3   -1    0    0  502    0 -0.00000000000E+00 -0.00000000000E+00 -0.93246553200E+02  0.93246553200E+02  0.00000000000E+00 0. -1.
        -24    2    1    2    0    0 -0.18549171315E+02  0.75768152410E+02  0.32733219653E+02  0.11595802202E+03  0.79308981376E+02 0.  0.
         23    2    1    2    0    0 -0.36461711894E+01 -0.70583694768E+02  0.29515694844E+03  0.31893417891E+03  0.98010375658E+02 0.  0.
         13    1    3    3    0    0  0.23645730003E+02  0.61656231065E+02  0.13077169546E+02  0.67317336101E+02  0.00000000000E+00 0. -1.
        -14    1    3    3    0    0 -0.42194901317E+02  0.14111921345E+02  0.19656050108E+02  0.48640685923E+02  0.00000000000E+00 0.  1.
        -13    1    4    4    0    0 -0.45325561797E+02 -0.62204270377E+02  0.16634311679E+03  0.18328614325E+03  0.00000000000E+00 0. -1.
         13    1    4    4    0    0  0.41679390608E+02 -0.83794243909E+01  0.12881383165E+03  0.13564803566E+03  0.00000000000E+00 0.  1.
          4    1    1    2  501    0  0.22195342504E+02 -0.51844576419E+01 -0.36477799868E+02  0.43013273685E+02  0.00000000000E+00 0. -1.
<scales pt_clust_5="13000.00000" pt_clust_6="13000.00000" pt_clust_7="13000.00000" pt_clust_8="13000.00000" pt_clust_9="22.79281"></scales>
<clustering>
<clus scale="   22.793">  1  9  2 -1</clus>
<clus scale="   79.309">  5  6 -1 -1</clus>
<clus scale="   98.010">  7  8 -1 -1</clus>
<clus scale="  109.913">  2  5  1 -1</clus>
<clus scale="   22.793">  1  5  2 -1</clus>
</clustering>
</event>
<event>
 9    1  0.6345107E-005  0.1637936E+03  0.7546771E-02  0.1209350E+00
          1   -1    0    0  502    0 -0.00000000000E+00  0.00000000000E+00  0.65204567744E+03  0.65204567744E+03  0.00000000000E+00 0. -1.
         21   -1    0    0  501  502  0.00000000000E+00 -0.00000000000E+00 -0.71035570126E+02  0.71035570126E+02  0.00000000000E+00 0.  1.
        -24    2    1    2    0    0 -0.47397478006E+02 -0.19247609165E+02  0.24877099848E+03  0.26634874606E+03  0.80234989030E+02 0.  0.
         23    2    1    2    0    0 -0.69082976049E+02 -0.77924769377E+02  0.24536706075E+03  0.28192712382E+03  0.91832354763E+02 0.  0.
         11    1    3    3    0    0 -0.52693181153E+02 -0.40480290687E+02  0.13469860078E+03  0.15019633260E+03  0.00000000000E+00 0. -1.
        -12    1    3    3    0    0  0.52957031466E+01  0.21232681522E+02  0.11407239770E+03  0.11615241347E+03  0.00000000000E+00 0.  1.
        -11    1    4    4    0    0 -0.37279247401E+02 -0.91572154866E+02  0.21167662397E+03  0.23362832656E+03  0.00000000000E+00 0. -1.
         11    1    4    4    0    0 -0.31803728648E+02  0.13647385490E+02  0.33690436779E+02  0.48298797262E+02  0.00000000000E+00 0.  1.
          2    1    1    2  501    0  0.11648045406E+03  0.97172378542E+02  0.86872048080E+02  0.17480537768E+03  0.00000000000E+00 0. -1.
<scales pt_clust_5="13000.00000" pt_clust_6="13000.00000" pt_clust_7="13000.00000" pt_clust_8="13000.00000" pt_clust_9="135.62881"></scales>
<clustering>
<clus scale="   80.235">  5  6 -1 -1</clus>
<clus scale="   91.832">  7  8 -1 -1</clus>
<clus scale="   95.156">  1  5  2 -1</clus>
<clus scale="  135.629">  2  9  1 -1</clus>
<clus scale="  135.629">  2  5  1 -1</clus>
</clustering>
</event>
<event>
 9    1  0.6345107E-005  0.9978894E+02  0.7546771E-02  0.1286047E+00
         -4   -1    0    0    0  501 -0.00000000000E+00  0.00000000000E+00  0.15553705763E+03  0.15553705763E+03  0.00000000000E+00 0.  1.
         21   -1    0    0  501  502  0.00000000000E+00 -0.00000000000E+00 -0.86211985569E+02  0.86211985569E+02  0.00000000000E+00 0. -1.
        -24    2    1    2    0    0 -0.34860284111E+02 -0.10824057992E+02  0.12334455166E+02  0.90280830898E+02  0.81646126691E+02 0.  0.
         23    2    1    2    0    0  0.42492770222E+02 -0.13211148019E+02  0.16243792805E+02  0.10354901317E+03  0.92078050424E+02 0.  0.
         11    1    3    3    0    0 -0.29687404491E+02 -0.27053045209E+01 -0.32688479933E+02  0.44240223534E+02  0.00000000000E+00 0. -1.
        -12    1    3    3    0    0 -0.51728796196E+01 -0.81187534712E+01  0.45022935100E+02  0.46040607364E+02  0.00000000000E+00 0.  1.
        -11    1    4    4    0    0 -0.28458773097E+02 -0.12527557702E+02  0.80750880425E+01  0.32125511904E+02  0.00000000000E+00 0.  1.
         11    1    4    4    0    0  0.70951543319E+02 -0.68359031718E+00  0.81687047623E+01  0.71423501263E+02  0.00000000000E+00 0. -1.
         -3    1    1    2    0  502 -0.76324861111E+01  0.24035206012E+02  0.40746824086E+02  0.47919199131E+02  0.00000000000E+00 0.  1.
<scales pt_clust_5="13000.00000" pt_clust_6="13000.00000" pt_clust_7="13000.00000" pt_clust_8="13000.00000" pt_clust_9="25.21798"></scales>
<clustering>
<clus scale="   25.218">  2  9  1 -1</clus>
<clus scale="   81.646">  5  6 -1 -1</clus>
<clus scale="   90.253">  1  5  2 -1</clus>
<clus scale="   92.078">  7  8 -1 -1</clus>
<clus scale="   25.218">  2  5  1 -1</clus>
</clustering>
</event>
<event>
 9    1  0.6345107E-005  0.1133043E+03  0.7546771E-02  0.1258363E+00
         21   -1    0    0  501  502  0.00000000000E+00  0.00000000000E+00  0.94672989137E+02  0.94672989137E+02  0.00000000000E+00 0. -1.
          1   -1    0    0  502    0 -0.00000000000E+00 -0.00000000000E+00 -0.26255278681E+03  0.26255278681E+03  0.00000000000E+00 0. -1.
        -24    2    1    2    0    0  0.14015191837E+02  0.68798863252E+02 -0.19116175513E+03  0.21930369245E+03  0.81373114184E+02 0.  0.
         23    2    1    2    0    0  0.10645820050E+02 -0.53153099254E+02  0.15087400731E+02  0.10758883114E+03  0.91701371200E+02 0.  0.
         11    1    3    3    0    0  0.40187012841E+02  0.18224605955E+02 -0.47837088639E+02  0.65080867487E+02  0.00000000000E+00 0. -1.
        -12    1    3    3    0    0 -0.26171821005E+02  0.50574257297E+02 -0.14332466649E+03  0.15422282496E+03  0.00000000000E+00 0.  1.
        -13    1    4    4    0    0  0.43795751740E+01 -0.79049464038E+02  0.16637859776E+02  0.80900042159E+02  0.00000000000E+00 0.  1.
         13    1    4    4    0    0  0.62662448765E+01  0.25896364784E+02 -0.15504590449E+01  0.26688788979E+02  0.00000000000E+00 0. -1.
          2    1    1    2  501    0 -0.24661011887E+02 -0.15645763999E+02  0.81945567285E+01  0.30333252354E+02  0.00000000000E+00 0. -1.
<scales pt_clust_5="13000.00000" pt_clust_6="13000.00000" pt_clust_7="13000.00000" pt_clust_8="13000.00000" pt_clust_9="29.20540"></scales>
<clustering>
<clus scale="   29.205">  1  9  2 -1</clus>
<clus scale="   81.373">  5  6 -1 -1</clus>
<clus scale="   91.701">  7  8 -1 -1</clus>
<clus scale="  105.120">  2  5  1 -1</clus>
<clus scale="   29.205">  1  5  2 -1</clus>
</clustering>
</event>
<event>
 9    1  0.6345107E-005  0.1253464E+03  0.7546771E-02  0.1237913E+00
         -4   -1    0    0    0  501 -0.00000000000E+00  0.00000000000E+00  0.98217183288E+02  0.98217183288E+02  0.00000000000E+00 0.  1.
         21   -1    0    0  501  502  0.00000000000E+00 -0.00000000000E+00 -0.31070499781E+03  0.31070499781E+03  0.00000000000E+00 0.  1.
        -24    2    1    2    0    0 -0.39303762524E+01  0.91080685845E+02  0.18166169475E+02  0.12271394449E+03  0.80109695210E+02 0.  0.
         23    2    1    2    0    0 -0.34373701832E+02 -0.67164708141E+02 -0.13171407534E+03  0.17745033155E+03  0.91909592149E+02 0.  0.
         13    1    3    3    0    0 -0.61483612730E+01  0.26563040008E+02 -0.31208341823E+02  0.41441018812E+02  0.00000000000E+00 0. -1.
        -14    1    3    3    0    0  0.22179850206E+01  0.64517645836E+02  0.49374511298E+02  0.81272925675E+02  0.00000000000E+00 0.  1.
        -11    1    4    4    0    0  0.23692791805E+02 -0.34987667488E+02 -0.18325645903E+02  0.46057730703E+02  0.00000000000E+00 0. -1.
         11    1    4    4    0    0 -0.58066493636E+02 -0.32177040653E+02 -0.11338842944E+03  0.13139260085E+03  0.00000000000E+00 0.  1.
         -3    1    1    2    0  502  0.38304078084E+02 -0.23915977703E+02 -0.98939908659E+02  0.10875790506E+03  0.00000000000E+00 0.  1.
<scales pt_clust_5="13000.00000" pt_clust_6="13000.00000" pt_clust_7="13000.00000" pt_clust_8="13000.00000" pt_clust_9="45.15724"></scales>
<clustering>
<clus scale="   45.157">  2  9  1 -1</clus>
<clus scale="   80.110">  5  6 -1 -1</clus>
<clus scale="   91.910">  7  8 -1 -1</clus>
<clus scale="  116.970">  1  5  2 -1</clus>
<clus scale="   45.157">  2  5  1 -1</clus>
</clustering>
</event>
<event>
 9    1  0.6345107E-005  0.1162660E+03  0.7546771E-02  0.1252759E+00
         21   -1    0    0  501  502  0.00000000000E+00  0.00000000000E+00  0.74148670226E+02  0.74148670226E+02  0.00000000000E+00 0. -1.
          1   -1    0    0  502    0 -0.00000000000E+00 -0.00000000000E+00 -0.33610798785E+03  0.33610798785E+03  0.00000000000E+00 0. -1.
        -24    2    1    2    0    0  0.33277570516E+01 -0.68063516492E+02 -0.22254625419E+03  0.24730944135E+03  0.83614641578E+02 0.  0.
         23    2    1    2    0    0  0.28543570061E+02  0.75138984037E+02 -0.19299449921E+02  0.12460140624E+03  0.93233252412E+02 0.  0.
         11    1    3    3    0    0 -0.17270435888E+02 -0.72966163795E+02 -0.20931903229E+03  0.22234384699E+03  0.00000000000E+00 0. -1.
        -12    1    3    3    0    0  0.20598192939E+02  0.49026473029E+01 -0.13227221896E+02  0.24965594365E+02  0.00000000000E+00 0.  1.
        -11    1    4    4    0    0 -0.31178459714E+02  0.45186281060E+02 -0.18006594041E+02  0.57776585008E+02  0.00000000000E+00 0.  1.
         11    1    4    4    0    0  0.59722029775E+02  0.29952702977E+02 -0.12928558806E+01  0.66824821230E+02  0.00000000000E+00 0. -1.
          2    1    1    2  501    0 -0.31871327113E+02 -0.70754675455E+01 -0.20113613515E+02  0.38345810482E+02  0.00000000000E+00 0. -1.
<scales pt_clust_5="13000.00000" pt_clust_6="13000.00000" pt_clust_7="13000.00000" pt_clust_8="13000.00000" pt_clust_9="32.64726"></scales>
<clustering>
<clus scale="   32.647">  1  9  2 -1</clus>
<clus scale="   83.615">  5  6 -1 -1</clus>
<clus scale="   93.233">  7  8 -1 -1</clus>
<clus scale="  108.705">  2  5  1 -1</clus>
<clus scale="   32.647">  1  5  2 -1</clus>
</clustering>
</event>
<event>
 9    1  0.6345107E-005  0.1812059E+03  0.7546771E-02  0.1190692E+00
         21   -1    0    0  501  502  0.00000000000E+00  0.00000000000E+00  0.30585217527E+03  0.30585217527E+03  0.00000000000E+00 0. -1.
          1   -1    0    0  502    0 -0.00000000000E+00 -0.00000000000E+00 -0.27150715925E+03  0.27150715925E+03  0.00000000000E+00 0. -1.
         23    2    1    2    0    0  0.38233516298E+02  0.49394703569E+02 -0.10545631716E+03  0.14909198939E+03  0.84886677178E+02 0.  0.
        -24    2    1    2    0    0 -0.18368183652E+03  0.11707844739E+02 -0.21813752710E+02  0.20241745859E+03  0.81368894790E+02 0.  0.
         13    1    4    4    0    0 -0.45637626580E+02  0.36469292515E+02  0.82073774781E+01  0.58992908908E+02  0.00000000000E+00 0. -1.
        -14    1    4    4    0    0 -0.13804420994E+03 -0.24761447776E+02 -0.30021130188E+02  0.14342454968E+03  0.00000000000E+00 0.  1.
        -11    1    3    3    0    0  0.54992006129E+02  0.63128630828E+02 -0.83354433110E+02  0.11814104404E+03  0.00000000000E+00 0. -1.
         11    1    3    3    0    0 -0.16758489831E+02 -0.13733927259E+02 -0.22101884046E+02  0.30950945345E+02  0.00000000000E+00 0.  1.
          2    1    1    2  501    0  0.14544832022E+03 -0.61102548308E+02  0.16161508589E+03  0.22584988654E+03  0.00000000000E+00 0. -1.
<scales pt_clust_5="13000.00000" pt_clust_6="13000.00000" pt_clust_7="13000.00000" pt_clust_8="13000.00000" pt_clust_9="161.90946"></scales>
<clustering>
<clus scale="   81.369">  5  6 -1 -1</clus>
<clus scale="   84.887">  7  8 -1 -1</clus>
<clus scale="  105.392">  2  7  1 -1</clus>
<clus scale="  161.909">  1  9  2 -1</clus>
<clus scale="  161.909">  1  5  2 -1</clus>
</clustering>
</event>
<event>
 9    1  0.6345107E-005  0.2171836E+03  0.7546771E-02  0.1136789E+00
          1   -1    0    0  502    0 -0.00000000000E+00  0.00000000000E+00  0.28798012354E+03  0.28798012354E+03  0.00000000000E+00 0. -1.
         21   -1    0    0  501  502  0.00000000000E+00 -0.00000000000E+00 -0.51040086224E+03  0.51040086224E+03  0.00000000000E+00 0. -1.
         23    2    1    2    0    0 -0.18271121608E+02 -0.21185200411E+03  0.20367508601E+03  0.30879029189E+03  0.93020418033E+02 0.  0.
        -24    2    1    2    0    0  0.27425542545E+00  0.11822773508E+03 -0.23075788397E+03  0.27222854900E+03  0.82953657628E+02 0.  0.
         11    1    4    4    0    0 -0.15895464586E+02  0.92882044064E+02 -0.97397130514E+02  0.13552099814E+03  0.00000000000E+00 0. -1.
        -12    1    4    4    0    0  0.16169720012E+02  0.25345691019E+02 -0.13336075346E+03  0.13670755086E+03  0.00000000000E+00 0.  1.
        -11    1    3    3    0    0 -0.20122581284E+02 -0.34173731769E+00  0.12581594820E+02  0.23734607436E+02  0.00000000000E+00 0.  1.
         11    1    3    3    0    0  0.18514596758E+01 -0.21151026679E+03  0.19109349119E+03  0.28505568445E+03  0.00000000000E+00 0. -1.
          2    1    1    2  501    0  0.17996866183E+02  0.93624269025E+02 -0.19533794074E+03  0.21736214490E+03  0.00000000000E+00 0. -1.
<scales pt_clust_5="13000.00000" pt_clust_6="13000.00000" pt_clust_7="13000.00000" pt_clust_8="13000.00000" pt_clust_9="95.33830"></scales>
<clustering>
<clus scale="   82.954">  5  6 -1 -1</clus>
<clus scale="   93.020">  7  8 -1 -1</clus>
<clus scale="   95.338">  2  9  1 -1</clus>
<clus scale="  213.066">  2  5  1 -1</clus>
<clus scale="   95.338">  2  5  1 -1</clus>
</clustering>
</event>
<event>
 9    1  0.6345107E-005  0.9216138E+02  0.7546771E-02  0.1307874E+00
         -2   -1    0    0    0  501 -0.00000000000E+00  0.00000000000E+00  0.19388133492E+03  0.19388133492E+03  0.00000000000E+00 0.  1.
         21   -1    0    0  501  502  0.00000000000E+00 -0.00000000000E+00 -0.14515517498E+03  0.14515517498E+03  0.00000000000E+00 0.  1.
        -24    2    1    2    0    0 -0.92343027538E+01  0.48095308042E+01  0.12982578119E+03  0.15079884087E+03  0.76007585224E+02 0.  0.
         23    2    1    2    0    0 -0.28365926929E+02 -0.22541918511E+02 -0.17893224761E+01  0.98692494188E+02  0.91783674112E+02 0.  0.
         11    1    3    3    0    0  0.28157483010E+02 -0.11427254945E+02  0.28836345579E+02  0.41892252642E+02  0.00000000000E+00 0. -1.
        -12    1    3    3    0    0 -0.37391785764E+02  0.16236785749E+02  0.10098943561E+03  0.10890658822E+03  0.00000000000E+00 0.  1.
        -13    1    4    4    0    0 -0.43312773325E+02  0.22318113596E+02  0.10486605723E+02  0.49840379485E+02  0.00000000000E+00 0. -1.
         13    1    4    4    0    0  0.14946846396E+02 -0.44860032107E+02 -0.12275928200E+02  0.48852114703E+02  0.00000000000E+00 0.  1.
         -1    1    1    2    0  502  0.37600229683E+02  0.17732387707E+02 -0.79310298774E+02  0.89545174843E+02  0.00000000000E+00 0.  1.
<scales pt_clust_5="13000.00000" pt_clust_6="13000.00000" pt_clust_7="13000.00000" pt_clust_8="13000.00000" pt_clust_9="41.57180"></scales>
<clustering>
<clus scale="   41.572">  2  9  1 -1</clus>
<clus scale="   76.008">  5  6 -1 -1</clus>
<clus scale="   76.463">  1  5  2 -1</clus>
<clus scale="   91.784">  7  8 -1 -1</clus>
<clus scale="   41.572">  2  5  1 -1</clus>
</clustering>
</event>
<event>
 9    1  0.6345107E-005  0.1038756E+03  0.7546771E-02  0.1279532E+00
         -4   -1    0    0    0  501 -0.00000000000E+00  0.00000000000E+00  0.42376581415E+03  0.42376581415E+03  0.00000000000E+00 0.  1.
         21   -1    0    0  501  502  0.00000000000E+00 -0.00000000000E+00 -0.12297830237E+03  0.12297830237E+03  0.00000000000E+00 0.  1.
         23    2    1    2    0    0 -0.11039925725E+02 -0.32433122261E+02  0.71800250832E+01  0.97583952320E+02  0.91089448405E+02 0.  0.
        -24    2    1    2    0    0  0.45518372946E+02  0.63084107287E+02 -0.37604407619E+02  0.11475088630E+03  0.75512565620E+02 0.  0.
         11    1    4    4    0    0  0.22918707925E+02 -0.13133591333E+02 -0.20493352103E+02  0.33432557107E+02  0.00000000000E+00 0. -1.
        -12    1    4    4    0    0  0.22599665020E+02  0.76217698620E+02 -0.17111055515E+02  0.81318329193E+02  0.00000000000E+00 0.  1.
        -11    1    3    3    0    0  0.37172689559E+02 -0.30943974568E+02  0.95071815553E+01  0.49292239878E+02  0.00000000000E+00 0. -1.
         11    1    3    3    0    0 -0.48212615284E+02 -0.14891476928E+01 -0.23271564721E+01  0.48291712442E+02  0.00000000000E+00 0.  1.
         -3    1    1    2    0  502 -0.34478447221E+02 -0.30650985026E+02  0.33121189432E+03  0.33440927790E+03  0.00000000000E+00 0.  1.
<scales pt_clust_5="13000.00000" pt_clust_6="13000.00000" pt_clust_7="13000.00000" pt_clust_8="13000.00000" pt_clust_9="46.13294"></scales>
<clustering>
<clus scale="   46.133">  2  9  1 -1</clus>
<clus scale="   75.513">  5  6 -1 -1</clus>
<clus scale="   90.526">  2  5  1 -1</clus>
<clus scale="   91.089">  7  8 -1 -1</clus>
<clus scale="   46.133">  2  5  1 -1</clus>
</clustering>
</event>
<event>
 9    1  0.6345107E-005  0.1426349E+03  0.7546771E-02  0.1214568E+00
         21   -1    0    0  501  502  0.00000000000E+00  0.00000000000E+00  0.17007918262E+03  0.17007918262E+03  0.00000000000E+00 0. -1.
         -4   -1    0    0    0  501 -0.00000000000E+00 -0.00000000000E+00 -0.14431849325E+03  0.14431849325E+03  0.00000000000E+00 0.  1.
        -24    2    1    2    0    0  0.57485711535E+02  0.98713480275E+02 -0.11631456950E+02  0.13636250081E+03  0.73555982878E+02 0.  0.
         23    2    1    2    0    0 -0.66078722914E+02 -0.71847625495E+02  0.72863366390E+01  0.13678019021E+03  0.95536646487E+02 0.  0.
         13    1    3    3    0    0  0.81399640153E+01  0.82086822475E+02  0.20810342266E+01  0.82515672098E+02  0.00000000000E+00 0. -1.
        -14    1    3    3    0    0  0.49345747520E+02  0.16626657800E+02 -0.13712491177E+02  0.53846828710E+02  0.00000000000E+00 0.  1.
        -11    1    4    4    0    0 -0.55172075355E+02 -0.28782513910E+02 -0.38345984212E+02  0.73094497133E+02  0.00000000000E+00 0.  1.
         11    1    4    4    0    0 -0.10906647559E+02 -0.43065111585E+02  0.45632320851E+02  0.63685693080E+02  0.00000000000E+00 0. -1.
         -3    1    1    2    0  502  0.85930113784E+01 -0.26865854780E+02  0.30105809686E+02  0.41254984844E+02  0.00000000000E+00 0.  1.
<scales pt_clust_5="13000.00000" pt_clust_6="13000.00000" pt_clust_7="13000.00000" pt_clust_8="13000.00000" pt_clust_9="28.20663"></scales>
<clustering>
<clus scale="   28.207">  1  9  2 -1</clus>
<clus scale="   73.556">  5  6 -1 -1</clus>
<clus scale="   95.537">  7  8 -1 -1</clus>
<clus scale="  128.949">  2  5  1 -1</clus>
<clus scale="   28.207">  1  5  2 -1</clus>
</clustering>
</event>
<event>
 9    1  0.6345107E-005  0.1319879E+03  0.7546771E-02  0.1226281E+00
         -4   -1    0    0    0  501 -0.00000000000E+00  0.00000000000E+00  0.35314017277E+03  0.35314017277E+03  0.00000000000E+00 0.  1.
         21   -1    0    0  501  502  0.00000000000E+00 -0.00000000000E+00 -0.11847283255E+03  0.11847283255E+03  0.00000000000E+00 0. -1.
        -24    2    1    2    0    0  0.61880125803E+02  0.72743212659E+02  0.27141816640E+03  0.30115670557E+03  0.88920274972E+02 0.  0.
         23    2    1    2    0    0 -0.39105238229E+02 -0.63482496420E+02  0.57843404036E+01  0.12132691174E+03  0.95538023374E+02 0.  0.
         13    1    3    3    0    0  0.16197564488E+02  0.41378185390E+02  0.30373093971E+02  0.53824159621E+02  0.00000000000E+00 0. -1.
        -14    1    3    3    0    0  0.45682561315E+02  0.31365027269E+02  0.24104507243E+03  0.24733254595E+03  0.00000000000E+00 0.  1.
        -13    1    4    4    0    0 -0.12232125429E+02 -0.85100379485E+02 -0.18839251364E+01  0.85995631604E+02  0.00000000000E+00 0.  1.
         13    1    4    4    0    0 -0.26873112800E+02  0.21617883065E+02  0.76682655400E+01  0.35331280138E+02  0.00000000000E+00 0. -1.
         -3    1    1    2    0  502 -0.22774887574E+02 -0.92607162389E+01 -0.42535166581E+02  0.49129388001E+02  0.00000000000E+00 0.  1.
<scales pt_clust_5="13000.00000" pt_clust_6="13000.00000" pt_clust_7="13000.00000" pt_clust_8="13000.00000" pt_clust_9="24.58569"></scales>
<clustering>
<clus scale="   24.586">  2  9  1 -1</clus>
<clus scale="   88.920">  5  6 -1 -1</clus>
<clus scale="   95.538">  7  8 -1 -1</clus>
<clus scale="  127.280">  1  5  2 -1</clus>
<clus scale="   24.586">  2  5  1 -1</clus>
</clustering>
</event>
<event>
 9    1  0.6345107E-005  0.1864153E+03  0.7546771E-02  0.1163500E+00
          3   -1    0    0  502    0 -0.00000000000E+00  0.00000000000E+00  0.30752164836E+03  0.30752164836E+03  0.00000000000E+00 0. -1.
         21   -1    0    0  501  502  0.00000000000E+00 -0.00000000000E+00 -0.56416111865E+03  0.56416111865E+03  0.00000000000E+00 0. -1.
        -24    2    1    2    0    0  0.26697426787E+02 -0.15281256629E+03  0.14065950228E+03  0.22247062626E+03  0.75124236803E+02 0.  0.
         23    2    1    2    0    0 -0.95221335086E+02  0.23622022301E+03 -0.45304520179E+03  0.52772137863E+03  0.91503017395E+02 0.  0.
         11    1    3    3    0    0 -0.13698254494E+02 -0.10670165189E+03  0.67406592053E+02  0.12695090919E+03  0.00000000000E+00 0. -1.
        -12    1    3    3    0    0  0.40395681281E+02 -0.46110914399E+02  0.73252910228E+02  0.95519717073E+02  0.00000000000E+00 0.  1.
        -13    1    4    4    0    0 -0.20999451765E+02  0.13495417921E+03 -0.30100538523E+03  0.33054175137E+03  0.00000000000E+00 0. -1.
         13    1    4    4    0    0 -0.74221883321E+02  0.10126604380E+03 -0.15203981656E+03  0.19717962727E+03  0.00000000000E+00 0.  1.
          4    1    1    2  501    0  0.68523908299E+02 -0.83407656724E+02  0.55746229208E+02  0.12149076212E+03  0.00000000000E+00 0. -1.
<scales pt_clust_5="13000.00000" pt_clust_6="13000.00000" pt_clust_7="13000.00000" pt_clust_8="13000.00000" pt_clust_9="107.94617"></scales>
<clustering>
<clus scale="   75.124">  5  6 -1 -1</clus>
<clus scale="   91.503">  7  8 -1 -1</clus>
<clus scale="  107.946">  2  9  1 -1</clus>
<clus scale="  178.946">  1  5  2 -1</clus>
<clus scale="  107.946">  2  5  1 -1</clus>
</clustering>
</event>
<event>
 9    1  0.6345107E-005  0.2507226E+03  0.7546771E-02  0.1113229E+00
          1   -1    0    0  502    0 -0.00000000000E+00  0.00000000000E+00  0.11591949410E+04  0.11591949410E+04  0.00000000000E+00 0. -1.
         21   -1    0    0  501  502  0.00000000000E+00 -0.00000000000E+00 -0.11130994212E+03  0.11130994212E+03  0.00000000000E+00 0. -1.
        -24    2    1    2    0    0  0.21918432296E+03 -0.15817674575E+03  0.89040053282E+03  0.93425862078E+03  0.83453048738E+02 0.  0.
         23    2    1    2    0    0 -0.12860732152E+03  0.81688230804E+02  0.11018474823E+03  0.20860634143E+03  0.90349968139E+02 0.  0.
         13    1    3    3    0    0  0.32365750819E+02 -0.46503780829E+02  0.10564012667E+03  0.11987485066E+03  0.00000000000E+00 0. -1.
        -14    1    3    3    0    0  0.18681857214E+03 -0.11167296492E+03  0.78476040614E+03  0.81438377012E+03  0.00000000000E+00 0.  1.
        -13    1    4    4    0    0 -0.26350570523E+02  0.62862921973E+02  0.68355048275E+02  0.96532440923E+02  0.00000000000E+00 0. -1.
         13    1    4    4    0    0 -0.10225675100E+03  0.18825308830E+02  0.41829699959E+02  0.11207390051E+03  0.00000000000E+00 0.  1.
          2    1    1    2  501    0 -0.90577001436E+02  0.76488514943E+02  0.47299717862E+02  0.12763992094E+03  0.00000000000E+00 0. -1.
<scales pt_clust_5="13000.00000" pt_clust_6="13000.00000" pt_clust_7="13000.00000" pt_clust_8="13000.00000" pt_clust_9="118.55246"></scales>
<clustering>
<clus scale="   83.453">  5  6 -1 -1</clus>
<clus scale="   90.350">  7  8 -1 -1</clus>
<clus scale="  118.552">  2  9  1 -1</clus>
<clus scale="  248.321">  1  5  2 -1</clus>
<clus scale="  118.552">  2  5  1 -1</clus>
</clustering>
</event>
<event>
 9    1  0.6345107E-005  0.1822638E+03  0.7546771E-02  0.1191151E+00
          1   -1    0    0  502    0 -0.00000000000E+00  0.00000000000E+00  0.22027605357E+03  0.22027605357E+03  0.00000000000E+00 0. -1.
         21   -1    0    0  501  502  0.00000000000E+00 -0.00000000000E+00 -0.41241700211E+03  0.41241700211E+03  0.00000000000E+00 0. -1.
        -24    2    1    2    0    0  0.59554349890E+02  0.15778933366E+02  0.74818367201E+02  0.12692047215E+03  0.81947073474E+02 0.  0.
         23    2    1    2    0    0 -0.96813520290E+02  0.12838634615E+03 -0.30011800649E+03  0.35322301006E+03  0.94020026730E+02 0.  0.
         13    1    3    3    0    0  0.35320908802E+02  0.43744127418E+02  0.17850861888E+02  0.58989563079E+02  0.00000000000E+00 0. -1.
        -14    1    3    3    0    0  0.24233441088E+02 -0.27965194053E+02  0.56967505314E+02  0.67930909070E+02  0.00000000000E+00 0.  1.
        -11    1    4    4    0    0 -0.37019076425E+02  0.10244504271E+03 -0.24401363211E+03  0.26722284979E+03  0.00000000000E+00 0.  1.
         11    1    4    4    0    0 -0.59794443866E+02  0.25941303439E+02 -0.56104374382E+02  0.86000160268E+02  0.00000000000E+00 0. -1.
          2    1    1    2  501    0  0.37259170401E+02 -0.14416527951E+03  0.33158690756E+02  0.15254957348E+03  0.00000000000E+00 0. -1.
<scales pt_clust_5="13000.00000" pt_clust_6="13000.00000" pt_clust_7="13000.00000" pt_clust_8="13000.00000" pt_clust_9="156.14210"></scales>
<clustering>
<clus scale="   81.947">  5  6 -1 -1</clus>
<clus scale="   94.020">  7  8 -1 -1</clus>
<clus scale="  102.523">  1  5  2 -1</clus>
<clus scale="  156.142">  2  9  1 -1</clus>
<clus scale="  156.142">  2  5  1 -1</clus>
</clustering>
</event>
<event>
 9    1  0.6345107E-005  0.9789384E+02  0.7546771E-02  0.1288999E+00
         21   -1    0    0  501  502  0.00000000000E+00  0.00000000000E+00  0.13553438839E+03  0.13553438839E+03  0.00000000000E+00 0. -1.
          1   -1    0    0  502    0 -0.00000000000E+00 -0.00000000000E+00 -0.97090300873E+02  0.97090300873E+02  0.00000000000E+00 0. -1.
        -24    2    1    2    0    0 -0.20537877195E+02 -0.21241335217E+02 -0.41110870665E+01  0.86019055177E+02  0.80680716998E+02 0.  0.
         23    2    1    2    0    0  0.45124091512E+02  0.41767096998E+02  0.35383645637E+02  0.11378460944E+03  0.88962132059E+02 0.  0.
         11    1    3    3    0    0  0.34976624777E+01 -0.23391587588E+02 -0.37793598878E+02  0.44584258756E+02  0.00000000000E+00 0. -1.
        -12    1    3    3    0    0 -0.24035539672E+02  0.21502523711E+01  0.33682511811E+02  0.41434796422E+02  0.00000000000E+00 0.  1.
        -13    1    4    4    0    0  0.27605395567E+02  0.14811740346E+02 -0.28446366817E+02  0.42315969817E+02  0.00000000000E+00 0.  1.
         13    1    4    4    0    0  0.17518695946E+02  0.26955356652E+02  0.63830012453E+02  0.71468639623E+02  0.00000000000E+00 0. -1.
          2    1    1    2  501    0 -0.24586214317E+02 -0.20525761781E+02  0.71715289445E+01  0.32821024642E+02  0.00000000000E+00 0. -1.
<scales pt_clust_5="13000.00000" pt_clust_6="13000.00000" pt_clust_7="13000.00000" pt_clust_8="13000.00000" pt_clust_9="32.02794"></scales>
<clustering>
<clus scale="   32.028">  1  9  2 -1</clus>
<clus scale="   80.681">  5  6 -1 -1</clus>
<clus scale="   88.962">  7  8 -1 -1</clus>
<clus scale="   90.434">  2  5  1 -1</clus>
<clus scale="   32.028">  1  5  2 -1</clus>
</clustering>
</event>
<event>
 9    1  0.6345107E-005  0.9409484E+02  0.7546771E-02  0.1300711E+00
          3   -1    0    0  502    0 -0.00000000000E+00  0.00000000000E+00  0.85511375788E+02  0.85511375788E+02  0.00000000000E+00 0. -1.
         21   -1    0    0  501  502  0.00000000000E+00 -0.00000000000E+00 -0.26568313956E+03  0.26568313956E+03  0.00000000000E+00 0. -1.
        -24    2    1    2    0    0 -0.80374536276E+01  0.20298067092E+02  0.15424032321E+02  0.84763718558E+02  0.80438641351E+02 0.  0.
         23    2    1    2    0    0 -0.37718605705E+02 -0.64148341719E+00 -0.48841949618E+02  0.11145760652E+03  0.92812484566E+02 0.  0.
         11    1    3    3    0    0 -0.40156969286E+02 -0.56034176721E+00  0.22173554168E+02  0.45875512744E+02  0.00000000000E+00 0. -1.
        -12    1    3    3    0    0  0.32119515658E+02  0.20858408860E+02 -0.67495218472E+01  0.38888205814E+02  0.00000000000E+00 0.  1.
        -11    1    4    4    0    0 -0.26938903903E+01  0.43496745539E+02 -0.17340046205E+02  0.46903103525E+02  0.00000000000E+00 0.  1.
         11    1    4    4    0    0 -0.35024715315E+02 -0.44138228956E+02 -0.31501903414E+02  0.64554502995E+02  0.00000000000E+00 0. -1.
          4    1    1    2  501    0  0.45756059333E+02 -0.19656583675E+02 -0.14675384647E+03  0.15497319027E+03  0.00000000000E+00 0. -1.
<scales pt_clust_5="13000.00000" pt_clust_6="13000.00000" pt_clust_7="13000.00000" pt_clust_8="13000.00000" pt_clust_9="49.79958"></scales>
<clustering>
<clus scale="   49.800">  2  9  1 -1</clus>
<clus scale="   80.439">  5  6 -1 -1</clus>
<clus scale="   81.915">  1  5  2 -1</clus>
<clus scale="   92.812">  7  8 -1 -1</clus>
<clus scale="   49.800">  2  5  1 -1</clus>
</clustering>
</event>
<event>
 9    1  0.6345107E-005  0.1383918E+03  0.7546771E-02  0.1235248E+00
         21   -1    0    0  501  502  0.00000000000E+00  0.00000000000E+00  0.70385423390E+02  0.70385423390E+02  0.00000000000E+00 0.  1.
         -4   -1    0    0    0  501 -0.00000000000E+00 -0.00000000000E+00 -0.59172456072E+03  0.59172456072E+03  0.00000000000E+00 0.  1.
        -24    2    1    2    0    0  0.14326866484E+02 -0.42582148491E+02 -0.12426766790E+02  0.92611348385E+02  0.80024613985E+02 0.  0.
         23    2    1    2    0    0 -0.14239310643E+02 -0.72280938975E+02 -0.37388597785E+03  0.39222578599E+03  0.92860382614E+02 0.  0.
         11    1    3    3    0    0  0.82745622882E+01  0.22646939560E+02 -0.12376162552E+02  0.27102059922E+02  0.00000000000E+00 0. -1.
        -12    1    3    3    0    0  0.60523041960E+01 -0.65229088051E+02 -0.50604238217E-01  0.65509288463E+02  0.00000000000E+00 0.  1.
        -13    1    4    4    0    0 -0.33149078388E+02 -0.86617162498E+02 -0.26429351873E+03  0.28009365984E+03  0.00000000000E+00 0.  1.
         13    1    4    4    0    0  0.18909767745E+02  0.14336223522E+02 -0.10959245912E+03  0.11213212616E+03  0.00000000000E+00 0. -1.
         -3    1    1    2    0  502 -0.87555841139E-01  0.11486308747E+03 -0.13502639269E+03  0.17727284973E+03  0.00000000000E+00 0.  1.
<scales pt_clust_5="13000.00000" pt_clust_6="13000.00000" pt_clust_7="13000.00000" pt_clust_8="13000.00000" pt_clust_9="102.61204"></scales>
<clustering>
<clus scale="   80.025">  5  6 -1 -1</clus>
<clus scale="   91.774">  2  5  1 -1</clus>
<clus scale="   92.860">  7  8 -1 -1</clus>
<clus scale="  102.612">  1  9  2 -1</clus>
<clus scale="  102.612">  1  5  2 -1</clus>
</clustering>
</event>
<event>
 9    1  0.6345107E-005  0.1895113E+03  0.7546771E-02  0.1189121E+00
         21   -1    0    0  501  502  0.00000000000E+00  0.00000000000E+00  0.39041097904E+03  0.39041097904E+03  0.00000000000E+00 0. -1.
          1   -1    0    0  502    0 -0.00000000000E+00 -0.00000000000E+00 -0.15756385124E+03  0.15756385124E+03  0.00000000000E+00 0. -1.
         23    2    1    2    0    0 -0.89572421636E+01 -0.27698244410E+02 -0.62390279127E+01  0.95593036922E+02  0.90838748935E+02 0.  0.
        -24    2    1    2    0    0  0.17356303545E+03 -0.10606720066E+02  0.20384018856E+03  0.27974165988E+03  0.80423528978E+02 0.  0.
         13    1    4    4    0    0  0.16156554685E+03  0.15981561119E+02  0.17022221822E+03  0.23523273539E+03  0.00000000000E+00 0. -1.
        -14    1    4    4    0    0  0.11997488605E+02 -0.26588281185E+02  0.33617970339E+02  0.44508924486E+02  0.00000000000E+00 0.  1.
        -11    1    3    3    0    0 -0.24315694982E+02 -0.56976899492E+02 -0.75557046706E-02  0.61948528273E+02  0.00000000000E+00 0.  1.
         11    1    3    3    0    0  0.15358452818E+02  0.29278655081E+02 -0.62314722081E+01  0.33644508649E+02  0.00000000000E+00 0. -1.
          2    1    1    2  501    0 -0.16460579329E+03  0.38304964477E+02  0.35245967147E+02  0.17264013348E+03  0.00000000000E+00 0. -1.
<scales pt_clust_5="13000.00000" pt_clust_6="13000.00000" pt_clust_7="13000.00000" pt_clust_8="13000.00000" pt_clust_9="171.60015"></scales>
<clustering>
<clus scale="   80.424">  5  6 -1 -1</clus>
<clus scale="   90.839">  7  8 -1 -1</clus>
<clus scale="   95.389">  2  7  1 -1</clus>
<clus scale="  171.600">  1  9  2 -1</clus>
<clus scale="  171.600">  1  5  2 -1</clus>
</clustering>
</event>
<event>
 9    1  0.6345107E-005  0.1011197E+03  0.7546771E-02  0.1282954E+00
          3   -1    0    0  502    0 -0.00000000000E+00  0.00000000000E+00  0.21329105607E+03  0.21329105607E+03  0.00000000000E+00 0. -1.
         21   -1    0    0  501  502  0.00000000000E+00 -0.00000000000E+00 -0.12523653458E+03  0.12523653458E+03  0.00000000000E+00 0.  1.
         23    2    1    2    0    0  0.38775638037E+02  0.29361796569E+02  0.16399940109E+03  0.19395078952E+03  0.91408095905E+02 0.  0.
        -24    2    1    2    0    0 -0.23221417827E+02  0.57545835971E+01 -0.53007358698E+02  0.99841761312E+02  0.81155700647E+02 0.  0.
         13    1    4    4    0    0  0.28900685098E+02  0.12528933638E+02 -0.14453041232E+02  0.34657094196E+02  0.00000000000E+00 0. -1.
        -14    1    4    4    0    0 -0.52122102925E+02 -0.67743500409E+01 -0.38554317465E+02  0.65184667116E+02  0.00000000000E+00 0.  1.
        -13    1    3    3    0    0 -0.69918049625E+01  0.36663463627E+02  0.19317225217E+02  0.42026778271E+02  0.00000000000E+00 0.  1.
         13    1    3    3    0    0  0.45767442999E+02 -0.73016670586E+01  0.14468217587E+03  0.15192401125E+03  0.00000000000E+00 0. -1.
          4    1    1    2  501    0 -0.15554220210E+02 -0.35116380166E+02 -0.22937520899E+02  0.44735039815E+02  0.00000000000E+00 0. -1.
<scales pt_clust_5="13000.00000" pt_clust_6="13000.00000" pt_clust_7="13000.00000" pt_clust_8="13000.00000" pt_clust_9="38.40695"></scales>
<clustering>
<clus scale="   38.407">  2  9  1 -1</clus>
<clus scale="   81.156">  5  6 -1 -1</clus>
<clus scale="   91.408">  7  8 -1 -1</clus>
<clus scale="   91.956">  2  5  1 -1</clus>
<clus scale="   38.407">  2  5  1 -1</clus>
</clustering>
</event>
<event>
 9    1  0.6345107E-005  0.9577550E+02  0.7546771E-02  0.1291616E+00
         21   -1    0    0  501  502  0.00000000000E+00  0.00000000000E+00  0.13220832132E+03  0.13220832132E+03  0.00000000000E+00 0.  1.
          1   -1    0    0  502    0 -0.00000000000E+00 -0.00000000000E+00 -0.22311122914E+03  0.22311122914E+03  0.00000000000E+00 0. -1.
         23    2    1    2    0    0 -0.40971149711E+02  0.14672841181E+02 -0.83288001187E+02  0.13088005078E+03  0.91097580498E+02 0.  0.
        -24    2    1    2    0    0 -0.40348031228E+02  0.39563369109E+02  0.50114721735E+02  0.11091819910E+03  0.81228921930E+02 0.  0.
         13    1    4    4    0    0  0.16214574407E+01  0.43097899992E+02 -0.28806359380E+01  0.43224485784E+02  0.00000000000E+00 0. -1.
        -14    1    4    4    0    0 -0.41969488669E+02 -0.35345308824E+01  0.52995357673E+02  0.67693713317E+02  0.00000000000E+00 0.  1.
        -11    1    3    3    0    0 -0.19583238052E+02  0.53297460718E+02 -0.48342932464E+02  0.74573196597E+02  0.00000000000E+00 0.  1.
         11    1    3    3    0    0 -0.21387911659E+02 -0.38624619537E+02 -0.34945068723E+02  0.56306854179E+02  0.00000000000E+00 0. -1.
          2    1    1    2  501    0  0.81319180939E+02 -0.54236210290E+02 -0.57729628371E+02  0.11352130059E+03  0.00000000000E+00 0. -1.
<scales pt_clust_5="13000.00000" pt_clust_6="13000.00000" pt_clust_7="13000.00000" pt_clust_8="13000.00000" pt_clust_9="97.74654"></scales>
<clustering>
<clus scale="   81.229">  5  6 -1 -1</clus>
<clus scale="   91.098">  7  8 -1 -1</clus>
<clus scale="   97.747">  1  9  2 -1</clus>
<clus scale="   97.747">  1  5  2 -1</clus>
<clus scale="   95.776">  1  5  2 -1</clus>
</clustering>
</event>
<event>
 9    1  0.8353652E-005  0.1437842E+03  0.7546771E-02  0.1210187E+00
         21   -1    0    0  501  502  0.00000000000E+00  0.00000000000E+00  0.16761839767E+03  0.16761839767E+03  0.00000000000E+00 0. -1.
         -4   -1    0    0    0  501 -0.00000000000E+00 -0.00000000000E+00 -0.72096082053E+03  0.72096082053E+03  0.00000000000E+00 0.  1.
        -24    2    1    2    0    0 -0.22569020611E+01  0.11384332296E+03 -0.67459891938E+03  0.68892109970E+03  0.81013479148E+02 0.  0.
         23    2    1    2    0    0 -0.14028206502E+01 -0.82618121742E+02  0.74318918602E+02  0.14316437564E+03  0.90249735978E+02 0.  0.
         13    1    3    3    0    0  0.28507447603E+02  0.21394723037E+02 -0.10097079958E+03  0.10707712693E+03  0.00000000000E+00 0. -1.
        -14    1    3    3    0    0 -0.30764349664E+02  0.92448599927E+02 -0.57362811979E+03  0.58184397278E+03  0.00000000000E+00 0.  1.
        -13    1    4    4    0    0 -0.31538130826E+02 -0.10881744351E+02 -0.29679436503E+01  0.33494398720E+02  0.00000000000E+00 0.  1.
         13    1    4    4    0    0  0.30135310176E+02 -0.71736377392E+02  0.77286862252E+02  0.10966997692E+03  0.00000000000E+00 0. -1.
         -3    1    1    2    0  502  0.36597227112E+01 -0.31225201222E+02  0.46937577914E+02  0.56493742858E+02  0.00000000000E+00 0.  1.
<scales pt_clust_5="13000.00000" pt_clust_6="13000.00000" pt_clust_7="13000.00000" pt_clust_8="13000.00000" pt_clust_9="31.43894"></scales>
<clustering>
<clus scale="   31.439">  1  9  2 -1</clus>
<clus scale="   81.013">  5  6 -1 -1</clus>
<clus scale="   90.250">  7  8 -1 -1</clus>
<clus scale="  138.174">  2  5  1 -1</clus>
<clus scale="   31.439">  1  5  2 -1</clus>
</clustering>
</event>
<event>
 9    1  0.6345107E-005  0.9507056E+02  0.7546771E-02  0.1295838E+00
          1   -1    0    0  502    0 -0.00000000000E+00  0.00000000000E+00  0.40557415283E+03  0.40557415283E+03  0.00000000000E+00 0. -1.
         21   -1    0    0  501  502  0.00000000000E+00 -0.00000000000E+00 -0.43309829637E+02  0.43309829637E+02  0.00000000000E+00 0.  1.
         23    2    1    2    0    0  0.19831200844E+01  0.17612941797E+02  0.29985741314E+03  0.31429259632E+03  0.92472803585E+02 0.  0.
        -24    2    1    2    0    0 -0.19968728122E+02 -0.35938183556E+02  0.49140715067E+02  0.10569002785E+03  0.84055154328E+02 0.  0.
         11    1    4    4    0    0  0.26201353165E+02 -0.18106120082E+02 -0.51080719499E+01  0.32255772990E+02  0.00000000000E+00 0. -1.
        -12    1    4    4    0    0 -0.46170081287E+02 -0.17832063474E+02  0.54248787017E+02  0.73434254859E+02  0.00000000000E+00 0.  1.
        -11    1    3    3    0    0  0.18830398199E+02 -0.30203819490E+02  0.18994779466E+03  0.19325376919E+03  0.00000000000E+00 0. -1.
         11    1    3    3    0    0 -0.16847278114E+02  0.47816761287E+02  0.10990961848E+03  0.12103882714E+03  0.00000000000E+00 0.  1.
          2    1    1    2  501    0  0.17985608038E+02  0.18325241760E+02  0.13266194984E+02  0.28901358297E+02  0.00000000000E+00 0. -1.
<scales pt_clust_5="13000.00000" pt_clust_6="13000.00000" pt_clust_7="13000.00000" pt_clust_8="13000.00000" pt_clust_9="25.67677"></scales>
<clustering>
<clus scale="   25.677">  2  9  1 -1</clus>
<clus scale="   84.055">  5  6 -1 -1</clus>
<clus scale="   86.905">  2  5  1 -1</clus>
<clus scale="   92.473">  7  8 -1 -1</clus>
<clus scale="   25.677">  2  5  1 -1</clus>
</clustering>
</event>
<event>
 9    1  0.7531118E-005  0.1466314E+03  0.7546771E-02  0.1206419E+00
         21   -1    0    0  501  502  0.00000000000E+00  0.00000000000E+00  0.30020815869E+03  0.30020815869E+03  0.00000000000E+00 0. -1.
          1   -1    0    0  502    0 -0.00000000000E+00 -0.00000000000E+00 -0.46203204847E+03  0.46203204847E+03  0.00000000000E+00 0. -1.
        -24    2    1    2    0    0  0.11970855865E+03 -0.16574753732E+02 -0.12174175998E+03  0.18965762148E+03  0.80895585715E+02 0.  0.
         23    2    1    2    0    0 -0.76635477711E+02  0.14430822600E+01  0.25126279312E+03  0.27768239596E+03  0.89996904881E+02 0.  0.
         11    1    3    3    0    0  0.12362794117E+03 -0.76720136568E+01 -0.81538886212E+02  0.14829469848E+03  0.00000000000E+00 0. -1.
        -12    1    3    3    0    0 -0.39193825231E+01 -0.89027400756E+01 -0.40202873767E+02  0.41362923003E+02  0.00000000000E+00 0.  1.
        -13    1    4    4    0    0 -0.75799000512E+02 -0.33480239675E+02  0.18703696417E+03  0.20457087010E+03  0.00000000000E+00 0. -1.
         13    1    4    4    0    0 -0.83647719891E+00  0.34923321935E+02  0.64225828948E+02  0.73111525857E+02  0.00000000000E+00 0.  1.
          2    1    1    2  501    0 -0.43073080940E+02  0.15131671472E+02 -0.29134492293E+03  0.29490018972E+03  0.00000000000E+00 0. -1.
<scales pt_clust_5="13000.00000" pt_clust_6="13000.00000" pt_clust_7="13000.00000" pt_clust_8="13000.00000" pt_clust_9="45.65370"></scales>
<clustering>
<clus scale="   45.654">  1  9  2 -1</clus>
<clus scale="   80.896">  5  6 -1 -1</clus>
<clus scale="   89.997">  7  8 -1 -1</clus>
<clus scale="  141.228">  2  5  1 -1</clus>
<clus scale="   45.654">  1  5  2 -1</clus>
</clustering>
</event>
<event>
 9    1  0.6345107E-005  0.1254153E+03  0.7546771E-02  0.1236859E+00
         21   -1    0    0  501  502  0.00000000000E+00  0.00000000000E+00  0.20515976516E+03  0.20515976516E+03  0.00000000000E+00 0.  1.
          3   -1    0    0  502    0 -0.00000000000E+00 -0.00000000000E+00 -0.14593961347E+03  0.14593961347E+03  0.00000000000E+00 0. -1.
        -24    2    1    2    0    0 -0.72582717950E+02  0.67583734970E+02 -0.59745208272E+02  0.14079868700E+03  0.80118463371E+02 0.  0.
         23    2    1    2    0    0  0.49877394911E+02 -0.21290707582E+02  0.11976420589E+03  0.15873312203E+03  0.88947682747E+02 0.  0.
         13    1    3    3    0    0 -0.89153304809E+02  0.47923754412E+02 -0.42152055917E+02  0.10964394107E+03  0.00000000000E+00 0. -1.
        -14    1    3    3    0    0  0.16570586859E+02  0.19659980558E+02 -0.17593152355E+02  0.31154745934E+02  0.00000000000E+00 0.  1.
        -11    1    4    4    0    0  0.15759915810E+02  0.20609803231E+02  0.96459597641E+02  0.99887901733E+02  0.00000000000E+00 0.  1.
         11    1    4    4    0    0  0.34117479102E+02 -0.41900510813E+02  0.23304608245E+02  0.58845220300E+02  0.00000000000E+00 0. -1.
          4    1    1    2  501    0  0.22705323039E+02 -0.46293027388E+02 -0.79884591977E+00  0.51567569594E+02  0.00000000000E+00 0. -1.
<scales pt_clust_5="13000.00000" pt_clust_6="13000.00000" pt_clust_7="13000.00000" pt_clust_8="13000.00000" pt_clust_9="51.56141"></scales>
<clustering>
<clus scale="   51.561">  1  9  2 -1</clus>
<clus scale="   80.118">  5  6 -1 -1</clus>
<clus scale="   88.948">  7  8 -1 -1</clus>
<clus scale="  119.316">  2  5  1 -1</clus>
<clus scale="   51.561">  1  5  2 -1</clus>
</clustering>
</event>
<event>
 9    1  0.6345107E-005  0.2560700E+03  0.7546771E-02  0.1118635E+00
         21   -1    0    0  501  502  0.00000000000E+00  0.00000000000E+00  0.10037159017E+04  0.10037159017E+04  0.00000000000E+00 0. -1.
          1   -1    0    0  502    0 -0.00000000000E+00 -0.00000000000E+00 -0.21284318181E+03  0.21284318181E+03  0.00000000000E+00 0. -1.
         23    2    1    2    0    0 -0.30772776300E+02 -0.17666279891E+03 -0.30902861381E+02  0.20573801835E+03  0.96002276396E+02 0.  0.
        -24    2    1    2    0    0 -0.18116272918E+03  0.19396366178E+03  0.72418102232E+03  0.77685381044E+03  0.92853934598E+02 0.  0.
         11    1    4    4    0    0 -0.18924185999E+03  0.18881333401E+03  0.71592423866E+03  0.76420577868E+03  0.00000000000E+00 0. -1.
        -12    1    4    4    0    0  0.80791308132E+01  0.51503277744E+01  0.82567836587E+01  0.12648031755E+02  0.00000000000E+00 0.  1.
        -11    1    3    3    0    0 -0.16187519320E+02 -0.14526950599E+03  0.16439506474E+02  0.14709018501E+03  0.00000000000E+00 0.  1.
         11    1    3    3    0    0 -0.14585256980E+02 -0.31393292914E+02 -0.47342367855E+02  0.58647833338E+02  0.00000000000E+00 0. -1.
          2    1    1    2  501    0  0.21193550548E+03 -0.17300862875E+02  0.97594558910E+02  0.23396725469E+03  0.00000000000E+00 0. -1.
<scales pt_clust_5="13000.00000" pt_clust_6="13000.00000" pt_clust_7="13000.00000" pt_clust_8="13000.00000" pt_clust_9="238.64213"></scales>
<clustering>
<clus scale="   92.854">  5  6 -1 -1</clus>
<clus scale="   96.002">  7  8 -1 -1</clus>
<clus scale="  203.404">  2  7  1 -1</clus>
<clus scale="  238.642">  1  9  2 -1</clus>
<clus scale="  238.642">  1  5  2 -1</clus>
</clustering>
</event>
<event>
 9    1  0.6345107E-005  0.1076208E+03  0.7546771E-02  0.1269045E+00
          1   -1    0    0  502    0 -0.00000000000E+00  0.00000000000E+00  0.68899383313E+02  0.68899383313E+02  0.00000000000E+00 0. -1.
         21   -1    0    0  501  502  0.00000000000E+00 -0.00000000000E+00 -0.25139507732E+03  0.25139507732E+03  0.00000000000E+00 0.  1.
         23    2    1    2    0    0 -0.50448457645E+02  0.13478769425E+02 -0.14530509801E+02  0.10540592599E+03  0.90402153813E+02 0.  0.
        -24    2    1    2    0    0  0.68249624737E+02 -0.25932414902E+02 -0.11848321288E+03  0.16084743620E+03  0.80641952959E+02 0.  0.
         13    1    4    4    0    0  0.24251570482E+02  0.26664222764E+02 -0.21169218032E+02  0.41800182278E+02  0.00000000000E+00 0. -1.
        -14    1    4    4    0    0  0.43998054255E+02 -0.52596637665E+02 -0.97313994851E+02  0.11904725392E+03  0.00000000000E+00 0.  1.
        -13    1    3    3    0    0 -0.94119155315E+01 -0.36288092655E+02  0.54399448561E+01  0.37881431104E+02  0.00000000000E+00 0. -1.
         13    1    3    3    0    0 -0.41036542113E+02  0.49766862080E+02 -0.19970454657E+02  0.67524494882E+02  0.00000000000E+00 0.  1.
          2    1    1    2  501    0 -0.17801167092E+02  0.12453645477E+02 -0.49481971327E+02  0.54041098452E+02  0.00000000000E+00 0. -1.
<scales pt_clust_5="13000.00000" pt_clust_6="13000.00000" pt_clust_7="13000.00000" pt_clust_8="13000.00000" pt_clust_9="21.72498"></scales>
<clustering>
<clus scale="   21.725">  2  9  1 -1</clus>
<clus scale="   80.642">  5  6 -1 -1</clus>
<clus scale="   90.402">  7  8 -1 -1</clus>
<clus scale="   99.563">  2  5  1 -1</clus>
<clus scale="   21.725">  2  5  1 -1</clus>
</clustering>
</event>
<event>
 9    1  0.6345107E-005  0.1154732E+03  0.7546771E-02  0.1254970E+00
         -2   -1    0    0    0  501 -0.00000000000E+00  0.00000000000E+00  0.10217117305E+03  0.10217117305E+03  0.00000000000E+00 0.  1.
         21   -1    0    0  501  502  0.00000000000E+00 -0.00000000000E+00 -0.54306901379E+03  0.54306901379E+03  0.00000000000E+00 0.  1.
        -24    2    1    2    0    0 -0.49975420350E+02  0.48173474843E+02  0.48902668742E+02  0.11514224930E+03  0.77769147131E+02 0.  0.
         23    2    1    2    0    0  0.10230395801E+03 -0.32894748783E+02 -0.27737711560E+03  0.31079127191E+03  0.90027696387E+02 0.  0.
         11    1    3    3    0    0 -0.64201979077E+02  0.58097409178E+02  0.37332726881E+02  0.94291757683E+02  0.00000000000E+00 0. -1.
        -12    1    3    3    0    0  0.14226558727E+02 -0.99239343345E+01  0.11569941861E+02  0.20850491614E+02  0.00000000000E+00 0.  1.
        -13    1    4    4    0    0  0.46145755188E+02  0.30635709105E+02 -0.11115279593E+03  0.12418905523E+03  0.00000000000E+00 0. -1.
         13    1    4    4    0    0  0.56158202822E+02 -0.63530457888E+02 -0.16622431967E+03  0.18660221669E+03  0.00000000000E+00 0.  1.
         -1    1    1    2    0  502 -0.52328537660E+02 -0.15278726061E+02 -0.21242339389E+03  0.21930666564E+03  0.00000000000E+00 0.  1.
<scales pt_clust_5="13000.00000" pt_clust_6="13000.00000" pt_clust_7="13000.00000" pt_clust_8="13000.00000" pt_clust_9="54.51344"></scales>
<clustering>
<clus scale="   54.513">  2  9  1 -1</clus>
<clus scale="   77.769">  5  6 -1 -1</clus>
<clus scale="   90.028">  7  8 -1 -1</clus>
<clus scale="  106.194">  1  5  2 -1</clus>
<clus scale="   54.513">  2  5  1 -1</clus>
</clustering>
</event>
<event>
 9    1  0.6345107E-005  0.1461863E+03  0.7546771E-02  0.1208144E+00
          1   -1    0    0  502    0 -0.00000000000E+00  0.00000000000E+00  0.57615510081E+03  0.57615510081E+03  0.00000000000E+00 0. -1.
         21   -1    0    0  501  502  0.00000000000E+00 -0.00000000000E+00 -0.65302177179E+02  0.65302177179E+02  0.00000000000E+00 0. -1.
        -24    2    1    2    0    0 -0.35407683756E+02 -0.87487777564E+02  0.16869549924E+03  0.20929186605E+03  0.80231530206E+02 0.  0.
         23    2    1    2    0    0  0.80848227287E+02  0.12328233389E+03  0.14715687568E+03  0.22876603324E+03  0.94571571822E+02 0.  0.
         11    1    3    3    0    0 -0.52227992836E+01 -0.92869462585E+02  0.12163466328E+03  0.15312415232E+03  0.00000000000E+00 0. -1.
        -12    1    3    3    0    0 -0.30184884472E+02  0.53816850207E+01  0.47060835962E+02  0.56167713731E+02  0.00000000000E+00 0.  1.
        -13    1    4    4    0    0  0.61271967414E+02  0.28764954718E+02  0.22970301188E+02  0.71479447028E+02  0.00000000000E+00 0. -1.
         13    1    4    4    0    0  0.19576259873E+02  0.94517379174E+02  0.12418657449E+03  0.15728658621E+03  0.00000000000E+00 0.  1.
          2    1    1    2  501    0 -0.45440543531E+02 -0.35794556327E+02  0.19500054871E+03  0.20339937870E+03  0.00000000000E+00 0. -1.
<scales pt_clust_5="13000.00000" pt_clust_6="13000.00000" pt_clust_7="13000.00000" pt_clust_8="13000.00000" pt_clust_9="57.84545"></scales>
<clustering>
<clus scale="   57.845">  2  9  1 -1</clus>
<clus scale="   80.232">  5  6 -1 -1</clus>
<clus scale="   94.572">  7  8 -1 -1</clus>
<clus scale="  137.345">  1  5  2 -1</clus>
<clus scale="   57.845">  2  5  1 -1</clus>
</clustering>
</event>
<event>
 9    1  0.6345107E-005  0.9892927E+02  0.7546771E-02  0.1288299E+00
         21   -1    0    0  501  502  0.00000000000E+00  0.00000000000E+00  0.11180045698E+03  0.11180045698E+03  0.00000000000E+00 0. -1.
          3   -1    0    0  502    0 -0.00000000000E+00 -0.00000000000E+00 -0.14690062284E+03  0.14690062284E+03  0.00000000000E+00 0. -1.
         23    2    1    2    0    0  0.24660284998E+02 -0.24912753195E+02 -0.75848436991E+02  0.12441092966E+03  0.92175479916E+02 0.  0.
        -24    2    1    2    0    0 -0.43785433663E+02  0.82633446519E+01  0.52372025096E+02  0.10639596129E+03  0.81190051731E+02 0.  0.
         13    1    4    4    0    0  0.19021260476E+01  0.31329559469E+02 -0.23436335598E+01  0.31474624673E+02  0.00000000000E+00 0. -1.
        -14    1    4    4    0    0 -0.45687559711E+02 -0.23066214817E+02  0.54715658656E+02  0.74921336617E+02  0.00000000000E+00 0.  1.
        -13    1    3    3    0    0 -0.33306498425E+02 -0.22283413749E+02 -0.37306143202E+02  0.54750540511E+02  0.00000000000E+00 0.  1.
         13    1    3    3    0    0  0.57966783423E+02 -0.26293394456E+01 -0.38542293789E+02  0.69660389152E+02  0.00000000000E+00 0. -1.
          4    1    1    2  501    0  0.19125148665E+02  0.16649408543E+02 -0.11623753962E+02  0.27894188865E+02  0.00000000000E+00 0. -1.
<scales pt_clust_5="13000.00000" pt_clust_6="13000.00000" pt_clust_7="13000.00000" pt_clust_8="13000.00000" pt_clust_9="25.35695"></scales>
<clustering>
<clus scale="   25.357">  1  9  2 -1</clus>
<clus scale="   81.190">  5  6 -1 -1</clus>
<clus scale="   88.783">  1  5  2 -1</clus>
<clus scale="   92.175">  7  8 -1 -1</clus>
<clus scale="   25.357">  1  5  2 -1</clus>
</clustering>
</event>
<event>
 9    1  0.6345107E-005  0.2588939E+03  0.7546771E-02  0.1147527E+00
         21   -1    0    0  501  502  0.00000000000E+00  0.00000000000E+00  0.38672220392E+03  0.38672220392E+03  0.00000000000E+00 0. -1.
          3   -1    0    0  502    0 -0.00000000000E+00 -0.00000000000E+00 -0.30339649799E+03  0.30339649799E+03  0.00000000000E+00 0. -1.
         23    2    1    2    0    0 -0.24046680101E+02 -0.24286457835E+02 -0.87051264296E+02  0.13046708463E+03  0.90970669445E+02 0.  0.
        -24    2    1    2    0    0  0.17983763572E+03 -0.16718496785E+03 -0.20056907395E+01  0.25857370294E+03  0.81018197730E+02 0.  0.
         13    1    4    4    0    0  0.10097940541E+03 -0.47979135035E+02  0.21150333843E+02  0.11378125653E+03  0.00000000000E+00 0. -1.
        -14    1    4    4    0    0  0.78858230304E+02 -0.11920583281E+03 -0.23156024583E+02  0.14479244641E+03  0.00000000000E+00 0.  1.
        -11    1    3    3    0    0  0.10347022559E+02  0.17353490821E+02  0.75223173451E+01  0.21558983690E+02  0.00000000000E+00 0.  1.
         11    1    3    3    0    0 -0.34393702659E+02 -0.41639948656E+02 -0.94573581641E+02  0.10890810094E+03  0.00000000000E+00 0. -1.
          4    1    1    2  501    0 -0.15579095562E+03  0.19147142568E+03  0.17238266096E+03  0.30107791434E+03  0.00000000000E+00 0. -1.
<scales pt_clust_5="13000.00000" pt_clust_6="13000.00000" pt_clust_7="13000.00000" pt_clust_8="13000.00000" pt_clust_9="245.89048"></scales>
<clustering>
<clus scale="   81.018">  5  6 -1 -1</clus>
<clus scale="   90.971">  7  8 -1 -1</clus>
<clus scale="   97.179">  2  7  1 -1</clus>
<clus scale="  245.890">  1  9  2 -1</clus>
<clus scale="  245.890">  1  5  2 -1</clus>
</clustering>
</event>
<event>
 9    1  0.6345107E-005  0.9323198E+02  0.7546771E-02  0.1298876E+00
         21   -1    0    0  501  502  0.00000000000E+00  0.00000000000E+00  0.29362957686E+03  0.29362957686E+03  0.00000000000E+00 0. -1.
          1   -1    0    0  502    0 -0.00000000000E+00 -0.00000000000E+00 -0.10660440110E+03  0.10660440110E+03  0.00000000000E+00 0. -1.
         23    2    1    2    0    0 -0.11725042244E+02 -0.10865986618E+02 -0.28549191994E+02  0.97376371263E+02  0.91714530125E+02 0.  0.
        -24    2    1    2    0    0 -0.67013159694E+02  0.48125637699E+02  0.16548745829E+03  0.20237534686E+03  0.82236497917E+02 0.  0.
         13    1    4    4    0    0 -0.43906523546E+02 -0.25226302376E+01  0.12778088554E+03  0.13513734193E+03  0.00000000000E+00 0. -1.
        -14    1    4    4    0    0 -0.23106636148E+02  0.50648267937E+02  0.37706572750E+02  0.67238004935E+02  0.00000000000E+00 0.  1.
        -11    1    3    3    0    0 -0.46041983530E+02  0.14513523989E+02 -0.25472339996E+02  0.54583392445E+02  0.00000000000E+00 0. -1.
         11    1    3    3    0    0  0.34316941286E+02 -0.25379510607E+02 -0.30768519973E+01  0.42792978818E+02  0.00000000000E+00 0.  1.
          2    1    1    2  501    0  0.78738201938E+02 -0.37259651081E+02  0.50086909454E+02  0.10048225984E+03  0.00000000000E+00 0. -1.
<scales pt_clust_5="13000.00000" pt_clust_6="13000.00000" pt_clust_7="13000.00000" pt_clust_8="13000.00000" pt_clust_9="87.10905"></scales>
<clustering>
<clus scale="   82.236">  5  6 -1 -1</clus>
<clus scale="   87.109">  1  9  2 -1</clus>
<clus scale="   87.109">  1  5  2 -1</clus>
<clus scale="   91.715">  7  8 -1 -1</clus>
<clus scale="   87.109">  1  5  2 -1</clus>
</clustering>
</event>
<event>
 9    1  0.6345107E-005  0.1574754E+03  0.7546771E-02  0.1193366E+00
         21   -1    0    0  501  502  0.00000000000E+00  0.00000000000E+00  0.94270253842E+02  0.94270253842E+02  0.00000000000E+00 0. -1.
          3   -1    0    0  502    0 -0.00000000000E+00 -0.00000000000E+00 -0.57220265242E+03  0.57220265242E+03  0.00000000000E+00 0. -1.
        -24    2    1    2    0    0 -0.12139305862E+03 -0.53923713684E+02 -0.42064594072E+03  0.44835479643E+03  0.80218292517E+02 0.  0.
         23    2    1    2    0    0  0.11603094630E+03  0.19363410305E+02 -0.86854632488E+02  0.17232025213E+03  0.91172473650E+02 0.  0.
         13    1    3    3    0    0 -0.12203165873E+03 -0.36733533360E+02 -0.40673196755E+03  0.42622995159E+03  0.00000000000E+00 0. -1.
        -14    1    3    3    0    0  0.63860010701E+00 -0.17190180324E+02 -0.13913973175E+02  0.22124844840E+02  0.00000000000E+00 0.  1.
        -13    1    4    4    0    0  0.14246159192E+01 -0.25524090886E+02 -0.18237938112E+02  0.31402724924E+02  0.00000000000E+00 0. -1.
         13    1    4    4    0    0  0.11460633039E+03  0.44887501191E+02 -0.68616694376E+02  0.14091752721E+03  0.00000000000E+00 0.  1.
          4    1    1    2  501    0  0.53621123187E+01  0.34560303379E+02  0.29568174638E+02  0.45797857697E+02  0.00000000000E+00 0. -1.
<scales pt_clust_5="13000.00000" pt_clust_6="13000.00000" pt_clust_7="13000.00000" pt_clust_8="13000.00000" pt_clust_9="34.97380"></scales>
<clustering>
<clus scale="   34.974">  1  9  2 -1</clus>
<clus scale="   80.218">  5  6 -1 -1</clus>
<clus scale="   91.172">  7  8 -1 -1</clus>
<clus scale="  151.397">  2  5  1 -1</clus>
<clus scale="   34.974">  1  5  2 -1</clus>
</clustering>
</event>
<event>
 9    1  0.6345107E-005  0.1130408E+03  0.7546771E-02  0.1261776E+00
         21   -1    0    0  501  502  0.00000000000E+00  0.00000000000E+00  0.45825476515E+02  0.45825476515E+02  0.00000000000E+00 0. -1.
          1   -1    0    0  502    0 -0.00000000000E+00 -0.00000000000E+00 -0.69973490891E+03  0.69973490891E+03  0.00000000000E+00 0. -1.
         23    2    1    2    0    0  0.28795037692E+02  0.23151451839E+02 -0.14955286818E+03  0.18166999689E+03  0.96295293085E+02 0.  0.
        -24    2    1    2    0    0 -0.10199530039E+03  0.40358240232E+02 -0.17910276201E+03  0.22450595269E+03  0.79330287891E+02 0.  0.
         13    1    4    4    0    0 -0.89554320077E+02  0.14386050723E+02 -0.78801847371E+02  0.12015267724E+03  0.00000000000E+00 0. -1.
        -14    1    4    4    0    0 -0.12440980317E+02  0.25972189509E+02 -0.10030091463E+03  0.10435327544E+03  0.00000000000E+00 0.  1.
        -11    1    3    3    0    0  0.48376381300E+02  0.31023343408E+02 -0.39797377683E+02  0.69903886690E+02  0.00000000000E+00 0. -1.
         11    1    3    3    0    0 -0.19581343608E+02 -0.78718915687E+01 -0.10975549050E+03  0.11176611020E+03  0.00000000000E+00 0.  1.
          2    1    1    2  501    0  0.73200262702E+02 -0.63509692071E+02 -0.32525380221E+03  0.33938443585E+03  0.00000000000E+00 0. -1.
<scales pt_clust_5="13000.00000" pt_clust_6="13000.00000" pt_clust_7="13000.00000" pt_clust_8="13000.00000" pt_clust_9="96.91114"></scales>
<clustering>
<clus scale="   79.330">  5  6 -1 -1</clus>
<clus scale="   96.295">  7  8 -1 -1</clus>
<clus scale="   96.911">  1  9  2 -1</clus>
<clus scale="   98.989">  1  5  2 -1</clus>
<clus scale="   96.911">  1  5  2 -1</clus>
</clustering>
</event>
<event>
 9    1  0.6345107E-005  0.1006737E+03  0.7546771E-02  0.1283305E+00
          1   -1    0    0  502    0 -0.00000000000E+00  0.00000000000E+00  0.48820029928E+03  0.48820029928E+03  0.00000000000E+00 0. -1.
         21   -1    0    0  501  502  0.00000000000E+00 -0.00000000000E+00 -0.43892712917E+02  0.43892712917E+02  0.00000000000E+00 0. -1.
        -24    2    1    2    0    0 -0.44094013379E+02 -0.79954737101E+01  0.37462441405E+03  0.38650520116E+03  0.83872577797E+02 0.  0.
         23    2    1    2    0    0  0.16705001766E+02  0.77173332444E+00  0.69780672598E+02  0.11726202970E+03  0.92743671940E+02 0.  0.
         13    1    3    3    0    0 -0.58070491664E+02 -0.48691524044E+01  0.14271561767E+03  0.15415459180E+03  0.00000000000E+00 0. -1.
        -14    1    3    3    0    0  0.13976478285E+02 -0.31263213057E+01  0.23190879638E+03  0.23235060936E+03  0.00000000000E+00 0.  1.
        -11    1    4    4    0    0  0.93487348595E+01  0.43647818264E+02  0.14535286762E+02  0.46944706240E+02  0.00000000000E+00 0.  1.
         11    1    4    4    0    0  0.73562669069E+01 -0.42876084939E+02  0.55245385836E+02  0.70317323461E+02  0.00000000000E+00 0. -1.
          2    1    1    2  501    0  0.27389011613E+02  0.72237403857E+01 -0.97500280566E-01  0.28325781341E+02  0.00000000000E+00 0. -1.
<scales pt_clust_5="13000.00000" pt_clust_6="13000.00000" pt_clust_7="13000.00000" pt_clust_8="13000.00000" pt_clust_9="28.32561"></scales>
<clustering>
<clus scale="   28.326">  2  9  1 -1</clus>
<clus scale="   83.873">  5  6 -1 -1</clus>
<clus scale="   92.566">  1  5  2 -1</clus>
<clus scale="   92.744">  7  8 -1 -1</clus>
<clus scale="   28.326">  2  5  1 -1</clus>
</clustering>
</event>
<event>
 9    1  0.6345107E-005  0.1314437E+03  0.7546771E-02  0.1225371E+00
         -2   -1    0    0    0  501 -0.00000000000E+00  0.00000000000E+00  0.33512920531E+03  0.33512920531E+03  0.00000000000E+00 0.  1.
         21   -1    0    0  501  502  0.00000000000E+00 -0.00000000000E+00 -0.10805899050E+03  0.10805899050E+03  0.00000000000E+00 0. -1.
         23    2    1    2    0    0 -0.44281905590E+02  0.27827234051E+02  0.55661456557E+02  0.11991668071E+03  0.92447663298E+02 0.  0.
        -24    2    1    2    0    0  0.12549567822E+03 -0.51307046936E+02  0.17327607976E+03  0.23871109073E+03  0.92611050655E+02 0.  0.
         13    1    4    4    0    0  0.99153955560E+02 -0.78396782490E+02  0.13287102719E+03  0.18339103652E+03  0.00000000000E+00 0. -1.
        -14    1    4    4    0    0  0.26341722663E+02  0.27089735554E+02  0.40405052567E+02  0.55320054214E+02  0.00000000000E+00 0.  1.
        -13    1    3    3    0    0 -0.24990607568E+02  0.38727746271E+02  0.76621415844E+02  0.89415939092E+02  0.00000000000E+00 0.  1.
         13    1    3    3    0    0 -0.19291298023E+02 -0.10900512219E+02 -0.20959959287E+02  0.30500741620E+02  0.00000000000E+00 0. -1.
         -1    1    1    2    0  502 -0.81213772632E+02  0.23479812885E+02 -0.18673215031E+01  0.84560424360E+02  0.00000000000E+00 0.  1.
<scales pt_clust_5="13000.00000" pt_clust_6="13000.00000" pt_clust_7="13000.00000" pt_clust_8="13000.00000" pt_clust_9="84.53980"></scales>
<clustering>
<clus scale="   84.540">  2  9  1 -1</clus>
<clus scale="   92.448">  7  8 -1 -1</clus>
<clus scale="   92.611">  5  6 -1 -1</clus>
<clus scale="  131.329">  1  7  2 -1</clus>
<clus scale="   84.540">  2  5  1 -1</clus>
</clustering>
</event>
<event>
 9    1  0.6345107E-005  0.2289828E+03  0.7546771E-02  0.1141183E+00
         21   -1    0    0  501  502  0.00000000000E+00  0.00000000000E+00  0.24884119988E+03  0.24884119988E+03  0.00000000000E+00 0. -1.
          1   -1    0    0  502    0 -0.00000000000E+00 -0.00000000000E+00 -0.40846908008E+03  0.40846908008E+03  0.00000000000E+00 0. -1.
         23    2    1    2    0    0 -0.97959986362E+02  0.94689187231E+02 -0.90781992855E+02  0.18699507339E+03  0.90352565752E+02 0.  0.
        -24    2    1    2    0    0  0.26898915590E+03 -0.61275600067E+02 -0.15822178687E+02  0.28816428475E+03  0.81721775013E+02 0.  0.
         11    1    4    4    0    0  0.26792490583E+03 -0.49567018957E+02 -0.24472238133E+02  0.27356815416E+03  0.00000000000E+00 0. -1.
        -12    1    4    4    0    0  0.10642500743E+01 -0.11708581110E+02  0.86500594458E+01  0.14596130591E+02  0.00000000000E+00 0.  1.
        -11    1    3    3    0    0 -0.58912776418E+02  0.50918654513E+01 -0.95294520727E+01  0.59895348533E+02  0.00000000000E+00 0. -1.
         11    1    3    3    0    0 -0.39047209944E+02  0.89597321780E+02 -0.81252540783E+02  0.12709972485E+03  0.00000000000E+00 0.  1.
          2    1    1    2  501    0 -0.17102916954E+03 -0.33413587164E+02 -0.53023708660E+02  0.18215092182E+03  0.00000000000E+00 0. -1.
<scales pt_clust_5="13000.00000" pt_clust_6="13000.00000" pt_clust_7="13000.00000" pt_clust_8="13000.00000" pt_clust_9="213.90347"></scales>
<clustering>
<clus scale="   81.722">  5  6 -1 -1</clus>
<clus scale="   90.353">  7  8 -1 -1</clus>
<clus scale="  163.480">  2  7  1 -1</clus>
<clus scale="  213.903">  1  9  2 -1</clus>
<clus scale="  213.903">  1  5  2 -1</clus>
</clustering>
</event>
<event>
 9    1  0.6345107E-005  0.1111248E+03  0.7546771E-02  0.1262373E+00
          1   -1    0    0  502    0 -0.00000000000E+00  0.00000000000E+00  0.94865133787E+02  0.94865133787E+02  0.00000000000E+00 0. -1.
         21   -1    0    0  501  502  0.00000000000E+00 -0.00000000000E+00 -0.19880933184E+03  0.19880933184E+03  0.00000000000E+00 0. -1.
        -24    2    1    2    0    0  0.24870218121E+01  0.48019335699E+02 -0.53381309495E+02  0.10746416385E+03  0.79918336004E+02 0.  0.
         23    2    1    2    0    0 -0.40384049456E+02 -0.78426176970E+02 -0.54613541680E+02  0.13745408688E+03  0.90163464779E+02 0.  0.
         13    1    3    3    0    0  0.30550885113E+02  0.94699347177E+00 -0.41240064869E+02  0.51332215305E+02  0.00000000000E+00 0. -1.
        -14    1    3    3    0    0 -0.28063863300E+02  0.47072342227E+02 -0.12141244627E+02  0.56131948542E+02  0.00000000000E+00 0.  1.
        -13    1    4    4    0    0 -0.19946828968E+02 -0.69177023544E+02 -0.77241138420E+02  0.10559133505E+03  0.00000000000E+00 0. -1.
         13    1    4    4    0    0 -0.20437220488E+02 -0.92491534259E+01  0.22627596739E+02  0.31862751836E+02  0.00000000000E+00 0.  1.
          2    1    1    2  501    0  0.37897027643E+02  0.30406841272E+02  0.40506531233E+01  0.48756214897E+02  0.00000000000E+00 0. -1.
<scales pt_clust_5="13000.00000" pt_clust_6="13000.00000" pt_clust_7="13000.00000" pt_clust_8="13000.00000" pt_clust_9="48.58768"></scales>
<clustering>
<clus scale="   48.588">  2  9  1 -1</clus>
<clus scale="   79.918">  5  6 -1 -1</clus>
<clus scale="   90.163">  7  8 -1 -1</clus>
<clus scale="  102.986">  1  5  2 -1</clus>
<clus scale="   48.588">  2  5  1 -1</clus>
</clustering>
</event>
<event>
 9    1  0.6345107E-005  0.2113394E+03  0.7546771E-02  0.1141608E+00
         21   -1    0    0  501  502  0.00000000000E+00  0.00000000000E+00  0.27386624364E+03  0.27386624364E+03  0.00000000000E+00 0.  1.
         -4   -1    0    0    0  501 -0.00000000000E+00 -0.00000000000E+00 -0.60224876557E+03  0.60224876557E+03  0.00000000000E+00 0.  1.
        -24    2    1    2    0    0  0.17457554529E+03 -0.14521613306E+03 -0.34359045583E+03  0.41944640931E+03  0.79476679794E+02 0.  0.
         23    2    1    2    0    0 -0.16234418637E+03  0.18375494445E+02 -0.15531828840E+03  0.24378988738E+03  0.92824807213E+02 0.  0.
         11    1    3    3    0    0  0.91496104756E+01 -0.32751041057E+02 -0.91621187827E+02  0.97728133724E+02  0.00000000000E+00 0. -1.
        -12    1    3    3    0    0  0.16542593481E+03 -0.11246509201E+03 -0.25196926800E+03  0.32171827559E+03  0.00000000000E+00 0.  1.
        -13    1    4    4    0    0 -0.64882722329E+02 -0.36552028015E+02 -0.46946035639E+02  0.88032656844E+02  0.00000000000E+00 0. -1.
         13    1    4    4    0    0 -0.97461464043E+02  0.54927522459E+02 -0.10837225276E+03  0.15575723054E+03  0.00000000000E+00 0.  1.
         -3    1    1    2    0  502 -0.12231358916E+02  0.12684063862E+03  0.17052622230E+03  0.21287871251E+03  0.00000000000E+00 0.  1.
<scales pt_clust_5="13000.00000" pt_clust_6="13000.00000" pt_clust_7="13000.00000" pt_clust_8="13000.00000" pt_clust_9="127.42901"></scales>
<clustering>
<clus scale="   79.477">  5  6 -1 -1</clus>
<clus scale="   92.825">  7  8 -1 -1</clus>
<clus scale="  127.429">  1  9  2 -1</clus>
<clus scale="  205.826">  2  5  1 -1</clus>
<clus scale="  127.429">  1  5  2 -1</clus>
</clustering>
</event>
<event>
 9    1  0.6345107E-005  0.1572299E+03  0.7546771E-02  0.1213719E+00
         21   -1    0    0  501  502  0.00000000000E+00  0.00000000000E+00  0.22132113225E+03  0.22132113225E+03  0.00000000000E+00 0. -1.
          1   -1    0    0  502    0 -0.00000000000E+00 -0.00000000000E+00 -0.18912851239E+03  0.18912851239E+03  0.00000000000E+00 0. -1.
         23    2    1    2    0    0 -0.31931107199E+02  0.23277089693E+02  0.19499091395E+02  0.99939468913E+02  0.89700971956E+02 0.  0.
        -24    2    1    2    0    0  0.15238197127E+03 -0.52028896257E+02 -0.23735821853E+02  0.18142812972E+03  0.80159252758E+02 0.  0.
         13    1    4    4    0    0  0.35438710113E+02 -0.43877870816E+02  0.14297286284E+02  0.58185755275E+02  0.00000000000E+00 0. -1.
        -14    1    4    4    0    0  0.11694326115E+03 -0.81510254412E+01 -0.38033108137E+02  0.12324237445E+03  0.00000000000E+00 0.  1.
        -11    1    3    3    0    0 -0.49533286350E+02  0.30929430651E+01  0.41956749498E+02  0.64988318811E+02  0.00000000000E+00 0.  1.
         11    1    3    3    0    0  0.17602179152E+02  0.20184146628E+02 -0.22457658103E+02  0.34951150102E+02  0.00000000000E+00 0. -1.
          2    1    1    2  501    0 -0.12045086407E+03  0.28751806564E+02  0.36429350325E+02  0.12908204600E+03  0.00000000000E+00 0. -1.
<scales pt_clust_5="13000.00000" pt_clust_6="13000.00000" pt_clust_7="13000.00000" pt_clust_8="13000.00000" pt_clust_9="135.26173"></scales>
<clustering>
<clus scale="   80.159">  5  6 -1 -1</clus>
<clus scale="   89.701">  7  8 -1 -1</clus>
<clus scale="   98.019">  2  7  1 -1</clus>
<clus scale="  135.262">  1  9  2 -1</clus>
<clus scale="  135.262">  1  5  2 -1</clus>
</clustering>
</event>
<event>
 9    1  0.6345107E-005  0.2519541E+03  0.7546771E-02  0.1126018E+00
         21   -1    0    0  501  502  0.00000000000E+00  0.00000000000E+00  0.26631076411E+03  0.26631076411E+03  0.00000000000E+00 0. -1.
          1   -1    0    0  502    0 -0.00000000000E+00 -0.00000000000E+00 -0.65370790797E+03  0.65370790797E+03  0.00000000000E+00 0. -1.
        -24    2    1    2    0    0 -0.56775252207E+02 -0.14677670208E+03 -0.32281291070E+03  0.36847757235E+03  0.82466456635E+02 0.  0.
         23    2    1    2    0    0  0.42098248602E+02 -0.18538213594E+03  0.85916400261E+01  0.21110077232E+03  0.91383373391E+02 0.  0.
         13    1    3    3    0    0 -0.72248225689E+02 -0.97962474272E+02 -0.26256448455E+03  0.28940725808E+03  0.00000000000E+00 0. -1.
        -14    1    3    3    0    0  0.15472973482E+02 -0.48814227809E+02 -0.60248426154E+02  0.79070314272E+02  0.00000000000E+00 0.  1.
        -13    1    4    4    0    0  0.42545773937E+02 -0.16174551278E+03  0.39830260411E+02  0.17192499362E+03  0.00000000000E+00 0. -1.
         13    1    4    4    0    0 -0.44752533450E+00 -0.23636623161E+02 -0.31238620385E+02  0.39175778702E+02  0.00000000000E+00 0.  1.
          2    1    1    2  501    0  0.14677003604E+02  0.33215883803E+03 -0.73175873178E+02  0.34044032741E+03  0.00000000000E+00 0. -1.
<scales pt_clust_5="13000.00000" pt_clust_6="13000.00000" pt_clust_7="13000.00000" pt_clust_8="13000.00000" pt_clust_9="234.79774"></scales>
<clustering>
<clus scale="   82.466">  5  6 -1 -1</clus>
<clus scale="   91.383">  7  8 -1 -1</clus>
<clus scale="  177.673">  2  5  1 -1</clus>
<clus scale="  234.798">  1  9  2 -1</clus>
<clus scale="  234.798">  1  5  2 -1</clus>
</clustering>
</event>
<event>
 9    1  0.6345107E-005  0.1849661E+03  0.7546771E-02  0.1168493E+00
         -4   -1    0    0    0  501 -0.00000000000E+00  0.00000000000E+00  0.65767905484E+03  0.65767905484E+03  0.00000000000E+00 0.  1.
         21   -1    0    0  501  502  0.00000000000E+00 -0.00000000000E+00 -0.11365939343E+03  0.11365939343E+03  0.00000000000E+00 0. -1.
         23    2    1    2    0    0  0.12345453947E+03  0.55812855900E+02  0.12579191638E+03  0.20611785118E+03  0.91131027365E+02 0.  0.
        -24    2    1    2    0    0 -0.12448544395E+03  0.12715491716E+03  0.18347365364E+03  0.26758365017E+03  0.79204984366E+02 0.  0.
         13    1    4    4    0    0 -0.39509214576E+02  0.90042227441E+02  0.68305749220E+02  0.11972575385E+03  0.00000000000E+00 0. -1.
        -14    1    4    4    0    0 -0.84976229374E+02  0.37112689715E+02  0.11516790442E+03  0.14785789632E+03  0.00000000000E+00 0.  1.
        -13    1    3    3    0    0  0.91553983462E+02  0.18998552503E+02  0.29233621164E+02  0.97967757406E+02  0.00000000000E+00 0.  1.
         13    1    3    3    0    0  0.31900556011E+02  0.36814303397E+02  0.96558295214E+02  0.10815009377E+03  0.00000000000E+00 0. -1.
         -3    1    1    2    0  502  0.10309044773E+01 -0.18296777306E+03  0.23475409140E+03  0.29763694692E+03  0.00000000000E+00 0.  1.
<scales pt_clust_5="13000.00000" pt_clust_6="13000.00000" pt_clust_7="13000.00000" pt_clust_8="13000.00000" pt_clust_9="167.14976"></scales>
<clustering>
<clus scale="   79.205">  5  6 -1 -1</clus>
<clus scale="   91.131">  7  8 -1 -1</clus>
<clus scale="  163.282">  1  7  2 -1</clus>
<clus scale="  167.150">  2  9  1 -1</clus>
<clus scale="  167.150">  2  5  1 -1</clus>
</clustering>
</event>
<event>
 9    1  0.6345107E-005  0.1067507E+03  0.7546771E-02  0.1270403E+00
          1   -1    0    0  502    0 -0.00000000000E+00  0.00000000000E+00  0.13770415107E+03  0.13770415107E+03  0.00000000000E+00 0. -1.
         21   -1    0    0  501  502  0.00000000000E+00 -0.00000000000E+00 -0.15459388258E+03  0.15459388258E+03  0.00000000000E+00 0. -1.
         23    2    1    2    0    0  0.34535717820E+02  0.63892812030E+02 -0.23397915656E+02  0.11824071853E+03  0.90323849712E+02 0.  0.
        -24    2    1    2    0    0 -0.38754090311E+02 -0.21658620304E+02 -0.48407633487E+02  0.10465076900E+03  0.81470909674E+02 0.  0.
         11    1    4    4    0    0 -0.55454849635E+02 -0.38554235901E+02 -0.27221485271E+02  0.72819494054E+02  0.00000000000E+00 0. -1.
        -12    1    4    4    0    0  0.16700759324E+02  0.16895615597E+02 -0.21186148216E+02  0.31831274945E+02  0.00000000000E+00 0.  1.
        -13    1    3    3    0    0  0.73621795834E+01  0.82187961585E+02 -0.22241219961E+02  0.85461889653E+02  0.00000000000E+00 0. -1.
         13    1    3    3    0    0  0.27173538237E+02 -0.18295149555E+02 -0.11566956949E+01  0.32778828876E+02  0.00000000000E+00 0.  1.
          2    1    1    2  501    0  0.42183724908E+01 -0.42234191726E+02  0.54915817634E+02  0.69406546115E+02  0.00000000000E+00 0. -1.
<scales pt_clust_5="13000.00000" pt_clust_6="13000.00000" pt_clust_7="13000.00000" pt_clust_8="13000.00000" pt_clust_9="42.44436"></scales>
<clustering>
<clus scale="   42.444">  2  9  1 -1</clus>
<clus scale="   81.471">  5  6 -1 -1</clus>
<clus scale="   90.324">  7  8 -1 -1</clus>
<clus scale="   99.372">  2  5  1 -1</clus>
<clus scale="   42.444">  2  5  1 -1</clus>
</clustering>
</event>
<event>
 9    1  0.6345107E-005  0.1060512E+03  0.7546771E-02  0.1271232E+00
         21   -1    0    0  501  502  0.00000000000E+00  0.00000000000E+00  0.52945609225E+03  0.52945609225E+03  0.00000000000E+00 0.  1.
          3   -1    0    0  502    0 -0.00000000000E+00 -0.00000000000E+00 -0.59232934695E+02  0.59232934695E+02  0.00000000000E+00 0. -1.
         23    2    1    2    0    0  0.71707914492E+02 -0.25737073300E+02  0.98383548337E+02  0.15381110437E+03  0.90410791952E+02 0.  0.
        -24    2    1    2    0    0 -0.31640933084E+02 -0.65603373239E+02  0.10822136176E+03  0.15302153970E+03  0.79992357416E+02 0.  0.
         13    1    4    4    0    0  0.89217613192E+01 -0.43392771911E+02  0.11432087021E+02  0.45751755079E+02  0.00000000000E+00 0. -1.
        -14    1    4    4    0    0 -0.40562694403E+02 -0.22210601329E+02  0.96789274741E+02  0.10726978463E+03  0.00000000000E+00 0.  1.
        -13    1    3    3    0    0 -0.23202586242E+01 -0.20300150096E+02  0.72303721537E+02  0.75135263639E+02  0.00000000000E+00 0. -1.
         13    1    3    3    0    0  0.74028173116E+02 -0.54369232044E+01  0.26079826800E+02  0.78675840731E+02  0.00000000000E+00 0.  1.
          4    1    1    2  501    0 -0.40066981408E+02  0.91340446540E+02  0.26361824746E+03  0.28185638287E+03  0.00000000000E+00 0. -1.
<scales pt_clust_5="13000.00000" pt_clust_6="13000.00000" pt_clust_7="13000.00000" pt_clust_8="13000.00000" pt_clust_9="99.74187"></scales>
<clustering>
<clus scale="   79.992">  5  6 -1 -1</clus>
<clus scale="   90.411">  7  8 -1 -1</clus>
<clus scale="   99.742">  1  9  2 -1</clus>
<clus scale="   99.742">  1  5  2 -1</clus>
<clus scale="   99.742">  1  5  2 -1</clus>
</clustering>
</event>
<event>
 9    1  0.6345107E-005  0.1278692E+03  0.7546771E-02  0.1247551E+00
         21   -1    0    0  501  502  0.00000000000E+00  0.00000000000E+00  0.21149425604E+03  0.21149425604E+03  0.00000000000E+00 0. -1.
          1   -1    0    0  502    0 -0.00000000000E+00 -0.00000000000E+00 -0.14856627266E+03  0.14856627266E+03  0.00000000000E+00 0. -1.
         23    2    1    2    0    0 -0.10747517609E+02 -0.61791663813E+01 -0.35807725630E+02  0.97488818168E+02  0.89823077330E+02 0.  0.
        -24    2    1    2    0    0 -0.79159114258E+02 -0.53627984214E+02  0.91669387853E+02  0.15435881569E+03  0.79254282218E+02 0.  0.
         11    1    4    4    0    0 -0.32146978385E+02  0.77629512430E+01  0.64350056541E+02  0.72350683536E+02  0.00000000000E+00 0. -1.
        -12    1    4    4    0    0 -0.47012135873E+02 -0.61390935457E+02  0.27319331313E+02  0.82008132151E+02  0.00000000000E+00 0.  1.
        -11    1    3    3    0    0 -0.29093472499E+02  0.19887828617E+02 -0.51148385588E+02  0.62113711992E+02  0.00000000000E+00 0. -1.
         11    1    3    3    0    0  0.18345954890E+02 -0.26066994998E+02  0.15340659958E+02  0.35375106176E+02  0.00000000000E+00 0.  1.
          2    1    1    2  501    0  0.89906631868E+02  0.59807150595E+02  0.70663211628E+01  0.10821289485E+03  0.00000000000E+00 0. -1.
<scales pt_clust_5="13000.00000" pt_clust_6="13000.00000" pt_clust_7="13000.00000" pt_clust_8="13000.00000" pt_clust_9="100.34588"></scales>
<clustering>
<clus scale="   79.254">  5  6 -1 -1</clus>
<clus scale="   89.823">  7  8 -1 -1</clus>
<clus scale="   90.675">  2  7  1 -1</clus>
<clus scale="  100.346">  1  9  2 -1</clus>
<clus scale="  100.346">  1  5  2 -1</clus>
</clustering>
</event>
<event>
 9    1  0.6345107E-005  0.2570782E+03  0.7546771E-02  0.1109400E+00
          3   -1    0    0  502    0 -0.00000000000E+00  0.00000000000E+00  0.21319054331E+03  0.21319054331E+03  0.00000000000E+00 0. -1.
         21   -1    0    0  501  502  0.00000000000E+00 -0.00000000000E+00 -0.94985209977E+03  0.94985209977E+03  0.00000000000E+00 0. -1.
         23    2    1    2    0    0  0.23056696696E+03  0.85909633554E+02 -0.19897392975E+01  0.26148773281E+03  0.88488891716E+02 0.  0.
        -24    2    1    2    0    0 -0.23898452467E+03  0.39739496145E+02 -0.73257700760E+03  0.77560671736E+03  0.78764696218E+02 0.  0.
         11    1    4    4    0    0 -0.14404647338E+03 -0.15005766553E+02 -0.39731336506E+03  0.42288588245E+03  0.00000000000E+00 0. -1.
        -12    1    4    4    0    0 -0.94938051283E+02  0.54745262698E+02 -0.33526364254E+03  0.35272083491E+03  0.00000000000E+00 0.  1.
        -13    1    3    3    0    0  0.12843886410E+03  0.93061270668E+02  0.66251984382E+01  0.15874770916E+03  0.00000000000E+00 0.  1.
         13    1    3    3    0    0  0.10212810286E+03 -0.71516371144E+01 -0.86149377357E+01  0.10274002365E+03  0.00000000000E+00 0. -1.
          4    1    1    2  501    0  0.84175577061E+01 -0.12564912970E+03 -0.20948095630E+01  0.12594819292E+03  0.00000000000E+00 0. -1.
<scales pt_clust_5="13000.00000" pt_clust_6="13000.00000" pt_clust_7="13000.00000" pt_clust_8="13000.00000" pt_clust_9="125.93083"></scales>
<clustering>
<clus scale="   78.765">  5  6 -1 -1</clus>
<clus scale="   88.489">  7  8 -1 -1</clus>
<clus scale="  125.931">  2  9  1 -1</clus>
<clus scale="  253.895">  2  5  1 -1</clus>
<clus scale="  125.931">  2  5  1 -1</clus>
</clustering>
</event>
<event>
 9    1  0.6345107E-005  0.1695417E+03  0.7546771E-02  0.1186620E+00
          1   -1    0    0  502    0 -0.00000000000E+00  0.00000000000E+00  0.12670045386E+04  0.12670045386E+04  0.00000000000E+00 0. -1.
         21   -1    0    0  501  502  0.00000000000E+00 -0.00000000000E+00 -0.99444434486E+02  0.99444434486E+02  0.00000000000E+00 0. -1.
         23    2    1    2    0    0  0.10108739628E+03  0.37202943530E+02  0.70053328868E+02  0.15728165810E+03  0.90704632716E+02 0.  0.
        -24    2    1    2    0    0 -0.16639765057E+03  0.93616903876E+02  0.10250591454E+04  0.10459866763E+04  0.83003448547E+02 0.  0.
         13    1    4    4    0    0 -0.14588535073E+03  0.10872334628E+03  0.92594204098E+03  0.94364822092E+03  0.00000000000E+00 0. -1.
        -14    1    4    4    0    0 -0.20512299836E+02 -0.15106442408E+02  0.99117104456E+02  0.10233845535E+03  0.00000000000E+00 0.  1.
        -13    1    3    3    0    0  0.10439499811E+03  0.57201692510E+02  0.51145202061E+02  0.12956149486E+03  0.00000000000E+00 0.  1.
         13    1    3    3    0    0 -0.33076018347E+01 -0.19998748980E+02  0.18908126807E+02  0.27720163240E+02  0.00000000000E+00 0. -1.
          2    1    1    2  501    0  0.65310254291E+02 -0.13081984741E+03  0.72447629821E+02  0.16318063873E+03  0.00000000000E+00 0. -1.
<scales pt_clust_5="13000.00000" pt_clust_6="13000.00000" pt_clust_7="13000.00000" pt_clust_8="13000.00000" pt_clust_9="147.83379"></scales>
<clustering>
<clus scale="   83.003">  5  6 -1 -1</clus>
<clus scale="   90.705">  7  8 -1 -1</clus>
<clus scale="  140.819">  1  7  2 -1</clus>
<clus scale="  147.834">  2  9  1 -1</clus>
<clus scale="  147.834">  2  5  1 -1</clus>
</clustering>
</event>
<event>
 9    1  0.6345107E-005  0.1087098E+03  0.7546771E-02  0.1267687E+00
         21   -1    0    0  501  502  0.00000000000E+00  0.00000000000E+00  0.39254948499E+02  0.39254948499E+02  0.00000000000E+00 0. -1.
          1   -1    0    0  502    0 -0.00000000000E+00 -0.00000000000E+00 -0.67260385414E+03  0.67260385414E+03  0.00000000000E+00 0. -1.
         23    2    1    2    0    0 -0.73611429347E+02  0.29185442522E+02 -0.43328304053E+03  0.44995212296E+03  0.91936321252E+02 0.  0.
        -24    2    1    2    0    0  0.13686095493E+02 -0.38022941019E+02 -0.17411143942E+03  0.19600691313E+03  0.80441677049E+02 0.  0.
         13    1    4    4    0    0  0.23263949569E+00 -0.55466133934E+02 -0.68590441953E+02  0.88211081288E+02  0.00000000000E+00 0. -1.
        -14    1    4    4    0    0  0.13453455997E+02  0.17443192915E+02 -0.10552099746E+03  0.10779583185E+03  0.00000000000E+00 0.  1.
        -13    1    3    3    0    0 -0.84562516146E+02 -0.48109478681E+01 -0.27811736666E+03  0.29072879801E+03  0.00000000000E+00 0. -1.
         13    1    3    3    0    0  0.10951086799E+02  0.33996390390E+02 -0.15516567387E+03  0.15922332495E+03  0.00000000000E+00 0.  1.
          2    1    1    2  501    0  0.59925333854E+02  0.88374984968E+01 -0.25954425697E+02  0.65899766544E+02  0.00000000000E+00 0. -1.
<scales pt_clust_5="13000.00000" pt_clust_6="13000.00000" pt_clust_7="13000.00000" pt_clust_8="13000.00000" pt_clust_9="60.57348"></scales>
<clustering>
<clus scale="   60.573">  1  9  2 -1</clus>
<clus scale="   80.442">  5  6 -1 -1</clus>
<clus scale="   91.936">  7  8 -1 -1</clus>
<clus scale="   99.179">  1  5  2 -1</clus>
<clus scale="   60.573">  1  5  2 -1</clus>
</clustering>
</event>
<event>
 9    1  0.6345107E-005  0.1064576E+03  0.7546771E-02  0.1270747E+00
         21   -1    0    0  501  502  0.00000000000E+00  0.00000000000E+00  0.40007235714E+02  0.40007235714E+02  0.00000000000E+00 0. -1.
         -2   -1    0    0    0  501 -0.00000000000E+00 -0.00000000000E+00 -0.61716960755E+03  0.61716960755E+03  0.00000000000E+00 0.  1.
         23    2    1    2    0    0  0.57117994253E+02 -0.13291856791E+02 -0.19908349100E+03  0.22603438382E+03  0.89544221232E+02 0.  0.
        -24    2    1    2    0    0 -0.22593995607E+02  0.75770160523E+02 -0.12745891248E+03  0.17055502026E+03  0.81188882876E+02 0.  0.
         11    1    4    4    0    0 -0.30233392628E+02  0.86817808615E+02 -0.12742184930E+03  0.15712325608E+03  0.00000000000E+00 0. -1.
        -12    1    4    4    0    0  0.76393970212E+01 -0.11047648092E+02 -0.37063175363E-01  0.13431764177E+02  0.00000000000E+00 0.  1.
        -11    1    3    3    0    0  0.52083126861E+02  0.29953706004E+02 -0.14243137790E+03  0.15458516752E+03  0.00000000000E+00 0. -1.
         11    1    3    3    0    0  0.50348673919E+01 -0.43245562795E+02 -0.56652113094E+02  0.71449216295E+02  0.00000000000E+00 0.  1.
         -1    1    1    2    0  502 -0.34523998646E+02 -0.62478303732E+02 -0.25061996836E+03  0.26058743918E+03  0.00000000000E+00 0.  1.
<scales pt_clust_5="13000.00000" pt_clust_6="13000.00000" pt_clust_7="13000.00000" pt_clust_8="13000.00000" pt_clust_9="71.38242"></scales>
<clustering>
<clus scale="   71.382">  1  9  2 -1</clus>
<clus scale="   81.189">  5  6 -1 -1</clus>
<clus scale="   89.544">  7  8 -1 -1</clus>
<clus scale="   99.532">  1  5  2 -1</clus>
<clus scale="   71.382">  1  5  2 -1</clus>
</clustering>
</event>
<event>
 9    1  0.6345107E-005  0.9560947E+02  0.7546771E-02  0.1295522E+00
         21   -1    0    0  501  502  0.00000000000E+00  0.00000000000E+00  0.17837780433E+03  0.17837780433E+03  0.00000000000E+00 0. -1.
          1   -1    0    0  502    0 -0.00000000000E+00 -0.00000000000E+00 -0.30826733803E+03  0.30826733803E+03  0.00000000000E+00 0. -1.
        -24    2    1    2    0    0  0.33604411223E+02 -0.67095097581E+01 -0.24243069041E+03  0.25762521910E+03  0.80148860800E+02 0.  0.
         23    2    1    2    0    0 -0.16009092403E+02 -0.34110702933E+02 -0.10178926103E+02  0.98497497090E+02  0.90434038405E+02 0.  0.
         13    1    3    3    0    0  0.44037828392E+02  0.19424541766E+02 -0.84842119583E+02  0.97543981914E+02  0.00000000000E+00 0. -1.
        -14    1    3    3    0    0 -0.10433417169E+02 -0.26134051524E+02 -0.15758857083E+03  0.16008123719E+03  0.00000000000E+00 0.  1.
        -13    1    4    4    0    0  0.26403981812E+02 -0.46442206201E+02 -0.98679121157E+01  0.54327014107E+02  0.00000000000E+00 0. -1.
         13    1    4    4    0    0 -0.42413074215E+02  0.12331503267E+02 -0.31101398689E+00  0.44170482983E+02  0.00000000000E+00 0.  1.
          2    1    1    2  501    0 -0.17595318820E+02  0.40820212692E+02  0.12272008281E+03  0.13052242617E+03  0.00000000000E+00 0. -1.
<scales pt_clust_5="13000.00000" pt_clust_6="13000.00000" pt_clust_7="13000.00000" pt_clust_8="13000.00000" pt_clust_9="44.45093"></scales>
<clustering>
<clus scale="   44.451">  1  9  2 -1</clus>
<clus scale="   80.149">  5  6 -1 -1</clus>
<clus scale="   85.946">  2  5  1 -1</clus>
<clus scale="   90.434">  7  8 -1 -1</clus>
<clus scale="   44.451">  1  5  2 -1</clus>
</clustering>
</event>
<event>
 9    1  0.6345107E-005  0.1178063E+03  0.7546771E-02  0.1249681E+00
         21   -1    0    0  501  502  0.00000000000E+00  0.00000000000E+00  0.12411576471E+03  0.12411576471E+03  0.00000000000E+00 0.  1.
         -2   -1    0    0    0  501 -0.00000000000E+00 -0.00000000000E+00 -0.21767897892E+03  0.21767897892E+03  0.00000000000E+00 0.  1.
        -24    2    1    2    0    0  0.21021817736E+02 -0.55773557807E+02 -0.19609660696E+02  0.10192545748E+03  0.80322185717E+02 0.  0.
         23    2    1    2    0    0 -0.80026638297E+02  0.77863419944E+02 -0.38526744475E+00  0.14300947212E+03  0.89356508901E+02 0.  0.
         13    1    3    3    0    0 -0.29546724852E+02 -0.31807720419E+02 -0.14326833733E+02  0.45716498035E+02  0.00000000000E+00 0. -1.
        -14    1    3    3    0    0  0.50568542588E+02 -0.23965837388E+02 -0.52828269626E+01  0.56208959445E+02  0.00000000000E+00 0.  1.
        -13    1    4    4    0    0 -0.26446781012E+02 -0.16964797283E+02  0.11468813159E+02  0.33448023080E+02  0.00000000000E+00 0. -1.
         13    1    4    4    0    0 -0.53579857285E+02  0.94828217226E+02 -0.11854080603E+02  0.10956144904E+03  0.00000000000E+00 0.  1.
         -1    1    1    2    0  502  0.59004820561E+02 -0.22089862136E+02 -0.73568286073E+02  0.96859814032E+02  0.00000000000E+00 0.  1.
<scales pt_clust_5="13000.00000" pt_clust_6="13000.00000" pt_clust_7="13000.00000" pt_clust_8="13000.00000" pt_clust_9="63.00424"></scales>
<clustering>
<clus scale="   63.004">  1  9  2 -1</clus>
<clus scale="   80.322">  5  6 -1 -1</clus>
<clus scale="   89.357">  7  8 -1 -1</clus>
<clus scale="  111.110">  2  5  1 -1</clus>
<clus scale="   63.004">  1  5  2 -1</clus>
</clustering>
</event>
<event>
 9    1  0.6345107E-005  0.1857400E+03  0.7546771E-02  0.1163621E+00
         21   -1    0    0  501  502  0.00000000000E+00  0.00000000000E+00  0.67032249912E+02  0.67032249912E+02  0.00000000000E+00 0.  1.
          1   -1    0    0  502    0 -0.00000000000E+00 -0.00000000000E+00 -0.97945311272E+03  0.97945311272E+03  0.00000000000E+00 0. -1.
         23    2    1    2    0    0 -0.11624325882E+03  0.49472379256E+02 -0.32754207334E+03  0.36345138357E+03  0.94090843770E+02 0.  0.
        -24    2    1    2    0    0  0.22124006607E+03 -0.63295752396E+02 -0.37145369747E+03  0.44477847530E+03  0.83045310636E+02 0.  0.
         13    1    4    4    0    0  0.42882353219E+02 -0.20950930441E+02 -0.14937360230E+03  0.15681298023E+03  0.00000000000E+00 0. -1.
        -14    1    4    4    0    0  0.17835771285E+03 -0.42344821956E+02 -0.22208009517E+03  0.28796549507E+03  0.00000000000E+00 0.  1.
        -13    1    3    3    0    0 -0.70045125582E+02  0.72938359334E+02 -0.17222846586E+03  0.19972222794E+03  0.00000000000E+00 0.  1.
         13    1    3    3    0    0 -0.46198133238E+02 -0.23465980078E+02 -0.15531360748E+03  0.16372915563E+03  0.00000000000E+00 0. -1.
          2    1    1    2  501    0 -0.10499680725E+03  0.13823373141E+02 -0.21342509199E+03  0.23825550375E+03  0.00000000000E+00 0. -1.
<scales pt_clust_5="13000.00000" pt_clust_6="13000.00000" pt_clust_7="13000.00000" pt_clust_8="13000.00000" pt_clust_9="105.90291"></scales>
<clustering>
<clus scale="   83.045">  5  6 -1 -1</clus>
<clus scale="   94.091">  7  8 -1 -1</clus>
<clus scale="  105.903">  1  9  2 -1</clus>
<clus scale="  180.396">  1  5  2 -1</clus>
<clus scale="  105.903">  1  5  2 -1</clus>
</clustering>
</event>
<event>
 9    1  0.6345107E-005  0.1266662E+03  0.7546771E-02  0.1238267E+00
         21   -1    0    0  501  502  0.00000000000E+00  0.00000000000E+00  0.34206079318E+03  0.34206079318E+03  0.00000000000E+00 0. -1.
         -4   -1    0    0    0  501 -0.00000000000E+00 -0.00000000000E+00 -0.15009003401E+03  0.15009003401E+03  0.00000000000E+00 0.  1.
         23    2    1    2    0    0 -0.49256750393E+02 -0.36740664604E+02  0.55020079143E+02  0.12526657456E+03  0.94278320404E+02 0.  0.
        -24    2    1    2    0    0 -0.89191943298E+02 -0.12418182961E+02  0.17769979792E+03  0.21442073670E+03  0.79307125347E+02 0.  0.
         11    1    4    4    0    0 -0.76637242867E+02 -0.17109151163E+02  0.18366788555E+03  0.19974954876E+03  0.00000000000E+00 0. -1.
        -12    1    4    4    0    0 -0.12554700430E+02  0.46909682012E+01 -0.59680876341E+01  0.14671187940E+02  0.00000000000E+00 0.  1.
        -11    1    3    3    0    0  0.18032328924E+01 -0.56415744910E+02  0.37677829254E+02  0.67864620679E+02  0.00000000000E+00 0. -1.
         11    1    3    3    0    0 -0.51059983285E+02  0.19675080306E+02  0.17342249890E+02  0.57401953881E+02  0.00000000000E+00 0.  1.
         -3    1    1    2    0  502  0.13844869369E+03  0.49158847565E+02 -0.40749117890E+02  0.15246351592E+03  0.00000000000E+00 0.  1.
<scales pt_clust_5="13000.00000" pt_clust_6="13000.00000" pt_clust_7="13000.00000" pt_clust_8="13000.00000" pt_clust_9="98.76591"></scales>
<clustering>
<clus scale="   79.307">  5  6 -1 -1</clus>
<clus scale="   94.278">  7  8 -1 -1</clus>
<clus scale="  112.537">  2  7  1 -1</clus>
<clus scale="   98.766">  1  9  2 -1</clus>
<clus scale="   98.766">  1  5  2 -1</clus>
</clustering>
</event>
<event>
 9    1  0.6345107E-005  0.9792936E+02  0.7546771E-02  0.1291880E+00
         21   -1    0    0  501  502  0.00000000000E+00  0.00000000000E+00  0.48556157346E+03  0.48556157346E+03  0.00000000000E+00 0.  1.
          3   -1    0    0  502    0 -0.00000000000E+00 -0.00000000000E+00 -0.52866518072E+02  0.52866518072E+02  0.00000000000E+00 0. -1.
        -24    2    1    2    0    0  0.18041412074E+02  0.49184252180E+02  0.40296366498E+02  0.10264289953E+03  0.78531423390E+02 0.  0.
         23    2    1    2    0    0  0.27792579009E+02  0.25018760797E+02  0.24810287233E+03  0.26717877293E+03  0.91820997637E+02 0.  0.
         13    1    3    3    0    0 -0.20152048989E+02  0.49559027816E+02  0.35362142551E+02  0.64130206942E+02  0.00000000000E+00 0. -1.
        -14    1    3    3    0    0  0.38193461063E+02 -0.37477563658E+00  0.49342239461E+01  0.38512692592E+02  0.00000000000E+00 0.  1.
        -11    1    4    4    0    0 -0.17840723583E+02 -0.25109388990E+02  0.91108876722E+02  0.96174842090E+02  0.00000000000E+00 0.  1.
         11    1    4    4    0    0  0.45633302592E+02  0.50128149787E+02  0.15699399561E+03  0.17100393085E+03  0.00000000000E+00 0. -1.
          4    1    1    2  501    0 -0.45833991082E+02 -0.74203012977E+02  0.14429581656E+03  0.16860641907E+03  0.00000000000E+00 0. -1.
<scales pt_clust_5="13000.00000" pt_clust_6="13000.00000" pt_clust_7="13000.00000" pt_clust_8="13000.00000" pt_clust_9="87.21721"></scales>
<clustering>
<clus scale="   78.531">  5  6 -1 -1</clus>
<clus scale="   87.217">  1  9  2 -1</clus>
<clus scale="   85.594">  2  5  1 -1</clus>
<clus scale="   91.821">  7  8 -1 -1</clus>
<clus scale="   87.217">  1  5  2 -1</clus>
</clustering>
</event>
<event>
 9    1  0.6345107E-005  0.1236726E+03  0.7546771E-02  0.1240788E+00
          1   -1    0    0  502    0 -0.00000000000E+00  0.00000000000E+00  0.96126066431E+02  0.96126066431E+02  0.00000000000E+00 0. -1.
         21   -1    0    0  501  502  0.00000000000E+00 -0.00000000000E+00 -0.37058787701E+03  0.37058787701E+03  0.00000000000E+00 0.  1.
         23    2    1    2    0    0 -0.55479996413E+02  0.58767534033E+02 -0.27060716184E+02  0.12632812179E+03  0.93246227459E+02 0.  0.
        -24    2    1    2    0    0 -0.29413104261E+01 -0.10509125347E+03 -0.22712028116E+03  0.26311844523E+03  0.81208812598E+02 0.  0.
         13    1    4    4    0    0  0.25881944121E+02 -0.52785093999E+02 -0.53407098925E+02  0.79425810638E+02  0.00000000000E+00 0. -1.
        -14    1    4    4    0    0 -0.28823254547E+02 -0.52306159467E+02 -0.17371318223E+03  0.18369263459E+03  0.00000000000E+00 0.  1.
        -13    1    3    3    0    0 -0.17626689688E+02 -0.11306744928E+02  0.23898841677E+02  0.31775734511E+02  0.00000000000E+00 0.  1.
         13    1    3    3    0    0 -0.37853306725E+02  0.70074278961E+02 -0.50959557862E+02  0.94552387275E+02  0.00000000000E+00 0. -1.
          2    1    1    2  501    0  0.58421306839E+02  0.46323719433E+02 -0.20280813239E+02  0.77267376431E+02  0.00000000000E+00 0. -1.
<scales pt_clust_5="13000.00000" pt_clust_6="13000.00000" pt_clust_7="13000.00000" pt_clust_8="13000.00000" pt_clust_9="74.55831"></scales>
<clustering>
<clus scale="   74.558">  2  9  1 -1</clus>
<clus scale="   81.209">  5  6 -1 -1</clus>
<clus scale="   93.246">  7  8 -1 -1</clus>
<clus scale="  114.869">  2  5  1 -1</clus>
<clus scale="   74.558">  2  5  1 -1</clus>
</clustering>
</event>
<event>
 9    1  0.6345107E-005  0.9835522E+02  0.7546771E-02  0.1289958E+00
         21   -1    0    0  501  502  0.00000000000E+00  0.00000000000E+00  0.15754430211E+03  0.15754430211E+03  0.00000000000E+00 0. -1.
         -2   -1    0    0    0  501 -0.00000000000E+00 -0.00000000000E+00 -0.18506206841E+03  0.18506206841E+03  0.00000000000E+00 0.  1.
        -24    2    1    2    0    0  0.24978350748E+01 -0.33793105625E+02 -0.13203859944E+03  0.15759446474E+03  0.79079772438E+02 0.  0.
         23    2    1    2    0    0  0.12672996026E+02  0.65243705262E+02  0.57417900164E+02  0.12637761011E+03  0.90868801983E+02 0.  0.
         11    1    3    3    0    0  0.22098453506E+02  0.18844133221E+02 -0.55725103030E+02  0.62838921951E+02  0.00000000000E+00 0. -1.
        -12    1    3    3    0    0 -0.19600618431E+02 -0.52637238846E+02 -0.76313496405E+02  0.94755542792E+02  0.00000000000E+00 0.  1.
        -11    1    4    4    0    0 -0.31848355794E+02 -0.17305782660E+01  0.12463557228E+02  0.34244020306E+02  0.00000000000E+00 0.  1.
         11    1    4    4    0    0  0.44521351819E+02  0.66974283528E+02  0.44954342935E+02  0.92133589807E+02  0.00000000000E+00 0. -1.
         -1    1    1    2    0  502 -0.15170831100E+02 -0.31450599638E+02  0.47102932966E+02  0.58634295662E+02  0.00000000000E+00 0.  1.
<scales pt_clust_5="13000.00000" pt_clust_6="13000.00000" pt_clust_7="13000.00000" pt_clust_8="13000.00000" pt_clust_9="34.91840"></scales>
<clustering>
<clus scale="   34.918">  1  9  2 -1</clus>
<clus scale="   79.080">  5  6 -1 -1</clus>
<clus scale="   87.580">  2  5  1 -1</clus>
<clus scale="   90.869">  7  8 -1 -1</clus>
<clus scale="   34.918">  1  5  2 -1</clus>
</clustering>
</event>
<event>
 9    1  0.6345107E-005  0.1993541E+03  0.7546771E-02  0.1151278E+00
          1   -1    0    0  502    0 -0.00000000000E+00  0.00000000000E+00  0.15222187153E+04  0.15222187153E+04  0.00000000000E+00 0. -1.
         21   -1    0    0  501  502  0.00000000000E+00 -0.00000000000E+00 -0.41715375006E+02  0.41715375006E+02  0.00000000000E+00 0. -1.
         23    2    1    2    0    0  0.14826071857E+03  0.43699481418E+02  0.47734868950E+03  0.50994598470E+03  0.91061795440E+02 0.  0.
        -24    2    1    2    0    0 -0.20978453837E+03 -0.25542230343E+02  0.52603899262E+03  0.57257952919E+03  0.80425974861E+02 0.  0.
         11    1    4    4    0    0 -0.84313657566E+02 -0.46517167206E+02  0.18447818860E+03  0.20809815417E+03  0.00000000000E+00 0. -1.
        -12    1    4    4    0    0 -0.12547088080E+03  0.20974936863E+02  0.34156080401E+03  0.36448137503E+03  0.00000000000E+00 0.  1.
        -13    1    3    3    0    0  0.19739236162E+02 -0.26424210035E+02  0.89431857690E+02  0.95320163082E+02  0.00000000000E+00 0.  1.
         13    1    3    3    0    0  0.12852148241E+03  0.70123691453E+02  0.38791683181E+03  0.41462582161E+03  0.00000000000E+00 0. -1.
          2    1    1    2  501    0  0.61523819793E+02 -0.18157251076E+02  0.47711565815E+03  0.48140857639E+03  0.00000000000E+00 0. -1.
<scales pt_clust_5="13000.00000" pt_clust_6="13000.00000" pt_clust_7="13000.00000" pt_clust_8="13000.00000" pt_clust_9="64.14725"></scales>
<clustering>
<clus scale="   64.147">  2  9  1 -1</clus>
<clus scale="   80.426">  5  6 -1 -1</clus>
<clus scale="   91.062">  7  8 -1 -1</clus>
<clus scale="  194.726">  2  5  1 -1</clus>
<clus scale="   64.147">  2  5  1 -1</clus>
</clustering>
</event>
<event>
 9    1  0.6345107E-005  0.1341318E+03  0.7546771E-02  0.1223342E+00
         21   -1    0    0  501  502  0.00000000000E+00  0.00000000000E+00  0.46709857104E+02  0.46709857104E+02  0.00000000000E+00 0.  1.
          1   -1    0    0  502    0 -0.00000000000E+00 -0.00000000000E+00 -0.65288560195E+03  0.65288560195E+03  0.00000000000E+00 0. -1.
        -24    2    1    2    0    0 -0.67254025404E+02 -0.64223296788E+02 -0.36110426886E+03  0.38208543327E+03  0.83338163806E+02 0.  0.
         23    2    1    2    0    0  0.11219775630E+03  0.41907909079E+02 -0.16830289949E+03  0.22579672352E+03  0.91179411127E+02 0.  0.
         13    1    3    3    0    0  0.10549577346E+02 -0.41875975486E+02 -0.14604023632E+03  0.15229130484E+03  0.00000000000E+00 0. -1.
        -14    1    3    3    0    0 -0.77803602750E+02 -0.22347321302E+02 -0.21506403254E+03  0.22979412843E+03  0.00000000000E+00 0.  1.
        -13    1    4    4    0    0  0.82383191398E+02 -0.15823135904E+02 -0.11120871991E+03  0.13930090178E+03  0.00000000000E+00 0. -1.
         13    1    4    4    0    0  0.29814564897E+02  0.57731044984E+02 -0.57094179581E+02  0.86495821731E+02  0.00000000000E+00 0.  1.
          2    1    1    2  501    0 -0.44943730892E+02  0.22315387709E+02 -0.76768576504E+02  0.91713302271E+02  0.00000000000E+00 0. -1.
<scales pt_clust_5="13000.00000" pt_clust_6="13000.00000" pt_clust_7="13000.00000" pt_clust_8="13000.00000" pt_clust_9="50.17883"></scales>
<clustering>
<clus scale="   50.179">  1  9  2 -1</clus>
<clus scale="   83.338">  5  6 -1 -1</clus>
<clus scale="   91.179">  7  8 -1 -1</clus>
<clus scale="  128.930">  2  5  1 -1</clus>
<clus scale="   50.179">  1  5  2 -1</clus>
</clustering>
</event>
<event>
 9    1  0.6345107E-005  0.1019742E+03  0.7546771E-02  0.1280530E+00
         -4   -1    0    0    0  501 -0.00000000000E+00  0.00000000000E+00  0.83080582080E+03  0.83080582080E+03  0.00000000000E+00 0.  1.
         21   -1    0    0  501  502  0.00000000000E+00 -0.00000000000E+00 -0.25968466618E+02  0.25968466618E+02  0.00000000000E+00 0. -1.
         23    2    1    2    0    0 -0.29569959224E+02 -0.74967424334E+01  0.28136161930E+03  0.29733182186E+03  0.91166155120E+02 0.  0.
        -24    2    1    2    0    0  0.70639296596E+02  0.31371491490E+02  0.17773728317E+03  0.21045568772E+03  0.82018131915E+02 0.  0.
         11    1    4    4    0    0  0.70808012050E+02  0.34291371651E+02  0.18585825855E+03  0.20182409423E+03  0.00000000000E+00 0. -1.
        -12    1    4    4    0    0 -0.16871545354E+00 -0.29198801615E+01 -0.81209753798E+01  0.86315934902E+01  0.00000000000E+00 0.  1.
        -13    1    3    3    0    0  0.81403288364E+01  0.36045539813E+02  0.84750838753E+02  0.92456749690E+02  0.00000000000E+00 0.  1.
         13    1    3    3    0    0 -0.37710288060E+02 -0.43542282247E+02  0.19661078055E+03  0.20487507217E+03  0.00000000000E+00 0. -1.
         -3    1    1    2    0  502 -0.41069337372E+02 -0.23874749056E+02  0.34573845171E+03  0.34898677784E+03  0.00000000000E+00 0.  1.
<scales pt_clust_5="13000.00000" pt_clust_6="13000.00000" pt_clust_7="13000.00000" pt_clust_8="13000.00000" pt_clust_9="47.50470"></scales>
<clustering>
<clus scale="   47.505">  2  9  1 -1</clus>
<clus scale="   82.018">  5  6 -1 -1</clus>
<clus scale="   91.166">  7  8 -1 -1</clus>
<clus scale="   93.885">  2  5  1 -1</clus>
<clus scale="   47.505">  2  5  1 -1</clus>
</clustering>
</event>
<event>
 9    1  0.6345107E-005  0.1360087E+03  0.7546771E-02  0.1248287E+00
         -2   -1    0    0    0  501 -0.00000000000E+00  0.00000000000E+00  0.22214063137E+03  0.22214063137E+03  0.00000000000E+00 0.  1.
         21   -1    0    0  501  502  0.00000000000E+00 -0.00000000000E+00 -0.17472341173E+03  0.17472341173E+03  0.00000000000E+00 0.  1.
        -24    2    1    2    0    0 -0.18881865952E+02  0.25989176412E+02 -0.67815294362E+02  0.10055532763E+03  0.66936519271E+02 0.  0.
         23    2    1    2    0    0  0.98148319062E+02 -0.75854593000E+02  0.12913907487E+03  0.20163494512E+03  0.92697025950E+02 0.  0.
         11    1    3    3    0    0 -0.38815464583E+02  0.13630039409E+01 -0.52661777182E+02  0.65435165213E+02  0.00000000000E+00 0. -1.
        -12    1    3    3    0    0  0.19933598631E+02  0.24626172471E+02 -0.15153517180E+02  0.35120162412E+02  0.00000000000E+00 0.  1.
        -13    1    4    4    0    0 -0.18149998233E+02 -0.10594899808E+02  0.23335620746E+02  0.31404227954E+02  0.00000000000E+00 0. -1.
         13    1    4    4    0    0  0.11629831729E+03 -0.65259693192E+02  0.10580345412E+03  0.17023071716E+03  0.00000000000E+00 0.  1.
         -1    1    1    2    0  502 -0.79266453110E+02  0.49865416588E+02 -0.13906560864E+02  0.94673770365E+02  0.00000000000E+00 0.  1.
<scales pt_clust_5="13000.00000" pt_clust_6="13000.00000" pt_clust_7="13000.00000" pt_clust_8="13000.00000" pt_clust_9="99.52702"></scales>
<clustering>
<clus scale="   66.937">  5  6 -1 -1</clus>
<clus scale="   74.246">  1  5  2 -1</clus>
<clus scale="   92.697">  7  8 -1 -1</clus>
<clus scale="   99.527">  2  9  1 -1</clus>
<clus scale="   99.527">  2  5  1 -1</clus>
</clustering>
</event>
<event>
 9    1  0.6345107E-005  0.2404787E+03  0.7546771E-02  0.1120069E+00
         21   -1    0    0  501  502  0.00000000000E+00  0.00000000000E+00  0.20269576054E+03  0.20269576054E+03  0.00000000000E+00 0. -1.
          1   -1    0    0  502    0 -0.00000000000E+00 -0.00000000000E+00 -0.47648735606E+03  0.47648735606E+03  0.00000000000E+00 0. -1.
        -24    2    1    2    0    0  0.25585003534E+03 -0.15054070435E+02 -0.19459945934E+03  0.33190711228E+03  0.81286628613E+02 0.  0.
         23    2    1    2    0    0 -0.16679887202E+03 -0.32299052838E+02  0.33891403290E+02  0.19574938992E+03  0.91126856178E+02 0.  0.
         13    1    3    3    0    0  0.59620325454E+02 -0.30090017610E+01 -0.93251653394E+02  0.11072266326E+03  0.00000000000E+00 0. -1.
        -14    1    3    3    0    0  0.19622970988E+03 -0.12045068673E+02 -0.10134780595E+03  0.22118444902E+03  0.00000000000E+00 0.  1.
        -13    1    4    4    0    0 -0.13107492878E+03 -0.62649948584E+02  0.18718598405E+02  0.14647880031E+03  0.00000000000E+00 0. -1.
         13    1    4    4    0    0 -0.35723943233E+02  0.30350895746E+02  0.15172804884E+02  0.49270589613E+02  0.00000000000E+00 0.  1.
          2    1    1    2  501    0 -0.89051163317E+02  0.47353123273E+02 -0.11308353947E+03  0.15152661440E+03  0.00000000000E+00 0. -1.
<scales pt_clust_5="13000.00000" pt_clust_6="13000.00000" pt_clust_7="13000.00000" pt_clust_8="13000.00000" pt_clust_9="100.85851"></scales>
<clustering>
<clus scale="   81.287">  5  6 -1 -1</clus>
<clus scale="   91.127">  7  8 -1 -1</clus>
<clus scale="  100.859">  1  9  2 -1</clus>
<clus scale="  236.925">  2  5  1 -1</clus>
<clus scale="  100.859">  1  5  2 -1</clus>
</clustering>
</event>
<event>
 9    1  0.6345107E-005  0.1805257E+03  0.7546771E-02  0.1179132E+00
         21   -1    0    0  501  502  0.00000000000E+00  0.00000000000E+00  0.38989432998E+02  0.38989432998E+02  0.00000000000E+00 0.  1.
          3   -1    0    0  502    0 -0.00000000000E+00 -0.00000000000E+00 -0.15823747914E+04  0.15823747914E+04  0.00000000000E+00 0. -1.
        -24    2    1    2    0    0  0.48239116457E+02 -0.10407200114E+03 -0.37484508224E+03  0.39941064094E+03  0.76563899072E+02 0.  0.
         23    2    1    2    0    0 -0.14862060167E+03 -0.37804649033E+02 -0.52606425325E+03  0.55638550545E+03  0.96457023585E+02 0.  0.
         13    1    3    3    0    0 -0.14701936717E+02 -0.19618326001E+02 -0.13856779936E+03  0.14071979490E+03  0.00000000000E+00 0. -1.
        -14    1    3    3    0    0  0.62941053174E+02 -0.84453675142E+02 -0.23627728288E+03  0.25869084604E+03  0.00000000000E+00 0.  1.
        -11    1    4    4    0    0 -0.35874106452E+02  0.21419241266E+02 -0.23490094814E+03  0.23858791010E+03  0.00000000000E+00 0. -1.
         11    1    4    4    0    0 -0.11274649522E+03 -0.59223890299E+02 -0.29116330511E+03  0.31779759535E+03  0.00000000000E+00 0.  1.
          4    1    1    2  501    0  0.10038148522E+03  0.14187665018E+03 -0.64247602291E+03  0.66556807801E+03  0.00000000000E+00 0. -1.
<scales pt_clust_5="13000.00000" pt_clust_6="13000.00000" pt_clust_7="13000.00000" pt_clust_8="13000.00000" pt_clust_9="152.59615"></scales>
<clustering>
<clus scale="   76.564">  5  6 -1 -1</clus>
<clus scale="   96.457">  7  8 -1 -1</clus>
<clus scale="  137.913">  2  5  1 -1</clus>
<clus scale="  152.596">  1  9  2 -1</clus>
<clus scale="  152.596">  1  5  2 -1</clus>
</clustering>
</event>
<event>
 9    1  0.6345107E-005  0.1226371E+03  0.7546771E-02  0.1240648E+00
         21   -1    0    0  501  502  0.00000000000E+00  0.00000000000E+00  0.28636982496E+03  0.28636982496E+03  0.00000000000E+00 0.  1.
         -2   -1    0    0    0  501 -0.00000000000E+00 -0.00000000000E+00 -0.16281218378E+03  0.16281218378E+03  0.00000000000E+00 0.  1.
         23    2    1    2    0    0  0.91505285420E+02 -0.11739237797E+02 -0.96963666363E+02  0.16237242683E+03  0.91933810088E+02 0.  0.
        -24    2    1    2    0    0 -0.39128628018E+02 -0.45621554057E+02  0.11231557361E+03  0.15361027433E+03  0.85842603522E+02 0.  0.
         11    1    4    4    0    0 -0.66281462190E+02 -0.33214876339E+02  0.71120070698E+02  0.10273521644E+03  0.00000000000E+00 0. -1.
        -12    1    4    4    0    0  0.27152834171E+02 -0.12406677718E+02  0.41195502913E+02  0.50875057895E+02  0.00000000000E+00 0.  1.
        -11    1    3    3    0    0  0.36883474855E+02 -0.50754726501E+02 -0.53012695820E+02  0.82138778282E+02  0.00000000000E+00 0.  1.
         11    1    3    3    0    0  0.54621810565E+02  0.39015488704E+02 -0.43950970543E+02  0.80233648551E+02  0.00000000000E+00 0. -1.
         -1    1    1    2    0  502 -0.52376657402E+02  0.57360791855E+02  0.10820573393E+03  0.13319930758E+03  0.00000000000E+00 0.  1.
<scales pt_clust_5="13000.00000" pt_clust_6="13000.00000" pt_clust_7="13000.00000" pt_clust_8="13000.00000" pt_clust_9="77.67609"></scales>
<clustering>
<clus scale="   77.676">  1  9  2 -1</clus>
<clus scale="   85.843">  5  6 -1 -1</clus>
<clus scale="   91.934">  7  8 -1 -1</clus>
<clus scale="  118.140">  1  5  2 -1</clus>
<clus scale="   77.676">  1  5  2 -1</clus>
</clustering>
</event>
<event>
 9    1  0.6345107E-005  0.9907721E+02  0.7546771E-02  0.1285864E+00
         21   -1    0    0  501  502  0.00000000000E+00  0.00000000000E+00  0.55738647733E+02  0.55738647733E+02  0.00000000000E+00 0.  1.
          1   -1    0    0  502    0 -0.00000000000E+00 -0.00000000000E+00 -0.36154839681E+03  0.36154839681E+03  0.00000000000E+00 0. -1.
         23    2    1    2    0    0 -0.25141742982E+02 -0.43417757846E+02 -0.28776692245E+03  0.30490564846E+03  0.87409632579E+02 0.  0.
        -24    2    1    2    0    0  0.33160718262E+01  0.34472118040E+02 -0.17212801543E+02  0.88778995053E+02  0.79913116390E+02 0.  0.
         13    1    4    4    0    0  0.14864498103E+02  0.25597596952E+02  0.28324604783E+02  0.40969177557E+02  0.00000000000E+00 0. -1.
        -14    1    4    4    0    0 -0.11548426277E+02  0.88745210883E+01 -0.45537406327E+02  0.47809817496E+02  0.00000000000E+00 0.  1.
        -11    1    3    3    0    0 -0.54340858101E+02 -0.45243468289E+02 -0.18490298776E+03  0.19796215589E+03  0.00000000000E+00 0.  1.
         11    1    3    3    0    0  0.29199115119E+02  0.18257104432E+01 -0.10286393469E+03  0.10694349257E+03  0.00000000000E+00 0. -1.
          2    1    1    2  501    0  0.21825671156E+02  0.89456398057E+01 -0.83002508328E+00  0.23602401034E+02  0.00000000000E+00 0. -1.
<scales pt_clust_5="13000.00000" pt_clust_6="13000.00000" pt_clust_7="13000.00000" pt_clust_8="13000.00000" pt_clust_9="23.58780"></scales>
<clustering>
<clus scale="   23.588">  1  9  2 -1</clus>
<clus scale="   79.913">  5  6 -1 -1</clus>
<clus scale="   87.410">  7  8 -1 -1</clus>
<clus scale="   92.531">  1  5  2 -1</clus>
<clus scale="   23.588">  1  5  2 -1</clus>
</clustering>
</event>
<event>
 9    1  0.6345107E-005  0.1427360E+03  0.7546771E-02  0.1212627E+00
         -2   -1    0    0    0  501 -0.00000000000E+00  0.00000000000E+00  0.57992561768E+03  0.57992561768E+03  0.00000000000E+00 0.  1.
         21   -1    0    0  501  502  0.00000000000E+00 -0.00000000000E+00 -0.99387962519E+02  0.99387962519E+02  0.00000000000E+00 0. -1.
         23    2    1    2    0    0 -0.99430967601E+02 -0.39008986885E+02  0.49511651057E+03  0.51507616828E+03  0.93567524915E+02 0.  0.
        -24    2    1    2    0    0  0.99863492229E+02  0.59514855124E+02 -0.37206161470E+01  0.14103010553E+03  0.79755329727E+02 0.  0.
         13    1    4    4    0    0  0.11040864698E+03  0.42466808158E+02 -0.12875343049E+02  0.11899274592E+03  0.00000000000E+00 0. -1.
        -14    1    4    4    0    0 -0.10545154746E+02  0.17048046966E+02  0.91547269018E+01  0.22037359611E+02  0.00000000000E+00 0.  1.
        -11    1    3    3    0    0 -0.12470865983E+02 -0.49349972674E+02  0.13013554687E+03  0.13973619023E+03  0.00000000000E+00 0. -1.
         11    1    3    3    0    0 -0.86960101618E+02  0.10340985789E+02  0.36498096370E+03  0.37533997805E+03  0.00000000000E+00 0.  1.
         -1    1    1    2    0  502 -0.43252462779E+00 -0.20505868239E+02 -0.10858239264E+02  0.23207306386E+02  0.00000000000E+00 0.  1.
<scales pt_clust_5="13000.00000" pt_clust_6="13000.00000" pt_clust_7="13000.00000" pt_clust_8="13000.00000" pt_clust_9="20.51043"></scales>
<clustering>
<clus scale="   20.510">  2  9  1 -1</clus>
<clus scale="   79.755">  5  6 -1 -1</clus>
<clus scale="   93.568">  7  8 -1 -1</clus>
<clus scale="  134.088">  2  5  1 -1</clus>
<clus scale="   20.510">  2  5  1 -1</clus>
</clustering>
</event>
<event>
 9    1  0.6345107E-005  0.2631833E+03  0.7546771E-02  0.1105701E+00
         21   -1    0    0  501  502  0.00000000000E+00  0.00000000000E+00  0.24289706064E+03  0.24289706064E+03  0.00000000000E+00 0. -1.
          1   -1    0    0  502    0 -0.00000000000E+00 -0.00000000000E+00 -0.53409583848E+03  0.53409583848E+03  0.00000000000E+00 0. -1.
         23    2    1    2    0    0  0.30671451716E+03  0.68496268541E+02 -0.28524673727E+03  0.43372641940E+03  0.89372098102E+02 0.  0.
        -24    2    1    2    0    0 -0.15371523311E+03 -0.76525052063E+02 -0.13462624506E+02  0.18987270162E+03  0.79912102215E+02 0.  0.
         13    1    4    4    0    0 -0.64521831553E+02 -0.65361036700E+02  0.19931362449E+02  0.93980801627E+02  0.00000000000E+00 0. -1.
        -14    1    4    4    0    0 -0.89193401556E+02 -0.11164015363E+02 -0.33393986955E+02  0.95891899997E+02  0.00000000000E+00 0.  1.
        -11    1    3    3    0    0  0.81126598310E+02  0.59974522681E+02 -0.83343395315E+02  0.13086095624E+03  0.00000000000E+00 0.  1.
         11    1    3    3    0    0  0.22558791885E+03  0.85217458600E+01 -0.20190334196E+03  0.30286546316E+03  0.00000000000E+00 0. -1.
          2    1    1    2  501    0 -0.15299928405E+03  0.80287835222E+01  0.75105839419E+01  0.15339377809E+03  0.00000000000E+00 0. -1.
<scales pt_clust_5="13000.00000" pt_clust_6="13000.00000" pt_clust_7="13000.00000" pt_clust_8="13000.00000" pt_clust_9="153.20980"></scales>
<clustering>
<clus scale="   79.912">  5  6 -1 -1</clus>
<clus scale="   89.372">  7  8 -1 -1</clus>
<clus scale="  153.210">  1  9  2 -1</clus>
<clus scale="  260.123">  1  5  2 -1</clus>
<clus scale="  153.210">  1  5  2 -1</clus>
</clustering>
</event>
<event>
 9    1  0.6345107E-005  0.1617596E+03  0.7546771E-02  0.1188650E+00
         21   -1    0    0  501  502  0.00000000000E+00  0.00000000000E+00  0.41676372506E+02  0.41676372506E+02  0.00000000000E+00 0. -1.
          1   -1    0    0  502    0 -0.00000000000E+00 -0.00000000000E+00 -0.71369117681E+03  0.71369117681E+03  0.00000000000E+00 0. -1.
         23    2    1    2    0    0  0.92658004905E+01 -0.12269602546E+03 -0.28798732931E+03  0.32541974687E+03  0.88437209864E+02 0.  0.
        -24    2    1    2    0    0 -0.72030513337E+01  0.14873152732E+03 -0.32300194713E+03  0.36356845820E+03  0.75357911194E+02 0.  0.
         11    1    4    4    0    0  0.32110522533E+02  0.94818909156E+02 -0.18919449408E+03  0.21404734939E+03  0.00000000000E+00 0. -1.
        -12    1    4    4    0    0 -0.39313573867E+02  0.53912618167E+02 -0.13380745305E+03  0.14952110881E+03  0.00000000000E+00 0.  1.
        -11    1    3    3    0    0 -0.27454679024E+02 -0.12168207220E+02 -0.98734601831E+02  0.10320051485E+03  0.00000000000E+00 0.  1.
         11    1    3    3    0    0  0.36720479515E+02 -0.11052781824E+03 -0.18925272748E+03  0.22221923202E+03  0.00000000000E+00 0. -1.
          2    1    1    2  501    0 -0.20627491568E+01 -0.26035501864E+02 -0.61025527863E+02  0.66379344245E+02  0.00000000000E+00 0. -1.
<scales pt_clust_5="13000.00000" pt_clust_6="13000.00000" pt_clust_7="13000.00000" pt_clust_8="13000.00000" pt_clust_9="26.11710"></scales>
<clustering>
<clus scale="   26.117">  1  9  2 -1</clus>
<clus scale="   75.358">  5  6 -1 -1</clus>
<clus scale="   88.437">  7  8 -1 -1</clus>
<clus scale="  154.996">  1  5  2 -1</clus>
<clus scale="   26.117">  1  5  2 -1</clus>
</clustering>
</event>
<event>
 9    1  0.6345107E-005  0.1364079E+03  0.7546771E-02  0.1235088E+00
         -2   -1    0    0    0  501 -0.00000000000E+00  0.00000000000E+00  0.46492640436E+03  0.46492640436E+03  0.00000000000E+00 0.  1.
         21   -1    0    0  501  502  0.00000000000E+00 -0.00000000000E+00 -0.13491229067E+03  0.13491229067E+03  0.00000000000E+00 0.  1.
        -24    2    1    2    0    0  0.22413657071E+02 -0.35059746390E+02  0.34272183347E+03  0.35595408013E+03  0.86680414046E+02 0.  0.
         23    2    1    2    0    0 -0.21766950506E+02 -0.83752091529E+02 -0.12523497075E+01  0.12452006170E+03  0.89529126075E+02 0.  0.
         13    1    3    3    0    0 -0.19131696800E+02 -0.47367926306E+02  0.21848439667E+03  0.22437730244E+03  0.00000000000E+00 0. -1.
        -14    1    3    3    0    0  0.41545353871E+02  0.12308179916E+02  0.12423743681E+03  0.13157677768E+03  0.00000000000E+00 0.  1.
        -13    1    4    4    0    0  0.11676616685E+02 -0.87250978891E+02  0.11038244021E+02  0.88718202899E+02  0.00000000000E+00 0.  1.
         13    1    4    4    0    0 -0.33443567192E+02  0.34988873618E+01 -0.12290593729E+02  0.35801858799E+02  0.00000000000E+00 0. -1.
         -1    1    1    2    0  502 -0.64670656474E+00  0.11881183792E+03 -0.11455370079E+02  0.11936455321E+03  0.00000000000E+00 0.  1.
<scales pt_clust_5="13000.00000" pt_clust_6="13000.00000" pt_clust_7="13000.00000" pt_clust_8="13000.00000" pt_clust_9="102.91579"></scales>
<clustering>
<clus scale="   86.680">  5  6 -1 -1</clus>
<clus scale="   89.529">  7  8 -1 -1</clus>
<clus scale="   96.151">  1  5  2 -1</clus>
<clus scale="  102.916">  2  9  1 -1</clus>
<clus scale="  102.916">  2  5  1 -1</clus>
</clustering>
</event>
<event>
 9    1  0.6345107E-005  0.2061648E+03  0.7546771E-02  0.1144837E+00
         21   -1    0    0  501  502  0.00000000000E+00  0.00000000000E+00  0.66790495951E+02  0.66790495951E+02  0.00000000000E+00 0.  1.
         -4   -1    0    0    0  501 -0.00000000000E+00 -0.00000000000E+00 -0.13761664721E+04  0.13761664721E+04  0.00000000000E+00 0.  1.
         23    2    1    2    0    0  0.16249388277E+03  0.94052360802E+02 -0.61352707424E+03  0.64680537526E+03  0.81802286804E+02 0.  0.
        -24    2    1    2    0    0 -0.11590244407E+03 -0.16231798040E+03 -0.67857738638E+03  0.71171663423E+03  0.79327138068E+02 0.  0.
         11    1    4    4    0    0 -0.45877989253E+02 -0.48915139736E+02 -0.36309502705E+03  0.36923634634E+03  0.00000000000E+00 0. -1.
        -12    1    4    4    0    0 -0.70024454821E+02 -0.11340284067E+03 -0.31548235933E+03  0.34248028789E+03  0.00000000000E+00 0.  1.
        -11    1    3    3    0    0  0.65145197753E+02  0.21548302786E+02 -0.35006352862E+03  0.35672496438E+03  0.00000000000E+00 0.  1.
         11    1    3    3    0    0  0.97348685016E+02  0.72504058016E+02 -0.26346354562E+03  0.29008041088E+03  0.00000000000E+00 0. -1.
         -3    1    1    2    0  502 -0.46591438694E+02  0.68265619601E+02 -0.17271515534E+02  0.84434958566E+02  0.00000000000E+00 0.  1.
<scales pt_clust_5="13000.00000" pt_clust_6="13000.00000" pt_clust_7="13000.00000" pt_clust_8="13000.00000" pt_clust_9="82.64960"></scales>
<clustering>
<clus scale="   79.327">  5  6 -1 -1</clus>
<clus scale="   81.802">  7  8 -1 -1</clus>
<clus scale="   82.650">  1  9  2 -1</clus>
<clus scale="  205.195">  1  5  2 -1</clus>
<clus scale="   82.650">  1  5  2 -1</clus>
</clustering>
</event>
<event>
 9    1  0.6345107E-005  0.1547875E+03  0.7546771E-02  0.1208197E+00
         21   -1    0    0  501  502  0.00000000000E+00  0.00000000000E+00  0.45419942126E+03  0.45419942126E+03  0.00000000000E+00 0. -1.
          1   -1    0    0  502    0 -0.00000000000E+00 -0.00000000000E+00 -0.10412104051E+03  0.10412104051E+03  0.00000000000E+00 0. -1.
         23    2    1    2    0    0 -0.19884610687E+02 -0.70309631153E+02  0.12456165866E+03  0.16991628791E+03  0.89538238287E+02 0.  0.
        -24    2    1    2    0    0 -0.94260613538E+02  0.12018423255E+03  0.69048851411E+02  0.18840716729E+03  0.86024437148E+02 0.  0.
         11    1    4    4    0    0 -0.57155705025E+02  0.11800799956E+03  0.30024196559E+02  0.13451436710E+03  0.00000000000E+00 0. -1.
        -12    1    4    4    0    0 -0.37104908514E+02  0.21762329877E+01  0.39024654851E+02  0.53892800188E+02  0.00000000000E+00 0.  1.
        -13    1    3    3    0    0  0.19927144913E+02  0.11866344386E+02  0.16620047384E+02  0.28532914477E+02  0.00000000000E+00 0.  1.
         13    1    3    3    0    0 -0.39811755601E+02 -0.82175975539E+02  0.10794161128E+03  0.14138337344E+03  0.00000000000E+00 0. -1.
          2    1    1    2  501    0  0.11414522423E+03 -0.49874601399E+02  0.15646787068E+03  0.19999700656E+03  0.00000000000E+00 0. -1.
<scales pt_clust_5="13000.00000" pt_clust_6="13000.00000" pt_clust_7="13000.00000" pt_clust_8="13000.00000" pt_clust_9="128.68170"></scales>
<clustering>
<clus scale="   86.024">  5  6 -1 -1</clus>
<clus scale="   89.538">  7  8 -1 -1</clus>
<clus scale="  115.568">  2  7  1 -1</clus>
<clus scale="  128.682">  1  9  2 -1</clus>
<clus scale="  128.682">  1  5  2 -1</clus>
</clustering>
</event>
<event>
 9    1  0.6345107E-005  0.1548238E+03  0.7546771E-02  0.1217499E+00
          3   -1    0    0  502    0 -0.00000000000E+00  0.00000000000E+00  0.16694380075E+03  0.16694380075E+03  0.00000000000E+00 0. -1.
         21   -1    0    0  501  502  0.00000000000E+00 -0.00000000000E+00 -0.25468750280E+03  0.25468750280E+03  0.00000000000E+00 0. -1.
         23    2    1    2    0    0 -0.12325316634E+02 -0.20228781184E+02  0.43163307938E+02  0.10413773087E+03  0.91763167014E+02 0.  0.
        -24    2    1    2    0    0 -0.11426942541E+03  0.63020801596E+02 -0.51623031575E+02  0.16211231591E+03  0.81156284808E+02 0.  0.
         11    1    4    4    0    0 -0.12174367915E+03  0.38366358457E+02 -0.39334334853E+02  0.13356904871E+03  0.00000000000E+00 0. -1.
        -12    1    4    4    0    0  0.74742537410E+01  0.24654443140E+02 -0.12288696722E+02  0.28543267203E+02  0.00000000000E+00 0.  1.
        -11    1    3    3    0    0  0.13939960962E+02 -0.41144976125E+02 -0.67689377217E+01  0.43966465514E+02  0.00000000000E+00 0.  1.
         11    1    3    3    0    0 -0.26265277596E+02  0.20916194940E+02  0.49932245660E+02  0.60171265357E+02  0.00000000000E+00 0. -1.
          4    1    1    2  501    0  0.12659474204E+03 -0.42792020412E+02 -0.79283978414E+02  0.15538125678E+03  0.00000000000E+00 0. -1.
<scales pt_clust_5="13000.00000" pt_clust_6="13000.00000" pt_clust_7="13000.00000" pt_clust_8="13000.00000" pt_clust_9="131.84868"></scales>
<clustering>
<clus scale="   81.156">  5  6 -1 -1</clus>
<clus scale="   91.763">  7  8 -1 -1</clus>
<clus scale="   94.771">  1  7  2 -1</clus>
<clus scale="  131.849">  2  9  1 -1</clus>
<clus scale="  131.849">  2  5  1 -1</clus>
</clustering>
</event>
<event>
 9    1  0.6345107E-005  0.1090992E+03  0.7546771E-02  0.1266336E+00
         -2   -1    0    0    0  501 -0.00000000000E+00  0.00000000000E+00  0.33682004215E+03  0.33682004215E+03  0.00000000000E+00 0.  1.
         21   -1    0    0  501  502  0.00000000000E+00 -0.00000000000E+00 -0.41253207555E+02  0.41253207555E+02  0.00000000000E+00 0. -1.
         23    2    1    2    0    0  0.23016951002E+02  0.57716173219E+02  0.13304054091E+03  0.17227457957E+03  0.90098882103E+02 0.  0.
        -24    2    1    2    0    0 -0.76920374154E+00 -0.62986693673E+02  0.11792812235E+03  0.15568143227E+03  0.79760585883E+02 0.  0.
         13    1    4    4    0    0  0.34675039486E+02 -0.26271850809E+02  0.26398441546E+02  0.50886601619E+02  0.00000000000E+00 0. -1.
        -14    1    4    4    0    0 -0.35444243228E+02 -0.36714842864E+02  0.91529680801E+02  0.10479483065E+03  0.00000000000E+00 0.  1.
        -13    1    3    3    0    0  0.50049469253E+02  0.30523384068E+02  0.38184637944E+02  0.69962082033E+02  0.00000000000E+00 0. -1.
         13    1    3    3    0    0 -0.27032518251E+02  0.27192789151E+02  0.94855902970E+02  0.10231249754E+03  0.00000000000E+00 0.  1.
         -1    1    1    2    0  502 -0.22247747261E+02  0.52705204538E+01  0.44598171336E+02  0.50117237859E+02  0.00000000000E+00 0.  1.
<scales pt_clust_5="13000.00000" pt_clust_6="13000.00000" pt_clust_7="13000.00000" pt_clust_8="13000.00000" pt_clust_9="22.86353"></scales>
<clustering>
<clus scale="   22.864">  2  9  1 -1</clus>
<clus scale="   79.761">  5  6 -1 -1</clus>
<clus scale="   90.099">  7  8 -1 -1</clus>
<clus scale="  100.730">  2  5  1 -1</clus>
<clus scale="   22.864">  2  5  1 -1</clus>
</clustering>
</event>
<event>
 9    1  0.6345107E-005  0.1196673E+03  0.7546771E-02  0.1247765E+00
         21   -1    0    0  501  502  0.00000000000E+00  0.00000000000E+00  0.79993779067E+02  0.79993779067E+02  0.00000000000E+00 0. -1.
         -2   -1    0    0    0  501 -0.00000000000E+00 -0.00000000000E+00 -0.33687489436E+03  0.33687489436E+03  0.00000000000E+00 0.  1.
         23    2    1    2    0    0  0.36375582926E+02 -0.75428075922E+02 -0.25670942345E+03  0.28477802136E+03  0.90477708262E+02 0.  0.
        -24    2    1    2    0    0 -0.22414350263E+02  0.58738824585E+02 -0.21025658835E+02  0.10195205443E+03  0.77456377801E+02 0.  0.
         13    1    4    4    0    0  0.13351816663E+02  0.40509057920E+02  0.17694673857E+02  0.46177443245E+02  0.00000000000E+00 0. -1.
        -14    1    4    4    0    0 -0.35766166927E+02  0.18229766665E+02 -0.38720332691E+02  0.55774611187E+02  0.00000000000E+00 0.  1.
        -13    1    3    3    0    0 -0.21185936073E+02 -0.14519741707E+02 -0.13233378157E+03  0.13480317701E+03  0.00000000000E+00 0. -1.
         13    1    3    3    0    0  0.57561518999E+02 -0.60908334215E+02 -0.12437564188E+03  0.14997484436E+03  0.00000000000E+00 0.  1.
         -1    1    1    2    0  502 -0.13961232663E+02  0.16689251337E+02  0.20853966996E+02  0.30138597630E+02  0.00000000000E+00 0.  1.
<scales pt_clust_5="13000.00000" pt_clust_6="13000.00000" pt_clust_7="13000.00000" pt_clust_8="13000.00000" pt_clust_9="21.75884"></scales>
<clustering>
<clus scale="   21.759">  1  9  2 -1</clus>
<clus scale="   77.456">  5  6 -1 -1</clus>
<clus scale="   90.478">  7  8 -1 -1</clus>
<clus scale="  110.152">  1  5  2 -1</clus>
<clus scale="   21.759">  1  5  2 -1</clus>
</clustering>
</event>
<event>
 9    1  0.6345107E-005  0.2898037E+03  0.7546771E-02  0.1090943E+00
         21   -1    0    0  501  502  0.00000000000E+00  0.00000000000E+00  0.71679790398E+03  0.71679790398E+03  0.00000000000E+00 0. -1.
          3   -1    0    0  502    0 -0.00000000000E+00 -0.00000000000E+00 -0.15486831755E+03  0.15486831755E+03  0.00000000000E+00 0. -1.
         23    2    1    2    0    0  0.20410302250E+03 -0.17351796174E+03  0.20471133067E+03  0.34964668392E+03  0.92625848612E+02 0.  0.
        -24    2    1    2    0    0 -0.16366569000E+03  0.23850013931E+03  0.31282609370E+03  0.43354058354E+03  0.80177915548E+02 0.  0.
         11    1    4    4    0    0 -0.17218002787E+03  0.22321036341E+03  0.28654877549E+03  0.40196894043E+03  0.00000000000E+00 0. -1.
        -12    1    4    4    0    0  0.85143378747E+01  0.15289775900E+02  0.26277318212E+02  0.31571643114E+02  0.00000000000E+00 0.  1.
        -11    1    3    3    0    0  0.19580097628E+02  0.94927096314E+01  0.27603918971E+02  0.35149226191E+02  0.00000000000E+00 0.  1.
         11    1    3    3    0    0  0.18452292487E+03 -0.18301067137E+03  0.17710741170E+03  0.31449745772E+03  0.00000000000E+00 0. -1.
          4    1    1    2  501    0 -0.40437332499E+02 -0.64982177575E+02  0.44392162054E+02  0.88478954073E+02  0.00000000000E+00 0. -1.
<scales pt_clust_5="13000.00000" pt_clust_6="13000.00000" pt_clust_7="13000.00000" pt_clust_8="13000.00000" pt_clust_9="76.53670"></scales>
<clustering>
<clus scale="   76.537">  1  9  2 -1</clus>
<clus scale="   80.178">  5  6 -1 -1</clus>
<clus scale="   92.626">  7  8 -1 -1</clus>
<clus scale="  286.068">  1  5  2 -1</clus>
<clus scale="   76.537">  1  5  2 -1</clus>
</clustering>
</event>
<event>
 9    1  0.6345107E-005  0.9586692E+02  0.7546771E-02  0.1294809E+00
         21   -1    0    0  501  502  0.00000000000E+00  0.00000000000E+00  0.16145757758E+03  0.16145757758E+03  0.00000000000E+00 0.  1.
          1   -1    0    0  502    0 -0.00000000000E+00 -0.00000000000E+00 -0.52575393805E+03  0.52575393805E+03  0.00000000000E+00 0. -1.
         23    2    1    2    0    0 -0.19683566594E+02 -0.24756273106E+02 -0.46554103212E+03  0.47558911572E+03  0.91957808537E+02 0.  0.
        -24    2    1    2    0    0 -0.48496680760E+02 -0.28302492371E+02  0.59537410918E+02  0.11568870239E+03  0.81769269556E+02 0.  0.
         13    1    4    4    0    0  0.46522723990E+00  0.25682352661E+02  0.21397272440E+02  0.33431167231E+02  0.00000000000E+00 0. -1.
        -14    1    4    4    0    0 -0.48961907999E+02 -0.53984845032E+02  0.38140138478E+02  0.82257535164E+02  0.00000000000E+00 0.  1.
        -13    1    3    3    0    0 -0.15047175518E+02  0.34502410174E+02 -0.19414021166E+03  0.19775554501E+03  0.00000000000E+00 0.  1.
         13    1    3    3    0    0 -0.46363910764E+01 -0.59258683280E+02 -0.27140082046E+03  0.27783357071E+03  0.00000000000E+00 0. -1.
          2    1    1    2  501    0  0.68180247354E+02  0.53058765477E+02  0.41707260723E+02  0.95933697522E+02  0.00000000000E+00 0. -1.
<scales pt_clust_5="13000.00000" pt_clust_6="13000.00000" pt_clust_7="13000.00000" pt_clust_8="13000.00000" pt_clust_9="86.39316"></scales>
<clustering>
<clus scale="   81.769">  5  6 -1 -1</clus>
<clus scale="   86.393">  1  9  2 -1</clus>
<clus scale="   86.393">  1  5  2 -1</clus>
<clus scale="   91.958">  7  8 -1 -1</clus>
<clus scale="   86.393">  1  5  2 -1</clus>
</clustering>
</event>
<event>
 9    1  0.6345107E-005  0.1757703E+03  0.7546771E-02  0.1202483E+00
         21   -1    0    0  501  502  0.00000000000E+00  0.00000000000E+00  0.33407474556E+03  0.33407474556E+03  0.00000000000E+00 0.  1.
          3   -1    0    0  502    0 -0.00000000000E+00 -0.00000000000E+00 -0.15063065835E+03  0.15063065835E+03  0.00000000000E+00 0. -1.
        -24    2    1    2    0    0 -0.16224819873E+02 -0.37507469025E+02  0.11846411550E+03  0.14832235196E+03  0.79345563318E+02 0.  0.
         23    2    1    2    0    0  0.99758093238E+02  0.14199913037E+03  0.39938853265E+02  0.20028245437E+03  0.91665256984E+02 0.  0.
         13    1    3    3    0    0  0.30457267196E+02 -0.16728332954E+02  0.28851573592E+02  0.45165202835E+02  0.00000000000E+00 0. -1.
        -14    1    3    3    0    0 -0.46682087069E+02 -0.20779136071E+02  0.89612541909E+02  0.10315714913E+03  0.00000000000E+00 0.  1.
        -11    1    4    4    0    0  0.17702720877E+02  0.64031682913E+02 -0.23572002191E+02  0.70491716041E+02  0.00000000000E+00 0.  1.
         11    1    4    4    0    0  0.82055372361E+02  0.77967447452E+02  0.63510855457E+02  0.12979073833E+03  0.00000000000E+00 0. -1.
          4    1    1    2  501    0 -0.83533273365E+02 -0.10449166134E+03  0.25041118444E+02  0.13610059758E+03  0.00000000000E+00 0. -1.
<scales pt_clust_5="13000.00000" pt_clust_6="13000.00000" pt_clust_7="13000.00000" pt_clust_8="13000.00000" pt_clust_9="149.97563"></scales>
<clustering>
<clus scale="   79.346">  5  6 -1 -1</clus>
<clus scale="   89.251">  2  5  1 -1</clus>
<clus scale="   91.665">  7  8 -1 -1</clus>
<clus scale="  149.976">  1  9  2 -1</clus>
<clus scale="  149.976">  1  5  2 -1</clus>
</clustering>
</event>
<event>
 9    1  0.6345107E-005  0.1180817E+03  0.7546771E-02  0.1254692E+00
         21   -1    0    0  501  502  0.00000000000E+00  0.00000000000E+00  0.13284191014E+03  0.13284191014E+03  0.00000000000E+00 0.  1.
          1   -1    0    0  502    0 -0.00000000000E+00 -0.00000000000E+00 -0.15469375225E+03  0.15469375225E+03  0.00000000000E+00 0. -1.
         23    2    1    2    0    0  0.27097986695E+02 -0.53020796478E+02 -0.82903570182E+02  0.14537936464E+03  0.10352126339E+03 0.  0.
        -24    2    1    2    0    0 -0.11500224101E+01  0.54667252947E+02  0.33315984192E+02  0.10413947045E+03  0.82129430820E+02 0.  0.
         11    1    4    4    0    0 -0.20579040839E+02 -0.11783297658E+02 -0.60825195645E+01  0.24481422953E+02  0.00000000000E+00 0. -1.
        -12    1    4    4    0    0  0.19429018429E+02  0.66450550606E+02  0.39398503756E+02  0.79658047498E+02  0.00000000000E+00 0.  1.
        -13    1    3    3    0    0  0.41929440600E+02 -0.71733966088E+02 -0.31789414339E+02  0.88962951524E+02  0.00000000000E+00 0. -1.
         13    1    3    3    0    0 -0.14831453905E+02  0.18713169610E+02 -0.51114155843E+02  0.56416413119E+02  0.00000000000E+00 0.  1.
          2    1    1    2  501    0 -0.25947964285E+02 -0.16464564689E+01  0.27735743879E+02  0.38016827300E+02  0.00000000000E+00 0. -1.
<scales pt_clust_5="13000.00000" pt_clust_6="13000.00000" pt_clust_7="13000.00000" pt_clust_8="13000.00000" pt_clust_9="26.00015"></scales>
<clustering>
<clus scale="   26.000">  1  9  2 -1</clus>
<clus scale="   82.129">  5  6 -1 -1</clus>
<clus scale="   99.859">  1  5  2 -1</clus>
<clus scale="  103.521">  7  8 -1 -1</clus>
<clus scale="   26.000">  1  5  2 -1</clus>
</clustering>
</event>
<event>
 9    1  0.6345107E-005  0.9849802E+02  0.7546771E-02  0.1288092E+00
         21   -1    0    0  501  502  0.00000000000E+00  0.00000000000E+00  0.62726847773E+02  0.62726847773E+02  0.00000000000E+00 0. -1.
          1   -1    0    0  502    0 -0.00000000000E+00 -0.00000000000E+00 -0.33282360681E+03  0.33282360681E+03  0.00000000000E+00 0. -1.
         23    2    1    2    0    0  0.12454299377E+02  0.32478884244E+02 -0.24330552551E+03  0.26180375121E+03  0.90186683673E+02 0.  0.
        -24    2    1    2    0    0 -0.32910994513E+02 -0.52748468692E+02 -0.20759663028E+02  0.10432371453E+03  0.81159961156E+02 0.  0.
         13    1    4    4    0    0 -0.29296813211E+02 -0.60295608668E+02 -0.43620975608E+02  0.79979079777E+02  0.00000000000E+00 0. -1.
        -14    1    4    4    0    0 -0.36141813020E+01  0.75471399764E+01  0.22861312580E+02  0.24344634752E+02  0.00000000000E+00 0.  1.
        -13    1    3    3    0    0 -0.25709896581E+02  0.47673501823E+02 -0.11572765925E+03  0.12777579064E+03  0.00000000000E+00 0. -1.
         13    1    3    3    0    0  0.38164195958E+02 -0.15194617578E+02 -0.12757786625E+03  0.13402796057E+03  0.00000000000E+00 0.  1.
          2    1    1    2  501    0  0.20456695136E+02  0.20269584447E+02 -0.60315704998E+01  0.29422988839E+02  0.00000000000E+00 0. -1.
<scales pt_clust_5="13000.00000" pt_clust_6="13000.00000" pt_clust_7="13000.00000" pt_clust_8="13000.00000" pt_clust_9="28.79813"></scales>
<clustering>
<clus scale="   28.798">  1  9  2 -1</clus>
<clus scale="   81.160">  5  6 -1 -1</clus>
<clus scale="   90.187">  7  8 -1 -1</clus>
<clus scale="   90.306">  1  5  2 -1</clus>
<clus scale="   28.798">  1  5  2 -1</clus>
</clustering>
</event>
<event>
 9    1  0.6345107E-005  0.9226947E+02  0.7546771E-02  0.1304589E+00
         21   -1    0    0  501  502  0.00000000000E+00  0.00000000000E+00  0.20396778854E+03  0.20396778854E+03  0.00000000000E+00 0. -1.
         -4   -1    0    0    0  501 -0.00000000000E+00 -0.00000000000E+00 -0.12195075741E+03  0.12195075741E+03  0.00000000000E+00 0.  1.
         23    2    1    2    0    0 -0.39135639283E+01 -0.65209760515E+01 -0.78961844149E+02  0.12117728256E+03  0.91603066908E+02 0.  0.
        -24    2    1    2    0    0  0.39632716813E+02  0.29889896618E+01  0.10172366494E+03  0.13546274751E+03  0.80142159020E+02 0.  0.
         13    1    4    4    0    0  0.52504684461E+02 -0.12259175154E+02  0.10214704593E+03  0.11550345561E+03  0.00000000000E+00 0. -1.
        -14    1    4    4    0    0 -0.12871967648E+02  0.15248164816E+02 -0.42338099552E+00  0.19959291892E+02  0.00000000000E+00 0.  1.
        -13    1    3    3    0    0 -0.19492604613E+01  0.41959871991E+02 -0.26244917246E+02  0.49530053050E+02  0.00000000000E+00 0. -1.
         13    1    3    3    0    0 -0.19643034670E+01 -0.48480848043E+02 -0.52716926903E+02  0.71647229515E+02  0.00000000000E+00 0.  1.
         -3    1    1    2    0  502 -0.35719152885E+02  0.35319863896E+01  0.59255210344E+02  0.69278515887E+02  0.00000000000E+00 0.  1.
<scales pt_clust_5="13000.00000" pt_clust_6="13000.00000" pt_clust_7="13000.00000" pt_clust_8="13000.00000" pt_clust_9="35.89335"></scales>
<clustering>
<clus scale="   35.893">  1  9  2 -1</clus>
<clus scale="   80.142">  5  6 -1 -1</clus>
<clus scale="   80.903">  1  5  2 -1</clus>
<clus scale="   91.603">  7  8 -1 -1</clus>
<clus scale="   35.893">  1  5  2 -1</clus>
</clustering>
</event>
<event>
 9    1  0.6345107E-005  0.1341672E+03  0.7546771E-02  0.1231753E+00
         -2   -1    0    0    0  501 -0.00000000000E+00  0.00000000000E+00  0.78818326340E+03  0.78818326340E+03  0.00000000000E+00 0.  1.
         21   -1    0    0  501  502  0.00000000000E+00 -0.00000000000E+00 -0.70686225882E+02  0.70686225882E+02  0.00000000000E+00 0.  1.
        -24    2    1    2    0    0  0.23402746738E+02 -0.72613705112E+02  0.53622031273E+03  0.54703020775E+03  0.76742333015E+02 0.  0.
         23    2    1    2    0    0 -0.65884928856E+02 -0.55088922407E+02  0.99335335253E+02  0.15427314244E+03  0.80975801478E+02 0.  0.
         11    1    3    3    0    0  0.21457087716E+02  0.11281196299E+02  0.12743637445E+03  0.12972163095E+03  0.00000000000E+00 0. -1.
        -12    1    3    3    0    0  0.19456590223E+01 -0.83894901411E+02  0.40878393828E+03  0.41730857680E+03  0.00000000000E+00 0.  1.
        -11    1    4    4    0    0 -0.32571208127E+02 -0.46636248273E+02  0.10502055442E+03  0.11943676194E+03  0.00000000000E+00 0. -1.
         11    1    4    4    0    0 -0.33313720729E+02 -0.84526741343E+01 -0.56852191716E+01  0.34836380493E+02  0.00000000000E+00 0.  1.
         -1    1    1    2    0  502  0.42482182118E+02  0.12770262752E+03  0.81941389539E+02  0.15756613910E+03  0.00000000000E+00 0.  1.
<scales pt_clust_5="13000.00000" pt_clust_6="13000.00000" pt_clust_7="13000.00000" pt_clust_8="13000.00000" pt_clust_9="106.97553"></scales>
<clustering>
<clus scale="   76.742">  5  6 -1 -1</clus>
<clus scale="   80.976">  7  8 -1 -1</clus>
<clus scale="  108.212">  1  5  2 -1</clus>
<clus scale="  106.976">  2  9  1 -1</clus>
<clus scale="  106.976">  2  5  1 -1</clus>
</clustering>
</event>
<event>
 9    1  0.6345107E-005  0.1340987E+03  0.7546771E-02  0.1241072E+00
         -2   -1    0    0    0  501 -0.00000000000E+00  0.00000000000E+00  0.58932006098E+03  0.58932006098E+03  0.00000000000E+00 0.  1.
         21   -1    0    0  501  502  0.00000000000E+00 -0.00000000000E+00 -0.10391240749E+03  0.10391240749E+03  0.00000000000E+00 0.  1.
        -24    2    1    2    0    0  0.43450259155E+02 -0.16275462758E+01  0.46167339805E+02  0.10078475076E+03  0.78329871661E+02 0.  0.
         23    2    1    2    0    0 -0.11420161409E+03  0.67993005208E+02  0.46512659820E+03  0.49204737861E+03  0.90015626564E+02 0.  0.
         13    1    3    3    0    0 -0.51365156784E+01 -0.24536128775E+02 -0.61387598832E+01  0.25808715223E+02  0.00000000000E+00 0. -1.
        -14    1    3    3    0    0  0.48586774834E+02  0.22908582499E+02  0.52306099688E+02  0.74976035541E+02  0.00000000000E+00 0.  1.
        -13    1    4    4    0    0 -0.11943769617E+03  0.37811346709E+02  0.31846114229E+03  0.34221712458E+03  0.00000000000E+00 0.  1.
         13    1    4    4    0    0  0.52360820832E+01  0.30181658500E+02  0.14666545591E+03  0.14983025403E+03  0.00000000000E+00 0. -1.
         -1    1    1    2    0  502  0.70751354935E+02 -0.66365458933E+02 -0.25886284520E+02  0.10040033910E+03  0.00000000000E+00 0.  1.
<scales pt_clust_5="13000.00000" pt_clust_6="13000.00000" pt_clust_7="13000.00000" pt_clust_8="13000.00000" pt_clust_9="99.39647"></scales>
<clustering>
<clus scale="   78.330">  5  6 -1 -1</clus>
<clus scale="   89.589">  1  5  2 -1</clus>
<clus scale="   90.016">  7  8 -1 -1</clus>
<clus scale="   99.396">  2  9  1 -1</clus>
<clus scale="   99.396">  2  5  1 -1</clus>
</clustering>
</event>
<event>
 9    1  0.6345107E-005  0.1279203E+03  0.7546771E-02  0.1233199E+00
         21   -1    0    0  501  502  0.00000000000E+00  0.00000000000E+00  0.80485053522E+02  0.80485053522E+02  0.00000000000E+00 0.  1.
          1   -1    0    0  502    0 -0.00000000000E+00 -0.00000000000E+00 -0.37714613093E+03  0.37714613093E+03  0.00000000000E+00 0. -1.
         23    2    1    2    0    0  0.90894435433E+02 -0.12975620504E+02 -0.28589880098E+03  0.31399476039E+03  0.91784639385E+02 0.  0.
        -24    2    1    2    0    0 -0.78126577457E+02 -0.33589068741E+01  0.10543677521E+02  0.11390800911E+03  0.82151208415E+02 0.  0.
         11    1    4    4    0    0  0.86320076532E+01  0.19898706095E+02 -0.61558727105E+01  0.22546947226E+02  0.00000000000E+00 0. -1.
        -12    1    4    4    0    0 -0.86758585110E+02 -0.23257612969E+02  0.16699550231E+02  0.91361061887E+02  0.00000000000E+00 0.  1.
        -13    1    3    3    0    0  0.98521073565E+02  0.14789750681E+02 -0.23941052243E+03  0.25931165980E+03  0.00000000000E+00 0. -1.
         13    1    3    3    0    0 -0.76266381325E+01 -0.27765371186E+02 -0.46488278557E+02  0.54683100584E+02  0.00000000000E+00 0.  1.
          2    1    1    2  501    0 -0.12767857976E+02  0.16334527378E+02 -0.21305953946E+02  0.29728414951E+02  0.00000000000E+00 0. -1.
<scales pt_clust_5="13000.00000" pt_clust_6="13000.00000" pt_clust_7="13000.00000" pt_clust_8="13000.00000" pt_clust_9="20.73247"></scales>
<clustering>
<clus scale="   20.732">  1  9  2 -1</clus>
<clus scale="   82.151">  5  6 -1 -1</clus>
<clus scale="   91.785">  7  8 -1 -1</clus>
<clus scale="  121.194">  1  5  2 -1</clus>
<clus scale="   20.732">  1  5  2 -1</clus>
</clustering>
</event>
<event>
 9    1  0.6345107E-005  0.1031048E+03  0.7546771E-02  0.1278929E+00
          1   -1    0    0  502    0 -0.00000000000E+00  0.00000000000E+00  0.56074229361E+03  0.56074229361E+03  0.00000000000E+00 0. -1.
         21   -1    0    0  501  502  0.00000000000E+00 -0.00000000000E+00 -0.37485221596E+02  0.37485221596E+02  0.00000000000E+00 0. -1.
         23    2    1    2    0    0  0.43334877076E+02 -0.42701754811E+01  0.40431673558E+03  0.41669863371E+03  0.90937245898E+02 0.  0.
        -24    2    1    2    0    0 -0.63088516017E+02  0.74696234675E+01  0.12419897166E+03  0.16083840148E+03  0.80047802611E+02 0.  0.
         11    1    4    4    0    0 -0.78425504462E+02  0.18763460089E+02  0.84477178597E+02  0.11678621874E+03  0.00000000000E+00 0. -1.
        -12    1    4    4    0    0  0.15336988445E+02 -0.11293836621E+02  0.39721793060E+02  0.44052182739E+02  0.00000000000E+00 0.  1.
        -11    1    3    3    0    0  0.69739867412E+02 -0.13833788807E+02  0.32087939266E+03  0.32866184362E+03  0.00000000000E+00 0. -1.
         11    1    3    3    0    0 -0.26404990336E+02  0.95636133255E+01  0.83437342921E+02  0.88036790083E+02  0.00000000000E+00 0.  1.
          2    1    1    2  501    0  0.19753638941E+02 -0.31994479864E+01 -0.52586352257E+01  0.20690480015E+02  0.00000000000E+00 0. -1.
<scales pt_clust_5="13000.00000" pt_clust_6="13000.00000" pt_clust_7="13000.00000" pt_clust_8="13000.00000" pt_clust_9="20.01106"></scales>
<clustering>
<clus scale="   20.011">  2  9  1 -1</clus>
<clus scale="   80.048">  5  6 -1 -1</clus>
<clus scale="   90.937">  7  8 -1 -1</clus>
<clus scale="   93.641">  2  5  1 -1</clus>
<clus scale="   20.011">  2  5  1 -1</clus>
</clustering>
</event>
<event>
 9    1  0.6345107E-005  0.2245999E+03  0.7546771E-02  0.1134474E+00
          1   -1    0    0  502    0 -0.00000000000E+00  0.00000000000E+00  0.25029260951E+03  0.25029260951E+03  0.00000000000E+00 0. -1.
         21   -1    0    0  501  502  0.00000000000E+00 -0.00000000000E+00 -0.63558124526E+03  0.63558124526E+03  0.00000000000E+00 0. -1.
         23    2    1    2    0    0  0.17266221038E+03 -0.47221511652E+02  0.75303222976E+02  0.21726857647E+03  0.97431765227E+02 0.  0.
        -24    2    1    2    0    0 -0.80981265039E+02 -0.17635555906E+03 -0.96114491914E+02  0.23130006086E+03  0.81255609653E+02 0.  0.
         13    1    4    4    0    0 -0.66900975812E+02 -0.16984512102E+03 -0.60262580217E+02  0.19223601191E+03  0.00000000000E+00 0. -1.
        -14    1    4    4    0    0 -0.14080289227E+02 -0.65104380329E+01 -0.35851911697E+02  0.39064048951E+02  0.00000000000E+00 0.  1.
        -11    1    3    3    0    0  0.10976075320E+03 -0.70747089749E+02  0.74008107137E+02  0.15009921243E+03  0.00000000000E+00 0. -1.
         11    1    3    3    0    0  0.62901457186E+02  0.23525578097E+02  0.12951158395E+01  0.67169364044E+02  0.00000000000E+00 0.  1.
          2    1    1    2  501    0 -0.91680945345E+02  0.22357707071E+03 -0.36447736681E+03  0.43730521744E+03  0.00000000000E+00 0. -1.
<scales pt_clust_5="13000.00000" pt_clust_6="13000.00000" pt_clust_7="13000.00000" pt_clust_8="13000.00000" pt_clust_9="209.38636"></scales>
<clustering>
<clus scale="   81.256">  5  6 -1 -1</clus>
<clus scale="   97.432">  7  8 -1 -1</clus>
<clus scale="  203.802">  1  7  2 -1</clus>
<clus scale="  209.386">  2  9  1 -1</clus>
<clus scale="  209.386">  2  5  1 -1</clus>
</clustering>
</event>
<event>
 9    1  0.6345107E-005  0.1282717E+03  0.7546771E-02  0.1247446E+00
          1   -1    0    0  502    0 -0.00000000000E+00  0.00000000000E+00  0.42422302158E+03  0.42422302158E+03  0.00000000000E+00 0. -1.
         21   -1    0    0  501  502  0.00000000000E+00 -0.00000000000E+00 -0.10229802386E+03  0.10229802386E+03  0.00000000000E+00 0.  1.
        -24    2    1    2    0    0 -0.19051856622E+02  0.35281961114E+02  0.28656406041E+03  0.30036834245E+03  0.80587780763E+02 0.  0.
         23    2    1    2    0    0 -0.79527767532E+02 -0.24422138164E+02  0.32435910000E+02  0.12693358266E+03  0.90216071234E+02 0.  0.
         13    1    3    3    0    0 -0.17372071962E+02 -0.19071916277E+02  0.38028627249E+02  0.45953273716E+02  0.00000000000E+00 0. -1.
        -14    1    3    3    0    0 -0.16797846593E+01  0.54353877391E+02  0.24853543316E+03  0.25441506874E+03  0.00000000000E+00 0.  1.
        -13    1    4    4    0    0 -0.51255800647E+02  0.31039908445E+02  0.21886339292E+02  0.63793768221E+02  0.00000000000E+00 0. -1.
         13    1    4    4    0    0 -0.28271966885E+02 -0.55462046609E+02  0.10549570709E+02  0.63139814442E+02  0.00000000000E+00 0.  1.
          2    1    1    2  501    0  0.98579624154E+02 -0.10859822950E+02  0.29250273039E+01  0.99219120323E+02  0.00000000000E+00 0. -1.
<scales pt_clust_5="13000.00000" pt_clust_6="13000.00000" pt_clust_7="13000.00000" pt_clust_8="13000.00000" pt_clust_9="91.18499"></scales>
<clustering>
<clus scale="   80.588">  5  6 -1 -1</clus>
<clus scale="   90.012">  1  5  2 -1</clus>
<clus scale="   90.216">  7  8 -1 -1</clus>
<clus scale="   91.185">  2  9  1 -1</clus>
<clus scale="   91.185">  2  5  1 -1</clus>
</clustering>
</event>
<event>
 9    1  0.6345107E-005  0.1424240E+03  0.7546771E-02  0.1238606E+00
          1   -1    0    0  502    0 -0.00000000000E+00  0.00000000000E+00  0.26105147508E+03  0.26105147508E+03  0.00000000000E+00 0. -1.
         21   -1    0    0  501  502  0.00000000000E+00 -0.00000000000E+00 -0.24817973570E+03  0.24817973570E+03  0.00000000000E+00 0.  1.
         23    2    1    2    0    0 -0.15001960970E+02  0.29231508214E+01  0.17542819251E+03  0.19223976760E+03  0.77119866944E+02 0.  0.
        -24    2    1    2    0    0  0.76244441378E+02  0.88519825249E+02 -0.39073503460E+02  0.15158135239E+03  0.88324364793E+02 0.  0.
         13    1    4    4    0    0  0.28309812097E+02  0.64884863388E+02  0.18353783631E+02  0.73132430094E+02  0.00000000000E+00 0. -1.
        -14    1    4    4    0    0  0.47934629281E+02  0.23634961861E+02 -0.57427287092E+02  0.78448922294E+02  0.00000000000E+00 0.  1.
        -11    1    3    3    0    0  0.28732838957E+02  0.14511527397E+02  0.56965137482E+02  0.65430782895E+02  0.00000000000E+00 0. -1.
         11    1    3    3    0    0 -0.43734799927E+02 -0.11588376575E+02  0.11846305503E+03  0.12680898471E+03  0.00000000000E+00 0.  1.
          2    1    1    2  501    0 -0.61242480407E+02 -0.91442976070E+02 -0.12348294967E+03  0.16541009080E+03  0.00000000000E+00 0. -1.
<scales pt_clust_5="13000.00000" pt_clust_6="13000.00000" pt_clust_7="13000.00000" pt_clust_8="13000.00000" pt_clust_9="111.72914"></scales>
<clustering>
<clus scale="   77.120">  7  8 -1 -1</clus>
<clus scale="   78.620">  1  7  2 -1</clus>
<clus scale="   88.324">  5  6 -1 -1</clus>
<clus scale="  111.729">  2  9  1 -1</clus>
<clus scale="  111.729">  2  5  1 -1</clus>
</clustering>
</event>
<event>
 9    1  0.6345107E-005  0.1270224E+03  0.7546771E-02  0.1236559E+00
         21   -1    0    0  501  502  0.00000000000E+00  0.00000000000E+00  0.81000337262E+02  0.81000337262E+02  0.00000000000E+00 0. -1.
          1   -1    0    0  502    0 -0.00000000000E+00 -0.00000000000E+00 -0.30642144530E+03  0.30642144530E+03  0.00000000000E+00 0. -1.
        -24    2    1    2    0    0 -0.59425582574E+02  0.47770770262E+02 -0.14852882540E+03  0.18555121285E+03  0.80962919032E+02 0.  0.
         23    2    1    2    0    0  0.55395944687E+02 -0.88207858261E+02 -0.41598073467E+02  0.14804606537E+03  0.96632814344E+02 0.  0.
         13    1    3    3    0    0  0.19584883166E+02  0.16792638660E+02 -0.42814367733E+02  0.49986302585E+02  0.00000000000E+00 0. -1.
        -14    1    3    3    0    0 -0.79010465740E+02  0.30978131603E+02 -0.10571445767E+03  0.13556491026E+03  0.00000000000E+00 0.  1.
        -13    1    4    4    0    0  0.55831939144E+02 -0.28416308794E+01 -0.87880812861E+01  0.56590729518E+02  0.00000000000E+00 0.  1.
         13    1    4    4    0    0 -0.43599445758E+00 -0.85366227381E+02 -0.32809992181E+02  0.91455335850E+02  0.00000000000E+00 0. -1.
          2    1    1    2  501    0  0.40296378867E+01  0.40437087998E+02 -0.35294209166E+02  0.53824504344E+02  0.00000000000E+00 0. -1.
<scales pt_clust_5="13000.00000" pt_clust_6="13000.00000" pt_clust_7="13000.00000" pt_clust_8="13000.00000" pt_clust_9="40.63739"></scales>
<clustering>
<clus scale="   40.637">  1  9  2 -1</clus>
<clus scale="   80.963">  5  6 -1 -1</clus>
<clus scale="   96.633">  7  8 -1 -1</clus>
<clus scale="  115.550">  2  5  1 -1</clus>
<clus scale="   40.637">  1  5  2 -1</clus>
</clustering>
</event>
<event>
 9    1  0.6345107E-005  0.1241359E+03  0.7546771E-02  0.1240364E+00
         21   -1    0    0  501  502  0.00000000000E+00  0.00000000000E+00  0.79348282146E+02  0.79348282146E+02  0.00000000000E+00 0. -1.
          1   -1    0    0  502    0 -0.00000000000E+00 -0.00000000000E+00 -0.38008612042E+03  0.38008612042E+03  0.00000000000E+00 0. -1.
        -24    2    1    2    0    0  0.79180952299E+02  0.53119347505E+02 -0.26986172556E+03  0.29735822953E+03  0.80655300277E+02 0.  0.
         23    2    1    2    0    0 -0.40575760095E+02 -0.17475616325E+02 -0.34960202024E+02  0.10937402674E+03  0.93747920123E+02 0.  0.
         11    1    3    3    0    0  0.37700441903E+02  0.65581264226E+02 -0.21192915539E+03  0.22502487072E+03  0.00000000000E+00 0. -1.
        -12    1    3    3    0    0  0.41480510396E+02 -0.12461916721E+02 -0.57932570170E+02  0.72333358815E+02  0.00000000000E+00 0.  1.
        -11    1    4    4    0    0 -0.62802714195E+02 -0.32804753333E+02 -0.40782620429E+02  0.81753011447E+02  0.00000000000E+00 0.  1.
         11    1    4    4    0    0  0.22226954100E+02  0.15329137008E+02  0.58224184052E+01  0.27621015298E+02  0.00000000000E+00 0. -1.
          2    1    1    2  501    0 -0.38605192204E+02 -0.35643731179E+02  0.40840893135E+01  0.52702146285E+02  0.00000000000E+00 0. -1.
<scales pt_clust_5="13000.00000" pt_clust_6="13000.00000" pt_clust_7="13000.00000" pt_clust_8="13000.00000" pt_clust_9="52.54366"></scales>
<clustering>
<clus scale="   52.544">  1  9  2 -1</clus>
<clus scale="   80.655">  5  6 -1 -1</clus>
<clus scale="   93.748">  7  8 -1 -1</clus>
<clus scale="  114.570">  2  5  1 -1</clus>
<clus scale="   52.544">  1  5  2 -1</clus>
</clustering>
</event>
<event>
 9    1  0.6345107E-005  0.1052256E+03  0.7546771E-02  0.1274802E+00
         -4   -1    0    0    0  501 -0.00000000000E+00  0.00000000000E+00  0.49938883159E+03  0.49938883159E+03  0.00000000000E+00 0.  1.
         21   -1    0    0  501  502  0.00000000000E+00 -0.00000000000E+00 -0.42333204134E+02  0.42333204134E+02  0.00000000000E+00 0.  1.
        -24    2    1    2    0    0  0.16963432525E+01  0.52134026572E+02  0.33645207868E+03  0.34919340756E+03  0.77557722532E+02 0.  0.
         23    2    1    2    0    0 -0.11507950843E+02 -0.72290294678E+02  0.65061414837E+02  0.13263312392E+03  0.89444050790E+02 0.  0.
         11    1    3    3    0    0 -0.49686945013E+00  0.68825902060E+02  0.19595278664E+03  0.20768906150E+03  0.00000000000E+00 0. -1.
        -12    1    3    3    0    0  0.21932127026E+01 -0.16691875488E+02  0.14049929204E+03  0.14150434606E+03  0.00000000000E+00 0.  1.
        -11    1    4    4    0    0  0.22331288471E+02 -0.76216421571E+02  0.33510901242E+02  0.86200985284E+02  0.00000000000E+00 0.  1.
         11    1    4    4    0    0 -0.33839239314E+02  0.39261268931E+01  0.31550513595E+02  0.46432138631E+02  0.00000000000E+00 0. -1.
         -3    1    1    2    0  502  0.98116075907E+01  0.20156268106E+02  0.55542133934E+02  0.59895504251E+02  0.00000000000E+00 0.  1.
<scales pt_clust_5="13000.00000" pt_clust_6="13000.00000" pt_clust_7="13000.00000" pt_clust_8="13000.00000" pt_clust_9="22.41748"></scales>
<clustering>
<clus scale="   22.417">  2  9  1 -1</clus>
<clus scale="   77.558">  5  6 -1 -1</clus>
<clus scale="   89.444">  7  8 -1 -1</clus>
<clus scale="   95.328">  1  5  2 -1</clus>
<clus scale="   22.417">  2  5  1 -1</clus>
</clustering>
</event>
<event>
 9    1  0.6345107E-005  0.1090147E+03  0.7546771E-02  0.1265571E+00
         -2   -1    0    0    0  501 -0.00000000000E+00  0.00000000000E+00  0.21262940005E+03  0.21262940005E+03  0.00000000000E+00 0.  1.
         21   -1    0    0  501  502  0.00000000000E+00 -0.00000000000E+00 -0.18264345078E+03  0.18264345078E+03  0.00000000000E+00 0.  1.
        -24    2    1    2    0    0 -0.30705529163E+02 -0.57746302546E+02  0.16144487224E+03  0.19221503484E+03  0.81269353800E+02 0.  0.
         23    2    1    2    0    0 -0.18175418405E+02  0.53396367421E+02 -0.90628802789E+02  0.13921920944E+03  0.89369404688E+02 0.  0.
         11    1    3    3    0    0 -0.25834932209E+02  0.15692656947E+02  0.38857113039E+02  0.49229853118E+02  0.00000000000E+00 0. -1.
        -12    1    3    3    0    0 -0.48705969535E+01 -0.73438959493E+02  0.12258775920E+03  0.14298518172E+03  0.00000000000E+00 0.  1.
        -11    1    4    4    0    0 -0.53474606333E+02  0.20020959323E+02 -0.49361108967E+02  0.75477754426E+02  0.00000000000E+00 0.  1.
         11    1    4    4    0    0  0.35299187928E+02  0.33375408097E+02 -0.41267693823E+02  0.63741455015E+02  0.00000000000E+00 0. -1.
         -1    1    1    2    0  502  0.48880947568E+02  0.43499351255E+01 -0.40830120188E+02  0.63838606543E+02  0.00000000000E+00 0.  1.
<scales pt_clust_5="13000.00000" pt_clust_6="13000.00000" pt_clust_7="13000.00000" pt_clust_8="13000.00000" pt_clust_9="49.07412"></scales>
<clustering>
<clus scale="   49.074">  2  9  1 -1</clus>
<clus scale="   81.269">  5  6 -1 -1</clus>
<clus scale="   89.369">  7  8 -1 -1</clus>
<clus scale="  102.479">  1  5  2 -1</clus>
<clus scale="   49.074">  2  5  1 -1</clus>
</clustering>
</event>
<event>
 9    1  0.6345107E-005  0.2089269E+03  0.7546771E-02  0.1142817E+00
         21   -1    0    0  501  502  0.00000000000E+00  0.00000000000E+00  0.11554464747E+03  0.11554464747E+03  0.00000000000E+00 0. -1.
          1   -1    0    0  502    0 -0.00000000000E+00 -0.00000000000E+00 -0.10321769255E+04  0.10321769255E+04  0.00000000000E+00 0. -1.
        -24    2    1    2    0    0 -0.11410710976E+02  0.19929290751E+03 -0.54896900241E+03  0.59048365260E+03  0.86348775796E+02 0.  0.
         23    2    1    2    0    0 -0.61335074155E+02 -0.17235463531E+03 -0.41765014554E+03  0.46495408148E+03  0.91008473116E+02 0.  0.
         11    1    3    3    0    0 -0.38074798839E+02  0.38206919689E+02 -0.14956050206E+03  0.15898994558E+03  0.00000000000E+00 0. -1.
        -12    1    3    3    0    0  0.26664087863E+02  0.16108598782E+03 -0.39940850034E+03  0.43149370702E+03  0.00000000000E+00 0.  1.
        -11    1    4    4    0    0 -0.39082181306E+02 -0.12966062578E+03 -0.19663892587E+03  0.23875963215E+03  0.00000000000E+00 0.  1.
         11    1    4    4    0    0 -0.22252892849E+02 -0.42694009525E+02 -0.22101121967E+03  0.22619444933E+03  0.00000000000E+00 0. -1.
          2    1    1    2  501    0  0.72745785131E+02 -0.26938272196E+02  0.49986869888E+02  0.92283838913E+02  0.00000000000E+00 0. -1.
<scales pt_clust_5="13000.00000" pt_clust_6="13000.00000" pt_clust_7="13000.00000" pt_clust_8="13000.00000" pt_clust_9="77.57332"></scales>
<clustering>
<clus scale="   77.573">  1  9  2 -1</clus>
<clus scale="   86.349">  5  6 -1 -1</clus>
<clus scale="   91.008">  7  8 -1 -1</clus>
<clus scale="  206.940">  2  5  1 -1</clus>
<clus scale="   77.573">  1  5  2 -1</clus>
</clustering>
</event>
<event>
 9    1  0.6345107E-005  0.1211776E+03  0.7546771E-02  0.1245790E+00
         -2   -1    0    0    0  501 -0.00000000000E+00  0.00000000000E+00  0.38672746015E+03  0.38672746015E+03  0.00000000000E+00 0.  1.
         21   -1    0    0  501  502  0.00000000000E+00 -0.00000000000E+00 -0.22228730372E+03  0.22228730372E+03  0.00000000000E+00 0. -1.
         23    2    1    2    0    0  0.74926728878E+02  0.35388133696E+01  0.33670314544E+03  0.35729372637E+03  0.93076639643E+02 0.  0.
        -24    2    1    2    0    0 -0.11666910183E+03 -0.97191365577E+01 -0.12544423895E+03  0.18869233411E+03  0.78500948581E+02 0.  0.
         11    1    4    4    0    0 -0.11486714709E+03  0.15064216815E+02 -0.10748519696E+03  0.15803309677E+03  0.00000000000E+00 0. -1.
        -12    1    4    4    0    0 -0.18019547464E+01 -0.24783353373E+02 -0.17959041994E+02  0.30659237346E+02  0.00000000000E+00 0.  1.
        -13    1    3    3    0    0  0.76929711205E+02 -0.32255142756E+02  0.22414247524E+03  0.23916191985E+03  0.00000000000E+00 0.  1.
         13    1    3    3    0    0 -0.20029823275E+01  0.35793956125E+02  0.11256067021E+03  0.11813180652E+03  0.00000000000E+00 0. -1.
         -1    1    1    2    0  502  0.41742372956E+02  0.61803231881E+01 -0.46818750057E+02  0.63028703394E+02  0.00000000000E+00 0.  1.
<scales pt_clust_5="13000.00000" pt_clust_6="13000.00000" pt_clust_7="13000.00000" pt_clust_8="13000.00000" pt_clust_9="42.19742"></scales>
<clustering>
<clus scale="   42.197">  2  9  1 -1</clus>
<clus scale="   78.501">  5  6 -1 -1</clus>
<clus scale="   93.077">  7  8 -1 -1</clus>
<clus scale="  110.377">  2  5  1 -1</clus>
<clus scale="   42.197">  2  5  1 -1</clus>
</clustering>
</event>
<event>
 9    1  0.6345107E-005  0.1150084E+03  0.7546771E-02  0.1263274E+00
         -4   -1    0    0    0  501 -0.00000000000E+00  0.00000000000E+00  0.61623862130E+03  0.61623862130E+03  0.00000000000E+00 0.  1.
         21   -1    0    0  501  502  0.00000000000E+00 -0.00000000000E+00 -0.33696101358E+02  0.33696101358E+02  0.00000000000E+00 0.  1.
         23    2    1    2    0    0  0.21190771292E+01 -0.31137917977E+02  0.23751888373E+03  0.26252939977E+03  0.10738903665E+03 0.  0.
        -24    2    1    2    0    0  0.65707167625E+02  0.18978327956E+02  0.22818858103E+03  0.25176356963E+03  0.81469366461E+02 0.  0.
         13    1    4    4    0    0 -0.36950252752E+00  0.37624488447E+02  0.85731857271E+02  0.93625263760E+02  0.00000000000E+00 0. -1.
        -14    1    4    4    0    0  0.66076670153E+02 -0.18646160491E+02  0.14245672375E+03  0.15813830587E+03  0.00000000000E+00 0.  1.
        -11    1    3    3    0    0  0.53794600280E+02 -0.78247255380E+01  0.13178156999E+03  0.14255338487E+03  0.00000000000E+00 0.  1.
         11    1    3    3    0    0 -0.51675523151E+02 -0.23313192439E+02  0.10573731374E+03  0.11997601490E+03  0.00000000000E+00 0. -1.
         -3    1    1    2    0  502 -0.67826244754E+02  0.12159590022E+02  0.11683505519E+03  0.13564175326E+03  0.00000000000E+00 0.  1.
<scales pt_clust_5="13000.00000" pt_clust_6="13000.00000" pt_clust_7="13000.00000" pt_clust_8="13000.00000" pt_clust_9="68.90758"></scales>
<clustering>
<clus scale="   68.908">  2  9  1 -1</clus>
<clus scale="   81.469">  5  6 -1 -1</clus>
<clus scale="   91.279">  2  5  1 -1</clus>
<clus scale="  107.389">  7  8 -1 -1</clus>
<clus scale="   68.908">  2  5  1 -1</clus>
</clustering>
</event>
<event>
 9    1  0.6345107E-005  0.1198630E+03  0.7546771E-02  0.1246657E+00
         -2   -1    0    0    0  501 -0.00000000000E+00  0.00000000000E+00  0.20812656568E+03  0.20812656568E+03  0.00000000000E+00 0.  1.
         21   -1    0    0  501  502  0.00000000000E+00 -0.00000000000E+00 -0.14991087264E+03  0.14991087264E+03  0.00000000000E+00 0. -1.
        -24    2    1    2    0    0 -0.69887816933E+02  0.45362904990E+02  0.11904761649E+03  0.16627800573E+03  0.80832790937E+02 0.  0.
         23    2    1    2    0    0  0.34232932678E+02 -0.61530018656E+02  0.47147159944E+01  0.11541149038E+03  0.91322213563E+02 0.  0.
         11    1    3    3    0    0 -0.82829470647E+02  0.25160879728E+02  0.68729849718E+02  0.11053317746E+03  0.00000000000E+00 0. -1.
        -12    1    3    3    0    0  0.12941653713E+02  0.20202025263E+02  0.50317766777E+02  0.55744828271E+02  0.00000000000E+00 0.  1.
        -11    1    4    4    0    0  0.65666638284E+02 -0.39922338869E+02  0.72009200433E+01  0.77186486989E+02  0.00000000000E+00 0.  1.
         11    1    4    4    0    0 -0.31433705606E+02 -0.21607679787E+02 -0.24862040489E+01  0.38225003394E+02  0.00000000000E+00 0. -1.
         -1    1    1    2    0  502  0.35654884255E+02  0.16167113666E+02 -0.65546639454E+02  0.76347942207E+02  0.00000000000E+00 0.  1.
<scales pt_clust_5="13000.00000" pt_clust_6="13000.00000" pt_clust_7="13000.00000" pt_clust_8="13000.00000" pt_clust_9="39.14903"></scales>
<clustering>
<clus scale="   39.149">  2  9  1 -1</clus>
<clus scale="   80.833">  5  6 -1 -1</clus>
<clus scale="   91.322">  7  8 -1 -1</clus>
<clus scale="  112.077">  1  5  2 -1</clus>
<clus scale="   39.149">  2  5  1 -1</clus>
</clustering>
</event>
<event>
 9    1  0.6345107E-005  0.1013437E+03  0.7546771E-02  0.1279611E+00
         -4   -1    0    0    0  501 -0.00000000000E+00  0.00000000000E+00  0.21557755919E+03  0.21557755919E+03  0.00000000000E+00 0.  1.
         21   -1    0    0  501  502  0.00000000000E+00 -0.00000000000E+00 -0.10207253587E+03  0.10207253587E+03  0.00000000000E+00 0. -1.
        -24    2    1    2    0    0 -0.44057076629E+02 -0.25007207272E+02  0.10420196997E+03  0.14487946739E+03  0.86980590415E+02 0.  0.
         23    2    1    2    0    0 -0.13114593690E+02  0.55417436089E+02  0.40896429727E+01  0.10780477856E+03  0.91444301680E+02 0.  0.
         11    1    3    3    0    0 -0.10895861658E+02 -0.54908128581E+02  0.56267984593E+02  0.79370702880E+02  0.00000000000E+00 0. -1.
        -12    1    3    3    0    0 -0.33161214970E+02  0.29900921309E+02  0.47933985381E+02  0.65508764512E+02  0.00000000000E+00 0.  1.
        -13    1    4    4    0    0  0.30100287666E+02  0.36321278762E+02  0.27996070910E+02  0.54854740861E+02  0.00000000000E+00 0.  1.
         13    1    4    4    0    0 -0.43214881356E+02  0.19096157326E+02 -0.23906427938E+02  0.52950037696E+02  0.00000000000E+00 0. -1.
         -3    1    1    2    0  502  0.57171670319E+02 -0.30410228817E+02  0.52134103699E+01  0.64965849116E+02  0.00000000000E+00 0.  1.
<scales pt_clust_5="13000.00000" pt_clust_6="13000.00000" pt_clust_7="13000.00000" pt_clust_8="13000.00000" pt_clust_9="64.75633"></scales>
<clustering>
<clus scale="   64.756">  2  9  1 -1</clus>
<clus scale="   86.981">  5  6 -1 -1</clus>
<clus scale="   91.444">  7  8 -1 -1</clus>
<clus scale="   97.335">  1  5  2 -1</clus>
<clus scale="   64.756">  2  5  1 -1</clus>
</clustering>
</event>
<event>
 9    1  0.6345107E-005  0.1015190E+03  0.7546771E-02  0.1283113E+00
         21   -1    0    0  501  502  0.00000000000E+00  0.00000000000E+00  0.18764545652E+03  0.18764545652E+03  0.00000000000E+00 0.  1.
         -2   -1    0    0    0  501 -0.00000000000E+00 -0.00000000000E+00 -0.27450229784E+03  0.27450229784E+03  0.00000000000E+00 0.  1.
        -24    2    1    2    0    0 -0.13065230064E+02  0.25591825484E+02 -0.17856759888E+03  0.19895209911E+03  0.82884911792E+02 0.  0.
         23    2    1    2    0    0 -0.56018391547E+01 -0.82873320628E+02 -0.28127811329E+02  0.12906545076E+03  0.94696087231E+02 0.  0.
         13    1    3    3    0    0  0.31201050429E+02 -0.63912962075E+01 -0.50202064802E+02  0.59452514879E+02  0.00000000000E+00 0. -1.
        -14    1    3    3    0    0 -0.44266280493E+02  0.31983121691E+02 -0.12836553408E+03  0.13949958424E+03  0.00000000000E+00 0.  1.
        -11    1    4    4    0    0 -0.27455713589E+02  0.10994596007E+02 -0.72802072637E+01  0.30458147807E+02  0.00000000000E+00 0.  1.
         11    1    4    4    0    0  0.21853874434E+02 -0.93867916635E+02 -0.20847604066E+02  0.98607302957E+02  0.00000000000E+00 0. -1.
         -1    1    1    2    0  502  0.18667069218E+02  0.57281495144E+02  0.11983856889E+03  0.13413020448E+03  0.00000000000E+00 0.  1.
<scales pt_clust_5="13000.00000" pt_clust_6="13000.00000" pt_clust_7="13000.00000" pt_clust_8="13000.00000" pt_clust_9="60.24640"></scales>
<clustering>
<clus scale="   60.246">  1  9  2 -1</clus>
<clus scale="   82.885">  5  6 -1 -1</clus>
<clus scale="   90.602">  2  5  1 -1</clus>
<clus scale="   94.696">  7  8 -1 -1</clus>
<clus scale="   60.246">  1  5  2 -1</clus>
</clustering>
</event>
<event>
 9    1  0.6345107E-005  0.1440142E+03  0.7546771E-02  0.1234132E+00
         -2   -1    0    0    0  501 -0.00000000000E+00  0.00000000000E+00  0.16350343413E+03  0.16350343413E+03  0.00000000000E+00 0.  1.
         21   -1    0    0  501  502  0.00000000000E+00 -0.00000000000E+00 -0.23640921499E+03  0.23640921499E+03  0.00000000000E+00 0. -1.
        -24    2    1    2    0    0 -0.20048169394E+02 -0.11566425040E+01  0.20740973729E+01  0.83349113254E+02  0.80867211417E+02 0.  0.
         23    2    1    2    0    0  0.99693002155E+02 -0.59559257117E+02 -0.13489241578E+03  0.19986207055E+03  0.90900404975E+02 0.  0.
         13    1    3    3    0    0 -0.36338688586E+02 -0.17730414033E+02  0.27502889027E+02  0.48900682764E+02  0.00000000000E+00 0. -1.
        -14    1    3    3    0    0  0.16290519192E+02  0.16573771529E+02 -0.25428791654E+02  0.34448430490E+02  0.00000000000E+00 0.  1.
        -11    1    4    4    0    0  0.91372319322E+02 -0.69176805016E+01 -0.66824090670E+02  0.11341170193E+03  0.00000000000E+00 0. -1.
         11    1    4    4    0    0  0.83206828329E+01 -0.52641576616E+02 -0.68068325109E+02  0.86450368620E+02  0.00000000000E+00 0.  1.
         -1    1    1    2    0  502 -0.79644832761E+02  0.60715899621E+02  0.59912537546E+02  0.11670146532E+03  0.00000000000E+00 0.  1.
<scales pt_clust_5="13000.00000" pt_clust_6="13000.00000" pt_clust_7="13000.00000" pt_clust_8="13000.00000" pt_clust_9="111.70148"></scales>
<clustering>
<clus scale="   80.867">  5  6 -1 -1</clus>
<clus scale="   83.323">  1  5  2 -1</clus>
<clus scale="   90.900">  7  8 -1 -1</clus>
<clus scale="  111.701">  2  9  1 -1</clus>
<clus scale="  111.701">  2  5  1 -1</clus>
</clustering>
</event>
<event>
 9    1  0.6345107E-005  0.1173275E+03  0.7546771E-02  0.1255285E+00
          3   -1    0    0  502    0 -0.00000000000E+00  0.00000000000E+00  0.12160295366E+03  0.12160295366E+03  0.00000000000E+00 0. -1.
         21   -1    0    0  501  502  0.00000000000E+00 -0.00000000000E+00 -0.32106136583E+03  0.32106136583E+03  0.00000000000E+00 0. -1.
        -24    2    1    2    0    0 -0.13626763480E+02 -0.81448706474E+02  0.28564064905E+02  0.11773695453E+03  0.78908201030E+02 0.  0.
         23    2    1    2    0    0 -0.53377152081E+02  0.23271381494E+02 -0.49056071426E+02  0.12516976136E+03  0.99349350553E+02 0.  0.
         11    1    3    3    0    0  0.25516140436E+02 -0.48611473236E+02  0.36647345118E+02  0.66008913467E+02  0.00000000000E+00 0. -1.
        -12    1    3    3    0    0 -0.39142903916E+02 -0.32837233238E+02 -0.80832802123E+01  0.51728041067E+02  0.00000000000E+00 0.  1.
        -13    1    4    4    0    0 -0.13978013703E+02  0.32890352806E+02 -0.70685602675E+02  0.79206152541E+02  0.00000000000E+00 0. -1.
         13    1    4    4    0    0 -0.39399138377E+02 -0.96189713117E+01  0.21629531249E+02  0.45963608823E+02  0.00000000000E+00 0.  1.
          4    1    1    2  501    0  0.67003915560E+02  0.58177324979E+02 -0.17896640565E+03  0.19975760360E+03  0.00000000000E+00 0. -1.
<scales pt_clust_5="13000.00000" pt_clust_6="13000.00000" pt_clust_7="13000.00000" pt_clust_8="13000.00000" pt_clust_9="88.73627"></scales>
<clustering>
<clus scale="   78.908">  5  6 -1 -1</clus>
<clus scale="   88.736">  2  9  1 -1</clus>
<clus scale="   99.349">  7  8 -1 -1</clus>
<clus scale="  100.608">  1  5  2 -1</clus>
<clus scale="   88.736">  2  5  1 -1</clus>
</clustering>
</event>
<event>
 9    1  0.6345107E-005  0.2206789E+03  0.7546771E-02  0.1163212E+00
         21   -1    0    0  501  502  0.00000000000E+00  0.00000000000E+00  0.12458709147E+03  0.12458709147E+03  0.00000000000E+00 0. -1.
          1   -1    0    0  502    0 -0.00000000000E+00 -0.00000000000E+00 -0.87523974538E+03  0.87523974538E+03  0.00000000000E+00 0. -1.
        -24    2    1    2    0    0 -0.42287709730E+02  0.74154218043E+02 -0.47072963794E+03  0.48309161215E+03  0.67111960557E+02 0.  0.
         23    2    1    2    0    0  0.98829397043E+02  0.14225039216E+03 -0.19743546702E+03  0.27834035594E+03  0.92142098502E+02 0.  0.
         13    1    3    3    0    0 -0.56044771764E+02  0.76168334877E+02 -0.41753848637E+03  0.42811332528E+03  0.00000000000E+00 0. -1.
        -14    1    3    3    0    0  0.13757062034E+02 -0.20141168333E+01 -0.53191151567E+02  0.54978286873E+02  0.00000000000E+00 0.  1.
        -11    1    4    4    0    0  0.21278586377E+02  0.47411777326E+02 -0.12654224557E+03  0.13679764173E+03  0.00000000000E+00 0.  1.
         11    1    4    4    0    0  0.77550810666E+02  0.94838614836E+02 -0.70893221444E+02  0.14154271421E+03  0.00000000000E+00 0. -1.
          2    1    1    2  501    0 -0.56541687313E+02 -0.21640461020E+03 -0.82487548948E+02  0.23839486877E+03  0.00000000000E+00 0. -1.
<scales pt_clust_5="13000.00000" pt_clust_6="13000.00000" pt_clust_7="13000.00000" pt_clust_8="13000.00000" pt_clust_9="200.52190"></scales>
<clustering>
<clus scale="   67.112">  5  6 -1 -1</clus>
<clus scale="   92.142">  7  8 -1 -1</clus>
<clus scale="  108.587">  2  5  1 -1</clus>
<clus scale="  200.522">  1  9  2 -1</clus>
<clus scale="  200.522">  1  5  2 -1</clus>
</clustering>
</event>
<event>
 9    1  0.6345107E-005  0.1379776E+03  0.7546771E-02  0.1230904E+00
          1   -1    0    0  502    0 -0.00000000000E+00  0.00000000000E+00  0.14083120859E+04  0.14083120859E+04  0.00000000000E+00 0. -1.
         21   -1    0    0  501  502  0.00000000000E+00 -0.00000000000E+00 -0.31638019247E+02  0.31638019247E+02  0.00000000000E+00 0.  1.
         23    2    1    2    0    0  0.20367704400E+02 -0.35448762321E+02  0.14788292590E+03  0.17922132437E+03  0.92625402587E+02 0.  0.
        -24    2    1    2    0    0 -0.61205766164E+02 -0.76627759810E+02  0.93813758690E+03  0.94654987876E+03  0.78972030797E+02 0.  0.
         11    1    4    4    0    0 -0.41411218786E+02 -0.22792775732E+02  0.17537475341E+03  0.18163343250E+03  0.00000000000E+00 0. -1.
        -12    1    4    4    0    0 -0.19794547378E+02 -0.53834984078E+02  0.76276283348E+03  0.76491644626E+03  0.00000000000E+00 0.  1.
        -11    1    3    3    0    0  0.29456213934E+02 -0.63436907670E+02  0.87238103786E+02  0.11181411604E+03  0.00000000000E+00 0.  1.
         11    1    3    3    0    0 -0.90885095337E+01  0.27988145349E+02  0.60644822115E+02  0.67407208331E+02  0.00000000000E+00 0. -1.
          2    1    1    2  501    0  0.40838061764E+02  0.11207652213E+03  0.29065355386E+03  0.31417890201E+03  0.00000000000E+00 0. -1.
<scales pt_clust_5="13000.00000" pt_clust_6="13000.00000" pt_clust_7="13000.00000" pt_clust_8="13000.00000" pt_clust_9="113.14255"></scales>
<clustering>
<clus scale="   78.972">  5  6 -1 -1</clus>
<clus scale="   92.625">  7  8 -1 -1</clus>
<clus scale="  101.247">  1  7  2 -1</clus>
<clus scale="  113.143">  2  9  1 -1</clus>
<clus scale="  113.143">  2  5  1 -1</clus>
</clustering>
</event>
<event>
 9    1  0.6345107E-005  0.1699034E+03  0.7546771E-02  0.1203274E+00
          1   -1    0    0  502    0 -0.00000000000E+00  0.00000000000E+00  0.69834141626E+03  0.69834141626E+03  0.00000000000E+00 0. -1.
         21   -1    0    0  501  502  0.00000000000E+00 -0.00000000000E+00 -0.70533114443E+02  0.70533114443E+02  0.00000000000E+00 0. -1.
         23    2    1    2    0    0  0.13287174522E+02 -0.27762675661E+02  0.24124044602E+03  0.26006550660E+03  0.92140109386E+02 0.  0.
        -24    2    1    2    0    0 -0.19892598493E+02  0.16194191989E+03  0.14225203385E+03  0.22999381279E+03  0.77721373461E+02 0.  0.
         11    1    4    4    0    0  0.25415623968E+02  0.10456486663E+03  0.83753031637E+02  0.13636104863E+03  0.00000000000E+00 0. -1.
        -12    1    4    4    0    0 -0.45308222461E+02  0.57377053260E+02  0.58499002210E+02  0.93632764153E+02  0.00000000000E+00 0.  1.
        -13    1    3    3    0    0 -0.25293310007E+02 -0.31061101033E+02  0.19804492689E+03  0.20205528103E+03  0.00000000000E+00 0. -1.
         13    1    3    3    0    0  0.38580484528E+02  0.32984253724E+01  0.43195519136E+02  0.58010225563E+02  0.00000000000E+00 0.  1.
          2    1    1    2  501    0  0.66054239712E+01 -0.13417924423E+03  0.24431582195E+03  0.27881521132E+03  0.00000000000E+00 0. -1.
<scales pt_clust_5="13000.00000" pt_clust_6="13000.00000" pt_clust_7="13000.00000" pt_clust_8="13000.00000" pt_clust_9="151.08468"></scales>
<clustering>
<clus scale="   77.721">  5  6 -1 -1</clus>
<clus scale="   92.140">  7  8 -1 -1</clus>
<clus scale="   97.145">  1  7  2 -1</clus>
<clus scale="  151.085">  2  9  1 -1</clus>
<clus scale="  151.085">  2  5  1 -1</clus>
</clustering>
</event>
<event>
 9    1  0.6345107E-005  0.9732273E+02  0.7546771E-02  0.1291129E+00
         -2   -1    0    0    0  501 -0.00000000000E+00  0.00000000000E+00  0.60197860567E+03  0.60197860567E+03  0.00000000000E+00 0.  1.
         21   -1    0    0  501  502  0.00000000000E+00 -0.00000000000E+00 -0.36699350673E+02  0.36699350673E+02  0.00000000000E+00 0. -1.
        -24    2    1    2    0    0  0.75894826555E+01 -0.29140584506E+02  0.35777361947E+03  0.36776213233E+03  0.79625682242E+02 0.  0.
         23    2    1    2    0    0  0.13899305493E+02  0.78845798980E+02  0.14104073118E+03  0.18518391705E+03  0.89390964715E+02 0.  0.
         13    1    3    3    0    0  0.36458085212E+02 -0.37628634379E+02  0.18040465214E+03  0.18785884227E+03  0.00000000000E+00 0. -1.
        -14    1    3    3    0    0 -0.28868602556E+02  0.84880498726E+01  0.17736896733E+03  0.17990329006E+03  0.00000000000E+00 0.  1.
        -13    1    4    4    0    0 -0.15443954194E+02  0.72412195180E+02  0.50069767188E+02  0.89381336520E+02  0.00000000000E+00 0. -1.
         13    1    4    4    0    0  0.29343259686E+02  0.64336037996E+01  0.90970963987E+02  0.95802580527E+02  0.00000000000E+00 0.  1.
         -1    1    1    2    0  502 -0.21488788148E+02 -0.49705214474E+02  0.66464904352E+02  0.85731906969E+02  0.00000000000E+00 0.  1.
<scales pt_clust_5="13000.00000" pt_clust_6="13000.00000" pt_clust_7="13000.00000" pt_clust_8="13000.00000" pt_clust_9="54.15142"></scales>
<clustering>
<clus scale="   54.151">  2  9  1 -1</clus>
<clus scale="   79.626">  5  6 -1 -1</clus>
<clus scale="   88.438">  1  5  2 -1</clus>
<clus scale="   89.391">  7  8 -1 -1</clus>
<clus scale="   54.151">  2  5  1 -1</clus>
</clustering>
</event>
<event>
 9    1  0.6345107E-005  0.1102159E+03  0.7546771E-02  0.1265443E+00
         21   -1    0    0  501  502  0.00000000000E+00  0.00000000000E+00  0.22186236839E+03  0.22186236839E+03  0.00000000000E+00 0. -1.
         -2   -1    0    0    0  501 -0.00000000000E+00 -0.00000000000E+00 -0.82164308720E+02  0.82164308720E+02  0.00000000000E+00 0.  1.
        -24    2    1    2    0    0  0.54079704078E+02  0.27383438539E+02  0.63812695368E+02  0.11909602404E+03  0.80233009115E+02 0.  0.
         23    2    1    2    0    0 -0.63003660741E+02  0.14756554645E+02  0.83833733125E+02  0.14112891115E+03  0.93284819678E+02 0.  0.
         13    1    3    3    0    0  0.43845506317E+02 -0.11685092239E+02  0.22035170484E+01  0.45429343955E+02  0.00000000000E+00 0. -1.
        -14    1    3    3    0    0  0.10234197761E+02  0.39068530777E+02  0.61609178320E+02  0.73666680081E+02  0.00000000000E+00 0.  1.
        -11    1    4    4    0    0  0.81729120641E+01  0.20536398223E+02  0.62964158535E+02  0.66730992826E+02  0.00000000000E+00 0. -1.
         11    1    4    4    0    0 -0.71176572805E+02 -0.57798435776E+01  0.20869574590E+02  0.74397918329E+02  0.00000000000E+00 0.  1.
         -1    1    1    2    0  502  0.89239566628E+01 -0.42139993184E+02 -0.79483688248E+01  0.43801741918E+02  0.00000000000E+00 0.  1.
<scales pt_clust_5="13000.00000" pt_clust_6="13000.00000" pt_clust_7="13000.00000" pt_clust_8="13000.00000" pt_clust_9="43.07456"></scales>
<clustering>
<clus scale="   43.075">  1  9  2 -1</clus>
<clus scale="   80.233">  5  6 -1 -1</clus>
<clus scale="   93.285">  7  8 -1 -1</clus>
<clus scale="   99.412">  2  5  1 -1</clus>
<clus scale="   43.075">  1  5  2 -1</clus>
</clustering>
</event>
<event>
 9    1  0.6345107E-005  0.9574915E+02  0.7546771E-02  0.1297977E+00
         21   -1    0    0  501  502  0.00000000000E+00  0.00000000000E+00  0.47087545904E+02  0.47087545904E+02  0.00000000000E+00 0. -1.
          1   -1    0    0  502    0 -0.00000000000E+00 -0.00000000000E+00 -0.28983935836E+03  0.28983935836E+03  0.00000000000E+00 0. -1.
        -24    2    1    2    0    0  0.22429438823E+02 -0.42380329112E+01 -0.18668498084E+03  0.20430027724E+03  0.79788975179E+02 0.  0.
         23    2    1    2    0    0 -0.40140787377E+01 -0.67339960919E+01 -0.58502604352E+02  0.11105247823E+03  0.94067202962E+02 0.  0.
         13    1    3    3    0    0  0.51486576030E+02 -0.12031785976E+02 -0.12169003148E+03  0.13268042488E+03  0.00000000000E+00 0. -1.
        -14    1    3    3    0    0 -0.29057137207E+02  0.77937530647E+01 -0.64994949360E+02  0.71619852358E+02  0.00000000000E+00 0.  1.
        -11    1    4    4    0    0  0.33998029138E+02 -0.33511708396E+02 -0.32851715317E+02  0.57949424364E+02  0.00000000000E+00 0. -1.
         11    1    4    4    0    0 -0.38012107876E+02  0.26777712304E+02 -0.25650889035E+02  0.53103053864E+02  0.00000000000E+00 0.  1.
          2    1    1    2  501    0 -0.18415360085E+02  0.10972029003E+02  0.24357727341E+01  0.21574148797E+02  0.00000000000E+00 0. -1.
<scales pt_clust_5="13000.00000" pt_clust_6="13000.00000" pt_clust_7="13000.00000" pt_clust_8="13000.00000" pt_clust_9="21.43621"></scales>
<clustering>
<clus scale="   21.436">  1  9  2 -1</clus>
<clus scale="   79.789">  5  6 -1 -1</clus>
<clus scale="   81.765">  2  5  1 -1</clus>
<clus scale="   94.067">  7  8 -1 -1</clus>
<clus scale="   21.436">  1  5  2 -1</clus>
</clustering>
</event>
<event>
 9    1  0.6345107E-005  0.1037206E+03  0.7546771E-02  0.1276177E+00
         -2   -1    0    0    0  501 -0.00000000000E+00  0.00000000000E+00  0.57527299604E+02  0.57527299604E+02  0.00000000000E+00 0.  1.
         21   -1    0    0  501  502  0.00000000000E+00 -0.00000000000E+00 -0.49514908224E+03  0.49514908224E+03  0.00000000000E+00 0. -1.
         23    2    1    2    0    0 -0.12854539361E+02  0.22055865474E+02 -0.71713873535E+02  0.11663764175E+03  0.88372843292E+02 0.  0.
        -24    2    1    2    0    0  0.86618949788E+02 -0.71080984800E+02 -0.15587301132E+03  0.20809289377E+03  0.80317544270E+02 0.  0.
         13    1    4    4    0    0  0.92534205512E+02 -0.81549989242E+02 -0.15135676394E+03  0.19524817522E+03  0.00000000000E+00 0. -1.
        -14    1    4    4    0    0 -0.59152557237E+01  0.10469004442E+02 -0.45162473749E+01  0.12844718550E+02  0.00000000000E+00 0.  1.
        -11    1    3    3    0    0 -0.19002145103E+02 -0.13404860268E+02 -0.76842736040E+02  0.80284356381E+02  0.00000000000E+00 0.  1.
         11    1    3    3    0    0  0.61476057420E+01  0.35460725742E+02  0.51288625051E+01  0.36353285369E+02  0.00000000000E+00 0. -1.
         -1    1    1    2    0  502 -0.73764410427E+02  0.49025119326E+02 -0.21003489779E+03  0.22794584633E+03  0.00000000000E+00 0.  1.
<scales pt_clust_5="13000.00000" pt_clust_6="13000.00000" pt_clust_7="13000.00000" pt_clust_8="13000.00000" pt_clust_9="88.57003"></scales>
<clustering>
<clus scale="   80.318">  5  6 -1 -1</clus>
<clus scale="   88.373">  7  8 -1 -1</clus>
<clus scale="   88.570">  2  9  1 -1</clus>
<clus scale="   96.949">  2  5  1 -1</clus>
<clus scale="   88.570">  2  5  1 -1</clus>
</clustering>
</event>
<event>
 9    1  0.6345107E-005  0.2061176E+03  0.7546771E-02  0.1145648E+00
          1   -1    0    0  502    0 -0.00000000000E+00  0.00000000000E+00  0.20748951545E+03  0.20748951545E+03  0.00000000000E+00 0. -1.
         21   -1    0    0  501  502  0.00000000000E+00 -0.00000000000E+00 -0.42857651713E+03  0.42857651713E+03  0.00000000000E+00 0. -1.
        -24    2    1    2    0    0  0.66824342417E+02 -0.17771651243E+03 -0.25807129307E+02  0.20788509994E+03  0.80632222625E+02 0.  0.
         23    2    1    2    0    0 -0.19033438755E+03  0.92140972575E+02 -0.11036349249E+03  0.25558691234E+03  0.91801042338E+02 0.  0.
         11    1    3    3    0    0  0.41184852433E+02 -0.11787753133E+03 -0.55119393317E+02  0.13648975047E+03  0.00000000000E+00 0. -1.
        -12    1    3    3    0    0  0.25639489984E+02 -0.59838981096E+02  0.29312264010E+02  0.71395349475E+02  0.00000000000E+00 0.  1.
        -11    1    4    4    0    0 -0.18965313999E+03  0.65962333901E+02 -0.81754369201E+02  0.21680202925E+03  0.00000000000E+00 0. -1.
         11    1    4    4    0    0 -0.68124755422E+00  0.26178638674E+02 -0.28609123284E+02  0.38784883088E+02  0.00000000000E+00 0.  1.
          2    1    1    2  501    0  0.12351004513E+03  0.85575539854E+02 -0.84916379883E+02  0.17259402030E+03  0.00000000000E+00 0. -1.
<scales pt_clust_5="13000.00000" pt_clust_6="13000.00000" pt_clust_7="13000.00000" pt_clust_8="13000.00000" pt_clust_9="150.25946"></scales>
<clustering>
<clus scale="   80.632">  5  6 -1 -1</clus>
<clus scale="   91.801">  7  8 -1 -1</clus>
<clus scale="  150.259">  2  9  1 -1</clus>
<clus scale="  201.392">  1  5  2 -1</clus>
<clus scale="  150.259">  2  5  1 -1</clus>
</clustering>
</event>
<event>
 9    1  0.6345107E-005  0.1050913E+03  0.7546771E-02  0.1274515E+00
          3   -1    0    0  502    0 -0.00000000000E+00  0.00000000000E+00  0.26155369257E+03  0.26155369257E+03  0.00000000000E+00 0. -1.
         21   -1    0    0  501  502  0.00000000000E+00 -0.00000000000E+00 -0.11823989981E+03  0.11823989981E+03  0.00000000000E+00 0.  1.
        -24    2    1    2    0    0  0.50174586600E+02  0.17821625514E+01  0.20703552965E+03  0.22805782209E+03  0.81400211514E+02 0.  0.
         23    2    1    2    0    0 -0.58450622398E+02 -0.25009097207E+02 -0.43227760376E+02  0.11967354429E+03  0.91712527688E+02 0.  0.
         11    1    3    3    0    0  0.60681997660E+02  0.10435933560E+02  0.20530098268E+03  0.21433550111E+03  0.00000000000E+00 0. -1.
        -12    1    3    3    0    0 -0.10507411060E+02 -0.86537710084E+01  0.17345469770E+01  0.13722320979E+02  0.00000000000E+00 0.  1.
        -11    1    4    4    0    0 -0.81775394027E+02 -0.86748041025E+01 -0.25357283553E+02  0.86054977332E+02  0.00000000000E+00 0.  1.
         11    1    4    4    0    0  0.23324771628E+02 -0.16334293105E+02 -0.17870476823E+02  0.33618566962E+02  0.00000000000E+00 0. -1.
          4    1    1    2  501    0  0.82760357985E+01  0.23226934656E+02 -0.20493976521E+02  0.32062225994E+02  0.00000000000E+00 0. -1.
<scales pt_clust_5="13000.00000" pt_clust_6="13000.00000" pt_clust_7="13000.00000" pt_clust_8="13000.00000" pt_clust_9="24.65732"></scales>
<clustering>
<clus scale="   24.657">  2  9  1 -1</clus>
<clus scale="   81.400">  5  6 -1 -1</clus>
<clus scale="   91.713">  7  8 -1 -1</clus>
<clus scale="   96.224">  1  5  2 -1</clus>
<clus scale="   24.657">  2  5  1 -1</clus>
</clustering>
</event>
<event>
 9    1  0.6345107E-005  0.1374766E+03  0.7546771E-02  0.1218860E+00
         21   -1    0    0  501  502  0.00000000000E+00  0.00000000000E+00  0.57867622721E+03  0.57867622721E+03  0.00000000000E+00 0.  1.
         -2   -1    0    0    0  501 -0.00000000000E+00 -0.00000000000E+00 -0.10204220679E+03  0.10204220679E+03  0.00000000000E+00 0.  1.
         23    2    1    2    0    0  0.55679856281E+02 -0.10816150355E+03 -0.89670317215E+01  0.15166179624E+03  0.90120672078E+02 0.  0.
        -24    2    1    2    0    0 -0.28308817165E+02  0.62334204329E+02  0.12192379796E+03  0.16148288959E+03  0.80773565988E+02 0.  0.
         11    1    4    4    0    0 -0.30314424235E+02  0.63500202847E+02  0.13283869065E+03  0.15032417574E+03  0.00000000000E+00 0. -1.
        -12    1    4    4    0    0  0.20056070699E+01 -0.11659985182E+01 -0.10914892692E+02  0.11158713848E+02  0.00000000000E+00 0.  1.
        -11    1    3    3    0    0  0.88485406329E+01 -0.80166683652E+02 -0.38774218749E+02  0.89489853495E+02  0.00000000000E+00 0.  1.
         11    1    3    3    0    0  0.46831315648E+02 -0.27994819900E+02  0.29807187027E+02  0.62171942748E+02  0.00000000000E+00 0. -1.
         -1    1    1    2    0  502 -0.27371039116E+02  0.45827299223E+02  0.36367725418E+03  0.36757374817E+03  0.00000000000E+00 0.  1.
<scales pt_clust_5="13000.00000" pt_clust_6="13000.00000" pt_clust_7="13000.00000" pt_clust_8="13000.00000" pt_clust_9="53.37898"></scales>
<clustering>
<clus scale="   53.379">  1  9  2 -1</clus>
<clus scale="   80.774">  5  6 -1 -1</clus>
<clus scale="   90.121">  7  8 -1 -1</clus>
<clus scale="  131.539">  1  5  2 -1</clus>
<clus scale="   53.379">  1  5  2 -1</clus>
</clustering>
</event>
<event>
 9    1  0.6345107E-005  0.1736675E+03  0.7546771E-02  0.1187648E+00
         21   -1    0    0  501  502  0.00000000000E+00  0.00000000000E+00  0.10527507072E+04  0.10527507072E+04  0.00000000000E+00 0. -1.
          3   -1    0    0  502    0 -0.00000000000E+00 -0.00000000000E+00 -0.16391129866E+03  0.16391129866E+03  0.00000000000E+00 0. -1.
        -24    2    1    2    0    0  0.53834090070E+02 -0.90639839267E+02 -0.10585112908E+03  0.16614413933E+03  0.72702983369E+02 0.  0.
         23    2    1    2    0    0  0.98504042795E+02  0.12162137765E+03  0.50532431705E+03  0.53705310603E+03  0.92620555745E+02 0.  0.
         11    1    3    3    0    0  0.15931430143E+02 -0.30361455115E+02 -0.85453288881E+02  0.92075474496E+02  0.00000000000E+00 0. -1.
        -12    1    3    3    0    0  0.37902659927E+02 -0.60278384152E+02 -0.20397840194E+02  0.74068664832E+02  0.00000000000E+00 0.  1.
        -13    1    4    4    0    0  0.23092186793E+02  0.42578262049E+02  0.53327982905E+02  0.72041871511E+02  0.00000000000E+00 0.  1.
         13    1    4    4    0    0  0.75411856002E+02  0.79043115602E+02  0.45199633414E+03  0.46501123452E+03  0.00000000000E+00 0. -1.
          4    1    1    2  501    0 -0.15233813287E+03 -0.30981538385E+02  0.48936622054E+03  0.51346476048E+03  0.00000000000E+00 0. -1.
<scales pt_clust_5="13000.00000" pt_clust_6="13000.00000" pt_clust_7="13000.00000" pt_clust_8="13000.00000" pt_clust_9="146.90761"></scales>
<clustering>
<clus scale="   72.703">  5  6 -1 -1</clus>
<clus scale="   92.621">  7  8 -1 -1</clus>
<clus scale="  128.060">  2  5  1 -1</clus>
<clus scale="  146.908">  1  9  2 -1</clus>
<clus scale="  146.908">  1  5  2 -1</clus>
</clustering>
</event>
<event>
 9    1  0.6345107E-005  0.1279963E+03  0.7546771E-02  0.1232289E+00
         21   -1    0    0  501  502  0.00000000000E+00  0.00000000000E+00  0.20557475823E+03  0.20557475823E+03  0.00000000000E+00 0. -1.
          1   -1    0    0  502    0 -0.00000000000E+00 -0.00000000000E+00 -0.21108882513E+03  0.21108882513E+03  0.00000000000E+00 0. -1.
         23    2    1    2    0    0  0.55081901083E+02 -0.68880411125E+02 -0.54676932895E+02  0.13648560667E+03  0.88657921096E+02 0.  0.
        -24    2    1    2    0    0 -0.20370552564E+02  0.11700350734E+03  0.12015762649E+03  0.18765248764E+03  0.81675092724E+02 0.  0.
         11    1    4    4    0    0 -0.52008217013E+02  0.64923944993E+02  0.70682434803E+02  0.10916034014E+03  0.00000000000E+00 0. -1.
        -12    1    4    4    0    0  0.31637664449E+02  0.52079562350E+02  0.49475191688E+02  0.78492147499E+02  0.00000000000E+00 0.  1.
        -11    1    3    3    0    0  0.50207642847E+02 -0.24590895807E+02 -0.69802800287E+02  0.89431261228E+02  0.00000000000E+00 0.  1.
         11    1    3    3    0    0  0.48742582359E+01 -0.44289515318E+02  0.15125867392E+02  0.47054345441E+02  0.00000000000E+00 0. -1.
          2    1    1    2  501    0 -0.34711348519E+02 -0.48123096218E+02 -0.70994760493E+02  0.92525489045E+02  0.00000000000E+00 0. -1.
<scales pt_clust_5="13000.00000" pt_clust_6="13000.00000" pt_clust_7="13000.00000" pt_clust_8="13000.00000" pt_clust_9="59.33560"></scales>
<clustering>
<clus scale="   59.336">  1  9  2 -1</clus>
<clus scale="   81.675">  5  6 -1 -1</clus>
<clus scale="   88.658">  7  8 -1 -1</clus>
<clus scale="  123.263">  1  5  2 -1</clus>
<clus scale="   59.336">  1  5  2 -1</clus>
</clustering>
</event>
<event>
 9    1  0.6345107E-005  0.1103890E+03  0.7546771E-02  0.1263101E+00
         21   -1    0    0  501  502  0.00000000000E+00  0.00000000000E+00  0.38666584036E+02  0.38666584036E+02  0.00000000000E+00 0. -1.
          1   -1    0    0  502    0 -0.00000000000E+00 -0.00000000000E+00 -0.65644853130E+03  0.65644853130E+03  0.00000000000E+00 0. -1.
         23    2    1    2    0    0 -0.66974377147E+02 -0.48511533302E+01 -0.37303322937E+03  0.38957297318E+03  0.90023387689E+02 0.  0.
        -24    2    1    2    0    0  0.58187377405E+02 -0.28863350917E+02 -0.24948204629E+03  0.27038131796E+03  0.81522400380E+02 0.  0.
         13    1    4    4    0    0  0.36156387343E+02  0.26027677017E+02 -0.12092929577E+03  0.12887443072E+03  0.00000000000E+00 0. -1.
        -14    1    4    4    0    0  0.22030990062E+02 -0.54891027934E+02 -0.12855275052E+03  0.14150688724E+03  0.00000000000E+00 0.  1.
        -11    1    3    3    0    0  0.45749540322E+01  0.30693417121E+02 -0.78919073629E+02  0.84801157076E+02  0.00000000000E+00 0. -1.
         11    1    3    3    0    0 -0.71549331179E+02 -0.35544570451E+02 -0.29411415574E+03  0.30477181610E+03  0.00000000000E+00 0.  1.
          2    1    1    2  501    0  0.87869997419E+01  0.33714504248E+02  0.47333283956E+01  0.35160824206E+02  0.00000000000E+00 0. -1.
<scales pt_clust_5="13000.00000" pt_clust_6="13000.00000" pt_clust_7="13000.00000" pt_clust_8="13000.00000" pt_clust_9="34.84077"></scales>
<clustering>
<clus scale="   34.841">  1  9  2 -1</clus>
<clus scale="   81.522">  5  6 -1 -1</clus>
<clus scale="   90.023">  7  8 -1 -1</clus>
<clus scale="  103.573">  1  5  2 -1</clus>
<clus scale="   34.841">  1  5  2 -1</clus>
</clustering>
</event>
<event>
 9    1  0.6345107E-005  0.1862221E+03  0.7546771E-02  0.1173401E+00
          1   -1    0    0  502    0 -0.00000000000E+00  0.00000000000E+00  0.45522607314E+03  0.45522607314E+03  0.00000000000E+00 0. -1.
         21   -1    0    0  501  502  0.00000000000E+00 -0.00000000000E+00 -0.16781514201E+03  0.16781514201E+03  0.00000000000E+00 0. -1.
        -24    2    1    2    0    0 -0.94267803456E+02  0.77439749024E+02  0.40211317677E+02  0.14858072400E+03  0.74672270475E+02 0.  0.
         23    2    1    2    0    0  0.60510311053E+02  0.13549790697E+03  0.46525932033E+02  0.17992366825E+03  0.90480293470E+02 0.  0.
         11    1    3    3    0    0 -0.10551476050E+03  0.57902612933E+02  0.36193520971E+02  0.12568233061E+03  0.00000000000E+00 0. -1.
        -12    1    3    3    0    0  0.11246957044E+02  0.19537136092E+02  0.40177967058E+01  0.22898393389E+02  0.00000000000E+00 0.  1.
        -13    1    4    4    0    0  0.18146275297E+02 -0.10719502046E+02  0.10220825347E+02  0.23423498928E+02  0.00000000000E+00 0.  1.
         13    1    4    4    0    0  0.42364035756E+02  0.14621740902E+03  0.36305106686E+02  0.15650016932E+03  0.00000000000E+00 0. -1.
          2    1    1    2  501    0  0.33757492402E+02 -0.21293765600E+03  0.20067368142E+03  0.29453682291E+03  0.00000000000E+00 0. -1.
<scales pt_clust_5="13000.00000" pt_clust_6="13000.00000" pt_clust_7="13000.00000" pt_clust_8="13000.00000" pt_clust_9="162.76364"></scales>
<clustering>
<clus scale="   74.672">  5  6 -1 -1</clus>
<clus scale="   90.480">  7  8 -1 -1</clus>
<clus scale="  143.036">  1  5  2 -1</clus>
<clus scale="  162.764">  2  9  1 -1</clus>
<clus scale="  162.764">  2  5  1 -1</clus>
</clustering>
</event>
<event>
 9    1  0.6345107E-005  0.1187586E+03  0.7546771E-02  0.1249173E+00
          1   -1    0    0  502    0 -0.00000000000E+00  0.00000000000E+00  0.16121817572E+03  0.16121817572E+03  0.00000000000E+00 0. -1.
         21   -1    0    0  501  502  0.00000000000E+00 -0.00000000000E+00 -0.19144448044E+03  0.19144448044E+03  0.00000000000E+00 0.  1.
        -24    2    1    2    0    0 -0.63346415157E+02  0.39966801872E+02  0.10400673844E+03  0.15121343734E+03  0.80237076377E+02 0.  0.
         23    2    1    2    0    0  0.72429683449E+02 -0.21547228389E+02 -0.80618508698E+02  0.14403576435E+03  0.92393805911E+02 0.  0.
         11    1    3    3    0    0 -0.46003797953E+02  0.64797551527E+02  0.76163458404E+02  0.11007245117E+03  0.00000000000E+00 0. -1.
        -12    1    3    3    0    0 -0.17342617204E+02 -0.24830749655E+02  0.27843280032E+02  0.41140986167E+02  0.00000000000E+00 0.  1.
        -11    1    4    4    0    0  0.56225588874E+02  0.15089678510E+01  0.24682506195E+01  0.56299965269E+02  0.00000000000E+00 0. -1.
         11    1    4    4    0    0  0.16204094575E+02 -0.23056196240E+02 -0.83086759317E+02  0.87735799078E+02  0.00000000000E+00 0.  1.
          2    1    1    2  501    0 -0.90832682918E+01 -0.18419573483E+02 -0.53614534462E+02  0.57413454483E+02  0.00000000000E+00 0. -1.
<scales pt_clust_5="13000.00000" pt_clust_6="13000.00000" pt_clust_7="13000.00000" pt_clust_8="13000.00000" pt_clust_9="20.53744"></scales>
<clustering>
<clus scale="   20.537">  2  9  1 -1</clus>
<clus scale="   80.237">  5  6 -1 -1</clus>
<clus scale="   92.394">  7  8 -1 -1</clus>
<clus scale="  109.567">  1  5  2 -1</clus>
<clus scale="   20.537">  2  5  1 -1</clus>
</clustering>
</event>
<event>
 9    1  0.6345107E-005  0.1242791E+03  0.7546771E-02  0.1253565E+00
          1   -1    0    0  502    0 -0.00000000000E+00  0.00000000000E+00  0.39404077684E+03  0.39404077684E+03  0.00000000000E+00 0. -1.
         21   -1    0    0  501  502  0.00000000000E+00 -0.00000000000E+00 -0.80200806597E+02  0.80200806597E+02  0.00000000000E+00 0. -1.
        -24    2    1    2    0    0  0.14431499061E+02 -0.11421604270E+02  0.21878777804E+03  0.23566940240E+03  0.85634421813E+02 0.  0.
         23    2    1    2    0    0  0.67273117681E+02 -0.36004106633E+02  0.26540410535E+02  0.12187296647E+03  0.91250526074E+02 0.  0.
         11    1    3    3    0    0 -0.12889834134E+02 -0.33776838063E+02  0.17840802196E+03  0.18203418611E+03  0.00000000000E+00 0. -1.
        -12    1    3    3    0    0  0.27321333194E+02  0.22355233793E+02  0.40379756082E+02  0.53635216292E+02  0.00000000000E+00 0.  1.
        -11    1    4    4    0    0  0.40860152710E+02  0.27860293576E+02  0.62674903577E+01  0.49850069940E+02  0.00000000000E+00 0.  1.
         11    1    4    4    0    0  0.26412964971E+02 -0.63864400209E+02  0.20272920177E+02  0.72022896534E+02  0.00000000000E+00 0. -1.
          2    1    1    2  501    0 -0.81704616741E+02  0.47425710903E+02  0.68511781661E+02  0.11669921456E+03  0.00000000000E+00 0. -1.
<scales pt_clust_5="13000.00000" pt_clust_6="13000.00000" pt_clust_7="13000.00000" pt_clust_8="13000.00000" pt_clust_9="84.37206"></scales>
<clustering>
<clus scale="   85.634">  5  6 -1 -1</clus>
<clus scale="   87.590">  1  5  2 -1</clus>
<clus scale="   84.372">  2  9  1 -1</clus>
<clus scale="   91.251">  7  8 -1 -1</clus>
<clus scale="   84.372">  2  5  1 -1</clus>
</clustering>
</event>
<event>
 9    1  0.6345107E-005  0.1273592E+03  0.7546771E-02  0.1234340E+00
         21   -1    0    0  501  502  0.00000000000E+00  0.00000000000E+00  0.26451674972E+03  0.26451674972E+03  0.00000000000E+00 0.  1.
         -4   -1    0    0    0  501 -0.00000000000E+00 -0.00000000000E+00 -0.16412613994E+03  0.16412613994E+03  0.00000000000E+00 0.  1.
        -24    2    1    2    0    0  0.81652255204E+02  0.18803934249E+02 -0.70682887847E+02  0.13540416451E+03  0.79482944139E+02 0.  0.
         23    2    1    2    0    0 -0.13069089763E+03  0.34405747050E+02  0.13994707442E+03  0.21446745592E+03  0.90262062122E+02 0.  0.
         11    1    3    3    0    0  0.90385046584E+02  0.29642969987E+02 -0.74665867579E+02  0.12092623411E+03  0.00000000000E+00 0. -1.
        -12    1    3    3    0    0 -0.87327913799E+01 -0.10839035738E+02  0.39829797319E+01  0.14477930396E+02  0.00000000000E+00 0.  1.
        -11    1    4    4    0    0 -0.11422368667E+03  0.59760687005E+02  0.12884051988E+03  0.18225879916E+03  0.00000000000E+00 0.  1.
         11    1    4    4    0    0 -0.16467210954E+02 -0.25354939955E+02  0.11106554542E+02  0.32208656763E+02  0.00000000000E+00 0. -1.
         -3    1    1    2    0  502  0.49038642424E+02 -0.53209681299E+02  0.31126423199E+02  0.78771269229E+02  0.00000000000E+00 0.  1.
<scales pt_clust_5="13000.00000" pt_clust_6="13000.00000" pt_clust_7="13000.00000" pt_clust_8="13000.00000" pt_clust_9="72.36062"></scales>
<clustering>
<clus scale="   72.361">  1  9  2 -1</clus>
<clus scale="   79.483">  5  6 -1 -1</clus>
<clus scale="   90.262">  7  8 -1 -1</clus>
<clus scale="  119.961">  2  5  1 -1</clus>
<clus scale="   72.361">  1  5  2 -1</clus>
</clustering>
</event>
<event>
 9    1  0.6345107E-005  0.1208703E+03  0.7546771E-02  0.1244979E+00
         21   -1    0    0  501  502  0.00000000000E+00  0.00000000000E+00  0.21668118948E+03  0.21668118948E+03  0.00000000000E+00 0. -1.
          1   -1    0    0  502    0 -0.00000000000E+00 -0.00000000000E+00 -0.31726651426E+03  0.31726651426E+03  0.00000000000E+00 0. -1.
         23    2    1    2    0    0  0.21363427825E+02 -0.77330542917E+02 -0.27264273948E+03  0.29834820620E+03  0.90780944241E+02 0.  0.
        -24    2    1    2    0    0 -0.57555886662E+02  0.60316766255E+02  0.15169820932E+03  0.19072344695E+03  0.80076801409E+02 0.  0.
         13    1    4    4    0    0 -0.58399861954E+02  0.34234071906E+01  0.82491158213E+02  0.10112890179E+03  0.00000000000E+00 0. -1.
        -14    1    4    4    0    0  0.84397529203E+00  0.56893359065E+02  0.69207051107E+02  0.89594545163E+02  0.00000000000E+00 0.  1.
        -13    1    3    3    0    0 -0.12936034873E+02 -0.68420702844E+02 -0.24093628785E+03  0.25079678702E+03  0.00000000000E+00 0. -1.
         13    1    3    3    0    0  0.34299462698E+02 -0.89098400725E+01 -0.31706451631E+02  0.47551419185E+02  0.00000000000E+00 0.  1.
          2    1    1    2  501    0  0.36192458837E+02  0.17013776661E+02  0.20359205372E+02  0.44876050588E+02  0.00000000000E+00 0. -1.
<scales pt_clust_5="13000.00000" pt_clust_6="13000.00000" pt_clust_7="13000.00000" pt_clust_8="13000.00000" pt_clust_9="39.99203"></scales>
<clustering>
<clus scale="   39.992">  1  9  2 -1</clus>
<clus scale="   80.077">  5  6 -1 -1</clus>
<clus scale="   90.781">  7  8 -1 -1</clus>
<clus scale="  113.052">  1  5  2 -1</clus>
<clus scale="   39.992">  1  5  2 -1</clus>
</clustering>
</event>
<event>
 9    1  0.6345107E-005  0.1478705E+03  0.7546771E-02  0.1205409E+00
          1   -1    0    0  502    0 -0.00000000000E+00  0.00000000000E+00  0.33327652538E+03  0.33327652538E+03  0.00000000000E+00 0. -1.
         21   -1    0    0  501  502  0.00000000000E+00 -0.00000000000E+00 -0.11520594183E+03  0.11520594183E+03  0.00000000000E+00 0. -1.
         23    2    1    2    0    0 -0.11295415676E+03  0.11009159770E+02  0.19235326724E+03  0.24191986724E+03  0.92981716593E+02 0.  0.
        -24    2    1    2    0    0  0.11734266330E+03 -0.31967557784E+02 -0.27882870536E+02  0.14884350896E+03  0.81152389428E+02 0.  0.
         13    1    4    4    0    0  0.11330424036E+03 -0.50081540923E+02 -0.12077133601E+02  0.12446633593E+03  0.00000000000E+00 0. -1.
        -14    1    4    4    0    0  0.40384229452E+01  0.18113983138E+02 -0.15805736936E+02  0.24377173033E+02  0.00000000000E+00 0.  1.
        -13    1    3    3    0    0 -0.57103140966E+02 -0.40662535277E+02  0.82035599046E+02  0.10790759933E+03  0.00000000000E+00 0. -1.
         13    1    3    3    0    0 -0.55851015798E+02  0.51671695046E+02  0.11031766819E+03  0.13401226791E+03  0.00000000000E+00 0.  1.
          2    1    1    2  501    0 -0.43885065372E+01  0.20958398015E+02  0.53600186846E+02  0.57719091009E+02  0.00000000000E+00 0. -1.
<scales pt_clust_5="13000.00000" pt_clust_6="13000.00000" pt_clust_7="13000.00000" pt_clust_8="13000.00000" pt_clust_9="21.41294"></scales>
<clustering>
<clus scale="   21.413">  2  9  1 -1</clus>
<clus scale="   81.152">  5  6 -1 -1</clus>
<clus scale="   92.982">  7  8 -1 -1</clus>
<clus scale="  140.733">  2  5  1 -1</clus>
<clus scale="   21.413">  2  5  1 -1</clus>
</clustering>
</event>
<event>
 9    1  0.6345107E-005  0.2037048E+03  0.7546771E-02  0.1147533E+00
         21   -1    0    0  501  502  0.00000000000E+00  0.00000000000E+00  0.66419236226E+02  0.66419236226E+02  0.00000000000E+00 0. -1.
          1   -1    0    0  502    0 -0.00000000000E+00 -0.00000000000E+00 -0.98845311218E+03  0.98845311218E+03  0.00000000000E+00 0. -1.
        -24    2    1    2    0    0  0.75089951424E+02 -0.18519861158E+03 -0.46704076642E+03  0.51430529988E+03  0.80285972912E+02 0.  0.
         23    2    1    2    0    0 -0.41318404976E+01  0.16201883058E+03 -0.19121380296E+03  0.26642861939E+03  0.90301258126E+02 0.  0.
         13    1    3    3    0    0  0.81902753270E+02 -0.13570761330E+03 -0.29167270691E+03  0.33196021638E+03  0.00000000000E+00 0. -1.
        -14    1    3    3    0    0 -0.68128018467E+01 -0.49490998278E+02 -0.17536805951E+03  0.18234508350E+03  0.00000000000E+00 0.  1.
        -13    1    4    4    0    0 -0.10245265370E+02  0.71814292902E+02 -0.24125970163E+02  0.76448156052E+02  0.00000000000E+00 0.  1.
         13    1    4    4    0    0  0.61134248720E+01  0.90204537683E+02 -0.16708783280E+03  0.18998046334E+03  0.00000000000E+00 0. -1.
          2    1    1    2  501    0 -0.70958110926E+02  0.23179780995E+02 -0.26377930657E+03  0.27413842913E+03  0.00000000000E+00 0. -1.
<scales pt_clust_5="13000.00000" pt_clust_6="13000.00000" pt_clust_7="13000.00000" pt_clust_8="13000.00000" pt_clust_9="74.64825"></scales>
<clustering>
<clus scale="   74.648">  1  9  2 -1</clus>
<clus scale="   80.286">  5  6 -1 -1</clus>
<clus scale="   90.301">  7  8 -1 -1</clus>
<clus scale="  199.467">  2  5  1 -1</clus>
<clus scale="   74.648">  1  5  2 -1</clus>
</clustering>
</event>
<event>
 9    1  0.6712919E-005  0.1175275E+03  0.7546771E-02  0.1250509E+00
         21   -1    0    0  501  502  0.00000000000E+00  0.00000000000E+00  0.21119459806E+03  0.21119459806E+03  0.00000000000E+00 0. -1.
          3   -1    0    0  502    0 -0.00000000000E+00 -0.00000000000E+00 -0.14872532896E+03  0.14872532896E+03  0.00000000000E+00 0. -1.
         23    2    1    2    0    0  0.44975905685E+02 -0.56907236809E+02 -0.53227541791E+02  0.12789992562E+03  0.90906292820E+02 0.  0.
        -24    2    1    2    0    0 -0.38204353946E+02  0.75739439067E+02  0.15113492781E+03  0.19132152618E+03  0.81031627685E+02 0.  0.
         11    1    4    4    0    0 -0.59544156260E+02  0.67013282538E+02  0.13864101119E+03  0.16509880849E+03  0.00000000000E+00 0. -1.
        -12    1    4    4    0    0  0.21339802314E+02  0.87261565289E+01  0.12493916620E+02  0.26222717691E+02  0.00000000000E+00 0.  1.
        -11    1    3    3    0    0 -0.17320647103E+01  0.21800066066E+02 -0.22449148324E+02  0.31340184893E+02  0.00000000000E+00 0.  1.
         11    1    3    3    0    0  0.46707970395E+02 -0.78707302875E+02 -0.30778393467E+02  0.96559740724E+02  0.00000000000E+00 0. -1.
          4    1    1    2  501    0 -0.67715517388E+01 -0.18832202258E+02 -0.35438116913E+02  0.40698475219E+02  0.00000000000E+00 0. -1.
<scales pt_clust_5="13000.00000" pt_clust_6="13000.00000" pt_clust_7="13000.00000" pt_clust_8="13000.00000" pt_clust_9="20.01265"></scales>
<clustering>
<clus scale="   20.013">  1  9  2 -1</clus>
<clus scale="   81.032">  5  6 -1 -1</clus>
<clus scale="   90.906">  7  8 -1 -1</clus>
<clus scale="  110.068">  1  5  2 -1</clus>
<clus scale="   20.013">  1  5  2 -1</clus>
</clustering>
</event>
<event>
 9    1  0.6345107E-005  0.9444599E+02  0.7546771E-02  0.1296584E+00
          1   -1    0    0  502    0 -0.00000000000E+00  0.00000000000E+00  0.22981937919E+03  0.22981937919E+03  0.00000000000E+00 0. -1.
         21   -1    0    0  501  502  0.00000000000E+00 -0.00000000000E+00 -0.94907947144E+02  0.94907947144E+02  0.00000000000E+00 0.  1.
         23    2    1    2    0    0 -0.18476874679E+02  0.31075531101E+02  0.13298844822E+03  0.16361839181E+03  0.88192784550E+02 0.  0.
        -24    2    1    2    0    0 -0.41569423602E+02 -0.41512625223E+02 -0.42569044201E+01  0.99849797329E+02  0.80625962071E+02 0.  0.
         11    1    4    4    0    0  0.10352397506E+02 -0.29739229046E+02  0.23984240660E+02  0.39583300499E+02  0.00000000000E+00 0. -1.
        -12    1    4    4    0    0 -0.51921821108E+02 -0.11773396176E+02 -0.28241145080E+02  0.60266496830E+02  0.00000000000E+00 0.  1.
        -13    1    3    3    0    0  0.24317996715E+02  0.32127664603E+02  0.10501842167E+03  0.11248297954E+03  0.00000000000E+00 0.  1.
         13    1    3    3    0    0 -0.42794871393E+02 -0.10521335016E+01  0.27970026558E+02  0.51135412271E+02  0.00000000000E+00 0. -1.
          2    1    1    2  501    0  0.60046298280E+02  0.10437094122E+02  0.61798882411E+01  0.61259137192E+02  0.00000000000E+00 0. -1.
<scales pt_clust_5="13000.00000" pt_clust_6="13000.00000" pt_clust_7="13000.00000" pt_clust_8="13000.00000" pt_clust_9="60.94662"></scales>
<clustering>
<clus scale="   60.947">  2  9  1 -1</clus>
<clus scale="   80.626">  5  6 -1 -1</clus>
<clus scale="   87.422">  2  5  1 -1</clus>
<clus scale="   88.193">  7  8 -1 -1</clus>
<clus scale="   60.947">  2  5  1 -1</clus>
</clustering>
</event>
<event>
 9    1  0.6345107E-005  0.9388470E+02  0.7546771E-02  0.1305540E+00
         -2   -1    0    0    0  501 -0.00000000000E+00  0.00000000000E+00  0.18845242715E+03  0.18845242715E+03  0.00000000000E+00 0.  1.
         21   -1    0    0  501  502  0.00000000000E+00 -0.00000000000E+00 -0.33763326284E+03  0.33763326284E+03  0.00000000000E+00 0.  1.
        -24    2    1    2    0    0  0.23154609532E+02 -0.13810517139E+01  0.13810136430E+03  0.15685336071E+03  0.70660786155E+02 0.  0.
         23    2    1    2    0    0 -0.48946235016E+02  0.19834366735E+02 -0.28101956938E+02  0.10811907574E+03  0.90060416000E+02 0.  0.
         13    1    3    3    0    0 -0.25446143237E+02 -0.35102033374E+01  0.45417796323E+02  0.52178577558E+02  0.00000000000E+00 0. -1.
        -14    1    3    3    0    0  0.48600752769E+02  0.21291516235E+01  0.92683567974E+02  0.10467478316E+03  0.00000000000E+00 0.  1.
        -11    1    4    4    0    0 -0.91090904107E+00  0.35015298473E+02  0.18395227660E+02  0.39563686419E+02  0.00000000000E+00 0.  1.
         11    1    4    4    0    0 -0.48035325975E+02 -0.15180931738E+02 -0.46497184598E+02  0.68555389325E+02  0.00000000000E+00 0. -1.
         -1    1    1    2    0  502  0.25791625484E+02 -0.18453315021E+02 -0.25918024306E+03  0.26111325353E+03  0.00000000000E+00 0.  1.
<scales pt_clust_5="13000.00000" pt_clust_6="13000.00000" pt_clust_7="13000.00000" pt_clust_8="13000.00000" pt_clust_9="31.71329"></scales>
<clustering>
<clus scale="   31.713">  2  9  1 -1</clus>
<clus scale="   70.661">  5  6 -1 -1</clus>
<clus scale="   75.475">  1  5  2 -1</clus>
<clus scale="   90.060">  7  8 -1 -1</clus>
<clus scale="   31.713">  2  5  1 -1</clus>
</clustering>
</event>
<event>
 9    1  0.6345107E-005  0.8795410E+02  0.7546771E-02  0.1310500E+00
         -2   -1    0    0    0  501 -0.00000000000E+00  0.00000000000E+00  0.10072539279E+03  0.10072539279E+03  0.00000000000E+00 0.  1.
         21   -1    0    0  501  502  0.00000000000E+00 -0.00000000000E+00 -0.20698397593E+03  0.20698397593E+03  0.00000000000E+00 0. -1.
        -24    2    1    2    0    0 -0.40169509194E+02 -0.53467807710E+01  0.35146740809E+02  0.98188829402E+02  0.82240958751E+02 0.  0.
         23    2    1    2    0    0 -0.52841341263E+01 -0.37002987580E+02 -0.11016583814E+03  0.13998319652E+03  0.77856536347E+02 0.  0.
         13    1    3    3    0    0 -0.20550349346E+02 -0.43869518263E+02  0.19205990293E+02  0.52112585371E+02  0.00000000000E+00 0. -1.
        -14    1    3    3    0    0 -0.19619159848E+02  0.38522737492E+02  0.15940750516E+02  0.46076244031E+02  0.00000000000E+00 0.  1.
        -13    1    4    4    0    0 -0.23385856903E+02 -0.51510054013E+02 -0.99486668176E+02  0.11444553776E+03  0.00000000000E+00 0. -1.
         13    1    4    4    0    0  0.18101722777E+02  0.14507066434E+02 -0.10679169959E+02  0.25537658761E+02  0.00000000000E+00 0.  1.
         -1    1    1    2    0  502  0.45453643320E+02  0.42349768351E+02 -0.31239485817E+02  0.69537342806E+02  0.00000000000E+00 0.  1.
<scales pt_clust_5="13000.00000" pt_clust_6="13000.00000" pt_clust_7="13000.00000" pt_clust_8="13000.00000" pt_clust_9="62.12517"></scales>
<clustering>
<clus scale="   62.125">  2  9  1 -1</clus>
<clus scale="   77.857">  7  8 -1 -1</clus>
<clus scale="   82.241">  5  6 -1 -1</clus>
<clus scale="   83.869">  2  7  1 -1</clus>
<clus scale="   62.125">  2  5  1 -1</clus>
</clustering>
</event>
<event>
 9    1  0.6345107E-005  0.9871990E+02  0.7546771E-02  0.1288735E+00
         21   -1    0    0  501  502  0.00000000000E+00  0.00000000000E+00  0.26799372165E+03  0.26799372165E+03  0.00000000000E+00 0.  1.
          3   -1    0    0  502    0 -0.00000000000E+00 -0.00000000000E+00 -0.18747490861E+03  0.18747490861E+03  0.00000000000E+00 0. -1.
         23    2    1    2    0    0 -0.24344438327E+02 -0.29657301338E+02 -0.13122288488E+03  0.16496999711E+03  0.92322517458E+02 0.  0.
        -24    2    1    2    0    0  0.39385350087E+02 -0.68048379997E+01  0.17619516519E+02  0.92409920836E+02  0.81434848099E+02 0.  0.
         11    1    4    4    0    0  0.32349848677E+02  0.13494648456E+02 -0.26096832352E+02  0.43699689989E+02  0.00000000000E+00 0. -1.
        -12    1    4    4    0    0  0.70355014105E+01 -0.20299486455E+02  0.43716348872E+02  0.48710230847E+02  0.00000000000E+00 0.  1.
        -11    1    3    3    0    0 -0.16115409213E+02 -0.62302931600E+02 -0.10081593276E+03  0.11960440627E+03  0.00000000000E+00 0. -1.
         11    1    3    3    0    0 -0.82290291140E+01  0.32645630262E+02 -0.30406952123E+02  0.45365590845E+02  0.00000000000E+00 0.  1.
          4    1    1    2  501    0 -0.15040911760E+02  0.36462139338E+02  0.19412218141E+03  0.19808871231E+03  0.00000000000E+00 0. -1.
<scales pt_clust_5="13000.00000" pt_clust_6="13000.00000" pt_clust_7="13000.00000" pt_clust_8="13000.00000" pt_clust_9="39.44257"></scales>
<clustering>
<clus scale="   39.443">  1  9  2 -1</clus>
<clus scale="   81.435">  5  6 -1 -1</clus>
<clus scale="   88.622">  1  5  2 -1</clus>
<clus scale="   92.323">  7  8 -1 -1</clus>
<clus scale="   39.443">  1  5  2 -1</clus>
</clustering>
</event>
<event>
 9    1  0.6345107E-005  0.9448112E+02  0.7546771E-02  0.1296734E+00
          1   -1    0    0  502    0 -0.00000000000E+00  0.00000000000E+00  0.30353637995E+03  0.30353637995E+03  0.00000000000E+00 0. -1.
         21   -1    0    0  501  502  0.00000000000E+00 -0.00000000000E+00 -0.61890997339E+02  0.61890997339E+02  0.00000000000E+00 0.  1.
         23    2    1    2    0    0  0.15077847186E+02  0.31453409910E+02  0.19309215073E+03  0.21586367923E+03  0.89977168567E+02 0.  0.
        -24    2    1    2    0    0 -0.22480524051E+02 -0.76444599419E+01  0.74606802330E+02  0.11350188646E+03  0.82174762219E+02 0.  0.
         13    1    4    4    0    0 -0.25397873233E+02 -0.42719264896E+02  0.36743060399E+02  0.61806472521E+02  0.00000000000E+00 0. -1.
        -14    1    4    4    0    0  0.29173491821E+01  0.35074804955E+02  0.37863741931E+02  0.51695413935E+02  0.00000000000E+00 0.  1.
        -13    1    3    3    0    0 -0.24657110801E+02  0.16346868280E+02  0.15798568424E+03  0.16073166969E+03  0.00000000000E+00 0. -1.
         13    1    3    3    0    0  0.39734957987E+02  0.15106541630E+02  0.35106466496E+02  0.55132009541E+02  0.00000000000E+00 0.  1.
          2    1    1    2  501    0  0.74026768650E+01 -0.23808949969E+02 -0.26053570450E+02  0.36061811609E+02  0.00000000000E+00 0. -1.
<scales pt_clust_5="13000.00000" pt_clust_6="13000.00000" pt_clust_7="13000.00000" pt_clust_8="13000.00000" pt_clust_9="24.93323"></scales>
<clustering>
<clus scale="   24.933">  2  9  1 -1</clus>
<clus scale="   82.175">  5  6 -1 -1</clus>
<clus scale="   87.083">  2  5  1 -1</clus>
<clus scale="   89.977">  7  8 -1 -1</clus>
<clus scale="   24.933">  2  5  1 -1</clus>
</clustering>
</event>
<event>
 9    1  0.6345107E-005  0.1631173E+03  0.7546771E-02  0.1186201E+00
          1   -1    0    0  502    0 -0.00000000000E+00  0.00000000000E+00  0.23502681080E+03  0.23502681080E+03  0.00000000000E+00 0. -1.
         21   -1    0    0  501  502  0.00000000000E+00 -0.00000000000E+00 -0.19710099902E+03  0.19710099902E+03  0.00000000000E+00 0.  1.
         23    2    1    2    0    0 -0.32606856545E+02  0.13953286820E+03  0.11894432103E+03  0.20832899693E+03  0.93384104925E+02 0.  0.
        -24    2    1    2    0    0  0.47093565355E+01 -0.11795976816E+03 -0.13123328069E+02  0.14729113497E+03  0.87096336077E+02 0.  0.
         13    1    4    4    0    0 -0.13540726325E+02 -0.76619422557E+02  0.31352632349E+02  0.83886081906E+02  0.00000000000E+00 0. -1.
        -14    1    4    4    0    0  0.18250082860E+02 -0.41340345598E+02 -0.44475960418E+02  0.63405053061E+02  0.00000000000E+00 0.  1.
        -11    1    3    3    0    0 -0.52890388150E+02  0.42909385007E+02  0.71654085947E+02  0.98858062459E+02  0.00000000000E+00 0.  1.
         11    1    3    3    0    0  0.20283531604E+02  0.96623483195E+02  0.47290235088E+02  0.10947093447E+03  0.00000000000E+00 0. -1.
          2    1    1    2  501    0  0.27897500010E+02 -0.21573100047E+02 -0.67895181192E+02  0.76507677925E+02  0.00000000000E+00 0. -1.
<scales pt_clust_5="13000.00000" pt_clust_6="13000.00000" pt_clust_7="13000.00000" pt_clust_8="13000.00000" pt_clust_9="35.26569"></scales>
<clustering>
<clus scale="   35.266">  2  9  1 -1</clus>
<clus scale="   87.096">  5  6 -1 -1</clus>
<clus scale="   93.384">  7  8 -1 -1</clus>
<clus scale="  159.601">  2  5  1 -1</clus>
<clus scale="   35.266">  2  5  1 -1</clus>
</clustering>
</event>
<event>
 9    1  0.6345107E-005  0.3371198E+03  0.7546771E-02  0.1120612E+00
         21   -1    0    0  501  502  0.00000000000E+00  0.00000000000E+00  0.21858149366E+03  0.21858149366E+03  0.00000000000E+00 0. -1.
          1   -1    0    0  502    0 -0.00000000000E+00 -0.00000000000E+00 -0.82568379183E+03  0.82568379183E+03  0.00000000000E+00 0. -1.
        -24    2    1    2    0    0  0.82407850183E+01  0.24377937623E+02 -0.25424670227E+03  0.26802808117E+03  0.80842268029E+02 0.  0.
         23    2    1    2    0    0  0.10789014792E+03 -0.31963964849E+03 -0.28627298648E+03  0.45204726715E+03  0.92653764321E+02 0.  0.
         13    1    3    3    0    0  0.12810688754E+02  0.18236066480E+02 -0.11348236372E+02  0.25009005094E+02  0.00000000000E+00 0. -1.
        -14    1    3    3    0    0 -0.45699037357E+01  0.61418711428E+01 -0.24289846590E+03  0.24301907608E+03  0.00000000000E+00 0.  1.
        -11    1    4    4    0    0  0.24164375926E+01 -0.13610160121E+03 -0.13620077917E+03  0.19256203486E+03  0.00000000000E+00 0.  1.
         11    1    4    4    0    0  0.10547371033E+03 -0.18353804728E+03 -0.15007220731E+03  0.25948523229E+03  0.00000000000E+00 0. -1.
          2    1    1    2  501    0 -0.11613093294E+03  0.29526171087E+03 -0.66582609425E+02  0.32418993718E+03  0.00000000000E+00 0. -1.
<scales pt_clust_5="13000.00000" pt_clust_6="13000.00000" pt_clust_7="13000.00000" pt_clust_8="13000.00000" pt_clust_9="324.13738"></scales>
<clustering>
<clus scale="   80.842">  5  6 -1 -1</clus>
<clus scale="   84.839">  2  5  1 -1</clus>
<clus scale="   92.654">  7  8 -1 -1</clus>
<clus scale="  324.137">  1  9  2 -1</clus>
<clus scale="  324.137">  1  5  2 -1</clus>
</clustering>
</event>
<event>
 9    1  0.6345107E-005  0.2286316E+03  0.7546771E-02  0.1162757E+00
          1   -1    0    0  502    0 -0.00000000000E+00  0.00000000000E+00  0.22243525671E+03  0.22243525671E+03  0.00000000000E+00 0. -1.
         21   -1    0    0  501  502  0.00000000000E+00 -0.00000000000E+00 -0.52450392008E+03  0.52450392008E+03  0.00000000000E+00 0. -1.
        -24    2    1    2    0    0 -0.22450133096E+02 -0.51682078056E+02  0.50089787186E+02  0.11066396815E+03  0.81009143919E+02 0.  0.
         23    2    1    2    0    0  0.18580338230E+03 -0.92904129103E+02 -0.35075598132E+03  0.41812062528E+03  0.92957112555E+02 0.  0.
         11    1    3    3    0    0  0.26649957300E+02 -0.24131353653E+01  0.25286619954E+02  0.36816526114E+02  0.00000000000E+00 0. -1.
        -12    1    3    3    0    0 -0.49100090396E+02 -0.49268942691E+02  0.24803167232E+02  0.73847442038E+02  0.00000000000E+00 0.  1.
        -11    1    4    4    0    0  0.10454848691E+03 -0.24224178177E+02 -0.10416861187E+03  0.14956034442E+03  0.00000000000E+00 0. -1.
         11    1    4    4    0    0  0.81254895382E+02 -0.68679950925E+02 -0.24658736945E+03  0.26856028085E+03  0.00000000000E+00 0.  1.
          2    1    1    2  501    0 -0.16335324920E+03  0.14458620716E+03 -0.14024692368E+01  0.21815458337E+03  0.00000000000E+00 0. -1.
<scales pt_clust_5="13000.00000" pt_clust_6="13000.00000" pt_clust_7="13000.00000" pt_clust_8="13000.00000" pt_clust_9="208.88140"></scales>
<clustering>
<clus scale="   81.009">  5  6 -1 -1</clus>
<clus scale="   92.957">  7  8 -1 -1</clus>
<clus scale="   98.679">  1  5  2 -1</clus>
<clus scale="  208.881">  2  9  1 -1</clus>
<clus scale="  208.881">  2  5  1 -1</clus>
</clustering>
</event>
<event>
 9    1  0.6345107E-005  0.3707817E+03  0.7546771E-02  0.1100633E+00
          1   -1    0    0  502    0 -0.00000000000E+00  0.00000000000E+00  0.69287280919E+03  0.69287280919E+03  0.00000000000E+00 0. -1.
         21   -1    0    0  501  502  0.00000000000E+00 -0.00000000000E+00 -0.29718096778E+03  0.29718096778E+03  0.00000000000E+00 0. -1.
        -24    2    1    2    0    0 -0.32479492481E+02 -0.60232562579E+02 -0.18532428642E+02  0.10762286999E+03  0.80971304842E+02 0.  0.
         23    2    1    2    0    0 -0.56160178063E+02  0.39162897277E+03  0.34442935125E+03  0.53235676830E+03  0.90801612553E+02 0.  0.
         13    1    3    3    0    0 -0.48221460340E+02 -0.33628320281E+02 -0.38999376471E+02  0.70548738666E+02  0.00000000000E+00 0. -1.
        -14    1    3    3    0    0  0.15741967859E+02 -0.26604242297E+02  0.20466947829E+02  0.37074131328E+02  0.00000000000E+00 0.  1.
        -13    1    4    4    0    0 -0.72344437116E+02  0.33070422481E+03  0.31640889660E+03  0.46337197988E+03  0.00000000000E+00 0. -1.
         13    1    4    4    0    0  0.16184259053E+02  0.60924747956E+02  0.28020454646E+02  0.68984788419E+02  0.00000000000E+00 0.  1.
          2    1    1    2  501    0  0.88639670544E+02 -0.33139641019E+03  0.69794918804E+02  0.35007413868E+03  0.00000000000E+00 0. -1.
<scales pt_clust_5="13000.00000" pt_clust_6="13000.00000" pt_clust_7="13000.00000" pt_clust_8="13000.00000" pt_clust_9="359.49149"></scales>
<clustering>
<clus scale="   80.971">  5  6 -1 -1</clus>
<clus scale="   90.802">  7  8 -1 -1</clus>
<clus scale="  106.015">  1  5  2 -1</clus>
<clus scale="  359.491">  2  9  1 -1</clus>
<clus scale="  359.491">  2  5  1 -1</clus>
</clustering>
</event>
<event>
 9    1  0.6345107E-005  0.2829618E+03  0.7546771E-02  0.1094082E+00
         21   -1    0    0  501  502  0.00000000000E+00  0.00000000000E+00  0.18459127835E+03  0.18459127835E+03  0.00000000000E+00 0. -1.
          1   -1    0    0  502    0 -0.00000000000E+00 -0.00000000000E+00 -0.34418639678E+03  0.34418639678E+03  0.00000000000E+00 0. -1.
        -24    2    1    2    0    0  0.11674754018E+03  0.66991980487E+02 -0.35446545839E+02  0.16107746400E+03  0.81065271296E+02 0.  0.
         23    2    1    2    0    0  0.76258418546E+02  0.39666999542E+02 -0.41006119675E+02  0.13203072732E+03  0.91442844745E+02 0.  0.
         11    1    3    3    0    0  0.91266091386E+02  0.37848037637E+02 -0.59658241459E+02  0.11541697953E+03  0.00000000000E+00 0. -1.
        -12    1    3    3    0    0  0.25481448790E+02  0.29143942850E+02  0.24211695621E+02  0.45660484470E+02  0.00000000000E+00 0.  1.
        -11    1    4    4    0    0  0.35665330341E+02 -0.39975356856E+01  0.24501744015E+02  0.43454936885E+02  0.00000000000E+00 0. -1.
         11    1    4    4    0    0  0.40593088205E+02  0.43664535227E+02 -0.65507863690E+02  0.88575790439E+02  0.00000000000E+00 0.  1.
          2    1    1    2  501    0 -0.19300595872E+03 -0.10665898003E+03 -0.83142452910E+02  0.23566948381E+03  0.00000000000E+00 0. -1.
<scales pt_clust_5="13000.00000" pt_clust_6="13000.00000" pt_clust_7="13000.00000" pt_clust_8="13000.00000" pt_clust_9="220.51641"></scales>
<clustering>
<clus scale="   81.065">  5  6 -1 -1</clus>
<clus scale="   91.443">  7  8 -1 -1</clus>
<clus scale="   92.059">  5  7 -1 -1</clus>
<clus scale="  220.516">  1  9  2 -1</clus>
<clus scale="  220.516">  1  5  2 -1</clus>
</clustering>
</event>
<event>
 9    1  0.6345107E-005  0.1436737E+03  0.7546771E-02  0.1223346E+00
          1   -1    0    0  502    0 -0.00000000000E+00  0.00000000000E+00  0.18201658989E+03  0.18201658989E+03  0.00000000000E+00 0. -1.
         21   -1    0    0  501  502  0.00000000000E+00 -0.00000000000E+00 -0.19654391427E+03  0.19654391427E+03  0.00000000000E+00 0. -1.
         23    2    1    2    0    0 -0.52376429306E+02 -0.68183070561E+01 -0.25865482207E+02  0.10804318964E+03  0.90634033345E+02 0.  0.
        -24    2    1    2    0    0 -0.50415193672E+01 -0.10845528388E+03  0.34309432758E+02  0.13970255591E+03  0.80942581084E+02 0.  0.
         13    1    4    4    0    0  0.25862479163E+02 -0.50989070446E+02  0.46041967801E+02  0.73407192647E+02  0.00000000000E+00 0. -1.
        -14    1    4    4    0    0 -0.30903998530E+02 -0.57466213433E+02 -0.11732535042E+02  0.66295363262E+02  0.00000000000E+00 0.  1.
        -11    1    3    3    0    0 -0.78229216542E+02 -0.32832893104E+00 -0.18454257406E+02  0.80377097093E+02  0.00000000000E+00 0. -1.
         11    1    3    3    0    0  0.25852787236E+02 -0.64899781250E+01 -0.74112248004E+01  0.27666092550E+02  0.00000000000E+00 0.  1.
          2    1    1    2  501    0  0.57417948673E+02  0.11527359094E+03 -0.22971274932E+02  0.13081475861E+03  0.00000000000E+00 0. -1.
<scales pt_clust_5="13000.00000" pt_clust_6="13000.00000" pt_clust_7="13000.00000" pt_clust_8="13000.00000" pt_clust_9="118.70317"></scales>
<clustering>
<clus scale="   80.943">  5  6 -1 -1</clus>
<clus scale="   90.634">  7  8 -1 -1</clus>
<clus scale="  104.901">  1  7  2 -1</clus>
<clus scale="  118.703">  2  9  1 -1</clus>
<clus scale="  118.703">  2  5  1 -1</clus>
</clustering>
</event>
<event>
 9    1  0.6760862E-005  0.9805687E+02  0.7546771E-02  0.1287683E+00
          1   -1    0    0  502    0 -0.00000000000E+00  0.00000000000E+00  0.58470514522E+02  0.58470514522E+02  0.00000000000E+00 0. -1.
         21   -1    0    0  501  502  0.00000000000E+00 -0.00000000000E+00 -0.48060793368E+03  0.48060793368E+03  0.00000000000E+00 0.  1.
         23    2    1    2    0    0  0.30239428358E+02 -0.20390337348E+02 -0.64159471587E+02  0.11373972327E+03  0.86545352102E+02 0.  0.
        -24    2    1    2    0    0 -0.72322210773E+02  0.46151340647E+02 -0.35724897115E+03  0.37599177697E+03  0.79890803900E+02 0.  0.
         13    1    4    4    0    0 -0.20131005046E+02  0.11373920460E+02 -0.13935389041E+02  0.26996638652E+02  0.00000000000E+00 0. -1.
        -14    1    4    4    0    0 -0.52191205726E+02  0.34777420188E+02 -0.34331358211E+03  0.34899513832E+03  0.00000000000E+00 0.  1.
        -13    1    3    3    0    0  0.81200877370E+01  0.32411809477E+02 -0.98642289427E+01  0.34839119263E+02  0.00000000000E+00 0.  1.
         13    1    3    3    0    0  0.22119340621E+02 -0.52802146824E+02 -0.54295242644E+02  0.78900604006E+02  0.00000000000E+00 0. -1.
          2    1    1    2  501    0  0.42082782414E+02 -0.25761003300E+02 -0.72897642354E+00  0.49346947964E+02  0.00000000000E+00 0. -1.
<scales pt_clust_5="13000.00000" pt_clust_6="13000.00000" pt_clust_7="13000.00000" pt_clust_8="13000.00000" pt_clust_9="49.34159"></scales>
<clustering>
<clus scale="   49.342">  2  9  1 -1</clus>
<clus scale="   79.891">  5  6 -1 -1</clus>
<clus scale="   86.545">  7  8 -1 -1</clus>
<clus scale="   92.237">  2  5  1 -1</clus>
<clus scale="   49.342">  2  5  1 -1</clus>
</clustering>
</event>
<event>
 9    1  0.6345107E-005  0.9567833E+02  0.7546771E-02  0.1291091E+00
         -2   -1    0    0    0  501 -0.00000000000E+00  0.00000000000E+00  0.15534139491E+03  0.15534139491E+03  0.00000000000E+00 0.  1.
         21   -1    0    0  501  502  0.00000000000E+00 -0.00000000000E+00 -0.25869254965E+03  0.25869254965E+03  0.00000000000E+00 0. -1.
        -24    2    1    2    0    0  0.41331766462E+02 -0.89651319669E+01  0.11658395753E+03  0.14866236842E+03  0.81975558068E+02 0.  0.
         23    2    1    2    0    0 -0.61083197469E+02 -0.27300832569E+01 -0.10511577279E+03  0.14828025364E+03  0.84847495916E+02 0.  0.
         11    1    3    3    0    0 -0.13813276928E+02  0.22606101846E+02  0.20636385421E+02  0.33581287399E+02  0.00000000000E+00 0. -1.
        -12    1    3    3    0    0  0.55145043390E+02 -0.31571233813E+02  0.95947572109E+02  0.11508108102E+03  0.00000000000E+00 0.  1.
        -11    1    4    4    0    0  0.19087422598E+02 -0.88931013019E+01 -0.38418521318E+02  0.43810954481E+02  0.00000000000E+00 0.  1.
         11    1    4    4    0    0 -0.80170620067E+02  0.61630180449E+01 -0.66697251470E+02  0.10446929916E+03  0.00000000000E+00 0. -1.
         -1    1    1    2    0  502  0.19751431007E+02  0.11695215224E+02 -0.11481933949E+03  0.11709132250E+03  0.00000000000E+00 0.  1.
<scales pt_clust_5="13000.00000" pt_clust_6="13000.00000" pt_clust_7="13000.00000" pt_clust_8="13000.00000" pt_clust_9="22.95424"></scales>
<clustering>
<clus scale="   22.954">  2  9  1 -1</clus>
<clus scale="   81.976">  5  6 -1 -1</clus>
<clus scale="   84.847">  7  8 -1 -1</clus>
<clus scale="   93.141">  1  5  2 -1</clus>
<clus scale="   22.954">  2  5  1 -1</clus>
</clustering>
</event>
<event>
 9    1  0.6345107E-005  0.1931736E+03  0.7546771E-02  0.1156224E+00
         21   -1    0    0  501  502  0.00000000000E+00  0.00000000000E+00  0.69827545648E+02  0.69827545648E+02  0.00000000000E+00 0.  1.
          3   -1    0    0  502    0 -0.00000000000E+00 -0.00000000000E+00 -0.11581409117E+04  0.11581409117E+04  0.00000000000E+00 0. -1.
         23    2    1    2    0    0 -0.13305462899E+03  0.15771761166E+03 -0.37110105720E+03  0.43338336270E+03  0.86756931045E+02 0.  0.
        -24    2    1    2    0    0  0.83729310999E+02 -0.10353559077E+03 -0.12996423594E+03  0.20278362665E+03  0.80624317287E+02 0.  0.
         13    1    4    4    0    0  0.20346281020E+02 -0.99997187728E+01 -0.72619789697E+02  0.76076273453E+02  0.00000000000E+00 0. -1.
        -14    1    4    4    0    0  0.63383029980E+02 -0.93535871998E+02 -0.57344446243E+02  0.12670735320E+03  0.00000000000E+00 0.  1.
        -11    1    3    3    0    0 -0.85149356731E+02  0.35721261811E+02 -0.16685952416E+03  0.19070532845E+03  0.00000000000E+00 0. -1.
         11    1    3    3    0    0 -0.47905272263E+02  0.12199634985E+03 -0.20424153304E+03  0.24267803425E+03  0.00000000000E+00 0.  1.
          4    1    1    2  501    0  0.49325317995E+02 -0.54182020892E+02 -0.58724807289E+03  0.59180146798E+03  0.00000000000E+00 0. -1.
<scales pt_clust_5="13000.00000" pt_clust_6="13000.00000" pt_clust_7="13000.00000" pt_clust_8="13000.00000" pt_clust_9="73.27130"></scales>
<clustering>
<clus scale="   73.271">  1  9  2 -1</clus>
<clus scale="   80.624">  5  6 -1 -1</clus>
<clus scale="   86.757">  7  8 -1 -1</clus>
<clus scale="  190.498">  1  5  2 -1</clus>
<clus scale="   73.271">  1  5  2 -1</clus>
</clustering>
</event>
<event>
 9    1  0.6345107E-005  0.2135352E+03  0.7546771E-02  0.1172199E+00
         21   -1    0    0  501  502  0.00000000000E+00  0.00000000000E+00  0.15717343757E+03  0.15717343757E+03  0.00000000000E+00 0. -1.
          1   -1    0    0  502    0 -0.00000000000E+00 -0.00000000000E+00 -0.56372064436E+03  0.56372064436E+03  0.00000000000E+00 0. -1.
        -24    2    1    2    0    0 -0.41797649497E+02  0.35414019293E+02 -0.27083269709E+03  0.28784874348E+03  0.80655768831E+02 0.  0.
         23    2    1    2    0    0 -0.97825573075E+02 -0.17055496851E+03 -0.82145302524E+02  0.23148298980E+03  0.90430546886E+02 0.  0.
         11    1    3    3    0    0 -0.56805738850E+02 -0.22451929465E+01 -0.16483803977E+03  0.17436602941E+03  0.00000000000E+00 0. -1.
        -12    1    3    3    0    0  0.15008089353E+02  0.37659212239E+02 -0.10599465732E+03  0.11348271407E+03  0.00000000000E+00 0.  1.
        -13    1    4    4    0    0  0.30251040906E+01 -0.72336332965E+02 -0.93530045053E+01  0.73001198722E+02  0.00000000000E+00 0.  1.
         13    1    4    4    0    0 -0.10085067717E+03 -0.98218635541E+02 -0.72792298019E+02  0.15848179108E+03  0.00000000000E+00 0. -1.
          2    1    1    2  501    0  0.13962322257E+03  0.13514094921E+03 -0.53569207184E+02  0.20156234865E+03  0.00000000000E+00 0. -1.
<scales pt_clust_5="13000.00000" pt_clust_6="13000.00000" pt_clust_7="13000.00000" pt_clust_8="13000.00000" pt_clust_9="193.44141"></scales>
<clustering>
<clus scale="   80.656">  5  6 -1 -1</clus>
<clus scale="   90.431">  7  8 -1 -1</clus>
<clus scale="   97.502">  2  5  1 -1</clus>
<clus scale="  193.441">  1  9  2 -1</clus>
<clus scale="  193.441">  1  5  2 -1</clus>
</clustering>
</event>
<event>
 9    1  0.6345107E-005  0.9366371E+02  0.7546771E-02  0.1301050E+00
         21   -1    0    0  501  502  0.00000000000E+00  0.00000000000E+00  0.58427039157E+03  0.58427039157E+03  0.00000000000E+00 0.  1.
         -2   -1    0    0    0  501 -0.00000000000E+00 -0.00000000000E+00 -0.21681817680E+02  0.21681817680E+02  0.00000000000E+00 0.  1.
        -24    2    1    2    0    0  0.28471148674E+02 -0.14460497644E+02  0.14898813749E+03  0.17179202213E+03  0.79343061794E+02 0.  0.
         23    2    1    2    0    0  0.40062228804E+01  0.10127189935E+02  0.35902449481E+03  0.37050415348E+03  0.90863249302E+02 0.  0.
         13    1    3    3    0    0  0.73153243532E+01 -0.44593763301E+02  0.10575699201E+03  0.11500721306E+03  0.00000000000E+00 0. -1.
        -14    1    3    3    0    0  0.21155824321E+02  0.30133265657E+02  0.43231145481E+02  0.56784809073E+02  0.00000000000E+00 0.  1.
        -13    1    4    4    0    0  0.32038888058E+02 -0.28410321785E+02  0.14235520325E+03  0.14865611532E+03  0.00000000000E+00 0.  1.
         13    1    4    4    0    0 -0.28032665177E+02  0.38537511719E+02  0.21666929157E+03  0.22184803816E+03  0.00000000000E+00 0. -1.
         -1    1    1    2    0  502 -0.32477371554E+02  0.43333077090E+01  0.54575941584E+02  0.63656033638E+02  0.00000000000E+00 0.  1.
<scales pt_clust_5="13000.00000" pt_clust_6="13000.00000" pt_clust_7="13000.00000" pt_clust_8="13000.00000" pt_clust_9="32.76520"></scales>
<clustering>
<clus scale="   32.765">  1  9  2 -1</clus>
<clus scale="   79.343">  5  6 -1 -1</clus>
<clus scale="   82.535">  2  5  1 -1</clus>
<clus scale="   90.863">  7  8 -1 -1</clus>
<clus scale="   32.765">  1  5  2 -1</clus>
</clustering>
</event>
<event>
 9    1  0.6345107E-005  0.1466371E+03  0.7546771E-02  0.1206232E+00
          1   -1    0    0  502    0 -0.00000000000E+00  0.00000000000E+00  0.10400004399E+04  0.10400004399E+04  0.00000000000E+00 0. -1.
         21   -1    0    0  501  502  0.00000000000E+00 -0.00000000000E+00 -0.30730463333E+02  0.30730463333E+02  0.00000000000E+00 0. -1.
        -24    2    1    2    0    0 -0.75476679913E+02  0.74159111700E+02  0.48163180614E+03  0.49927164358E+03  0.78145213147E+02 0.  0.
         23    2    1    2    0    0  0.93797120392E+02 -0.98223681927E+02  0.51330207525E+03  0.53798888912E+03  0.86644289369E+02 0.  0.
         13    1    3    3    0    0  0.92720718182E+01  0.33821111257E+02  0.91037037402E+02  0.97558090702E+02  0.00000000000E+00 0. -1.
        -14    1    3    3    0    0 -0.84748751731E+02  0.40338000442E+02  0.39059476874E+03  0.40171355287E+03  0.00000000000E+00 0.  1.
        -11    1    4    4    0    0  0.36594786844E+02 -0.74946224031E+02  0.40332679453E+03  0.41185994962E+03  0.00000000000E+00 0.  1.
         11    1    4    4    0    0  0.57202333548E+02 -0.23277457896E+02  0.10997528072E+03  0.12612893950E+03  0.00000000000E+00 0. -1.
          2    1    1    2  501    0 -0.18320440480E+02  0.24064570227E+02  0.14336095208E+02  0.33470370560E+02  0.00000000000E+00 0. -1.
<scales pt_clust_5="13000.00000" pt_clust_6="13000.00000" pt_clust_7="13000.00000" pt_clust_8="13000.00000" pt_clust_9="30.24470"></scales>
<clustering>
<clus scale="   30.245">  2  9  1 -1</clus>
<clus scale="   78.145">  5  6 -1 -1</clus>
<clus scale="   86.644">  7  8 -1 -1</clus>
<clus scale="  141.781">  1  5  2 -1</clus>
<clus scale="   30.245">  2  5  1 -1</clus>
</clustering>
</event>
<event>
 9    1  0.6345107E-005  0.1127550E+03  0.7546771E-02  0.1261731E+00
         21   -1    0    0  501  502  0.00000000000E+00  0.00000000000E+00  0.13385014831E+03  0.13385014831E+03  0.00000000000E+00 0. -1.
         -2   -1    0    0    0  501 -0.00000000000E+00 -0.00000000000E+00 -0.11377406471E+03  0.11377406471E+03  0.00000000000E+00 0.  1.
         23    2    1    2    0    0 -0.53705689172E+02 -0.56913889146E+02 -0.20840620423E+02  0.12207212867E+03  0.91344300930E+02 0.  0.
        -24    2    1    2    0    0  0.35507236078E+02  0.35452630444E+02  0.35898888597E+02  0.96969785770E+02  0.74811471918E+02 0.  0.
         11    1    4    4    0    0  0.39171232978E+02  0.25816617186E+02  0.56797324263E+02  0.73666948216E+02  0.00000000000E+00 0. -1.
        -12    1    4    4    0    0 -0.36639968998E+01  0.96360132578E+01 -0.20898435666E+02  0.23302837554E+02  0.00000000000E+00 0.  1.
        -11    1    3    3    0    0 -0.75698285618E+02 -0.41094478288E+02  0.27092043533E+01  0.86176135788E+02  0.00000000000E+00 0.  1.
         11    1    3    3    0    0  0.21992596445E+02 -0.15819410858E+02 -0.23549824776E+02  0.35895992886E+02  0.00000000000E+00 0. -1.
         -1    1    1    2    0  502  0.18198453094E+02  0.21461258702E+02  0.50178154234E+01  0.28582298573E+02  0.00000000000E+00 0.  1.
<scales pt_clust_5="13000.00000" pt_clust_6="13000.00000" pt_clust_7="13000.00000" pt_clust_8="13000.00000" pt_clust_9="28.13840"></scales>
<clustering>
<clus scale="   28.138">  1  9  2 -1</clus>
<clus scale="   74.811">  5  6 -1 -1</clus>
<clus scale="   91.344">  7  8 -1 -1</clus>
<clus scale="   99.833">  1  5  2 -1</clus>
<clus scale="   28.138">  1  5  2 -1</clus>
</clustering>
</event>
<event>
 9    1  0.6345107E-005  0.1681576E+03  0.7546771E-02  0.1198965E+00
         21   -1    0    0  501  502  0.00000000000E+00  0.00000000000E+00  0.14904067195E+04  0.14904067195E+04  0.00000000000E+00 0.  1.
         -2   -1    0    0    0  501 -0.00000000000E+00 -0.00000000000E+00 -0.32462324363E+02  0.32462324363E+02  0.00000000000E+00 0.  1.
         23    2    1    2    0    0 -0.60902457530E+02 -0.52935165845E+01  0.47161226799E+03  0.48427368301E+03  0.91464408873E+02 0.  0.
        -24    2    1    2    0    0  0.17076351375E+03  0.38828211091E+02  0.76878760622E+03  0.79258795041E+03  0.80582057829E+02 0.  0.
         11    1    4    4    0    0  0.64368734134E+02 -0.68819496121E+01  0.15504687915E+03  0.16801854034E+03  0.00000000000E+00 0. -1.
        -12    1    4    4    0    0  0.10639477961E+03  0.45710160703E+02  0.61374072708E+03  0.62456941007E+03  0.00000000000E+00 0.  1.
        -13    1    3    3    0    0  0.13857551294E+02  0.19570106512E+02  0.51128705072E+02  0.56472694987E+02  0.00000000000E+00 0. -1.
         13    1    3    3    0    0 -0.74760008824E+02 -0.24863623096E+02  0.42048356292E+03  0.42780098803E+03  0.00000000000E+00 0.  1.
         -1    1    1    2    0  502 -0.10986105622E+03 -0.33534694506E+02  0.21754452094E+03  0.24600741046E+03  0.00000000000E+00 0.  1.
<scales pt_clust_5="13000.00000" pt_clust_6="13000.00000" pt_clust_7="13000.00000" pt_clust_8="13000.00000" pt_clust_9="147.59246"></scales>
<clustering>
<clus scale="   80.582">  5  6 -1 -1</clus>
<clus scale="   91.464">  7  8 -1 -1</clus>
<clus scale="  110.013">  2  7  1 -1</clus>
<clus scale="  147.592">  1  9  2 -1</clus>
<clus scale="  147.592">  1  5  2 -1</clus>
</clustering>
</event>
<event>
 9    1  0.6345107E-005  0.1596633E+03  0.7546771E-02  0.1207753E+00
          1   -1    0    0  502    0 -0.00000000000E+00  0.00000000000E+00  0.64625717460E+03  0.64625717460E+03  0.00000000000E+00 0. -1.
         21   -1    0    0  501  502  0.00000000000E+00 -0.00000000000E+00 -0.71128886131E+02  0.71128886131E+02  0.00000000000E+00 0. -1.
         23    2    1    2    0    0 -0.60437812039E+02  0.48267987909E+01  0.78717089089E+02  0.13227702696E+03  0.87320127332E+02 0.  0.
        -24    2    1    2    0    0 -0.30803828739E+02 -0.12427467019E+03  0.31953045720E+03  0.35298917691E+03  0.78157382396E+02 0.  0.
         13    1    4    4    0    0 -0.33642359381E+02 -0.10082949081E+03  0.30965598069E+03  0.32739154072E+03  0.00000000000E+00 0. -1.
        -14    1    4    4    0    0  0.28385306414E+01 -0.23445179375E+02  0.98744765181E+01  0.25597636192E+02  0.00000000000E+00 0.  1.
        -13    1    3    3    0    0 -0.39334950574E+02  0.61764524299E+00 -0.10324592044E+02  0.40672066866E+02  0.00000000000E+00 0. -1.
         13    1    3    3    0    0 -0.21102861464E+02  0.42091535479E+01  0.89041681132E+02  0.91604960097E+02  0.00000000000E+00 0.  1.
          2    1    1    2  501    0  0.91241640778E+02  0.11944787139E+03  0.17688074217E+03  0.23211985685E+03  0.00000000000E+00 0. -1.
<scales pt_clust_5="13000.00000" pt_clust_6="13000.00000" pt_clust_7="13000.00000" pt_clust_8="13000.00000" pt_clust_9="139.22575"></scales>
<clustering>
<clus scale="   78.157">  5  6 -1 -1</clus>
<clus scale="   87.320">  7  8 -1 -1</clus>
<clus scale="  106.305">  1  7  2 -1</clus>
<clus scale="  139.226">  2  9  1 -1</clus>
<clus scale="  139.226">  2  5  1 -1</clus>
</clustering>
</event>
<event>
 9    1  0.6345107E-005  0.9449249E+02  0.7546771E-02  0.1296517E+00
         -2   -1    0    0    0  501 -0.00000000000E+00  0.00000000000E+00  0.12409250573E+03  0.12409250573E+03  0.00000000000E+00 0.  1.
         21   -1    0    0  501  502  0.00000000000E+00 -0.00000000000E+00 -0.19892115975E+03  0.19892115975E+03  0.00000000000E+00 0.  1.
        -24    2    1    2    0    0  0.83993298294E+01  0.19122505634E+02  0.21893121271E+02  0.89145757384E+02  0.83853672176E+02 0.  0.
         23    2    1    2    0    0  0.70137231544E+02 -0.37979300402E+02 -0.93469792782E+02  0.15303384614E+03  0.91220049297E+02 0.  0.
         13    1    3    3    0    0 -0.10940128166E+02 -0.19705158052E+02  0.36905948521E+02  0.43243828396E+02  0.00000000000E+00 0. -1.
        -14    1    3    3    0    0  0.19339457995E+02  0.38827663685E+02 -0.15012827250E+02  0.45901928988E+02  0.00000000000E+00 0.  1.
        -11    1    4    4    0    0  0.38668283195E+02 -0.55808504889E+02 -0.95075299058E+02  0.11682952467E+03  0.00000000000E+00 0.  1.
         11    1    4    4    0    0  0.31468948348E+02  0.17829204487E+02  0.16055062758E+01  0.36204321471E+02  0.00000000000E+00 0. -1.
         -1    1    1    2    0  502 -0.78536561373E+02  0.18856794768E+02 -0.32519825087E+01  0.80834061951E+02  0.00000000000E+00 0.  1.
<scales pt_clust_5="13000.00000" pt_clust_6="13000.00000" pt_clust_7="13000.00000" pt_clust_8="13000.00000" pt_clust_9="80.76866"></scales>
<clustering>
<clus scale="   80.769">  2  9  1 -1</clus>
<clus scale="   83.854">  5  6 -1 -1</clus>
<clus scale="   87.402">  1  5  2 -1</clus>
<clus scale="   91.220">  7  8 -1 -1</clus>
<clus scale="   80.769">  2  5  1 -1</clus>
</clustering>
</event>
<event>
 9    1  0.6345107E-005  0.2061065E+03  0.7546771E-02  0.1145597E+00
         21   -1    0    0  501  502  0.00000000000E+00  0.00000000000E+00  0.87388679145E+02  0.87388679145E+02  0.00000000000E+00 0.  1.
          1   -1    0    0  502    0 -0.00000000000E+00 -0.00000000000E+00 -0.83511423054E+03  0.83511423054E+03  0.00000000000E+00 0. -1.
         23    2    1    2    0    0  0.14771425714E+03  0.11062632366E+03 -0.63266592295E+03  0.66524553389E+03  0.90707028733E+02 0.  0.
        -24    2    1    2    0    0 -0.16424124229E+03 -0.92398396224E+02 -0.96142842361E+02  0.22622121345E+03  0.80124540445E+02 0.  0.
         11    1    4    4    0    0 -0.31527415084E+02  0.13413816219E+02 -0.89966941336E+01  0.35423846103E+02  0.00000000000E+00 0. -1.
        -12    1    4    4    0    0 -0.13271382721E+03 -0.10581221244E+03 -0.87146148227E+02  0.19079736734E+03  0.00000000000E+00 0.  1.
        -13    1    3    3    0    0  0.67271714386E+02  0.43297125892E+02 -0.13741109814E+03  0.15900293884E+03  0.00000000000E+00 0. -1.
         13    1    3    3    0    0  0.80442542751E+02  0.67329197771E+02 -0.49525482481E+03  0.50624259506E+03  0.00000000000E+00 0.  1.
          2    1    1    2  501    0  0.16526985156E+02 -0.18227927440E+02 -0.18916786091E+02  0.31036162345E+02  0.00000000000E+00 0. -1.
<scales pt_clust_5="13000.00000" pt_clust_6="13000.00000" pt_clust_7="13000.00000" pt_clust_8="13000.00000" pt_clust_9="24.60485"></scales>
<clustering>
<clus scale="   24.605">  1  9  2 -1</clus>
<clus scale="   80.125">  5  6 -1 -1</clus>
<clus scale="   90.707">  7  8 -1 -1</clus>
<clus scale="  201.673">  1  5  2 -1</clus>
<clus scale="   24.605">  1  5  2 -1</clus>
</clustering>
</event>
<event>
 9    1  0.6345107E-005  0.1572658E+03  0.7546771E-02  0.1193441E+00
         21   -1    0    0  501  502  0.00000000000E+00  0.00000000000E+00  0.13502078871E+03  0.13502078871E+03  0.00000000000E+00 0.  1.
          3   -1    0    0  502    0 -0.00000000000E+00 -0.00000000000E+00 -0.23521142740E+03  0.23521142740E+03  0.00000000000E+00 0. -1.
        -24    2    1    2    0    0 -0.13805496642E+03 -0.17271939974E+02 -0.11068319284E+03  0.19391926482E+03  0.77436544533E+02 0.  0.
         23    2    1    2    0    0  0.11150784938E+03  0.31691100852E+02  0.41873472445E+01  0.14545169310E+03  0.87751551561E+02 0.  0.
         13    1    3    3    0    0 -0.90562403471E+02  0.22893119688E+02 -0.45788655293E+02  0.10403001877E+03  0.00000000000E+00 0. -1.
        -14    1    3    3    0    0 -0.47492562947E+02 -0.40165059662E+02 -0.64894537542E+02  0.89889246052E+02  0.00000000000E+00 0.  1.
        -13    1    4    4    0    0  0.14317794066E+02  0.20862079887E+02 -0.32338957477E+02  0.41061341610E+02  0.00000000000E+00 0. -1.
         13    1    4    4    0    0  0.97190055314E+02  0.10829020966E+02  0.36526304722E+02  0.10439035149E+03  0.00000000000E+00 0.  1.
          4    1    1    2  501    0  0.26547117039E+02 -0.14419160878E+02  0.63052069021E+01  0.30861258198E+02  0.00000000000E+00 0. -1.
<scales pt_clust_5="13000.00000" pt_clust_6="13000.00000" pt_clust_7="13000.00000" pt_clust_8="13000.00000" pt_clust_9="30.21029"></scales>
<clustering>
<clus scale="   30.210">  1  9  2 -1</clus>
<clus scale="   77.437">  5  6 -1 -1</clus>
<clus scale="   87.752">  7  8 -1 -1</clus>
<clus scale="  151.752">  2  5  1 -1</clus>
<clus scale="   30.210">  1  5  2 -1</clus>
</clustering>
</event>
<event>
 9    1  0.6345107E-005  0.1716561E+03  0.7546771E-02  0.1178564E+00
          1   -1    0    0  502    0 -0.00000000000E+00  0.00000000000E+00  0.77716668722E+03  0.77716668722E+03  0.00000000000E+00 0. -1.
         21   -1    0    0  501  502  0.00000000000E+00 -0.00000000000E+00 -0.59174681550E+02  0.59174681550E+02  0.00000000000E+00 0.  1.
         23    2    1    2    0    0  0.14790179545E+03  0.44351772874E+02  0.45606666614E+03  0.49047832448E+03  0.93435335769E+02 0.  0.
        -24    2    1    2    0    0 -0.12535670882E+03 -0.42272062011E+02  0.27879012107E+03  0.31763137794E+03  0.75263065123E+02 0.  0.
         13    1    4    4    0    0 -0.75295749721E+02  0.48737324842E+01  0.19590830608E+03  0.20993634175E+03  0.00000000000E+00 0. -1.
        -14    1    4    4    0    0 -0.50060959102E+02 -0.47145794495E+02  0.82881814994E+02  0.10769503620E+03  0.00000000000E+00 0.  1.
        -13    1    3    3    0    0  0.31143499069E+02 -0.22461402479E+02  0.52235069883E+02  0.64830044434E+02  0.00000000000E+00 0.  1.
         13    1    3    3    0    0  0.11675829638E+03  0.66813175353E+02  0.40383159625E+03  0.42564828005E+03  0.00000000000E+00 0. -1.
          2    1    1    2  501    0 -0.22545086630E+02 -0.20797108630E+01 -0.16864781539E+02  0.28231666348E+02  0.00000000000E+00 0. -1.
<scales pt_clust_5="13000.00000" pt_clust_6="13000.00000" pt_clust_7="13000.00000" pt_clust_8="13000.00000" pt_clust_9="22.64081"></scales>
<clustering>
<clus scale="   22.641">  2  9  1 -1</clus>
<clus scale="   75.263">  5  6 -1 -1</clus>
<clus scale="   93.435">  7  8 -1 -1</clus>
<clus scale="  162.481">  2  5  1 -1</clus>
<clus scale="   22.641">  2  5  1 -1</clus>
</clustering>
</event>
<event>
 9    1  0.6345107E-005  0.1396731E+03  0.7546771E-02  0.1216900E+00
          1   -1    0    0  502    0 -0.00000000000E+00  0.00000000000E+00  0.74073446489E+03  0.74073446489E+03  0.00000000000E+00 0. -1.
         21   -1    0    0  501  502  0.00000000000E+00 -0.00000000000E+00 -0.37129466263E+02  0.37129466263E+02  0.00000000000E+00 0.  1.
        -24    2    1    2    0    0 -0.10835353107E+03  0.32170165875E+02  0.51080517411E+03  0.52921196310E+03  0.79799553397E+02 0.  0.
         23    2    1    2    0    0  0.77726865310E+02 -0.19168083434E+02  0.14361827449E+03  0.18927291732E+03  0.93750453065E+02 0.  0.
         11    1    3    3    0    0 -0.28558077086E+02  0.31853008245E+02  0.76612177464E+02  0.87747385357E+02  0.00000000000E+00 0. -1.
        -12    1    3    3    0    0 -0.79795453980E+02  0.31715762948E+00  0.43419299664E+03  0.44146457774E+03  0.00000000000E+00 0.  1.
        -11    1    4    4    0    0  0.53101833500E+02 -0.40067008499E+02  0.14214584559E+03  0.15694142636E+03  0.00000000000E+00 0. -1.
         11    1    4    4    0    0  0.24625031810E+02  0.20898925065E+02  0.14724289007E+01  0.32331490956E+02  0.00000000000E+00 0.  1.
          2    1    1    2  501    0  0.30626665756E+02 -0.13002082440E+02  0.49181550035E+02  0.59379050742E+02  0.00000000000E+00 0. -1.
<scales pt_clust_5="13000.00000" pt_clust_6="13000.00000" pt_clust_7="13000.00000" pt_clust_8="13000.00000" pt_clust_9="33.27231"></scales>
<clustering>
<clus scale="   33.272">  2  9  1 -1</clus>
<clus scale="   79.800">  5  6 -1 -1</clus>
<clus scale="   93.750">  7  8 -1 -1</clus>
<clus scale="  130.719">  1  5  2 -1</clus>
<clus scale="   33.272">  2  5  1 -1</clus>
</clustering>
</event>
<event>
 9    1  0.6345107E-005  0.2020021E+03  0.7546771E-02  0.1149780E+00
         -4   -1    0    0    0  501 -0.00000000000E+00  0.00000000000E+00  0.16812451195E+03  0.16812451195E+03  0.00000000000E+00 0.  1.
         21   -1    0    0  501  502  0.00000000000E+00 -0.00000000000E+00 -0.34554686769E+03  0.34554686769E+03  0.00000000000E+00 0.  1.
        -24    2    1    2    0    0  0.55597795300E-01  0.17474836307E+03 -0.33460736896E+02  0.19218418973E+03  0.72650866361E+02 0.  0.
         23    2    1    2    0    0 -0.24998669730E+02 -0.18939714228E+03 -0.17796233539E+03  0.27684648769E+03  0.92071569657E+02 0.  0.
         11    1    3    3    0    0  0.33324998822E+02  0.50336606073E+02 -0.13558010833E+02  0.61872038233E+02  0.00000000000E+00 0. -1.
        -12    1    3    3    0    0 -0.33269401027E+02  0.12441175699E+03 -0.19902726063E+02  0.13031215150E+03  0.00000000000E+00 0.  1.
        -13    1    4    4    0    0 -0.28442218815E+02 -0.16520977515E+03 -0.10012396261E+03  0.19526402000E+03  0.00000000000E+00 0.  1.
         13    1    4    4    0    0  0.34435490846E+01 -0.24187367126E+02 -0.77838372771E+02  0.81582467690E+02  0.00000000000E+00 0. -1.
         -3    1    1    2    0  502  0.24943071935E+02  0.14648779211E+02  0.34000716542E+02  0.44640702226E+02  0.00000000000E+00 0.  1.
<scales pt_clust_5="13000.00000" pt_clust_6="13000.00000" pt_clust_7="13000.00000" pt_clust_8="13000.00000" pt_clust_9="28.92653"></scales>
<clustering>
<clus scale="   28.927">  2  9  1 -1</clus>
<clus scale="   72.651">  5  6 -1 -1</clus>
<clus scale="   92.072">  7  8 -1 -1</clus>
<clus scale="  193.922">  1  5  2 -1</clus>
<clus scale="   28.927">  2  5  1 -1</clus>
</clustering>
</event>
<event>
 9    1  0.6345107E-005  0.2045860E+03  0.7546771E-02  0.1173152E+00
         21   -1    0    0  501  502  0.00000000000E+00  0.00000000000E+00  0.57617211616E+03  0.57617211616E+03  0.00000000000E+00 0. -1.
          1   -1    0    0  502    0 -0.00000000000E+00 -0.00000000000E+00 -0.15971646876E+03  0.15971646876E+03  0.00000000000E+00 0. -1.
        -24    2    1    2    0    0  0.53051370034E+02  0.53465463367E+02 -0.49079736580E+02  0.11907039208E+03  0.78076463115E+02 0.  0.
         23    2    1    2    0    0  0.69785581184E+02  0.13714525632E+03  0.21560590875E+03  0.27934803767E+03  0.88716230702E+02 0.  0.
         11    1    3    3    0    0  0.66777356317E+02  0.62136639405E+02 -0.47265972514E+02  0.10273387674E+03  0.00000000000E+00 0. -1.
        -12    1    3    3    0    0 -0.13725986283E+02 -0.86711760381E+01 -0.18137640656E+01  0.16336515338E+02  0.00000000000E+00 0.  1.
        -13    1    4    4    0    0  0.33797920811E+02  0.42128959713E+02  0.17617590683E+02  0.56811338650E+02  0.00000000000E+00 0.  1.
         13    1    4    4    0    0  0.35987660372E+02  0.95016296604E+02  0.19798831807E+03  0.22253669902E+03  0.00000000000E+00 0. -1.
          2    1    1    2  501    0 -0.12283695122E+03 -0.19061071968E+03  0.24992947523E+03  0.33747015517E+03  0.00000000000E+00 0. -1.
<scales pt_clust_5="13000.00000" pt_clust_6="13000.00000" pt_clust_7="13000.00000" pt_clust_8="13000.00000" pt_clust_9="184.34987"></scales>
<clustering>
<clus scale="   78.076">  5  6 -1 -1</clus>
<clus scale="   88.716">  7  8 -1 -1</clus>
<clus scale="  108.485">  2  5  1 -1</clus>
<clus scale="  184.350">  1  9  2 -1</clus>
<clus scale="  184.350">  1  5  2 -1</clus>
</clustering>
</event>
<event>
 9    1  0.6345107E-005  0.1247522E+03  0.7546771E-02  0.1239690E+00
         21   -1    0    0  501  502  0.00000000000E+00  0.00000000000E+00  0.22946589074E+03  0.22946589074E+03  0.00000000000E+00 0.  1.
         -2   -1    0    0    0  501 -0.00000000000E+00 -0.00000000000E+00 -0.18823506942E+03  0.18823506942E+03  0.00000000000E+00 0.  1.
         23    2    1    2    0    0  0.19850680756E+01  0.65455349778E+02 -0.54744049655E+02  0.12845855475E+03  0.96001802099E+02 0.  0.
        -24    2    1    2    0    0 -0.86691244945E+02 -0.86291375689E+02 -0.14979729136E+02  0.14810346796E+03  0.82150298048E+02 0.  0.
         13    1    4    4    0    0  0.14363962474E+02 -0.25352888974E+02 -0.60378775490E+01  0.29758164637E+02  0.00000000000E+00 0. -1.
        -14    1    4    4    0    0 -0.10105520742E+03 -0.60938486715E+02 -0.89418515872E+01  0.11834530333E+03  0.00000000000E+00 0.  1.
        -11    1    3    3    0    0  0.12969964034E+02  0.18196803614E+02  0.25984692259E+02  0.34271677237E+02  0.00000000000E+00 0. -1.
         11    1    3    3    0    0 -0.10984895959E+02  0.47258546165E+02 -0.80728741915E+02  0.94186877514E+02  0.00000000000E+00 0.  1.
         -1    1    1    2    0  502  0.84706176869E+02  0.20836025911E+02  0.11095460012E+03  0.14113893745E+03  0.00000000000E+00 0.  1.
<scales pt_clust_5="13000.00000" pt_clust_6="13000.00000" pt_clust_7="13000.00000" pt_clust_8="13000.00000" pt_clust_9="87.23117"></scales>
<clustering>
<clus scale="   82.150">  5  6 -1 -1</clus>
<clus scale="   87.231">  1  9  2 -1</clus>
<clus scale="   96.002">  7  8 -1 -1</clus>
<clus scale="  114.435">  1  5  2 -1</clus>
<clus scale="   87.231">  1  5  2 -1</clus>
</clustering>
</event>
<event>
 9    1  0.6345107E-005  0.1406670E+03  0.7546771E-02  0.1216290E+00
         21   -1    0    0  501  502  0.00000000000E+00  0.00000000000E+00  0.25447306128E+03  0.25447306128E+03  0.00000000000E+00 0.  1.
         -2   -1    0    0    0  501 -0.00000000000E+00 -0.00000000000E+00 -0.25228673158E+03  0.25228673158E+03  0.00000000000E+00 0.  1.
         23    2    1    2    0    0  0.10516904370E+03 -0.17894113464E+02 -0.20344201854E+03  0.24956588872E+03  0.97538458328E+02 0.  0.
        -24    2    1    2    0    0 -0.71347494162E+02 -0.66214784765E+01  0.11707535553E+03  0.15928300598E+03  0.80809208764E+02 0.  0.
         13    1    4    4    0    0 -0.68358889146E+02 -0.11508622936E+02  0.36197611345E+02  0.78202641862E+02  0.00000000000E+00 0. -1.
        -14    1    4    4    0    0 -0.29886050167E+01  0.48871444598E+01  0.80877744189E+02  0.81080364121E+02  0.00000000000E+00 0.  1.
        -13    1    3    3    0    0  0.22206116178E+02  0.11540109090E+02  0.29362999800E+01  0.25197372306E+02  0.00000000000E+00 0. -1.
         13    1    3    3    0    0  0.82962927522E+02 -0.29434222554E+02 -0.20637831852E+03  0.22436851641E+03  0.00000000000E+00 0.  1.
         -1    1    1    2    0  502 -0.33821549538E+02  0.24515591941E+02  0.88552992711E+02  0.97910898164E+02  0.00000000000E+00 0.  1.
<scales pt_clust_5="13000.00000" pt_clust_6="13000.00000" pt_clust_7="13000.00000" pt_clust_8="13000.00000" pt_clust_9="41.77214"></scales>
<clustering>
<clus scale="   41.772">  1  9  2 -1</clus>
<clus scale="   80.809">  5  6 -1 -1</clus>
<clus scale="   97.538">  7  8 -1 -1</clus>
<clus scale="  129.629">  1  5  2 -1</clus>
<clus scale="   41.772">  1  5  2 -1</clus>
</clustering>
</event>
<event>
 9    1  0.6345107E-005  0.9262017E+02  0.7546771E-02  0.1303534E+00
         -2   -1    0    0    0  501 -0.00000000000E+00  0.00000000000E+00  0.96751530769E+02  0.96751530769E+02  0.00000000000E+00 0.  1.
         21   -1    0    0  501  502  0.00000000000E+00 -0.00000000000E+00 -0.37673062548E+03  0.37673062548E+03  0.00000000000E+00 0.  1.
         23    2    1    2    0    0 -0.13187828185E+02  0.17224871389E+01  0.54878813158E+02  0.10756195730E+03  0.91547827665E+02 0.  0.
        -24    2    1    2    0    0  0.24766092765E+02  0.25612040205E+02 -0.32163410473E+03  0.33342248264E+03  0.80328815838E+02 0.  0.
         11    1    4    4    0    0 -0.75852259572E+01 -0.25846428268E+02 -0.89831697494E+02  0.93783300122E+02  0.00000000000E+00 0. -1.
        -12    1    4    4    0    0  0.32351318722E+02  0.51458468473E+02 -0.23180240723E+03  0.23963918252E+03  0.00000000000E+00 0.  1.
        -11    1    3    3    0    0  0.25164343011E+02 -0.30841984740E+02  0.36473384502E+02  0.53988702141E+02  0.00000000000E+00 0.  1.
         11    1    3    3    0    0 -0.38352171196E+02  0.32564471879E+02  0.18405428656E+02  0.53573255158E+02  0.00000000000E+00 0. -1.
         -1    1    1    2    0  502 -0.11578264580E+02 -0.27334527344E+02 -0.13223803149E+02  0.32497716312E+02  0.00000000000E+00 0.  1.
<scales pt_clust_5="13000.00000" pt_clust_6="13000.00000" pt_clust_7="13000.00000" pt_clust_8="13000.00000" pt_clust_9="29.68558"></scales>
<clustering>
<clus scale="   29.686">  2  9  1 -1</clus>
<clus scale="   80.329">  5  6 -1 -1</clus>
<clus scale="   81.549">  2  5  1 -1</clus>
<clus scale="   91.548">  7  8 -1 -1</clus>
<clus scale="   29.686">  2  5  1 -1</clus>
</clustering>
</event>
<event>
 9    1  0.6345107E-005  0.1098862E+03  0.7546771E-02  0.1264549E+00
         21   -1    0    0  501  502  0.00000000000E+00  0.00000000000E+00  0.38992628138E+03  0.38992628138E+03  0.00000000000E+00 0. -1.
         -2   -1    0    0    0  501 -0.00000000000E+00 -0.00000000000E+00 -0.52534996733E+02  0.52534996733E+02  0.00000000000E+00 0.  1.
        -24    2    1    2    0    0  0.10721586839E+02 -0.60442773946E+02  0.35898219504E+02  0.10718330598E+03  0.80195371256E+02 0.  0.
         23    2    1    2    0    0 -0.37753136806E+02  0.63327708878E+02  0.26799230805E+03  0.29213485832E+03  0.89928862017E+02 0.  0.
         11    1    3    3    0    0 -0.31791728892E+02 -0.44647514272E+02  0.26444241200E+02  0.60855668999E+02  0.00000000000E+00 0. -1.
        -12    1    3    3    0    0  0.42513315731E+02 -0.15795259673E+02  0.94539783039E+01  0.46327636982E+02  0.00000000000E+00 0.  1.
        -11    1    4    4    0    0  0.15165744783E+02  0.57920489798E+02  0.17556018823E+03  0.18548898254E+03  0.00000000000E+00 0.  1.
         11    1    4    4    0    0 -0.52918881589E+02  0.54072190796E+01  0.92432119821E+02  0.10664587578E+03  0.00000000000E+00 0. -1.
         -1    1    1    2    0  502  0.27031549967E+02 -0.28849349320E+01  0.33500757094E+02  0.43143113808E+02  0.00000000000E+00 0.  1.
<scales pt_clust_5="13000.00000" pt_clust_6="13000.00000" pt_clust_7="13000.00000" pt_clust_8="13000.00000" pt_clust_9="27.18506"></scales>
<clustering>
<clus scale="   27.185">  1  9  2 -1</clus>
<clus scale="   80.195">  5  6 -1 -1</clus>
<clus scale="   89.929">  7  8 -1 -1</clus>
<clus scale="  102.074">  2  5  1 -1</clus>
<clus scale="   27.185">  1  5  2 -1</clus>
</clustering>
</event>
<event>
 9    1  0.6345107E-005  0.1045575E+03  0.7546771E-02  0.1276258E+00
         21   -1    0    0  501  502  0.00000000000E+00  0.00000000000E+00  0.76977641865E+02  0.76977641865E+02  0.00000000000E+00 0.  1.
         -2   -1    0    0    0  501 -0.00000000000E+00 -0.00000000000E+00 -0.20957764186E+03  0.20957764186E+03  0.00000000000E+00 0.  1.
        -24    2    1    2    0    0  0.24636358942E+02 -0.21756027403E+02 -0.51004890911E+02  0.10126906779E+03  0.81078050570E+02 0.  0.
         23    2    1    2    0    0 -0.50987861468E+02  0.55434676196E+02 -0.40710817288E+02  0.12612391049E+03  0.92612660102E+02 0.  0.
         11    1    3    3    0    0  0.39638281007E+02  0.16003405351E+02 -0.41422051880E+02  0.59523849724E+02  0.00000000000E+00 0. -1.
        -12    1    3    3    0    0 -0.15001922065E+02 -0.37759432755E+02 -0.95828390310E+01  0.41745218067E+02  0.00000000000E+00 0.  1.
        -11    1    4    4    0    0 -0.19200834676E+02  0.49236610959E+02  0.20651472715E+02  0.56739750055E+02  0.00000000000E+00 0.  1.
         11    1    4    4    0    0 -0.31787026792E+02  0.61980652366E+01 -0.61362290003E+02  0.69384160435E+02  0.00000000000E+00 0. -1.
         -1    1    1    2    0  502  0.26351502526E+02 -0.33678648793E+02 -0.40884291799E+02  0.59162305447E+02  0.00000000000E+00 0.  1.
<scales pt_clust_5="13000.00000" pt_clust_6="13000.00000" pt_clust_7="13000.00000" pt_clust_8="13000.00000" pt_clust_9="42.76277"></scales>
<clustering>
<clus scale="   42.763">  1  9  2 -1</clus>
<clus scale="   81.078">  5  6 -1 -1</clus>
<clus scale="   92.613">  7  8 -1 -1</clus>
<clus scale="   94.492">  2  5  1 -1</clus>
<clus scale="   42.763">  1  5  2 -1</clus>
</clustering>
</event>
<event>
 9    1  0.6345107E-005  0.1900310E+03  0.7546771E-02  0.1159261E+00
          1   -1    0    0  502    0 -0.00000000000E+00  0.00000000000E+00  0.54113392902E+03  0.54113392902E+03  0.00000000000E+00 0. -1.
         21   -1    0    0  501  502  0.00000000000E+00 -0.00000000000E+00 -0.16989892752E+03  0.16989892752E+03  0.00000000000E+00 0. -1.
         23    2    1    2    0    0 -0.14676939540E+03  0.98992803766E+02  0.33208140916E+03  0.38691397020E+03  0.89908439003E+02 0.  0.
        -24    2    1    2    0    0  0.66257631190E+02 -0.11641861456E+03 -0.82357614974E+02  0.17731705882E+03  0.81946293981E+02 0.  0.
         13    1    4    4    0    0  0.42592757329E+02 -0.12212235041E+03 -0.81671518651E+02  0.15296486004E+03  0.00000000000E+00 0. -1.
        -14    1    4    4    0    0  0.23664873860E+02  0.57037358498E+01 -0.68609632290E+00  0.24352198784E+02  0.00000000000E+00 0.  1.
        -11    1    3    3    0    0 -0.10204148840E+03  0.11112551762E+03  0.27195416830E+03  0.31099906057E+03  0.00000000000E+00 0. -1.
         11    1    3    3    0    0 -0.44727907008E+02 -0.12132713857E+02  0.60127240863E+02  0.75914909634E+02  0.00000000000E+00 0.  1.
          2    1    1    2  501    0  0.80511764214E+02  0.17425810799E+02  0.12151120732E+03  0.14680182752E+03  0.00000000000E+00 0. -1.
<scales pt_clust_5="13000.00000" pt_clust_6="13000.00000" pt_clust_7="13000.00000" pt_clust_8="13000.00000" pt_clust_9="82.37603"></scales>
<clustering>
<clus scale="   81.946">  5  6 -1 -1</clus>
<clus scale="   82.376">  2  9  1 -1</clus>
<clus scale="   89.908">  7  8 -1 -1</clus>
<clus scale="  186.396">  2  5  1 -1</clus>
<clus scale="   82.376">  2  5  1 -1</clus>
</clustering>
</event>
<event>
 9    1  0.6345107E-005  0.1456613E+03  0.7546771E-02  0.1219141E+00
         21   -1    0    0  501  502  0.00000000000E+00  0.00000000000E+00  0.96101536060E+02  0.96101536060E+02  0.00000000000E+00 0.  1.
         -4   -1    0    0    0  501 -0.00000000000E+00 -0.00000000000E+00 -0.66149557270E+03  0.66149557270E+03  0.00000000000E+00 0.  1.
        -24    2    1    2    0    0  0.28478767687E+02  0.65328533152E+02 -0.89173885557E+02  0.14155587960E+03  0.83709185458E+02 0.  0.
         23    2    1    2    0    0  0.50550480886E+02 -0.14283262634E+03 -0.47334970414E+03  0.50531297596E+03  0.91240073407E+02 0.  0.
         11    1    3    3    0    0 -0.27069588003E+02  0.13969804217E+02 -0.43761603013E+02  0.53319751714E+02  0.00000000000E+00 0. -1.
        -12    1    3    3    0    0  0.55548355691E+02  0.51358728936E+02 -0.45412282544E+02  0.88236127882E+02  0.00000000000E+00 0.  1.
        -13    1    4    4    0    0 -0.63527954421E+01 -0.26501060487E+02 -0.19930205602E+02  0.33762069134E+02  0.00000000000E+00 0. -1.
         13    1    4    4    0    0  0.56903276328E+02 -0.11633156586E+03 -0.45341949854E+03  0.47155090682E+03  0.00000000000E+00 0.  1.
         -3    1    1    2    0  502 -0.79029248573E+02  0.77504093192E+02 -0.28704469389E+01  0.11072825320E+03  0.00000000000E+00 0.  1.
<scales pt_clust_5="13000.00000" pt_clust_6="13000.00000" pt_clust_7="13000.00000" pt_clust_8="13000.00000" pt_clust_9="113.54504"></scales>
<clustering>
<clus scale="   83.709">  5  6 -1 -1</clus>
<clus scale="   91.240">  7  8 -1 -1</clus>
<clus scale="  109.937">  2  5  1 -1</clus>
<clus scale="  113.545">  1  9  2 -1</clus>
<clus scale="  113.545">  1  5  2 -1</clus>
</clustering>
</event>
<event>
 9    1  0.6345107E-005  0.1445062E+03  0.7546771E-02  0.1232255E+00
         21   -1    0    0  501  502  0.00000000000E+00  0.00000000000E+00  0.63106022008E+02  0.63106022008E+02  0.00000000000E+00 0. -1.
          1   -1    0    0  502    0 -0.00000000000E+00 -0.00000000000E+00 -0.65224601257E+03  0.65224601257E+03  0.00000000000E+00 0. -1.
        -24    2    1    2    0    0  0.92011978926E+01  0.27007485244E+02 -0.25965767549E+03  0.27344015317E+03  0.80829095146E+02 0.  0.
         23    2    1    2    0    0 -0.10802664042E+03 -0.44774060889E+02 -0.71618614600E+02  0.16518854065E+03  0.92106223651E+02 0.  0.
         11    1    3    3    0    0 -0.33624623334E+02  0.26611926377E+02 -0.13178191832E+03  0.13858312998E+03  0.00000000000E+00 0. -1.
        -12    1    3    3    0    0  0.42825821227E+02  0.39555886622E+00 -0.12787575717E+03  0.13485702319E+03  0.00000000000E+00 0.  1.
        -13    1    4    4    0    0 -0.10903408123E+03 -0.94037385818E+01 -0.36578182541E+02  0.11538988087E+03  0.00000000000E+00 0. -1.
         13    1    4    4    0    0  0.10074408080E+01 -0.35370322307E+02 -0.35040432059E+02  0.49798659781E+02  0.00000000000E+00 0.  1.
          2    1    1    2  501    0  0.98825442527E+02  0.17766575646E+02 -0.25786370046E+03  0.27672334075E+03  0.00000000000E+00 0. -1.
<scales pt_clust_5="13000.00000" pt_clust_6="13000.00000" pt_clust_7="13000.00000" pt_clust_8="13000.00000" pt_clust_9="111.34852"></scales>
<clustering>
<clus scale="   80.829">  5  6 -1 -1</clus>
<clus scale="   85.717">  2  5  1 -1</clus>
<clus scale="   92.106">  7  8 -1 -1</clus>
<clus scale="  111.349">  1  9  2 -1</clus>
<clus scale="  111.349">  1  5  2 -1</clus>
</clustering>
</event>
<event>
 9    1  0.6345107E-005  0.1296181E+03  0.7546771E-02  0.1246229E+00
         21   -1    0    0  501  502  0.00000000000E+00  0.00000000000E+00  0.81733081130E+02  0.81733081130E+02  0.00000000000E+00 0. -1.
         -4   -1    0    0    0  501 -0.00000000000E+00 -0.00000000000E+00 -0.52405307829E+03  0.52405307829E+03  0.00000000000E+00 0.  1.
        -24    2    1    2    0    0  0.23019303164E+02 -0.27659881671E+02 -0.30034530775E+03  0.31336698179E+03  0.81832780799E+02 0.  0.
         23    2    1    2    0    0  0.80443476126E+02 -0.13950467682E+02 -0.16331565825E+02  0.12442464684E+03  0.92460825759E+02 0.  0.
         11    1    3    3    0    0 -0.28488604389E+02 -0.15503142232E+02 -0.71984850617E+02  0.78954206458E+02  0.00000000000E+00 0. -1.
        -12    1    3    3    0    0  0.51507907553E+02 -0.12156739440E+02 -0.22836045714E+03  0.23441277533E+03  0.00000000000E+00 0.  1.
        -13    1    4    4    0    0  0.90159447364E+02 -0.34004517220E+02  0.72624284746E+00  0.96361613566E+02  0.00000000000E+00 0. -1.
         13    1    4    4    0    0 -0.97159712388E+01  0.20054049538E+02 -0.17057808672E+02  0.28063033276E+02  0.00000000000E+00 0.  1.
         -3    1    1    2    0  502 -0.10346277929E+03  0.41610349354E+02 -0.12564312359E+03  0.16799453079E+03  0.00000000000E+00 0.  1.
<scales pt_clust_5="13000.00000" pt_clust_6="13000.00000" pt_clust_7="13000.00000" pt_clust_8="13000.00000" pt_clust_9="90.83969"></scales>
<clustering>
<clus scale="   81.833">  5  6 -1 -1</clus>
<clus scale="   89.396">  2  5  1 -1</clus>
<clus scale="   90.840">  1  9  2 -1</clus>
<clus scale="   92.461">  7  8 -1 -1</clus>
<clus scale="   90.840">  1  5  2 -1</clus>
</clustering>
</event>
<event>
 9    1  0.6345107E-005  0.1374513E+03  0.7546771E-02  0.1219929E+00
         21   -1    0    0  501  502  0.00000000000E+00  0.00000000000E+00  0.21359308886E+02  0.21359308886E+02  0.00000000000E+00 0.  1.
         -2   -1    0    0    0  501 -0.00000000000E+00 -0.00000000000E+00 -0.12465872864E+04  0.12465872864E+04  0.00000000000E+00 0.  1.
        -24    2    1    2    0    0 -0.65695846731E+02 -0.97497874972E+02 -0.66644133698E+03  0.68162046194E+03  0.81489990734E+02 0.  0.
         23    2    1    2    0    0  0.43967578953E+02  0.56686924166E+02 -0.28684530524E+03  0.31048244361E+03  0.94723615242E+02 0.  0.
         11    1    3    3    0    0 -0.11730799069E+02 -0.33110974301E+02 -0.61106685372E+02  0.70483865268E+02  0.00000000000E+00 0. -1.
        -12    1    3    3    0    0 -0.53965047662E+02 -0.64386900671E+02 -0.60533465161E+03  0.61113659667E+03  0.00000000000E+00 0.  1.
        -13    1    4    4    0    0  0.51572258315E+02 -0.78757143531E+01 -0.15373023211E+03  0.16234133475E+03  0.00000000000E+00 0.  1.
         13    1    4    4    0    0 -0.76046793629E+01  0.64562638519E+02 -0.13311507312E+03  0.14814110886E+03  0.00000000000E+00 0. -1.
         -1    1    1    2    0  502  0.21728267779E+02  0.40810950806E+02 -0.27194133528E+03  0.27584368972E+03  0.00000000000E+00 0.  1.
<scales pt_clust_5="13000.00000" pt_clust_6="13000.00000" pt_clust_7="13000.00000" pt_clust_8="13000.00000" pt_clust_9="46.23476"></scales>
<clustering>
<clus scale="   46.235">  1  9  2 -1</clus>
<clus scale="   81.490">  5  6 -1 -1</clus>
<clus scale="   94.724">  7  8 -1 -1</clus>
<clus scale="  128.689">  2  5  1 -1</clus>
<clus scale="   46.235">  1  5  2 -1</clus>
</clustering>
</event>
<event>
 9    1  0.6345107E-005  0.1041014E+03  0.7546771E-02  0.1278066E+00
         21   -1    0    0  501  502  0.00000000000E+00  0.00000000000E+00  0.32108436689E+02  0.32108436689E+02  0.00000000000E+00 0. -1.
          1   -1    0    0  502    0 -0.00000000000E+00 -0.00000000000E+00 -0.66135198349E+03  0.66135198349E+03  0.00000000000E+00 0. -1.
         23    2    1    2    0    0 -0.27930513949E+02 -0.31668177467E+02 -0.19935637412E+03  0.22398931044E+03  0.92979891469E+02 0.  0.
        -24    2    1    2    0    0 -0.37761698932E+02  0.64134141505E+02 -0.19527318115E+03  0.22368007923E+03  0.79762325413E+02 0.  0.
         11    1    4    4    0    0  0.14625080434E+01  0.31380008390E+02 -0.12352365793E+02  0.33755366937E+02  0.00000000000E+00 0. -1.
        -12    1    4    4    0    0 -0.39224206975E+02  0.32754133115E+02 -0.18292081536E+03  0.18992471230E+03  0.00000000000E+00 0.  1.
        -11    1    3    3    0    0 -0.88864694764E+01  0.33231356006E+02 -0.62973030246E+02  0.71755800464E+02  0.00000000000E+00 0.  1.
         11    1    3    3    0    0 -0.19044044472E+02 -0.64899533473E+02 -0.13638334387E+03  0.15223350998E+03  0.00000000000E+00 0. -1.
          2    1    1    2  501    0  0.65692212880E+02 -0.32465964038E+02 -0.23461399153E+03  0.24579103050E+03  0.00000000000E+00 0. -1.
<scales pt_clust_5="13000.00000" pt_clust_6="13000.00000" pt_clust_7="13000.00000" pt_clust_8="13000.00000" pt_clust_9="73.27695"></scales>
<clustering>
<clus scale="   73.277">  1  9  2 -1</clus>
<clus scale="   79.762">  5  6 -1 -1</clus>
<clus scale="   92.487">  1  5  2 -1</clus>
<clus scale="   92.980">  7  8 -1 -1</clus>
<clus scale="   73.277">  1  5  2 -1</clus>
</clustering>
</event>
<event>
 9    1  0.6345107E-005  0.1272982E+03  0.7546771E-02  0.1246919E+00
         -2   -1    0    0    0  501 -0.00000000000E+00  0.00000000000E+00  0.55582299807E+03  0.55582299807E+03  0.00000000000E+00 0.  1.
         21   -1    0    0  501  502  0.00000000000E+00 -0.00000000000E+00 -0.64459802671E+02  0.64459802671E+02  0.00000000000E+00 0.  1.
         23    2    1    2    0    0  0.10582420072E+02 -0.12442188493E+02  0.27768928549E+03  0.29287184578E+03  0.91628505970E+02 0.  0.
        -24    2    1    2    0    0  0.71706334710E+02 -0.42618203439E+02  0.19264983422E+03  0.22619288502E+03  0.84208983518E+02 0.  0.
         11    1    4    4    0    0  0.52834941302E+02 -0.15843956567E+02  0.18431621076E+03  0.19239289885E+03  0.00000000000E+00 0. -1.
        -12    1    4    4    0    0  0.18871393408E+02 -0.26774246871E+02  0.83336234684E+01  0.33799986166E+02  0.00000000000E+00 0.  1.
        -11    1    3    3    0    0  0.11674671698E+02  0.36636472161E+02  0.74516270334E+02  0.83852272457E+02  0.00000000000E+00 0.  1.
         11    1    3    3    0    0 -0.10922516264E+01 -0.49078660654E+02  0.20317301516E+03  0.20901957333E+03  0.00000000000E+00 0. -1.
         -1    1    1    2    0  502 -0.82288754782E+02  0.55060391932E+02  0.21024075680E+02  0.10121806994E+03  0.00000000000E+00 0.  1.
<scales pt_clust_5="13000.00000" pt_clust_6="13000.00000" pt_clust_7="13000.00000" pt_clust_8="13000.00000" pt_clust_9="95.46565"></scales>
<clustering>
<clus scale="   84.209">  5  6 -1 -1</clus>
<clus scale="   91.629">  7  8 -1 -1</clus>
<clus scale="   93.073">  1  7  2 -1</clus>
<clus scale="   95.466">  2  9  1 -1</clus>
<clus scale="   95.466">  2  5  1 -1</clus>
</clustering>
</event>
<event>
 9    1  0.6345107E-005  0.2562322E+03  0.7546771E-02  0.1129325E+00
          3   -1    0    0  502    0 -0.00000000000E+00  0.00000000000E+00  0.41399417812E+03  0.41399417812E+03  0.00000000000E+00 0. -1.
         21   -1    0    0  501  502  0.00000000000E+00 -0.00000000000E+00 -0.97095677434E+03  0.97095677434E+03  0.00000000000E+00 0. -1.
        -24    2    1    2    0    0 -0.58482958324E+02 -0.12028530231E+03 -0.77306581706E+03  0.78858739076E+03  0.79690055795E+02 0.  0.
         23    2    1    2    0    0 -0.11232671452E+03  0.27086805893E+03  0.20554039154E+03  0.36841031147E+03  0.86559279696E+02 0.  0.
         11    1    3    3    0    0 -0.78229995946E+02 -0.10025825767E+03 -0.65350614254E+03  0.66576416909E+03  0.00000000000E+00 0. -1.
        -12    1    3    3    0    0  0.19747037621E+02 -0.20027044648E+02 -0.11955967452E+03  0.12282322168E+03  0.00000000000E+00 0.  1.
        -13    1    4    4    0    0 -0.11406130068E+03  0.23965130506E+03  0.20777515418E+03  0.33706563608E+03  0.00000000000E+00 0. -1.
         13    1    4    4    0    0  0.17345861622E+01  0.31216753863E+02 -0.22347626474E+01  0.31344675385E+02  0.00000000000E+00 0.  1.
          4    1    1    2  501    0  0.17080967284E+03 -0.15058275661E+03  0.10562829311E+02  0.22795325023E+03  0.00000000000E+00 0. -1.
<scales pt_clust_5="13000.00000" pt_clust_6="13000.00000" pt_clust_7="13000.00000" pt_clust_8="13000.00000" pt_clust_9="241.16888"></scales>
<clustering>
<clus scale="   79.690">  5  6 -1 -1</clus>
<clus scale="   86.559">  7  8 -1 -1</clus>
<clus scale="  155.690">  1  5  2 -1</clus>
<clus scale="  241.169">  2  9  1 -1</clus>
<clus scale="  241.169">  2  5  1 -1</clus>
</clustering>
</event>
<event>
 9    1  0.6345107E-005  0.1630258E+03  0.7546771E-02  0.1186346E+00
         21   -1    0    0  501  502  0.00000000000E+00  0.00000000000E+00  0.16214448833E+03  0.16214448833E+03  0.00000000000E+00 0. -1.
          3   -1    0    0  502    0 -0.00000000000E+00 -0.00000000000E+00 -0.27214694937E+03  0.27214694937E+03  0.00000000000E+00 0. -1.
         23    2    1    2    0    0 -0.12348538721E+03  0.52911376265E+02 -0.83420453155E+02  0.18140359414E+03  0.88882154404E+02 0.  0.
        -24    2    1    2    0    0  0.96806967148E+02 -0.11074422113E+03 -0.62694064997E+02  0.17967270365E+03  0.81950370653E+02 0.  0.
         11    1    4    4    0    0  0.48886229664E+02 -0.10174046065E+03 -0.19530538207E+02  0.11455316105E+03  0.00000000000E+00 0. -1.
        -12    1    4    4    0    0  0.47920737484E+02 -0.90037604797E+01 -0.43163526790E+02  0.65119542603E+02  0.00000000000E+00 0.  1.
        -13    1    3    3    0    0  0.56869357718E+01  0.19484584926E+02 -0.33049863235E+02  0.38785096984E+02  0.00000000000E+00 0.  1.
         13    1    3    3    0    0 -0.12917232298E+03  0.33426791338E+02 -0.50370589920E+02  0.14261849716E+03  0.00000000000E+00 0. -1.
          4    1    1    2  501    0  0.26678420059E+02  0.57832844866E+02  0.36112057107E+02  0.73215139901E+02  0.00000000000E+00 0. -1.
<scales pt_clust_5="13000.00000" pt_clust_6="13000.00000" pt_clust_7="13000.00000" pt_clust_8="13000.00000" pt_clust_9="63.68969"></scales>
<clustering>
<clus scale="   63.690">  1  9  2 -1</clus>
<clus scale="   81.950">  5  6 -1 -1</clus>
<clus scale="   88.882">  7  8 -1 -1</clus>
<clus scale="  159.353">  1  5  2 -1</clus>
<clus scale="   63.690">  1  5  2 -1</clus>
</clustering>
</event>
<event>
 9    1  0.6345107E-005  0.3898727E+03  0.7546771E-02  0.1047578E+00
          1   -1    0    0  502    0 -0.00000000000E+00  0.00000000000E+00  0.69083470504E+03  0.69083470504E+03  0.00000000000E+00 0. -1.
         21   -1    0    0  501  502  0.00000000000E+00 -0.00000000000E+00 -0.33454397046E+03  0.33454397046E+03  0.00000000000E+00 0. -1.
         23    2    1    2    0    0  0.18255728644E+03  0.24275316491E+03  0.49055507187E+02  0.32099079118E+03  0.91500728565E+02 0.  0.
        -24    2    1    2    0    0 -0.21586195875E+03 -0.40585243262E+03  0.24227293702E+03  0.52569633025E+03  0.79673542229E+02 0.  0.
         13    1    4    4    0    0 -0.16759436942E+03 -0.35234801517E+03  0.17690886847E+03  0.42840838484E+03  0.00000000000E+00 0. -1.
        -14    1    4    4    0    0 -0.48267589326E+02 -0.53504417455E+02  0.65364068549E+02  0.97287945419E+02  0.00000000000E+00 0.  1.
        -13    1    3    3    0    0  0.50410215018E+02  0.45379708973E+02 -0.24843180471E+02  0.72233589005E+02  0.00000000000E+00 0. -1.
         13    1    3    3    0    0  0.13214707142E+03  0.19737345594E+03  0.73898687659E+02  0.24875720217E+03  0.00000000000E+00 0.  1.
          2    1    1    2  501    0  0.33304672308E+02  0.16309926771E+03  0.64962290375E+02  0.17869155407E+03  0.00000000000E+00 0. -1.
<scales pt_clust_5="13000.00000" pt_clust_6="13000.00000" pt_clust_7="13000.00000" pt_clust_8="13000.00000" pt_clust_9="166.46501"></scales>
<clustering>
<clus scale="   79.674">  5  6 -1 -1</clus>
<clus scale="   91.501">  7  8 -1 -1</clus>
<clus scale="  166.465">  2  9  1 -1</clus>
<clus scale="  387.268">  2  5  1 -1</clus>
<clus scale="  166.465">  2  5  1 -1</clus>
</clustering>
</event>
<event>
 9    1  0.6345107E-005  0.1085166E+03  0.7546771E-02  0.1271920E+00
         21   -1    0    0  501  502  0.00000000000E+00  0.00000000000E+00  0.22264691450E+03  0.22264691450E+03  0.00000000000E+00 0. -1.
          1   -1    0    0  502    0 -0.00000000000E+00 -0.00000000000E+00 -0.15369945563E+03  0.15369945563E+03  0.00000000000E+00 0. -1.
        -24    2    1    2    0    0 -0.18416230247E+02 -0.53119652802E+02 -0.75883370441E+02  0.12377773987E+03  0.80011173761E+02 0.  0.
         23    2    1    2    0    0 -0.33828607488E+02 -0.13821139063E+02  0.12851609513E+03  0.16610035147E+03  0.98678981967E+02 0.  0.
         11    1    3    3    0    0  0.34873547907E+01 -0.69837074082E+02 -0.58769366672E+02  0.91341212050E+02  0.00000000000E+00 0. -1.
        -12    1    3    3    0    0 -0.21903585038E+02  0.16717421280E+02 -0.17114003769E+02  0.32436527816E+02  0.00000000000E+00 0.  1.
        -11    1    4    4    0    0 -0.46391082759E+02  0.26481363543E+01  0.12319529536E+02  0.48071987619E+02  0.00000000000E+00 0.  1.
         11    1    4    4    0    0  0.12562475271E+02 -0.16469275417E+02  0.11619656560E+03  0.11802836385E+03  0.00000000000E+00 0. -1.
          2    1    1    2  501    0  0.52244837735E+02  0.66940791865E+02  0.16314734178E+02  0.86468278789E+02  0.00000000000E+00 0. -1.
<scales pt_clust_5="13000.00000" pt_clust_6="13000.00000" pt_clust_7="13000.00000" pt_clust_8="13000.00000" pt_clust_9="84.91521"></scales>
<clustering>
<clus scale="   80.011">  5  6 -1 -1</clus>
<clus scale="   84.915">  1  9  2 -1</clus>
<clus scale="   91.870">  2  5  1 -1</clus>
<clus scale="   98.679">  7  8 -1 -1</clus>
<clus scale="   84.915">  1  5  2 -1</clus>
</clustering>
</event>
<event>
 9    1  0.6345107E-005  0.1175385E+03  0.7546771E-02  0.1250849E+00
         21   -1    0    0  501  502  0.00000000000E+00  0.00000000000E+00  0.22355032151E+03  0.22355032151E+03  0.00000000000E+00 0. -1.
         -4   -1    0    0    0  501 -0.00000000000E+00 -0.00000000000E+00 -0.14348831908E+03  0.14348831908E+03  0.00000000000E+00 0.  1.
         23    2    1    2    0    0  0.75902777515E+02  0.14417733429E+02 -0.62757688395E+02  0.13477959238E+03  0.90873034497E+02 0.  0.
        -24    2    1    2    0    0 -0.67012070372E+02  0.33224133619E+02  0.14737733688E+03  0.18358087746E+03  0.79921201895E+02 0.  0.
         11    1    4    4    0    0 -0.51735810518E+02 -0.17835276881E+02  0.89487473116E+02  0.10489375118E+03  0.00000000000E+00 0. -1.
        -12    1    4    4    0    0 -0.15276259854E+02  0.51059410500E+02  0.57889863765E+02  0.78687126282E+02  0.00000000000E+00 0.  1.
        -13    1    3    3    0    0  0.62537656700E+02  0.46436255806E+02 -0.62844410644E+02  0.10008348669E+03  0.00000000000E+00 0. -1.
         13    1    3    3    0    0  0.13365120815E+02 -0.32018522377E+02  0.86722248338E-01  0.34696105694E+02  0.00000000000E+00 0.  1.
         -3    1    1    2    0  502 -0.88907071424E+01 -0.47641867048E+02 -0.45576460504E+01  0.48678170742E+02  0.00000000000E+00 0.  1.
<scales pt_clust_5="13000.00000" pt_clust_6="13000.00000" pt_clust_7="13000.00000" pt_clust_8="13000.00000" pt_clust_9="48.46436"></scales>
<clustering>
<clus scale="   48.464">  1  9  2 -1</clus>
<clus scale="   79.921">  5  6 -1 -1</clus>
<clus scale="   90.873">  7  8 -1 -1</clus>
<clus scale="  109.292">  1  5  2 -1</clus>
<clus scale="   48.464">  1  5  2 -1</clus>
</clustering>
</event>
<event>
 9    1  0.6345107E-005  0.8612711E+02  0.7546771E-02  0.1315468E+00
         21   -1    0    0  501  502  0.00000000000E+00  0.00000000000E+00  0.10833940532E+03  0.10833940532E+03  0.00000000000E+00 0.  1.
          1   -1    0    0  502    0 -0.00000000000E+00 -0.00000000000E+00 -0.13236769016E+03  0.13236769016E+03  0.00000000000E+00 0. -1.
         23    2    1    2    0    0  0.15997722691E+01  0.82580965485E+01 -0.70565328627E+02  0.11058248272E+03  0.84724638981E+02 0.  0.
        -24    2    1    2    0    0 -0.90755565383E+01 -0.31812070068E+02  0.11851455792E+02  0.87536268894E+02  0.80173361156E+02 0.  0.
         11    1    4    4    0    0 -0.22918115665E+01 -0.34285143614E+02 -0.29665779145E+02  0.45395835989E+02  0.00000000000E+00 0. -1.
        -12    1    4    4    0    0 -0.67837449718E+01  0.24730735464E+01  0.41517234937E+02  0.42140432905E+02  0.00000000000E+00 0.  1.
        -11    1    3    3    0    0  0.38197353521E+01 -0.35011379458E+02 -0.53424249907E+02  0.63988573573E+02  0.00000000000E+00 0.  1.
         11    1    3    3    0    0 -0.22199630829E+01  0.43269476006E+02 -0.17141078720E+02  0.46593909147E+02  0.00000000000E+00 0. -1.
          2    1    1    2  501    0  0.74757842692E+01  0.23553973519E+02  0.34685587990E+02  0.42588343866E+02  0.00000000000E+00 0. -1.
<scales pt_clust_5="13000.00000" pt_clust_6="13000.00000" pt_clust_7="13000.00000" pt_clust_8="13000.00000" pt_clust_9="24.71188"></scales>
<clustering>
<clus scale="   24.712">  1  9  2 -1</clus>
<clus scale="   80.173">  5  6 -1 -1</clus>
<clus scale="   81.654">  1  5  2 -1</clus>
<clus scale="   84.725">  7  8 -1 -1</clus>
<clus scale="   24.712">  1  5  2 -1</clus>
</clustering>
</event>
<event>
 9    1  0.6345107E-005  0.1249324E+03  0.7546771E-02  0.1238371E+00
          1   -1    0    0  502    0 -0.00000000000E+00  0.00000000000E+00  0.83707875993E+02  0.83707875993E+02  0.00000000000E+00 0. -1.
         21   -1    0    0  501  502  0.00000000000E+00 -0.00000000000E+00 -0.36256477264E+03  0.36256477264E+03  0.00000000000E+00 0. -1.
         23    2    1    2    0    0  0.77802491234E+02 -0.33397662267E+02  0.11355199991E+01  0.12298036982E+03  0.89186604755E+02 0.  0.
        -24    2    1    2    0    0 -0.86447328970E+02  0.53327735685E+02 -0.27120925957E+03  0.29985971826E+03  0.77745739942E+02 0.  0.
         13    1    4    4    0    0 -0.71912981903E+02  0.44178822395E+02 -0.26972529576E+03  0.28262162070E+03  0.00000000000E+00 0. -1.
        -14    1    4    4    0    0 -0.14534347067E+02  0.91489132896E+01 -0.14839638154E+01  0.17238097565E+02  0.00000000000E+00 0.  1.
        -11    1    3    3    0    0  0.59563452576E+02 -0.96971505342E+01  0.41137423165E+02  0.73035109337E+02  0.00000000000E+00 0. -1.
         11    1    3    3    0    0  0.18239038658E+02 -0.23700511732E+02 -0.40001903166E+02  0.49945260480E+02  0.00000000000E+00 0.  1.
          2    1    1    2  501    0  0.86448377360E+01 -0.19930073418E+02 -0.87831570741E+01  0.23432560554E+02  0.00000000000E+00 0. -1.
<scales pt_clust_5="13000.00000" pt_clust_6="13000.00000" pt_clust_7="13000.00000" pt_clust_8="13000.00000" pt_clust_9="21.72422"></scales>
<clustering>
<clus scale="   21.724">  2  9  1 -1</clus>
<clus scale="   77.746">  5  6 -1 -1</clus>
<clus scale="   89.187">  7  8 -1 -1</clus>
<clus scale="  117.040">  2  5  1 -1</clus>
<clus scale="   21.724">  2  5  1 -1</clus>
</clustering>
</event>
<event>
 9    1  0.6345107E-005  0.9537894E+02  0.7546771E-02  0.1295750E+00
         -2   -1    0    0    0  501 -0.00000000000E+00  0.00000000000E+00  0.10508806849E+04  0.10508806849E+04  0.00000000000E+00 0.  1.
         21   -1    0    0  501  502  0.00000000000E+00 -0.00000000000E+00 -0.16976395723E+03  0.16976395723E+03  0.00000000000E+00 0.  1.
        -24    2    1    2    0    0 -0.40998003278E+02  0.19947760178E+01  0.65794846806E+03  0.66408386118E+03  0.80164659630E+02 0.  0.
         23    2    1    2    0    0  0.13364859747E+02 -0.14227649410E+02  0.38299538071E+03  0.39390180500E+03  0.89956238552E+02 0.  0.
         13    1    3    3    0    0  0.27311557903E+01  0.31973184183E+02  0.15109621090E+03  0.15446620559E+03  0.00000000000E+00 0. -1.
        -14    1    3    3    0    0 -0.43729159068E+02 -0.29978408165E+02  0.50685225715E+03  0.50961765559E+03  0.00000000000E+00 0.  1.
        -13    1    4    4    0    0  0.39334762974E+02  0.21758295459E+02  0.14513198552E+03  0.15193399955E+03  0.00000000000E+00 0. -1.
         13    1    4    4    0    0 -0.25969903227E+02 -0.35985944868E+02  0.23786339519E+03  0.24196780545E+03  0.00000000000E+00 0.  1.
         -1    1    1    2    0  502  0.27633143531E+02  0.12232873392E+02 -0.15982712111E+03  0.16265897594E+03  0.00000000000E+00 0.  1.
<scales pt_clust_5="13000.00000" pt_clust_6="13000.00000" pt_clust_7="13000.00000" pt_clust_8="13000.00000" pt_clust_9="30.21976"></scales>
<clustering>
<clus scale="   30.220">  2  9  1 -1</clus>
<clus scale="   80.165">  5  6 -1 -1</clus>
<clus scale="   86.206">  1  5  2 -1</clus>
<clus scale="   89.956">  7  8 -1 -1</clus>
<clus scale="   30.220">  2  5  1 -1</clus>
</clustering>
</event>
<event>
 9    1  0.6345107E-005  0.2116090E+03  0.7546771E-02  0.1183395E+00
         21   -1    0    0  501  502  0.00000000000E+00  0.00000000000E+00  0.56728926326E+02  0.56728926326E+02  0.00000000000E+00 0.  1.
          1   -1    0    0  502    0 -0.00000000000E+00 -0.00000000000E+00 -0.11017922648E+04  0.11017922648E+04  0.00000000000E+00 0. -1.
        -24    2    1    2    0    0  0.26996067628E+02 -0.59338092869E+01 -0.28138619784E+03  0.29194925175E+03  0.72747340190E+02 0.  0.
         23    2    1    2    0    0 -0.19470761784E+03 -0.69054275328E+02 -0.45813316697E+03  0.51005055608E+03  0.87097770852E+02 0.  0.
         11    1    3    3    0    0 -0.23282113966E+02 -0.56570563189E+01 -0.13650407919E+03  0.13859084656E+03  0.00000000000E+00 0. -1.
        -12    1    3    3    0    0  0.50278181594E+02 -0.27675296802E+00 -0.14488211865E+03  0.15335840519E+03  0.00000000000E+00 0.  1.
        -13    1    4    4    0    0 -0.41553994758E+02  0.17003698360E+02 -0.60508694885E+02  0.75346946819E+02  0.00000000000E+00 0.  1.
         13    1    4    4    0    0 -0.15315362309E+03 -0.86057973689E+02 -0.39762447209E+03  0.43470360926E+03  0.00000000000E+00 0. -1.
          2    1    1    2  501    0  0.16771155022E+03  0.74988084615E+02 -0.30554397372E+03  0.35652138335E+03  0.00000000000E+00 0. -1.
<scales pt_clust_5="13000.00000" pt_clust_6="13000.00000" pt_clust_7="13000.00000" pt_clust_8="13000.00000" pt_clust_9="192.85322"></scales>
<clustering>
<clus scale="   72.747">  5  6 -1 -1</clus>
<clus scale="   77.821">  2  5  1 -1</clus>
<clus scale="   87.098">  7  8 -1 -1</clus>
<clus scale="  192.853">  1  9  2 -1</clus>
<clus scale="  192.853">  1  5  2 -1</clus>
</clustering>
</event>
<event>
 9    1  0.6345107E-005  0.2554769E+03  0.7546771E-02  0.1110558E+00
          1   -1    0    0  502    0 -0.00000000000E+00  0.00000000000E+00  0.55794496809E+03  0.55794496809E+03  0.00000000000E+00 0. -1.
         21   -1    0    0  501  502  0.00000000000E+00 -0.00000000000E+00 -0.30369442964E+03  0.30369442964E+03  0.00000000000E+00 0.  1.
        -24    2    1    2    0    0 -0.22572001715E+03 -0.60541606707E+02  0.35074204739E+03  0.42880417552E+03  0.78982433806E+02 0.  0.
         23    2    1    2    0    0  0.25409498137E+03  0.21126075709E+02  0.52603545302E+02  0.27602942550E+03  0.91730802534E+02 0.  0.
         11    1    3    3    0    0 -0.22790107087E+03 -0.64442933430E+02  0.35191005112E+03  0.42418448092E+03  0.00000000000E+00 0. -1.
        -12    1    3    3    0    0  0.21810537223E+01  0.39013267225E+01 -0.11680037238E+01  0.46196946040E+01  0.00000000000E+00 0.  1.
        -13    1    4    4    0    0  0.86446660796E+01  0.18865192611E+02  0.19264168485E+02  0.28314906521E+02  0.00000000000E+00 0. -1.
         13    1    4    4    0    0  0.24545031529E+03  0.22608830978E+01  0.33339376817E+02  0.24771451898E+03  0.00000000000E+00 0.  1.
          2    1    1    2  501    0 -0.28374964214E+02  0.39415530999E+02 -0.14909505425E+03  0.15680579670E+03  0.00000000000E+00 0. -1.
<scales pt_clust_5="13000.00000" pt_clust_6="13000.00000" pt_clust_7="13000.00000" pt_clust_8="13000.00000" pt_clust_9="48.56668"></scales>
<clustering>
<clus scale="   48.567">  2  9  1 -1</clus>
<clus scale="   78.982">  5  6 -1 -1</clus>
<clus scale="   91.731">  7  8 -1 -1</clus>
<clus scale="  251.181">  1  5  2 -1</clus>
<clus scale="   48.567">  2  5  1 -1</clus>
</clustering>
</event>
<event>
 9    1  0.6345107E-005  0.2079537E+03  0.7546771E-02  0.1176079E+00
         21   -1    0    0  501  502  0.00000000000E+00  0.00000000000E+00  0.12899962038E+03  0.12899962038E+03  0.00000000000E+00 0.  1.
          1   -1    0    0  502    0 -0.00000000000E+00 -0.00000000000E+00 -0.61798754780E+03  0.61798754780E+03  0.00000000000E+00 0. -1.
        -24    2    1    2    0    0  0.48741487271E+01 -0.52476736465E+02 -0.26233708438E+03  0.27957901564E+03  0.81031567610E+02 0.  0.
         23    2    1    2    0    0  0.16765605019E+03  0.10010707401E+03 -0.62029511284E+02  0.22423023113E+03  0.91112890691E+02 0.  0.
         11    1    3    3    0    0  0.21098675031E+02  0.15466745066E+02 -0.57857491309E+02  0.63496957341E+02  0.00000000000E+00 0. -1.
        -12    1    3    3    0    0 -0.16224526303E+02 -0.67943481530E+02 -0.20447959307E+03  0.21608205830E+03  0.00000000000E+00 0.  1.
        -13    1    4    4    0    0  0.11983207244E+03  0.84801791134E+02 -0.31361064847E+01  0.14683631883E+03  0.00000000000E+00 0.  1.
         13    1    4    4    0    0  0.47823977752E+02  0.15305282879E+02 -0.58893404799E+02  0.77393912299E+02  0.00000000000E+00 0. -1.
          2    1    1    2  501    0 -0.17253019892E+03 -0.47630337548E+02 -0.16462133175E+03  0.24317792141E+03  0.00000000000E+00 0. -1.
<scales pt_clust_5="13000.00000" pt_clust_6="13000.00000" pt_clust_7="13000.00000" pt_clust_8="13000.00000" pt_clust_9="186.93104"></scales>
<clustering>
<clus scale="   81.032">  5  6 -1 -1</clus>
<clus scale="   91.113">  7  8 -1 -1</clus>
<clus scale="   96.663">  2  5  1 -1</clus>
<clus scale="  186.931">  1  9  2 -1</clus>
<clus scale="  186.931">  1  5  2 -1</clus>
</clustering>
</event>
<event>
 9    1  0.6345107E-005  0.9406908E+02  0.7546771E-02  0.1299579E+00
         21   -1    0    0  501  502  0.00000000000E+00  0.00000000000E+00  0.69999540840E+02  0.69999540840E+02  0.00000000000E+00 0. -1.
          1   -1    0    0  502    0 -0.00000000000E+00 -0.00000000000E+00 -0.49228188044E+03  0.49228188044E+03  0.00000000000E+00 0. -1.
        -24    2    1    2    0    0 -0.24752813428E+02 -0.32690107635E+01 -0.33193215480E+03  0.34226887788E+03  0.79659532857E+02 0.  0.
         23    2    1    2    0    0  0.25942797608E+02 -0.37259744388E+02 -0.12901125370E+03  0.16398867077E+03  0.90482391982E+02 0.  0.
         13    1    3    3    0    0  0.11418482243E+02 -0.33954458266E+02 -0.13053895033E+03  0.13536507868E+03  0.00000000000E+00 0. -1.
        -14    1    3    3    0    0 -0.36171295672E+02  0.30685447502E+02 -0.20139320447E+03  0.20690379920E+03  0.00000000000E+00 0.  1.
        -11    1    4    4    0    0  0.29690208534E+02 -0.16099855350E+02 -0.13697029832E+03  0.14107294726E+03  0.00000000000E+00 0. -1.
         11    1    4    4    0    0 -0.37474109258E+01 -0.21159889038E+02  0.79590446208E+01  0.22915723511E+02  0.00000000000E+00 0.  1.
          2    1    1    2  501    0 -0.11899841800E+01  0.40528755152E+02  0.38661068896E+02  0.56023872632E+02  0.00000000000E+00 0. -1.
<scales pt_clust_5="13000.00000" pt_clust_6="13000.00000" pt_clust_7="13000.00000" pt_clust_8="13000.00000" pt_clust_9="40.54622"></scales>
<clustering>
<clus scale="   40.546">  1  9  2 -1</clus>
<clus scale="   79.660">  5  6 -1 -1</clus>
<clus scale="   83.711">  2  5  1 -1</clus>
<clus scale="   90.482">  7  8 -1 -1</clus>
<clus scale="   40.546">  1  5  2 -1</clus>
</clustering>
</event>
<event>
 9    1  0.6345107E-005  0.1001859E+03  0.7546771E-02  0.1286089E+00
         21   -1    0    0  501  502  0.00000000000E+00  0.00000000000E+00  0.21224396263E+03  0.21224396263E+03  0.00000000000E+00 0. -1.
         -2   -1    0    0    0  501 -0.00000000000E+00 -0.00000000000E+00 -0.91949441958E+02  0.91949441958E+02  0.00000000000E+00 0.  1.
        -24    2    1    2    0    0  0.46860859981E+02 -0.27741732525E+02 -0.21286352292E+02  0.98689929797E+02  0.79505028317E+02 0.  0.
         23    2    1    2    0    0  0.71433818277E+01  0.13910372089E+02  0.84242699181E+02  0.12553203715E+03  0.91743847919E+02 0.  0.
         11    1    3    3    0    0 -0.54627714541E+01 -0.34561704278E+02  0.11182611466E+02  0.36734235718E+02  0.00000000000E+00 0. -1.
        -12    1    3    3    0    0  0.52323631435E+02  0.68199717526E+01 -0.32468963759E+02  0.61955694079E+02  0.00000000000E+00 0.  1.
        -13    1    4    4    0    0  0.12347395100E+02 -0.38259274191E+02  0.42629909705E+02  0.58596411399E+02  0.00000000000E+00 0.  1.
         13    1    4    4    0    0 -0.52040132723E+01  0.52169646280E+02  0.41612789477E+02  0.66935625755E+02  0.00000000000E+00 0. -1.
         -1    1    1    2    0  502 -0.54004241808E+02  0.13831360437E+02  0.57338173779E+02  0.79971437634E+02  0.00000000000E+00 0.  1.
<scales pt_clust_5="13000.00000" pt_clust_6="13000.00000" pt_clust_7="13000.00000" pt_clust_8="13000.00000" pt_clust_9="55.74733"></scales>
<clustering>
<clus scale="   55.747">  1  9  2 -1</clus>
<clus scale="   79.505">  5  6 -1 -1</clus>
<clus scale="   89.114">  2  5  1 -1</clus>
<clus scale="   91.744">  7  8 -1 -1</clus>
<clus scale="   55.747">  1  5  2 -1</clus>
</clustering>
</event>
<event>
 9    1  0.6345107E-005  0.1179648E+03  0.7546771E-02  0.1250903E+00
          1   -1    0    0  502    0 -0.00000000000E+00  0.00000000000E+00  0.66143818561E+02  0.66143818561E+02  0.00000000000E+00 0. -1.
         21   -1    0    0  501  502  0.00000000000E+00 -0.00000000000E+00 -0.25161586459E+03  0.25161586459E+03  0.00000000000E+00 0.  1.
         23    2    1    2    0    0 -0.69972099517E+02 -0.46501756523E+02 -0.42945456917E+02  0.13077529580E+03  0.90550304536E+02 0.  0.
        -24    2    1    2    0    0  0.53818406161E+02  0.32408773665E+02 -0.11381410786E+03  0.15115199203E+03  0.77113708857E+02 0.  0.
         11    1    4    4    0    0  0.40382943885E+01  0.21432924933E+02 -0.93940708901E+02  0.96439280801E+02  0.00000000000E+00 0. -1.
        -12    1    4    4    0    0  0.49780111773E+02  0.10975848732E+02 -0.19873398960E+02  0.54712711226E+02  0.00000000000E+00 0.  1.
        -11    1    3    3    0    0 -0.44689920655E+02  0.40977916594E+01 -0.56946231126E+02  0.72504166391E+02  0.00000000000E+00 0.  1.
         11    1    3    3    0    0 -0.25282178861E+02 -0.50599548182E+02  0.14000774209E+02  0.58271129410E+02  0.00000000000E+00 0. -1.
          2    1    1    2  501    0  0.16153693355E+02  0.14092982858E+02 -0.28712481251E+02  0.35832395321E+02  0.00000000000E+00 0. -1.
<scales pt_clust_5="13000.00000" pt_clust_6="13000.00000" pt_clust_7="13000.00000" pt_clust_8="13000.00000" pt_clust_9="21.43721"></scales>
<clustering>
<clus scale="   21.437">  2  9  1 -1</clus>
<clus scale="   77.114">  5  6 -1 -1</clus>
<clus scale="   90.550">  7  8 -1 -1</clus>
<clus scale="  107.995">  2  5  1 -1</clus>
<clus scale="   21.437">  2  5  1 -1</clus>
</clustering>
</event>
<event>
 9    1  0.6345107E-005  0.1235011E+03  0.7546771E-02  0.1239507E+00
         21   -1    0    0  501  502  0.00000000000E+00  0.00000000000E+00  0.17993572392E+03  0.17993572392E+03  0.00000000000E+00 0. -1.
          1   -1    0    0  502    0 -0.00000000000E+00 -0.00000000000E+00 -0.26158076220E+03  0.26158076220E+03  0.00000000000E+00 0. -1.
         23    2    1    2    0    0 -0.22391728469E+02 -0.85178114898E+02 -0.13786054676E+03  0.18730709611E+03  0.91223446209E+02 0.  0.
        -24    2    1    2    0    0 -0.84373560098E+01  0.79231639295E+02 -0.62312393762E+02  0.13159349941E+03  0.84173469858E+02 0.  0.
         11    1    4    4    0    0  0.35466686498E+02  0.27336572748E+02 -0.40018797836E+02  0.60055626222E+02  0.00000000000E+00 0. -1.
        -12    1    4    4    0    0 -0.43904042508E+02  0.51895066547E+02 -0.22293595926E+02  0.71537873184E+02  0.00000000000E+00 0.  1.
        -11    1    3    3    0    0 -0.30996168158E+02 -0.28701036203E+02 -0.12035986383E+03  0.12755786428E+03  0.00000000000E+00 0.  1.
         11    1    3    3    0    0  0.86044396894E+01 -0.56477078696E+02 -0.17500682926E+02  0.59749231821E+02  0.00000000000E+00 0. -1.
          2    1    1    2  501    0  0.30829084479E+02  0.59464756033E+01  0.11852790224E+03  0.12261589061E+03  0.00000000000E+00 0. -1.
<scales pt_clust_5="13000.00000" pt_clust_6="13000.00000" pt_clust_7="13000.00000" pt_clust_8="13000.00000" pt_clust_9="31.39734"></scales>
<clustering>
<clus scale="   31.397">  1  9  2 -1</clus>
<clus scale="   84.173">  5  6 -1 -1</clus>
<clus scale="   91.223">  7  8 -1 -1</clus>
<clus scale="  118.389">  1  5  2 -1</clus>
<clus scale="   31.397">  1  5  2 -1</clus>
</clustering>
</event>
<event>
 9    1  0.6345107E-005  0.1653989E+03  0.7546771E-02  0.1211106E+00
          1   -1    0    0  502    0 -0.00000000000E+00  0.00000000000E+00  0.57653337646E+03  0.57653337646E+03  0.00000000000E+00 0. -1.
         21   -1    0    0  501  502  0.00000000000E+00 -0.00000000000E+00 -0.70715986684E+02  0.70715986684E+02  0.00000000000E+00 0.  1.
        -24    2    1    2    0    0 -0.28322232302E+02  0.96883067785E+01  0.12260523051E+03  0.15151056199E+03  0.83829563482E+02 0.  0.
         23    2    1    2    0    0  0.10785607726E+03  0.98657829474E+02  0.26795207835E+03  0.31868117216E+03  0.91613713362E+02 0.  0.
         13    1    3    3    0    0 -0.12518855132E+02  0.46543119979E+02  0.76383674702E+02  0.90318600034E+02  0.00000000000E+00 0. -1.
        -14    1    3    3    0    0 -0.15803377169E+02 -0.36854813200E+02  0.46221555811E+02  0.61191961952E+02  0.00000000000E+00 0.  1.
        -11    1    4    4    0    0  0.32079621876E+02 -0.79218992510E+01  0.10305974098E+03  0.10822739412E+03  0.00000000000E+00 0. -1.
         11    1    4    4    0    0  0.75776455386E+02  0.10657972873E+03  0.16489233737E+03  0.21045377804E+03  0.00000000000E+00 0.  1.
          2    1    1    2  501    0 -0.79533844960E+02 -0.10834613625E+03  0.11526008091E+03  0.17705762900E+03  0.00000000000E+00 0. -1.
<scales pt_clust_5="13000.00000" pt_clust_6="13000.00000" pt_clust_7="13000.00000" pt_clust_8="13000.00000" pt_clust_9="137.70884"></scales>
<clustering>
<clus scale="   83.830">  5  6 -1 -1</clus>
<clus scale="   89.014">  1  5  2 -1</clus>
<clus scale="   91.614">  7  8 -1 -1</clus>
<clus scale="  137.709">  2  9  1 -1</clus>
<clus scale="  137.709">  2  5  1 -1</clus>
</clustering>
</event>
<event>
 9    1  0.6345107E-005  0.1276633E+03  0.7546771E-02  0.1232367E+00
         -4   -1    0    0    0  501 -0.00000000000E+00  0.00000000000E+00  0.17735984918E+03  0.17735984918E+03  0.00000000000E+00 0.  1.
         21   -1    0    0  501  502  0.00000000000E+00 -0.00000000000E+00 -0.11148493130E+03  0.11148493130E+03  0.00000000000E+00 0. -1.
         23    2    1    2    0    0  0.64527474899E+02  0.78685500960E+02  0.52234259786E+02  0.14594473181E+03  0.90643498226E+02 0.  0.
        -24    2    1    2    0    0 -0.49751638807E+02 -0.57056379024E+02  0.18517645908E+01  0.11417510727E+03  0.85450980900E+02 0.  0.
         13    1    4    4    0    0 -0.62337417278E+02 -0.48800622870E+02 -0.25315859390E+02  0.83116467213E+02  0.00000000000E+00 0. -1.
        -14    1    4    4    0    0  0.12585778471E+02 -0.82557561541E+01  0.27167623981E+02  0.31058640057E+02  0.00000000000E+00 0.  1.
        -11    1    3    3    0    0  0.27890621438E+02  0.97188020669E+01 -0.23054982346E+02  0.37468307792E+02  0.00000000000E+00 0.  1.
         11    1    3    3    0    0  0.36636853461E+02  0.68966698893E+02  0.75289242132E+02  0.10847642402E+03  0.00000000000E+00 0. -1.
         -3    1    1    2    0  502 -0.14775836092E+02 -0.21629121936E+02  0.11788893508E+02  0.28724941394E+02  0.00000000000E+00 0.  1.
<scales pt_clust_5="13000.00000" pt_clust_6="13000.00000" pt_clust_7="13000.00000" pt_clust_8="13000.00000" pt_clust_9="26.19437"></scales>
<clustering>
<clus scale="   26.194">  2  9  1 -1</clus>
<clus scale="   85.451">  5  6 -1 -1</clus>
<clus scale="   90.643">  7  8 -1 -1</clus>
<clus scale="  124.030">  2  5  1 -1</clus>
<clus scale="   26.194">  2  5  1 -1</clus>
</clustering>
</event>
<event>
 9    1  0.6345107E-005  0.9376849E+02  0.7546771E-02  0.1300088E+00
          1   -1    0    0  502    0 -0.00000000000E+00  0.00000000000E+00  0.22511071296E+03  0.22511071296E+03  0.00000000000E+00 0. -1.
         21   -1    0    0  501  502  0.00000000000E+00 -0.00000000000E+00 -0.69142505873E+02  0.69142505873E+02  0.00000000000E+00 0.  1.
         23    2    1    2    0    0 -0.25747630305E+02 -0.19706458792E+02  0.12297997192E+03  0.15683672142E+03  0.91773627512E+02 0.  0.
        -24    2    1    2    0    0 -0.49432765638E+01 -0.13924051213E+02  0.29481391269E+01  0.82869725398E+02  0.81488555502E+02 0.  0.
         13    1    4    4    0    0  0.36935859427E+02 -0.15209383690E+02 -0.48935056852E+01  0.40243377862E+02  0.00000000000E+00 0. -1.
        -14    1    4    4    0    0 -0.41879135991E+02  0.12853324778E+01  0.78416448121E+01  0.42626347536E+02  0.00000000000E+00 0.  1.
        -11    1    3    3    0    0 -0.21743389144E+02 -0.46359737543E+02  0.11905538869E+03  0.12960009958E+03  0.00000000000E+00 0.  1.
         11    1    3    3    0    0 -0.40042411607E+01  0.26653278751E+02  0.39245832366E+01  0.27236621836E+02  0.00000000000E+00 0. -1.
          2    1    1    2  501    0  0.30690906868E+02  0.33630510005E+02  0.30040096040E+02  0.54546772019E+02  0.00000000000E+00 0. -1.
<scales pt_clust_5="13000.00000" pt_clust_6="13000.00000" pt_clust_7="13000.00000" pt_clust_8="13000.00000" pt_clust_9="45.52961"></scales>
<clustering>
<clus scale="   45.530">  2  9  1 -1</clus>
<clus scale="   81.489">  5  6 -1 -1</clus>
<clus scale="   83.729">  2  5  1 -1</clus>
<clus scale="   91.774">  7  8 -1 -1</clus>
<clus scale="   45.530">  2  5  1 -1</clus>
</clustering>
</event>
<event>
 9    1  0.6345107E-005  0.2539943E+03  0.7546771E-02  0.1142483E+00
         21   -1    0    0  501  502  0.00000000000E+00  0.00000000000E+00  0.33905331610E+03  0.33905331610E+03  0.00000000000E+00 0. -1.
          1   -1    0    0  502    0 -0.00000000000E+00 -0.00000000000E+00 -0.57035020510E+03  0.57035020510E+03  0.00000000000E+00 0. -1.
        -24    2    1    2    0    0  0.84048124824E+02 -0.13749465234E+02 -0.99084709690E+01  0.11652368307E+03  0.78907894655E+02 0.  0.
         23    2    1    2    0    0 -0.30941991140E+03  0.48956697303E+02 -0.39077594852E+03  0.50875992178E+03  0.89405683764E+02 0.  0.
         11    1    3    3    0    0  0.64626273369E+02  0.10174246581E+02 -0.37287953995E+02  0.75302470186E+02  0.00000000000E+00 0. -1.
        -12    1    3    3    0    0  0.19421851455E+02 -0.23923711815E+02  0.27379483026E+02  0.41221212885E+02  0.00000000000E+00 0.  1.
        -11    1    4    4    0    0 -0.56523546721E+02  0.50652163210E+01 -0.25248744781E+02  0.62113338852E+02  0.00000000000E+00 0.  1.
         11    1    4    4    0    0 -0.25289636468E+03  0.43891480982E+02 -0.36552720374E+03  0.44664658293E+03  0.00000000000E+00 0. -1.
          2    1    1    2  501    0  0.22537178658E+03 -0.35207232069E+02  0.16938753049E+03  0.28411991634E+03  0.00000000000E+00 0. -1.
<scales pt_clust_5="13000.00000" pt_clust_6="13000.00000" pt_clust_7="13000.00000" pt_clust_8="13000.00000" pt_clust_9="237.73875"></scales>
<clustering>
<clus scale="   78.908">  5  6 -1 -1</clus>
<clus scale="   89.406">  7  8 -1 -1</clus>
<clus scale="  116.102">  2  5  1 -1</clus>
<clus scale="  237.739">  1  9  2 -1</clus>
<clus scale="  237.739">  1  5  2 -1</clus>
</clustering>
</event>
<event>
 9    1  0.6345107E-005  0.1339035E+03  0.7546771E-02  0.1243255E+00
         21   -1    0    0  501  502  0.00000000000E+00  0.00000000000E+00  0.15023016178E+03  0.15023016178E+03  0.00000000000E+00 0. -1.
          3   -1    0    0  502    0 -0.00000000000E+00 -0.00000000000E+00 -0.32515584814E+03  0.32515584814E+03  0.00000000000E+00 0. -1.
        -24    2    1    2    0    0  0.26432298630E+02 -0.17722523754E+01 -0.14509865753E+03  0.16871703497E+03  0.81914651822E+02 0.  0.
         23    2    1    2    0    0  0.66985349294E+02 -0.66135364211E+02  0.75105984655E+02  0.15062654914E+03  0.90479417304E+02 0.  0.
         13    1    3    3    0    0  0.54746599363E+02  0.23194707906E+01 -0.74005033335E+02  0.92083196325E+02  0.00000000000E+00 0. -1.
        -14    1    3    3    0    0 -0.28314300733E+02 -0.40917231659E+01 -0.71093624198E+02  0.76633838648E+02  0.00000000000E+00 0.  1.
        -11    1    4    4    0    0 -0.22421965498E+02 -0.16544769942E+02  0.21435442463E+02  0.35156111030E+02  0.00000000000E+00 0.  1.
         11    1    4    4    0    0  0.89407314791E+02 -0.49590594269E+02  0.53670542192E+02  0.11547043811E+03  0.00000000000E+00 0. -1.
          4    1    1    2  501    0 -0.93417647924E+02  0.67907616586E+02 -0.10493301349E+03  0.15604242581E+03  0.00000000000E+00 0. -1.
<scales pt_clust_5="13000.00000" pt_clust_6="13000.00000" pt_clust_7="13000.00000" pt_clust_8="13000.00000" pt_clust_9="98.70989"></scales>
<clustering>
<clus scale="   81.915">  5  6 -1 -1</clus>
<clus scale="   86.092">  2  5  1 -1</clus>
<clus scale="   90.479">  7  8 -1 -1</clus>
<clus scale="   98.710">  1  9  2 -1</clus>
<clus scale="   98.710">  1  5  2 -1</clus>
</clustering>
</event>
<event>
 9    1  0.6345107E-005  0.9872049E+02  0.7546771E-02  0.1289228E+00
         -4   -1    0    0    0  501 -0.00000000000E+00  0.00000000000E+00  0.74698042031E+02  0.74698042031E+02  0.00000000000E+00 0.  1.
         21   -1    0    0  501  502  0.00000000000E+00 -0.00000000000E+00 -0.22115612096E+03  0.22115612096E+03  0.00000000000E+00 0. -1.
         23    2    1    2    0    0 -0.54335734186E+02 -0.27805276257E+02 -0.54796904283E+02  0.12242855444E+03  0.90887539437E+02 0.  0.
        -24    2    1    2    0    0  0.22573723202E+02 -0.22925473670E+02 -0.68208418565E+02  0.10914134845E+03  0.78894202926E+02 0.  0.
         13    1    4    4    0    0  0.16627285885E+02 -0.18250985338E+02 -0.86177913750E+02  0.89644843243E+02  0.00000000000E+00 0. -1.
        -14    1    4    4    0    0  0.59464373173E+01 -0.46744883321E+01  0.17969495185E+02  0.19496505204E+02  0.00000000000E+00 0.  1.
        -11    1    3    3    0    0 -0.21709477030E+02  0.23101913299E+02 -0.53215815452E+02  0.61942899554E+02  0.00000000000E+00 0.  1.
         11    1    3    3    0    0 -0.32626257156E+02 -0.50907189556E+02 -0.15810888305E+01  0.60485654881E+02  0.00000000000E+00 0. -1.
         -3    1    1    2    0  502  0.31762010984E+02  0.50730749927E+02 -0.23452756081E+02  0.64284260109E+02  0.00000000000E+00 0.  1.
<scales pt_clust_5="13000.00000" pt_clust_6="13000.00000" pt_clust_7="13000.00000" pt_clust_8="13000.00000" pt_clust_9="59.85347"></scales>
<clustering>
<clus scale="   59.853">  2  9  1 -1</clus>
<clus scale="   78.894">  5  6 -1 -1</clus>
<clus scale="   87.804">  2  5  1 -1</clus>
<clus scale="   90.888">  7  8 -1 -1</clus>
<clus scale="   59.853">  2  5  1 -1</clus>
</clustering>
</event>
<event>
 9    1  0.6345107E-005  0.3433386E+03  0.7546771E-02  0.1065652E+00
         -2   -1    0    0    0  501 -0.00000000000E+00  0.00000000000E+00  0.41097535017E+03  0.41097535017E+03  0.00000000000E+00 0.  1.
         21   -1    0    0  501  502  0.00000000000E+00 -0.00000000000E+00 -0.51307741651E+03  0.51307741651E+03  0.00000000000E+00 0.  1.
        -24    2    1    2    0    0  0.18068405644E+03 -0.31915702418E+03  0.19960045357E+03  0.42550415860E+03  0.81887200402E+02 0.  0.
         23    2    1    2    0    0 -0.92131933958E+02  0.23789295850E+03 -0.16903483851E+03  0.31953452915E+03  0.91914012683E+02 0.  0.
         11    1    3    3    0    0  0.93552157698E+02 -0.14650407437E+03  0.49620411861E+02  0.18076956406E+03  0.00000000000E+00 0. -1.
        -12    1    3    3    0    0  0.87131898738E+02 -0.17265294981E+03  0.14998004171E+03  0.24473459455E+03  0.00000000000E+00 0.  1.
        -11    1    4    4    0    0 -0.66715321314E+02  0.14151791598E+03 -0.15253706586E+03  0.21850814882E+03  0.00000000000E+00 0. -1.
         11    1    4    4    0    0 -0.25416612644E+02  0.96375042525E+02 -0.16497772658E+02  0.10102638033E+03  0.00000000000E+00 0.  1.
         -1    1    1    2    0  502 -0.88552122478E+02  0.81264065677E+02 -0.13266768140E+03  0.17901407893E+03  0.00000000000E+00 0.  1.
<scales pt_clust_5="13000.00000" pt_clust_6="13000.00000" pt_clust_7="13000.00000" pt_clust_8="13000.00000" pt_clust_9="120.18871"></scales>
<clustering>
<clus scale="   81.887">  5  6 -1 -1</clus>
<clus scale="   91.914">  7  8 -1 -1</clus>
<clus scale="  120.189">  2  9  1 -1</clus>
<clus scale="  340.791">  1  5  2 -1</clus>
<clus scale="  120.189">  2  5  1 -1</clus>
</clustering>
</event>
<event>
 9    1  0.6345107E-005  0.1071620E+03  0.7546771E-02  0.1277772E+00
         21   -1    0    0  501  502  0.00000000000E+00  0.00000000000E+00  0.40880855441E+02  0.40880855441E+02  0.00000000000E+00 0. -1.
          1   -1    0    0  502    0 -0.00000000000E+00 -0.00000000000E+00 -0.53841548253E+03  0.53841548253E+03  0.00000000000E+00 0. -1.
        -24    2    1    2    0    0  0.18672843036E+02  0.20748006475E+02 -0.36581896759E+03  0.37578887109E+03  0.81330214240E+02 0.  0.
         23    2    1    2    0    0 -0.23435210480E+02 -0.72252812603E+00 -0.14425228075E+03  0.17940628851E+03  0.10405846778E+03 0.  0.
         13    1    3    3    0    0  0.38566124818E+02 -0.29897937805E+01 -0.86463750698E+02  0.94722040915E+02  0.00000000000E+00 0. -1.
        -14    1    3    3    0    0 -0.19893281782E+02  0.23737800255E+02 -0.27935521689E+03  0.28106683018E+03  0.00000000000E+00 0.  1.
        -13    1    4    4    0    0 -0.45608337980E+02  0.26932942089E+02 -0.13144712400E+03  0.14171750164E+03  0.00000000000E+00 0. -1.
         13    1    4    4    0    0  0.22173127500E+02 -0.27655470215E+02 -0.12805156751E+02  0.37688786866E+02  0.00000000000E+00 0.  1.
          2    1    1    2  501    0  0.47623674442E+01 -0.20025478349E+02  0.12536621250E+02  0.24101178376E+02  0.00000000000E+00 0. -1.
<scales pt_clust_5="13000.00000" pt_clust_6="13000.00000" pt_clust_7="13000.00000" pt_clust_8="13000.00000" pt_clust_9="20.58397"></scales>
<clustering>
<clus scale="   20.584">  1  9  2 -1</clus>
<clus scale="   81.330">  5  6 -1 -1</clus>
<clus scale="   85.265">  2  5  1 -1</clus>
<clus scale="  104.058">  7  8 -1 -1</clus>
<clus scale="   20.584">  1  5  2 -1</clus>
</clustering>
</event>
<event>
 9    1  0.6345107E-005  0.1607343E+03  0.7546771E-02  0.1189624E+00
         21   -1    0    0  501  502  0.00000000000E+00  0.00000000000E+00  0.58126084832E+02  0.58126084832E+02  0.00000000000E+00 0.  1.
          1   -1    0    0  502    0 -0.00000000000E+00 -0.00000000000E+00 -0.10889687792E+04  0.10889687792E+04  0.00000000000E+00 0. -1.
         23    2    1    2    0    0 -0.10112620993E+02  0.13818280662E+03 -0.84467229040E+03  0.86086613974E+03  0.91774066293E+02 0.  0.
        -24    2    1    2    0    0 -0.21992184241E+02 -0.11450364277E+03 -0.19901137270E+03  0.24432035051E+03  0.80573983616E+02 0.  0.
         13    1    4    4    0    0  0.29606083881E+02 -0.34281242573E+02 -0.50723217233E+02  0.68004180471E+02  0.00000000000E+00 0. -1.
        -14    1    4    4    0    0 -0.51598268122E+02 -0.80222400197E+02 -0.14828815546E+03  0.17631617004E+03  0.00000000000E+00 0.  1.
        -13    1    3    3    0    0 -0.50792396565E+02  0.65360290018E+02 -0.42125623870E+03  0.42931183737E+03  0.00000000000E+00 0.  1.
         13    1    3    3    0    0  0.40679775573E+02  0.72822516598E+02 -0.42341605169E+03  0.43155430237E+03  0.00000000000E+00 0. -1.
          2    1    1    2  501    0  0.32104805234E+02 -0.23679163846E+02  0.12840968684E+02  0.41908373820E+02  0.00000000000E+00 0. -1.
<scales pt_clust_5="13000.00000" pt_clust_6="13000.00000" pt_clust_7="13000.00000" pt_clust_8="13000.00000" pt_clust_9="39.89262"></scales>
<clustering>
<clus scale="   39.893">  1  9  2 -1</clus>
<clus scale="   80.574">  5  6 -1 -1</clus>
<clus scale="   91.774">  7  8 -1 -1</clus>
<clus scale="  154.613">  1  5  2 -1</clus>
<clus scale="   39.893">  1  5  2 -1</clus>
</clustering>
</event>
<event>
 9    1  0.6345107E-005  0.1758287E+03  0.7546771E-02  0.1173526E+00
          1   -1    0    0  502    0 -0.00000000000E+00  0.00000000000E+00  0.49752008496E+03  0.49752008496E+03  0.00000000000E+00 0. -1.
         21   -1    0    0  501  502  0.00000000000E+00 -0.00000000000E+00 -0.14776934091E+03  0.14776934091E+03  0.00000000000E+00 0. -1.
        -24    2    1    2    0    0  0.50548283841E+02  0.97904843724E+02  0.96847182039E+02  0.16702852026E+03  0.79866529202E+02 0.  0.
         23    2    1    2    0    0 -0.32456916339E+01 -0.19842258853E+03  0.28794957598E+03  0.36177238538E+03  0.92640392726E+02 0.  0.
         11    1    3    3    0    0  0.67062297066E+02  0.60721011721E+02  0.44761220679E+02  0.10093542405E+03  0.00000000000E+00 0. -1.
        -12    1    3    3    0    0 -0.16514013224E+02  0.37183832004E+02  0.52085961360E+02  0.66093096206E+02  0.00000000000E+00 0.  1.
        -13    1    4    4    0    0  0.31707775508E+02 -0.66409695661E+02  0.55487027732E+02  0.92165291471E+02  0.00000000000E+00 0.  1.
         13    1    4    4    0    0 -0.34953467142E+02 -0.13201289287E+03  0.23246254825E+03  0.26960709391E+03  0.00000000000E+00 0. -1.
          2    1    1    2  501    0 -0.47302592208E+02  0.10051774481E+03 -0.35046013964E+02  0.11648852023E+03  0.00000000000E+00 0. -1.
<scales pt_clust_5="13000.00000" pt_clust_6="13000.00000" pt_clust_7="13000.00000" pt_clust_8="13000.00000" pt_clust_9="111.09164"></scales>
<clustering>
<clus scale="   79.867">  5  6 -1 -1</clus>
<clus scale="   92.640">  7  8 -1 -1</clus>
<clus scale="  111.092">  2  9  1 -1</clus>
<clus scale="  169.447">  1  5  2 -1</clus>
<clus scale="  111.092">  2  5  1 -1</clus>
</clustering>
</event>
<event>
 9    1  0.6345107E-005  0.9882906E+02  0.7546771E-02  0.1289367E+00
          1   -1    0    0  502    0 -0.00000000000E+00  0.00000000000E+00  0.29138301828E+03  0.29138301828E+03  0.00000000000E+00 0. -1.
         21   -1    0    0  501  502  0.00000000000E+00 -0.00000000000E+00 -0.64750122731E+02  0.64750122731E+02  0.00000000000E+00 0.  1.
        -24    2    1    2    0    0  0.12946665653E+02 -0.24448780046E+02  0.11323224929E+03  0.14142271125E+03  0.80084218057E+02 0.  0.
         23    2    1    2    0    0 -0.36280084195E+02  0.46919570904E+02  0.14767615222E+02  0.11089395864E+03  0.92529438351E+02 0.  0.
         11    1    3    3    0    0  0.29657229642E+02  0.18501529019E+02  0.29049648335E+02  0.45450411599E+02  0.00000000000E+00 0. -1.
        -12    1    3    3    0    0 -0.16710563989E+02 -0.42950309065E+02  0.84182600952E+02  0.95972299653E+02  0.00000000000E+00 0.  1.
        -11    1    4    4    0    0 -0.18897306288E+02  0.26702076458E+02 -0.38985249737E+02  0.50891637517E+02  0.00000000000E+00 0.  1.
         11    1    4    4    0    0 -0.17382777907E+02  0.20217494446E+02  0.53752864959E+02  0.60002321128E+02  0.00000000000E+00 0. -1.
          2    1    1    2  501    0  0.23333418542E+02 -0.22470790858E+02  0.98633031037E+02  0.10381647111E+03  0.00000000000E+00 0. -1.
<scales pt_clust_5="13000.00000" pt_clust_6="13000.00000" pt_clust_7="13000.00000" pt_clust_8="13000.00000" pt_clust_9="32.39423"></scales>
<clustering>
<clus scale="   32.394">  2  9  1 -1</clus>
<clus scale="   80.084">  5  6 -1 -1</clus>
<clus scale="   87.287">  1  5  2 -1</clus>
<clus scale="   92.529">  7  8 -1 -1</clus>
<clus scale="   32.394">  2  5  1 -1</clus>
</clustering>
</event>
<event>
 9    1  0.6345107E-005  0.1336004E+03  0.7546771E-02  0.1225386E+00
         21   -1    0    0  501  502  0.00000000000E+00  0.00000000000E+00  0.35757636784E+02  0.35757636784E+02  0.00000000000E+00 0.  1.
          1   -1    0    0  502    0 -0.00000000000E+00 -0.00000000000E+00 -0.91459775016E+03  0.91459775016E+03  0.00000000000E+00 0. -1.
        -24    2    1    2    0    0  0.51165030382E+02 -0.76892178602E+02 -0.33911677104E+03  0.36025659644E+03  0.79084533349E+02 0.  0.
         23    2    1    2    0    0 -0.93990540733E+02  0.62158468859E+02 -0.19973962481E+03  0.24711185966E+03  0.92035082830E+02 0.  0.
         13    1    3    3    0    0  0.51072174398E+02 -0.11659935881E+02 -0.19764687600E+03  0.20447153517E+03  0.00000000000E+00 0. -1.
        -14    1    3    3    0    0  0.92855983525E-01 -0.65232242720E+02 -0.14146989504E+03  0.15578506127E+03  0.00000000000E+00 0.  1.
        -11    1    4    4    0    0 -0.29041349402E+02 -0.22744227445E+02 -0.68932650327E+02  0.78181904161E+02  0.00000000000E+00 0. -1.
         11    1    4    4    0    0 -0.64949191331E+02  0.84902696304E+02 -0.13080697448E+03  0.16892995550E+03  0.00000000000E+00 0.  1.
          2    1    1    2  501    0  0.42825510351E+02  0.14733709743E+02 -0.33998371754E+03  0.34298693084E+03  0.00000000000E+00 0. -1.
<scales pt_clust_5="13000.00000" pt_clust_6="13000.00000" pt_clust_7="13000.00000" pt_clust_8="13000.00000" pt_clust_9="45.28917"></scales>
<clustering>
<clus scale="   45.289">  1  9  2 -1</clus>
<clus scale="   79.085">  5  6 -1 -1</clus>
<clus scale="   92.035">  7  8 -1 -1</clus>
<clus scale="  125.032">  2  5  1 -1</clus>
<clus scale="   45.289">  1  5  2 -1</clus>
</clustering>
</event>
<event>
 9    1  0.6345107E-005  0.1079780E+03  0.7546771E-02  0.1268178E+00
          3   -1    0    0  502    0 -0.00000000000E+00  0.00000000000E+00  0.18642076253E+02  0.18642076253E+02  0.00000000000E+00 0. -1.
         21   -1    0    0  501  502  0.00000000000E+00 -0.00000000000E+00 -0.10850889716E+04  0.10850889716E+04  0.00000000000E+00 0.  1.
        -24    2    1    2    0    0 -0.20329962203E+02 -0.47311350760E+02 -0.26061578651E+03  0.27789344736E+03  0.81562912127E+02 0.  0.
         23    2    1    2    0    0 -0.26417511311E+02  0.79124862889E+02 -0.51617154616E+03  0.53071035999E+03  0.90894401964E+02 0.  0.
         13    1    3    3    0    0 -0.16246372063E+02 -0.32190299269E+02 -0.30448834435E+02  0.47194189162E+02  0.00000000000E+00 0. -1.
        -14    1    3    3    0    0 -0.40835901405E+01 -0.15121051491E+02 -0.23016695207E+03  0.23069925820E+03  0.00000000000E+00 0.  1.
        -11    1    4    4    0    0  0.29555076483E+02  0.40145745744E+02 -0.14517231705E+03  0.15349327374E+03  0.00000000000E+00 0. -1.
         11    1    4    4    0    0 -0.55972587794E+02  0.38979117145E+02 -0.37099922911E+03  0.37721708625E+03  0.00000000000E+00 0.  1.
          4    1    1    2  501    0  0.46747473515E+02 -0.31813512129E+02 -0.28965956273E+03  0.29512724055E+03  0.00000000000E+00 0. -1.
<scales pt_clust_5="13000.00000" pt_clust_6="13000.00000" pt_clust_7="13000.00000" pt_clust_8="13000.00000" pt_clust_9="56.54579"></scales>
<clustering>
<clus scale="   56.546">  2  9  1 -1</clus>
<clus scale="   81.563">  5  6 -1 -1</clus>
<clus scale="   90.894">  7  8 -1 -1</clus>
<clus scale="  100.249">  1  5  2 -1</clus>
<clus scale="   56.546">  2  5  1 -1</clus>
</clustering>
</event>
<event>
 9    1  0.6345107E-005  0.9882987E+02  0.7546771E-02  0.1285667E+00
         21   -1    0    0  501  502  0.00000000000E+00  0.00000000000E+00  0.92495664228E+02  0.92495664228E+02  0.00000000000E+00 0. -1.
          1   -1    0    0  502    0 -0.00000000000E+00 -0.00000000000E+00 -0.42839637838E+03  0.42839637838E+03  0.00000000000E+00 0. -1.
        -24    2    1    2    0    0  0.30562077402E+02 -0.35185020324E+02 -0.34087384363E+03  0.35357567953E+03  0.81539914506E+02 0.  0.
         23    2    1    2    0    0  0.16653731031E+02  0.63260004743E+02 -0.11746390506E+02  0.10989616049E+03  0.87521502754E+02 0.  0.
         13    1    3    3    0    0  0.58751703115E+02 -0.24385222378E+02 -0.22266147397E+03  0.23156971667E+03  0.00000000000E+00 0. -1.
        -14    1    3    3    0    0 -0.28189625713E+02 -0.10799797946E+02 -0.11821236966E+03  0.12200596286E+03  0.00000000000E+00 0.  1.
        -11    1    4    4    0    0  0.13407701530E+02 -0.20171761391E+02 -0.10481160135E+02  0.26391686868E+02  0.00000000000E+00 0.  1.
         11    1    4    4    0    0  0.32460295010E+01  0.83431766134E+02 -0.12652303705E+01  0.83504473627E+02  0.00000000000E+00 0. -1.
          2    1    1    2  501    0 -0.47215808433E+02 -0.28074984419E+02  0.16719519981E+02  0.57420202581E+02  0.00000000000E+00 0. -1.
<scales pt_clust_5="13000.00000" pt_clust_6="13000.00000" pt_clust_7="13000.00000" pt_clust_8="13000.00000" pt_clust_9="54.93212"></scales>
<clustering>
<clus scale="   54.932">  1  9  2 -1</clus>
<clus scale="   81.540">  5  6 -1 -1</clus>
<clus scale="   87.522">  7  8 -1 -1</clus>
<clus scale="   93.574">  2  5  1 -1</clus>
<clus scale="   54.932">  1  5  2 -1</clus>
</clustering>
</event>
<event>
 9    1  0.6345107E-005  0.9094129E+02  0.7546771E-02  0.1304226E+00
          1   -1    0    0  502    0 -0.00000000000E+00  0.00000000000E+00  0.66483459010E+03  0.66483459010E+03  0.00000000000E+00 0. -1.
         21   -1    0    0  501  502  0.00000000000E+00 -0.00000000000E+00 -0.36618384902E+02  0.36618384902E+02  0.00000000000E+00 0. -1.
         23    2    1    2    0    0 -0.12539844141E+02  0.14302474859E+01  0.36920325869E+03  0.38029344502E+03  0.90292661905E+02 0.  0.
        -24    2    1    2    0    0 -0.62339320127E+02 -0.18372098084E+02  0.19056497460E+03  0.21830506775E+03  0.84370422785E+02 0.  0.
         11    1    4    4    0    0 -0.54615076190E+02  0.26523986547E+02  0.10174390660E+03  0.11848270313E+03  0.00000000000E+00 0. -1.
        -12    1    4    4    0    0 -0.77242439379E+01 -0.44896084630E+02  0.88821067997E+02  0.99822364627E+02  0.00000000000E+00 0.  1.
        -11    1    3    3    0    0  0.35997358418E+02  0.40485704223E+01  0.92256337808E+02  0.99113231212E+02  0.00000000000E+00 0.  1.
         11    1    3    3    0    0 -0.48537202560E+02 -0.26183229364E+01  0.27694692088E+03  0.28118021380E+03  0.00000000000E+00 0. -1.
          2    1    1    2  501    0  0.74879164269E+02  0.16941850598E+02  0.68447971909E+02  0.10285446224E+03  0.00000000000E+00 0. -1.
<scales pt_clust_5="13000.00000" pt_clust_6="13000.00000" pt_clust_7="13000.00000" pt_clust_8="13000.00000" pt_clust_9="76.77184"></scales>
<clustering>
<clus scale="   76.772">  2  9  1 -1</clus>
<clus scale="   84.370">  5  6 -1 -1</clus>
<clus scale="   85.064">  2  5  1 -1</clus>
<clus scale="   90.293">  7  8 -1 -1</clus>
<clus scale="   76.772">  2  5  1 -1</clus>
</clustering>
</event>
<event>
 9    1  0.6345107E-005  0.4726591E+03  0.7546771E-02  0.1041749E+00
         21   -1    0    0  501  502  0.00000000000E+00  0.00000000000E+00  0.11595569950E+04  0.11595569950E+04  0.00000000000E+00 0. -1.
          1   -1    0    0  502    0 -0.00000000000E+00 -0.00000000000E+00 -0.61218056406E+03  0.61218056406E+03  0.00000000000E+00 0. -1.
         23    2    1    2    0    0  0.36349098051E+02  0.23668126639E+03  0.13424570944E+03  0.29004844625E+03  0.93631788833E+02 0.  0.
        -24    2    1    2    0    0  0.29775996305E+02  0.25509085684E+03 -0.42776445390E+03  0.50530955276E+03  0.79983503884E+02 0.  0.
         13    1    4    4    0    0 -0.13555779608E+01  0.15930392124E+03 -0.19580079537E+03  0.25242331188E+03  0.00000000000E+00 0. -1.
        -14    1    4    4    0    0  0.31131574266E+02  0.95786935597E+02 -0.23196365853E+03  0.25288624088E+03  0.00000000000E+00 0.  1.
        -13    1    3    3    0    0  0.32340469636E+01  0.21225599829E+03  0.92908049449E+02  0.23172175884E+03  0.00000000000E+00 0. -1.
         13    1    3    3    0    0  0.33115051087E+02  0.24425268104E+02  0.41337659994E+02  0.58326687410E+02  0.00000000000E+00 0.  1.
          2    1    1    2  501    0 -0.66125094356E+02 -0.49177212323E+03  0.84089517542E+03  0.97637956008E+03  0.00000000000E+00 0. -1.
<scales pt_clust_5="13000.00000" pt_clust_6="13000.00000" pt_clust_7="13000.00000" pt_clust_8="13000.00000" pt_clust_9="465.84249"></scales>
<clustering>
<clus scale="   79.984">  5  6 -1 -1</clus>
<clus scale="   93.632">  7  8 -1 -1</clus>
<clus scale="  257.111">  2  7  1 -1</clus>
<clus scale="  465.842">  1  9  2 -1</clus>
<clus scale="  465.842">  1  5  2 -1</clus>
</clustering>
</event>
<event>
 9    1  0.6345107E-005  0.1186658E+03  0.7546771E-02  0.1251827E+00
         21   -1    0    0  501  502  0.00000000000E+00  0.00000000000E+00  0.10211100745E+03  0.10211100745E+03  0.00000000000E+00 0. -1.
         -2   -1    0    0    0  501 -0.00000000000E+00 -0.00000000000E+00 -0.29958744626E+03  0.29958744626E+03  0.00000000000E+00 0.  1.
         23    2    1    2    0    0  0.56823685107E+02 -0.40052898131E+02 -0.22505904183E+03  0.25496851716E+03  0.97592041681E+02 0.  0.
        -24    2    1    2    0    0 -0.31349648940E+02  0.58324968411E+02 -0.23986881958E+01  0.10335168286E+03  0.79317174785E+02 0.  0.
         13    1    4    4    0    0 -0.36731063783E+02  0.74757257858E+02 -0.11039272915E+02  0.84021926873E+02  0.00000000000E+00 0. -1.
        -14    1    4    4    0    0  0.53814148430E+01 -0.16432289447E+02  0.86405847194E+01  0.19329755986E+02  0.00000000000E+00 0.  1.
        -11    1    3    3    0    0  0.56747087229E+02  0.76011723419E+01 -0.59025211809E+02  0.82231291848E+02  0.00000000000E+00 0. -1.
         11    1    3    3    0    0  0.76597878440E-01 -0.47654070473E+02 -0.16603383002E+03  0.17273722532E+03  0.00000000000E+00 0.  1.
         -1    1    1    2    0  502 -0.25474036167E+02 -0.18272070280E+02  0.29981291209E+02  0.43378253694E+02  0.00000000000E+00 0.  1.
<scales pt_clust_5="13000.00000" pt_clust_6="13000.00000" pt_clust_7="13000.00000" pt_clust_8="13000.00000" pt_clust_9="31.34956"></scales>
<clustering>
<clus scale="   31.350">  1  9  2 -1</clus>
<clus scale="   79.317">  5  6 -1 -1</clus>
<clus scale="   97.592">  7  8 -1 -1</clus>
<clus scale="  104.156">  1  5  2 -1</clus>
<clus scale="   31.350">  1  5  2 -1</clus>
</clustering>
</event>
<event>
 9    1  0.6345107E-005  0.1028898E+03  0.7546771E-02  0.1279320E+00
         21   -1    0    0  501  502  0.00000000000E+00  0.00000000000E+00  0.54310249474E+02  0.54310249474E+02  0.00000000000E+00 0. -1.
         -4   -1    0    0    0  501 -0.00000000000E+00 -0.00000000000E+00 -0.36694640329E+03  0.36694640329E+03  0.00000000000E+00 0.  1.
        -24    2    1    2    0    0  0.52540063477E+02 -0.41166001387E+02 -0.21751336649E+03  0.24118807266E+03  0.80028269069E+02 0.  0.
         23    2    1    2    0    0  0.54344660095E+00  0.21694204521E+02 -0.76021763747E+02  0.12038726798E+03  0.90790153016E+02 0.  0.
         11    1    3    3    0    0  0.65604294815E+02 -0.15902671522E+02 -0.10265808964E+03  0.12286375311E+03  0.00000000000E+00 0. -1.
        -12    1    3    3    0    0 -0.13064231338E+02 -0.25263329865E+02 -0.11485527685E+03  0.11832431954E+03  0.00000000000E+00 0.  1.
        -13    1    4    4    0    0 -0.21803196227E+02  0.10361148755E+02 -0.88967544787E+02  0.92184363070E+02  0.00000000000E+00 0.  1.
         13    1    4    4    0    0  0.22346642828E+02  0.11333055765E+02  0.12945781039E+02  0.28202904911E+02  0.00000000000E+00 0. -1.
         -3    1    1    2    0  502 -0.53083510078E+02  0.19471796866E+02 -0.19101023580E+02  0.59681312127E+02  0.00000000000E+00 0.  1.
<scales pt_clust_5="13000.00000" pt_clust_6="13000.00000" pt_clust_7="13000.00000" pt_clust_8="13000.00000" pt_clust_9="56.54211"></scales>
<clustering>
<clus scale="   56.542">  1  9  2 -1</clus>
<clus scale="   80.028">  5  6 -1 -1</clus>
<clus scale="   90.790">  7  8 -1 -1</clus>
<clus scale="   93.531">  2  5  1 -1</clus>
<clus scale="   56.542">  1  5  2 -1</clus>
</clustering>
</event>
<event>
 9    1  0.6345107E-005  0.1293266E+03  0.7546771E-02  0.1231187E+00
          1   -1    0    0  502    0 -0.00000000000E+00  0.00000000000E+00  0.26505330188E+03  0.26505330188E+03  0.00000000000E+00 0. -1.
         21   -1    0    0  501  502  0.00000000000E+00 -0.00000000000E+00 -0.14329386112E+03  0.14329386112E+03  0.00000000000E+00 0. -1.
         23    2    1    2    0    0  0.43225908431E+02 -0.70399231753E+02  0.11933406195E+03  0.17158816453E+03  0.91527858451E+02 0.  0.
        -24    2    1    2    0    0 -0.54261701247E+02  0.11640427239E+03 -0.55678534059E+02  0.16183025113E+03  0.81207414516E+02 0.  0.
         13    1    4    4    0    0 -0.61038587201E+02  0.37865026865E+02 -0.16057774530E+02  0.73602455868E+02  0.00000000000E+00 0. -1.
        -14    1    4    4    0    0  0.67768859538E+01  0.78539245525E+02 -0.39620759528E+02  0.88227795260E+02  0.00000000000E+00 0.  1.
        -13    1    3    3    0    0  0.19070374839E+02  0.20571284871E+02  0.18233681415E+02  0.33456301285E+02  0.00000000000E+00 0.  1.
         13    1    3    3    0    0  0.24155533592E+02 -0.90970516624E+02  0.10110038054E+03  0.13813186324E+03  0.00000000000E+00 0. -1.
          2    1    1    2  501    0  0.11035792816E+02 -0.46005040638E+02  0.58103912867E+02  0.74928747338E+02  0.00000000000E+00 0. -1.
<scales pt_clust_5="13000.00000" pt_clust_6="13000.00000" pt_clust_7="13000.00000" pt_clust_8="13000.00000" pt_clust_9="47.31020"></scales>
<clustering>
<clus scale="   47.310">  2  9  1 -1</clus>
<clus scale="   81.207">  5  6 -1 -1</clus>
<clus scale="   91.528">  7  8 -1 -1</clus>
<clus scale="  122.240">  2  5  1 -1</clus>
<clus scale="   47.310">  2  5  1 -1</clus>
</clustering>
</event>
<event>
 9    1  0.6345107E-005  0.9932341E+02  0.7546771E-02  0.1288958E+00
         21   -1    0    0  501  502  0.00000000000E+00  0.00000000000E+00  0.54875688029E+02  0.54875688029E+02  0.00000000000E+00 0. -1.
          1   -1    0    0  502    0 -0.00000000000E+00 -0.00000000000E+00 -0.26897955948E+03  0.26897955948E+03  0.00000000000E+00 0. -1.
         23    2    1    2    0    0 -0.41109595259E+01 -0.37828311666E+02 -0.16539071687E+03  0.19359304032E+03  0.93146631082E+02 0.  0.
        -24    2    1    2    0    0  0.30528814367E+02  0.20480200836E+02 -0.44914862679E+02  0.98430037530E+02  0.79496416686E+02 0.  0.
         13    1    4    4    0    0  0.31324110599E+02 -0.21939224683E+02 -0.23244281889E+01  0.38313606603E+02  0.00000000000E+00 0. -1.
        -14    1    4    4    0    0 -0.79529623268E+00  0.42419425519E+02 -0.42590434490E+02  0.60116430928E+02  0.00000000000E+00 0.  1.
        -11    1    3    3    0    0 -0.18700687572E+02 -0.79990083601E+01  0.42112076209E+01  0.20770992274E+02  0.00000000000E+00 0.  1.
         11    1    3    3    0    0  0.14589728046E+02 -0.29829303306E+02 -0.16960192449E+03  0.17282204804E+03  0.00000000000E+00 0. -1.
          2    1    1    2  501    0 -0.26417854841E+02  0.17348110829E+02 -0.37982919018E+01  0.31832169658E+02  0.00000000000E+00 0. -1.
<scales pt_clust_5="13000.00000" pt_clust_6="13000.00000" pt_clust_7="13000.00000" pt_clust_8="13000.00000" pt_clust_9="31.60475"></scales>
<clustering>
<clus scale="   31.605">  1  9  2 -1</clus>
<clus scale="   79.496">  5  6 -1 -1</clus>
<clus scale="   86.652">  1  5  2 -1</clus>
<clus scale="   93.147">  7  8 -1 -1</clus>
<clus scale="   31.605">  1  5  2 -1</clus>
</clustering>
</event>
<event>
 9    1  0.6345107E-005  0.1257397E+03  0.7546771E-02  0.1238604E+00
          1   -1    0    0  502    0 -0.00000000000E+00  0.00000000000E+00  0.30315056385E+03  0.30315056385E+03  0.00000000000E+00 0. -1.
         21   -1    0    0  501  502  0.00000000000E+00 -0.00000000000E+00 -0.93076501701E+02  0.93076501701E+02  0.00000000000E+00 0.  1.
         23    2    1    2    0    0  0.78476425673E+02 -0.14583702771E+01  0.21332734187E+03  0.24666522655E+03  0.95783625811E+02 0.  0.
        -24    2    1    2    0    0 -0.91608897625E+02  0.23387824789E+02 -0.14162254279E+01  0.12393494758E+03  0.80116696548E+02 0.  0.
         11    1    4    4    0    0 -0.30564094408E+02 -0.28557956374E+02 -0.10884546684E+02  0.43222610932E+02  0.00000000000E+00 0. -1.
        -12    1    4    4    0    0 -0.61044803216E+02  0.51945781164E+02  0.94683212556E+01  0.80712336652E+02  0.00000000000E+00 0.  1.
        -11    1    3    3    0    0  0.33406550758E+01 -0.39220656398E+02  0.77272148735E+02  0.86720267727E+02  0.00000000000E+00 0.  1.
         11    1    3    3    0    0  0.75135770597E+02  0.37762286121E+02  0.13605519313E+03  0.15994495883E+03  0.00000000000E+00 0. -1.
          2    1    1    2  501    0  0.13132471952E+02 -0.21929454512E+02 -0.18370542939E+01  0.25626891408E+02  0.00000000000E+00 0. -1.
<scales pt_clust_5="13000.00000" pt_clust_6="13000.00000" pt_clust_7="13000.00000" pt_clust_8="13000.00000" pt_clust_9="25.56096"></scales>
<clustering>
<clus scale="   25.561">  2  9  1 -1</clus>
<clus scale="   80.117">  5  6 -1 -1</clus>
<clus scale="   95.784">  7  8 -1 -1</clus>
<clus scale="  114.257">  2  5  1 -1</clus>
<clus scale="   25.561">  2  5  1 -1</clus>
</clustering>
</event>
<event>
 9    1  0.6345107E-005  0.1276449E+03  0.7546771E-02  0.1233155E+00
         21   -1    0    0  501  502  0.00000000000E+00  0.00000000000E+00  0.96423465190E+02  0.96423465190E+02  0.00000000000E+00 0. -1.
         -4   -1    0    0    0  501 -0.00000000000E+00 -0.00000000000E+00 -0.54469028004E+03  0.54469028004E+03  0.00000000000E+00 0.  1.
        -24    2    1    2    0    0  0.32036962650E+02 -0.11063016148E+03 -0.10910611856E+03  0.17763967917E+03  0.79914397349E+02 0.  0.
         23    2    1    2    0    0  0.53642391274E+02  0.62890610759E+02 -0.11445470351E+02  0.12139617185E+03  0.88166301302E+02 0.  0.
         11    1    3    3    0    0  0.78896859333E+01 -0.11229955309E+03 -0.73007681256E+02  0.13417733896E+03  0.00000000000E+00 0. -1.
        -12    1    3    3    0    0  0.24147276717E+02  0.16693916026E+01 -0.36098437303E+02  0.43462340214E+02  0.00000000000E+00 0.  1.
        -13    1    4    4    0    0  0.77033427037E+02  0.46613151326E+02 -0.18766597505E+02  0.91973474108E+02  0.00000000000E+00 0.  1.
         13    1    4    4    0    0 -0.23391035763E+02  0.16277459433E+02  0.73211271533E+01  0.29422697743E+02  0.00000000000E+00 0. -1.
         -3    1    1    2    0  502 -0.85679353923E+02  0.47739550725E+02 -0.32771522594E+03  0.34207789420E+03  0.00000000000E+00 0.  1.
<scales pt_clust_5="13000.00000" pt_clust_6="13000.00000" pt_clust_7="13000.00000" pt_clust_8="13000.00000" pt_clust_9="98.08173"></scales>
<clustering>
<clus scale="   79.914">  5  6 -1 -1</clus>
<clus scale="   88.166">  7  8 -1 -1</clus>
<clus scale="   98.082">  1  9  2 -1</clus>
<clus scale="  122.091">  2  5  1 -1</clus>
<clus scale="   98.082">  1  5  2 -1</clus>
</clustering>
</event>
<event>
 9    1  0.6717158E-005  0.1006739E+03  0.7546771E-02  0.1285490E+00
         21   -1    0    0  501  502  0.00000000000E+00  0.00000000000E+00  0.11632702277E+03  0.11632702277E+03  0.00000000000E+00 0.  1.
          3   -1    0    0  502    0 -0.00000000000E+00 -0.00000000000E+00 -0.22093796244E+03  0.22093796244E+03  0.00000000000E+00 0. -1.
         23    2    1    2    0    0 -0.10259756364E+02  0.33286248768E+02 -0.17173954956E+03  0.19865808880E+03  0.93580587747E+02 0.  0.
        -24    2    1    2    0    0  0.32756870123E+02 -0.41947962274E+02  0.48552191649E+02  0.10817289037E+03  0.80693338130E+02 0.  0.
         13    1    4    4    0    0 -0.24520088360E+02 -0.10215159762E+02 -0.15617941767E+00  0.26563294490E+02  0.00000000000E+00 0. -1.
        -14    1    4    4    0    0  0.57276958483E+02 -0.31732802512E+02  0.48708371067E+02  0.81609595884E+02  0.00000000000E+00 0.  1.
        -11    1    3    3    0    0  0.27430012318E+02 -0.19411858966E+02 -0.43367828759E+02  0.54863416003E+02  0.00000000000E+00 0.  1.
         11    1    3    3    0    0 -0.37689768682E+02  0.52698107734E+02 -0.12837172080E+03  0.14379467280E+03  0.00000000000E+00 0. -1.
          4    1    1    2  501    0 -0.22497113759E+02  0.86617135053E+01  0.18576418249E+02  0.30434006034E+02  0.00000000000E+00 0. -1.
<scales pt_clust_5="13000.00000" pt_clust_6="13000.00000" pt_clust_7="13000.00000" pt_clust_8="13000.00000" pt_clust_9="24.10696"></scales>
<clustering>
<clus scale="   24.107">  1  9  2 -1</clus>
<clus scale="   80.693">  5  6 -1 -1</clus>
<clus scale="   88.822">  1  5  2 -1</clus>
<clus scale="   93.581">  7  8 -1 -1</clus>
<clus scale="   24.107">  1  5  2 -1</clus>
</clustering>
</event>
<event>
 9    1  0.6345107E-005  0.1149854E+03  0.7546771E-02  0.1255805E+00
         21   -1    0    0  501  502  0.00000000000E+00  0.00000000000E+00  0.21961567644E+03  0.21961567644E+03  0.00000000000E+00 0. -1.
          1   -1    0    0  502    0 -0.00000000000E+00 -0.00000000000E+00 -0.13361090160E+03  0.13361090160E+03  0.00000000000E+00 0. -1.
        -24    2    1    2    0    0 -0.39406420985E+02  0.77294551333E+02 -0.57474088985E+02  0.13003205809E+03  0.77959935515E+02 0.  0.
         23    2    1    2    0    0  0.44130822536E+02 -0.14174065813E+02  0.57601430208E+02  0.11651064457E+03  0.90046498522E+02 0.  0.
         11    1    3    3    0    0  0.16356101417E+02  0.36324488417E+02  0.37754794685E+00  0.39838838522E+02  0.00000000000E+00 0. -1.
        -12    1    3    3    0    0 -0.55762522402E+02  0.40970062916E+02 -0.57851636932E+02  0.90193219566E+02  0.00000000000E+00 0.  1.
        -11    1    4    4    0    0  0.76252474987E+01  0.32978981027E+02  0.43705106388E+02  0.55280140316E+02  0.00000000000E+00 0. -1.
         11    1    4    4    0    0  0.36505575037E+02 -0.47153046840E+02  0.13896323820E+02  0.61230504251E+02  0.00000000000E+00 0.  1.
          2    1    1    2  501    0 -0.47244015510E+01 -0.63120485520E+02  0.85877433615E+02  0.10668387538E+03  0.00000000000E+00 0. -1.
<scales pt_clust_5="13000.00000" pt_clust_6="13000.00000" pt_clust_7="13000.00000" pt_clust_8="13000.00000" pt_clust_9="63.29704"></scales>
<clustering>
<clus scale="   63.297">  1  9  2 -1</clus>
<clus scale="   77.960">  5  6 -1 -1</clus>
<clus scale="   90.046">  7  8 -1 -1</clus>
<clus scale="  105.788">  2  5  1 -1</clus>
<clus scale="   63.297">  1  5  2 -1</clus>
</clustering>
</event>
<event>
 9    1  0.6345107E-005  0.9285375E+02  0.7546771E-02  0.1304320E+00
         21   -1    0    0  501  502  0.00000000000E+00  0.00000000000E+00  0.48056009225E+02  0.48056009225E+02  0.00000000000E+00 0. -1.
          1   -1    0    0  502    0 -0.00000000000E+00 -0.00000000000E+00 -0.55185847555E+03  0.55185847555E+03  0.00000000000E+00 0. -1.
         23    2    1    2    0    0  0.10181470950E+02 -0.67745548630E+01 -0.30393525530E+03  0.31742203597E+03  0.90722392837E+02 0.  0.
        -24    2    1    2    0    0 -0.57047800193E+02  0.25406653020E+02 -0.27790238685E+02  0.10317682676E+03  0.77286549215E+02 0.  0.
         13    1    4    4    0    0 -0.72220601596E+02  0.30846854063E+02 -0.34424789300E+02  0.85746194194E+02  0.00000000000E+00 0. -1.
        -14    1    4    4    0    0  0.15172801402E+02 -0.54402010428E+01  0.66345506156E+01  0.17430632566E+02  0.00000000000E+00 0.  1.
        -11    1    3    3    0    0 -0.14355264394E+02  0.32801940373E+02 -0.20465814766E+03  0.20776669202E+03  0.00000000000E+00 0.  1.
         11    1    3    3    0    0  0.24536735344E+02 -0.39576495236E+02 -0.99277107637E+02  0.10965534395E+03  0.00000000000E+00 0. -1.
          2    1    1    2  501    0  0.46866329244E+02 -0.18632098157E+02 -0.17207697234E+03  0.17931562204E+03  0.00000000000E+00 0. -1.
<scales pt_clust_5="13000.00000" pt_clust_6="13000.00000" pt_clust_7="13000.00000" pt_clust_8="13000.00000" pt_clust_9="50.43422"></scales>
<clustering>
<clus scale="   50.434">  1  9  2 -1</clus>
<clus scale="   77.287">  5  6 -1 -1</clus>
<clus scale="   79.778">  1  5  2 -1</clus>
<clus scale="   90.722">  7  8 -1 -1</clus>
<clus scale="   50.434">  1  5  2 -1</clus>
</clustering>
</event>
<event>
 9    1  0.6345107E-005  0.1096423E+03  0.7546771E-02  0.1265904E+00
         21   -1    0    0  501  502  0.00000000000E+00  0.00000000000E+00  0.47741325491E+02  0.47741325491E+02  0.00000000000E+00 0.  1.
         -2   -1    0    0    0  501 -0.00000000000E+00 -0.00000000000E+00 -0.59459148839E+03  0.59459148839E+03  0.00000000000E+00 0.  1.
        -24    2    1    2    0    0 -0.18037105419E+02 -0.55377251014E+02 -0.22813227027E+03  0.24911860547E+03  0.81386545274E+02 0.  0.
         23    2    1    2    0    0 -0.45006846924E+02 -0.23448238487E+02 -0.69431974851E+02  0.12426910895E+03  0.89702709819E+02 0.  0.
         11    1    3    3    0    0 -0.48046328391E+02 -0.49774967763E+02 -0.16783096365E+03  0.18153024389E+03  0.00000000000E+00 0. -1.
        -12    1    3    3    0    0  0.30009222971E+02 -0.56022832507E+01 -0.60301306620E+02  0.67588361580E+02  0.00000000000E+00 0.  1.
        -11    1    4    4    0    0 -0.46685794215E+02 -0.53610324053E+02 -0.58762307098E+02  0.92231442372E+02  0.00000000000E+00 0.  1.
         11    1    4    4    0    0  0.16789472909E+01  0.30162085566E+02 -0.10669667753E+02  0.32037666576E+02  0.00000000000E+00 0. -1.
         -1    1    1    2    0  502  0.63043952343E+02  0.78825489501E+02 -0.24928591777E+03  0.26894509946E+03  0.00000000000E+00 0.  1.
<scales pt_clust_5="13000.00000" pt_clust_6="13000.00000" pt_clust_7="13000.00000" pt_clust_8="13000.00000" pt_clust_9="63.04653"></scales>
<clustering>
<clus scale="   81.387">  5  6 -1 -1</clus>
<clus scale="   89.703">  7  8 -1 -1</clus>
<clus scale="  100.079">  2  5  1 -1</clus>
<clus scale="   63.047">  1  9  2 -1</clus>
<clus scale="   63.047">  1  5  2 -1</clus>
</clustering>
</event>
<event>
 9    1  0.6345107E-005  0.1056912E+03  0.7546771E-02  0.1282982E+00
          1   -1    0    0  502    0 -0.00000000000E+00  0.00000000000E+00  0.10957588866E+03  0.10957588866E+03  0.00000000000E+00 0. -1.
         21   -1    0    0  501  502  0.00000000000E+00 -0.00000000000E+00 -0.36548686677E+03  0.36548686677E+03  0.00000000000E+00 0. -1.
         23    2    1    2    0    0 -0.26968537638E+02 -0.20247626434E+02  0.59384763758E+02  0.12185396167E+03  0.10091862767E+03 0.  0.
        -24    2    1    2    0    0 -0.27334253754E+02  0.52645472380E+02 -0.16908018693E+03  0.19390593100E+03  0.74112706561E+02 0.  0.
         11    1    4    4    0    0 -0.18544986167E+02  0.71636740646E+02 -0.13109891362E+03  0.15054123779E+03  0.00000000000E+00 0. -1.
        -12    1    4    4    0    0 -0.87892675869E+01 -0.18991268266E+02 -0.37981273314E+02  0.43364693215E+02  0.00000000000E+00 0.  1.
        -13    1    3    3    0    0 -0.11707135804E+02 -0.54513855493E+02  0.63046427824E+02  0.84164538439E+02  0.00000000000E+00 0. -1.
         13    1    3    3    0    0 -0.15261401833E+02  0.34266229058E+02 -0.36616640657E+01  0.37689423232E+02  0.00000000000E+00 0.  1.
          2    1    1    2  501    0  0.54302791392E+02 -0.32397845946E+02 -0.14621555494E+03  0.15930286275E+03  0.00000000000E+00 0. -1.
<scales pt_clust_5="13000.00000" pt_clust_6="13000.00000" pt_clust_7="13000.00000" pt_clust_8="13000.00000" pt_clust_9="63.23301"></scales>
<clustering>
<clus scale="   63.233">  2  9  1 -1</clus>
<clus scale="   74.113">  5  6 -1 -1</clus>
<clus scale="   80.491">  2  5  1 -1</clus>
<clus scale="  100.919">  7  8 -1 -1</clus>
<clus scale="   63.233">  2  5  1 -1</clus>
</clustering>
</event>
<event>
 9    1  0.6345107E-005  0.1510663E+03  0.7546771E-02  0.1218379E+00
         21   -1    0    0  501  502  0.00000000000E+00  0.00000000000E+00  0.13143462720E+03  0.13143462720E+03  0.00000000000E+00 0. -1.
          1   -1    0    0  502    0 -0.00000000000E+00 -0.00000000000E+00 -0.32292581714E+03  0.32292581714E+03  0.00000000000E+00 0. -1.
         23    2    1    2    0    0 -0.33870711349E+01 -0.39440483276E+02 -0.71115014520E+02  0.12282779275E+03  0.91990746324E+02 0.  0.
        -24    2    1    2    0    0 -0.15901824077E+02  0.13986654342E+03  0.14081170996E+02  0.16260594251E+03  0.80167918670E+02 0.  0.
         11    1    4    4    0    0  0.10470806862E+02  0.13276831598E+03  0.32348794710E+01  0.13321984826E+03  0.00000000000E+00 0. -1.
        -12    1    4    4    0    0 -0.26372630939E+02  0.70982274443E+01  0.10846291525E+02  0.29386094251E+02  0.00000000000E+00 0.  1.
        -13    1    3    3    0    0  0.31087875794E+02 -0.31406783747E+01  0.50819200198E+01  0.31656686388E+02  0.00000000000E+00 0.  1.
         13    1    3    3    0    0 -0.34474946928E+02 -0.36299804901E+02 -0.76196934540E+02  0.91171106360E+02  0.00000000000E+00 0. -1.
          2    1    1    2  501    0  0.19288895212E+02 -0.10042606015E+03 -0.13445734642E+03  0.16892670908E+03  0.00000000000E+00 0. -1.
<scales pt_clust_5="13000.00000" pt_clust_6="13000.00000" pt_clust_7="13000.00000" pt_clust_8="13000.00000" pt_clust_9="128.03965"></scales>
<clustering>
<clus scale="   80.168">  5  6 -1 -1</clus>
<clus scale="   91.991">  7  8 -1 -1</clus>
<clus scale="  100.146">  2  7  1 -1</clus>
<clus scale="  128.040">  1  9  2 -1</clus>
<clus scale="  128.040">  1  5  2 -1</clus>
</clustering>
</event>
<event>
 9    1  0.6345107E-005  0.1781490E+03  0.7546771E-02  0.1189759E+00
          1   -1    0    0  502    0 -0.00000000000E+00  0.00000000000E+00  0.24297472146E+03  0.24297472146E+03  0.00000000000E+00 0. -1.
         21   -1    0    0  501  502  0.00000000000E+00 -0.00000000000E+00 -0.35520601799E+03  0.35520601799E+03  0.00000000000E+00 0. -1.
         23    2    1    2    0    0  0.18377122181E+01 -0.71316023208E+02 -0.16219293153E+03  0.19780162696E+03  0.87918054099E+02 0.  0.
        -24    2    1    2    0    0 -0.57698788811E+02 -0.94797513112E+02  0.14690120002E+03  0.20010069106E+03  0.78387532633E+02 0.  0.
         11    1    4    4    0    0 -0.75337578227E+02 -0.90160765443E+02  0.13012419973E+03  0.17531976977E+03  0.00000000000E+00 0. -1.
        -12    1    4    4    0    0  0.17638789415E+02 -0.46367476695E+01  0.16777000292E+02  0.24780921286E+02  0.00000000000E+00 0.  1.
        -11    1    3    3    0    0 -0.28507199535E+02 -0.77197559393E+02 -0.11631532648E+03  0.14248290696E+03  0.00000000000E+00 0. -1.
         11    1    3    3    0    0  0.30344911753E+02  0.58815361843E+01 -0.45877605047E+02  0.55318719996E+02  0.00000000000E+00 0.  1.
          2    1    1    2  501    0  0.55861076593E+02  0.16611353632E+03 -0.96939565018E+02  0.20027842144E+03  0.00000000000E+00 0. -1.
<scales pt_clust_5="13000.00000" pt_clust_6="13000.00000" pt_clust_7="13000.00000" pt_clust_8="13000.00000" pt_clust_9="159.97640"></scales>
<clustering>
<clus scale="   78.388">  5  6 -1 -1</clus>
<clus scale="   87.918">  7  8 -1 -1</clus>
<clus scale="  113.221">  1  7  2 -1</clus>
<clus scale="  159.976">  2  9  1 -1</clus>
<clus scale="  159.976">  2  5  1 -1</clus>
</clustering>
</event>
<event>
 9    1  0.6345107E-005  0.1747428E+03  0.7546771E-02  0.1175036E+00
         21   -1    0    0  501  502  0.00000000000E+00  0.00000000000E+00  0.13276000161E+03  0.13276000161E+03  0.00000000000E+00 0. -1.
          1   -1    0    0  502    0 -0.00000000000E+00 -0.00000000000E+00 -0.48270803199E+03  0.48270803199E+03  0.00000000000E+00 0. -1.
         23    2    1    2    0    0  0.16143780115E+03  0.86245213476E+02 -0.24292945603E+03  0.31804750332E+03  0.92946722741E+02 0.  0.
        -24    2    1    2    0    0 -0.50653558132E+02 -0.67009169161E+02  0.32250043568E+02  0.11842633530E+03  0.76998181009E+02 0.  0.
         11    1    4    4    0    0 -0.29494534275E+01 -0.48822245996E+02 -0.12558789825E+02  0.50497863138E+02  0.00000000000E+00 0. -1.
        -12    1    4    4    0    0 -0.47704104704E+02 -0.18186923165E+02  0.44808833393E+02  0.67928472159E+02  0.00000000000E+00 0.  1.
        -13    1    3    3    0    0  0.10381163429E+03  0.20174233630E+02 -0.18459780800E+03  0.21274446135E+03  0.00000000000E+00 0.  1.
         13    1    3    3    0    0  0.57626166862E+02  0.66070979846E+02 -0.58331648035E+02  0.10530304197E+03  0.00000000000E+00 0. -1.
          2    1    1    2  501    0 -0.11078424302E+03 -0.19236044315E+02 -0.13926861791E+03  0.17899419498E+03  0.00000000000E+00 0. -1.
<scales pt_clust_5="13000.00000" pt_clust_6="13000.00000" pt_clust_7="13000.00000" pt_clust_8="13000.00000" pt_clust_9="112.44193"></scales>
<clustering>
<clus scale="   76.998">  5  6 -1 -1</clus>
<clus scale="   92.947">  7  8 -1 -1</clus>
<clus scale="  112.442">  1  9  2 -1</clus>
<clus scale="  166.807">  1  5  2 -1</clus>
<clus scale="  112.442">  1  5  2 -1</clus>
</clustering>
</event>
<event>
 9    1  0.6345107E-005  0.1147313E+04  0.7546771E-02  0.9723350E-01
         21   -1    0    0  501  502  0.00000000000E+00  0.00000000000E+00  0.87912728019E+03  0.87912728019E+03  0.00000000000E+00 0. -1.
          1   -1    0    0  502    0 -0.00000000000E+00 -0.00000000000E+00 -0.17685698473E+04  0.17685698473E+04  0.00000000000E+00 0. -1.
         23    2    1    2    0    0 -0.91597132137E+01  0.12897804933E+03 -0.96299690497E+02  0.18313046204E+03  0.86855616881E+02 0.  0.
        -24    2    1    2    0    0  0.11077071571E+04 -0.35485150396E+03 -0.16058283265E+03  0.11769496753E+04  0.80554058797E+02 0.  0.
         11    1    4    4    0    0  0.94759680812E+03 -0.32429310451E+03 -0.15793596852E+03  0.10139277581E+04  0.00000000000E+00 0. -1.
        -12    1    4    4    0    0  0.16011034898E+03 -0.30558399450E+02 -0.26468641332E+01  0.16302191729E+03  0.00000000000E+00 0.  1.
        -13    1    3    3    0    0 -0.43143629336E+02  0.86850862088E+02 -0.39618413178E+02  0.10475716520E+03  0.00000000000E+00 0. -1.
         13    1    3    3    0    0  0.33983916122E+02  0.42127187239E+02 -0.56681277319E+02  0.78373296844E+02  0.00000000000E+00 0.  1.
          2    1    1    2  501    0 -0.10985474439E+04  0.22587345463E+03 -0.63256004395E+03  0.12876169901E+04  0.00000000000E+00 0. -1.
<scales pt_clust_5="13000.00000" pt_clust_6="13000.00000" pt_clust_7="13000.00000" pt_clust_8="13000.00000" pt_clust_9="1144.48260"></scales>
<clustering>
<clus scale="   80.554">  5  6 -1 -1</clus>
<clus scale="   86.856">  7  8 -1 -1</clus>
<clus scale="  155.766">  2  7  1 -1</clus>
<clus scale=" 1144.483">  1  9  2 -1</clus>
<clus scale=" 1144.483">  1  5  2 -1</clus>
</clustering>
</event>
<event>
 9    1  0.6345107E-005  0.1174875E+03  0.7546771E-02  0.1250896E+00
          1   -1    0    0  502    0 -0.00000000000E+00  0.00000000000E+00  0.77362785920E+02  0.77362785920E+02  0.00000000000E+00 0. -1.
         21   -1    0    0  501  502  0.00000000000E+00 -0.00000000000E+00 -0.24507929410E+03  0.24507929410E+03  0.00000000000E+00 0.  1.
         23    2    1    2    0    0  0.43953010846E+01 -0.80313230159E+02 -0.72013004719E+01  0.12143346116E+03  0.90690094011E+02 0.  0.
        -24    2    1    2    0    0 -0.95173989746E+01  0.60885612989E+02 -0.13185043922E+03  0.16600380279E+03  0.79844132308E+02 0.  0.
         13    1    4    4    0    0 -0.11895528195E+02  0.64318616616E+02 -0.45795187251E+02  0.79847274279E+02  0.00000000000E+00 0. -1.
        -14    1    4    4    0    0  0.23781292209E+01 -0.34330036267E+01 -0.86055251973E+02  0.86156528509E+02  0.00000000000E+00 0.  1.
        -13    1    3    3    0    0 -0.31822756846E+02 -0.74592783138E+02 -0.18274692868E+02  0.83130833924E+02  0.00000000000E+00 0. -1.
         13    1    3    3    0    0  0.36218057930E+02 -0.57204470212E+01  0.11073392396E+02  0.38302627241E+02  0.00000000000E+00 0.  1.
          2    1    1    2  501    0  0.51220978900E+01  0.19427617170E+02 -0.28664768489E+02  0.35004816072E+02  0.00000000000E+00 0. -1.
<scales pt_clust_5="13000.00000" pt_clust_6="13000.00000" pt_clust_7="13000.00000" pt_clust_8="13000.00000" pt_clust_9="20.09150"></scales>
<clustering>
<clus scale="   20.091">  2  9  1 -1</clus>
<clus scale="   79.844">  5  6 -1 -1</clus>
<clus scale="   90.690">  7  8 -1 -1</clus>
<clus scale="  109.333">  2  5  1 -1</clus>
<clus scale="   20.091">  2  5  1 -1</clus>
</clustering>
</event>
<event>
 9    1  0.6345107E-005  0.3135251E+03  0.7546771E-02  0.1078878E+00
         21   -1    0    0  501  502  0.00000000000E+00  0.00000000000E+00  0.90886970485E+03  0.90886970485E+03  0.00000000000E+00 0.  1.
         -2   -1    0    0    0  501 -0.00000000000E+00 -0.00000000000E+00 -0.31173507497E+03  0.31173507497E+03  0.00000000000E+00 0.  1.
        -24    2    1    2    0    0 -0.13576748782E+03  0.27243440121E+03 -0.18221689448E+03  0.36365896862E+03  0.79947076942E+02 0.  0.
         23    2    1    2    0    0  0.80767409050E+02 -0.27198798417E+03  0.59959892073E+03  0.66896653984E+03  0.86582491195E+02 0.  0.
         13    1    3    3    0    0 -0.53144352515E+02  0.15913103307E+03 -0.13612611627E+03  0.21604936339E+03  0.00000000000E+00 0. -1.
        -14    1    3    3    0    0 -0.82623135310E+02  0.11330336814E+03 -0.46090778206E+02  0.14760960523E+03  0.00000000000E+00 0.  1.
        -11    1    4    4    0    0  0.72110613752E+02 -0.23409772947E+03  0.56904832808E+03  0.61953021496E+03  0.00000000000E+00 0.  1.
         11    1    4    4    0    0  0.86567952981E+01 -0.37890254696E+02  0.30550592652E+02  0.49436324875E+02  0.00000000000E+00 0. -1.
         -1    1    1    2    0  502  0.55000078774E+02 -0.44641703717E+00  0.17975260362E+03  0.18797927136E+03  0.00000000000E+00 0.  1.
<scales pt_clust_5="13000.00000" pt_clust_6="13000.00000" pt_clust_7="13000.00000" pt_clust_8="13000.00000" pt_clust_9="55.00189"></scales>
<clustering>
<clus scale="   55.002">  1  9  2 -1</clus>
<clus scale="   79.947">  5  6 -1 -1</clus>
<clus scale="   86.582">  7  8 -1 -1</clus>
<clus scale="  311.758">  2  5  1 -1</clus>
<clus scale="   55.002">  1  5  2 -1</clus>
</clustering>
</event>
<event>
 9    1  0.6345107E-005  0.1913146E+03  0.7546771E-02  0.1158563E+00
         21   -1    0    0  501  502  0.00000000000E+00  0.00000000000E+00  0.64485158055E+02  0.64485158055E+02  0.00000000000E+00 0. -1.
          1   -1    0    0  502    0 -0.00000000000E+00 -0.00000000000E+00 -0.85803413783E+03  0.85803413783E+03  0.00000000000E+00 0. -1.
        -24    2    1    2    0    0 -0.11423001211E+03 -0.10563994961E+03 -0.36314873168E+03  0.40298808282E+03  0.79461304751E+02 0.  0.
         23    2    1    2    0    0  0.15965066113E+03  0.11138229863E+03 -0.23436115925E+03  0.31821719397E+03  0.91884054800E+02 0.  0.
         11    1    3    3    0    0 -0.79265324085E+02 -0.11154658027E+03 -0.31262462304E+03  0.34126204902E+03  0.00000000000E+00 0. -1.
        -12    1    3    3    0    0 -0.34964688029E+02  0.59066306545E+01 -0.50524108642E+02  0.61726033800E+02  0.00000000000E+00 0.  1.
        -13    1    4    4    0    0  0.15165994623E+03  0.70277825516E+02 -0.21431697165E+03  0.27179307642E+03  0.00000000000E+00 0. -1.
         13    1    4    4    0    0  0.79907148979E+01  0.41104473110E+02 -0.20044187605E+02  0.46424117557E+02  0.00000000000E+00 0.  1.
          2    1    1    2  501    0 -0.45420649016E+02 -0.57423490119E+01 -0.19603908884E+03  0.20131401909E+03  0.00000000000E+00 0. -1.
<scales pt_clust_5="13000.00000" pt_clust_6="13000.00000" pt_clust_7="13000.00000" pt_clust_8="13000.00000" pt_clust_9="45.78222"></scales>
<clustering>
<clus scale="   45.782">  1  9  2 -1</clus>
<clus scale="   79.461">  5  6 -1 -1</clus>
<clus scale="   91.884">  7  8 -1 -1</clus>
<clus scale="  185.668">  2  5  1 -1</clus>
<clus scale="   45.782">  1  5  2 -1</clus>
</clustering>
</event>
<event>
 9    1  0.6345107E-005  0.1876378E+03  0.7546771E-02  0.1166071E+00
          3   -1    0    0  502    0 -0.00000000000E+00  0.00000000000E+00  0.92861822248E+03  0.92861822248E+03  0.00000000000E+00 0. -1.
         21   -1    0    0  501  502  0.00000000000E+00 -0.00000000000E+00 -0.64367572480E+02  0.64367572480E+02  0.00000000000E+00 0.  1.
        -24    2    1    2    0    0  0.10748233977E+03  0.11392277017E+03  0.68531652217E+03  0.70720724632E+03  0.77152464418E+02 0.  0.
         23    2    1    2    0    0 -0.50982508447E+02 -0.10306041144E+03  0.14324217656E+03  0.21807229220E+03  0.11754377442E+03 0.  0.
         13    1    3    3    0    0  0.80990008920E+02  0.49085968471E+02  0.50425126295E+03  0.51306739327E+03  0.00000000000E+00 0. -1.
        -14    1    3    3    0    0  0.26492330845E+02  0.64836801697E+02  0.18106525921E+03  0.19413985305E+03  0.00000000000E+00 0.  1.
        -11    1    4    4    0    0 -0.87019940149E+01 -0.11638126361E+03  0.82704742484E+02  0.14303984637E+03  0.00000000000E+00 0.  1.
         11    1    4    4    0    0 -0.42280514432E+02  0.13320852164E+02  0.60537434077E+02  0.75032445833E+02  0.00000000000E+00 0. -1.
          4    1    1    2  501    0 -0.56499831318E+02 -0.10862358725E+02  0.35691951272E+02  0.67706256444E+02  0.00000000000E+00 0. -1.
<scales pt_clust_5="13000.00000" pt_clust_6="13000.00000" pt_clust_7="13000.00000" pt_clust_8="13000.00000" pt_clust_9="57.53453"></scales>
<clustering>
<clus scale="   57.535">  2  9  1 -1</clus>
<clus scale="   77.152">  5  6 -1 -1</clus>
<clus scale="  117.544">  7  8 -1 -1</clus>
<clus scale="  165.360">  1  5  2 -1</clus>
<clus scale="   57.535">  2  5  1 -1</clus>
</clustering>
</event>
<event>
 9    1  0.6345107E-005  0.9937168E+02  0.7546771E-02  0.1288029E+00
          1   -1    0    0  502    0 -0.00000000000E+00  0.00000000000E+00  0.32093997676E+03  0.32093997676E+03  0.00000000000E+00 0. -1.
         21   -1    0    0  501  502  0.00000000000E+00 -0.00000000000E+00 -0.91683373904E+02  0.91683373904E+02  0.00000000000E+00 0.  1.
        -24    2    1    2    0    0 -0.14344630801E+02 -0.31841411136E+02  0.22395608934E+03  0.24048620371E+03  0.80359444529E+02 0.  0.
         23    2    1    2    0    0  0.44225212311E+02  0.21065654479E+02  0.50958636956E+02  0.11651673416E+03  0.92626861420E+02 0.  0.
         13    1    3    3    0    0  0.11613634009E+01 -0.56272700804E+02  0.17251966603E+03  0.18146900779E+03  0.00000000000E+00 0. -1.
        -14    1    3    3    0    0 -0.15505994202E+02  0.24431289669E+02  0.51436423306E+02  0.59017195914E+02  0.00000000000E+00 0.  1.
        -11    1    4    4    0    0 -0.99157128699E+01 -0.29180543884E+02  0.17330989277E+02  0.35358007472E+02  0.00000000000E+00 0. -1.
         11    1    4    4    0    0  0.54140925181E+02  0.50246198363E+02  0.33627647680E+02  0.81158726689E+02  0.00000000000E+00 0.  1.
          2    1    1    2  501    0 -0.29880581510E+02  0.10775756657E+02 -0.45658123443E+02  0.55620412793E+02  0.00000000000E+00 0. -1.
<scales pt_clust_5="13000.00000" pt_clust_6="13000.00000" pt_clust_7="13000.00000" pt_clust_8="13000.00000" pt_clust_9="31.76423"></scales>
<clustering>
<clus scale="   31.764">  2  9  1 -1</clus>
<clus scale="   80.359">  5  6 -1 -1</clus>
<clus scale="   88.049">  1  5  2 -1</clus>
<clus scale="   92.627">  7  8 -1 -1</clus>
<clus scale="   31.764">  2  5  1 -1</clus>
</clustering>
</event>
<event>
 9    1  0.6345107E-005  0.1033336E+03  0.7546771E-02  0.1277766E+00
         21   -1    0    0  501  502  0.00000000000E+00  0.00000000000E+00  0.26386853812E+03  0.26386853812E+03  0.00000000000E+00 0.  1.
         -4   -1    0    0    0  501 -0.00000000000E+00 -0.00000000000E+00 -0.12546438567E+03  0.12546438567E+03  0.00000000000E+00 0.  1.
        -24    2    1    2    0    0  0.50640221714E+02 -0.46818782077E+02  0.12976144810E+02  0.10901716883E+03  0.83426209041E+02 0.  0.
         23    2    1    2    0    0  0.23310196826E+02 -0.45305978208E+01  0.15788146539E+03  0.18461491830E+03  0.92694225022E+02 0.  0.
         11    1    3    3    0    0  0.28554885186E+02 -0.15989711533E+02  0.47533395044E+02  0.57710276272E+02  0.00000000000E+00 0. -1.
        -12    1    3    3    0    0  0.22085336528E+02 -0.30829070544E+02 -0.34557250235E+02  0.51306892558E+02  0.00000000000E+00 0.  1.
        -11    1    4    4    0    0  0.50445151958E+02  0.20362871741E+01  0.42773616285E+02  0.66169797277E+02  0.00000000000E+00 0. -1.
         11    1    4    4    0    0 -0.27134955132E+02 -0.65668849948E+01  0.11510784911E+03  0.11844512103E+03  0.00000000000E+00 0.  1.
         -3    1    1    2    0  502 -0.73950418540E+02  0.51349379898E+02 -0.32453457751E+02  0.95700836664E+02  0.00000000000E+00 0.  1.
<scales pt_clust_5="13000.00000" pt_clust_6="13000.00000" pt_clust_7="13000.00000" pt_clust_8="13000.00000" pt_clust_9="90.03017"></scales>
<clustering>
<clus scale="   83.426">  5  6 -1 -1</clus>
<clus scale="   90.030">  1  9  2 -1</clus>
<clus scale="   92.694">  7  8 -1 -1</clus>
<clus scale="   95.108">  2  5  1 -1</clus>
<clus scale="   90.030">  1  5  2 -1</clus>
</clustering>
</event>
<event>
 9    1  0.6345107E-005  0.9404889E+02  0.7546771E-02  0.1299065E+00
         21   -1    0    0  501  502  0.00000000000E+00  0.00000000000E+00  0.54003343042E+02  0.54003343042E+02  0.00000000000E+00 0.  1.
          1   -1    0    0  502    0 -0.00000000000E+00 -0.00000000000E+00 -0.26215826998E+03  0.26215826998E+03  0.00000000000E+00 0. -1.
         23    2    1    2    0    0  0.26032031876E+02 -0.62012733656E+01 -0.18114693773E+03  0.20428214750E+03  0.90558601273E+02 0.  0.
        -24    2    1    2    0    0 -0.13481572798E+02  0.25367712095E+02 -0.20165348073E+02  0.87969464804E+02  0.80664191887E+02 0.  0.
         11    1    4    4    0    0 -0.10085032868E+02  0.52611189197E+02  0.55768306522E+00  0.53571971469E+02  0.00000000000E+00 0. -1.
        -12    1    4    4    0    0 -0.33965399305E+01 -0.27243477102E+02 -0.20723031139E+02  0.34397493334E+02  0.00000000000E+00 0.  1.
        -11    1    3    3    0    0  0.25587963994E+02 -0.47060127099E+02 -0.10337328742E+03  0.11642781461E+03  0.00000000000E+00 0.  1.
         11    1    3    3    0    0  0.44406788227E+00  0.40858853734E+02 -0.77773650312E+02  0.87854332890E+02  0.00000000000E+00 0. -1.
          2    1    1    2  501    0 -0.12550459078E+02 -0.19166438729E+02 -0.68426411377E+01  0.23910000719E+02  0.00000000000E+00 0. -1.
<scales pt_clust_5="13000.00000" pt_clust_6="13000.00000" pt_clust_7="13000.00000" pt_clust_8="13000.00000" pt_clust_9="22.90996"></scales>
<clustering>
<clus scale="   22.910">  1  9  2 -1</clus>
<clus scale="   80.664">  5  6 -1 -1</clus>
<clus scale="   84.564">  1  5  2 -1</clus>
<clus scale="   90.559">  7  8 -1 -1</clus>
<clus scale="   22.910">  1  5  2 -1</clus>
</clustering>
</event>
<event>
 9    1  0.7180075E-005  0.2751607E+03  0.7546771E-02  0.1098897E+00
         21   -1    0    0  501  502  0.00000000000E+00  0.00000000000E+00  0.15997307134E+03  0.15997307134E+03  0.00000000000E+00 0. -1.
          1   -1    0    0  502    0 -0.00000000000E+00 -0.00000000000E+00 -0.11642642659E+04  0.11642642659E+04  0.00000000000E+00 0. -1.
        -24    2    1    2    0    0 -0.10614515473E+03  0.29912610657E+03 -0.37915499161E+03  0.50079570246E+03  0.79338555762E+02 0.  0.
         23    2    1    2    0    0  0.12771192225E+03 -0.13649839612E+03 -0.35149018784E+02  0.21107101568E+03  0.91506135921E+02 0.  0.
         11    1    3    3    0    0 -0.64706880341E+02  0.26300319150E+03 -0.33120997416E+03  0.42785243494E+03  0.00000000000E+00 0. -1.
        -12    1    3    3    0    0 -0.41438274386E+02  0.36122915071E+02 -0.47945017456E+02  0.72943267518E+02  0.00000000000E+00 0.  1.
        -13    1    4    4    0    0  0.29214095019E+02  0.75490225086E+01 -0.19369154992E+02  0.35855477319E+02  0.00000000000E+00 0.  1.
         13    1    4    4    0    0  0.98497827231E+02 -0.14404741862E+03 -0.15779863792E+02  0.17521553836E+03  0.00000000000E+00 0. -1.
          2    1    1    2  501    0 -0.21566767524E+02 -0.16262771046E+03 -0.58998718418E+03  0.61237061913E+03  0.00000000000E+00 0. -1.
<scales pt_clust_5="13000.00000" pt_clust_6="13000.00000" pt_clust_7="13000.00000" pt_clust_8="13000.00000" pt_clust_9="164.05159"></scales>
<clustering>
<clus scale="   79.339">  5  6 -1 -1</clus>
<clus scale="   91.506">  7  8 -1 -1</clus>
<clus scale="  164.052">  1  9  2 -1</clus>
<clus scale="  271.357">  2  5  1 -1</clus>
<clus scale="  164.052">  1  5  2 -1</clus>
</clustering>
</event>
<event>
 9    1  0.6345107E-005  0.1249164E+03  0.7546771E-02  0.1238870E+00
          3   -1    0    0  502    0 -0.00000000000E+00  0.00000000000E+00  0.14311665863E+03  0.14311665863E+03  0.00000000000E+00 0. -1.
         21   -1    0    0  501  502  0.00000000000E+00 -0.00000000000E+00 -0.23323738703E+03  0.23323738703E+03  0.00000000000E+00 0. -1.
        -24    2    1    2    0    0 -0.84464757272E+02  0.25273573195E+02  0.21675979192E+02  0.12071631321E+03  0.79558352657E+02 0.  0.
         23    2    1    2    0    0  0.70962972165E+02 -0.64103096938E+01 -0.16245405248E+03  0.19992159921E+03  0.92198108298E+02 0.  0.
         13    1    3    3    0    0 -0.95924412899E+02  0.80093674094E+01  0.96071082083E+01  0.96736443415E+02  0.00000000000E+00 0. -1.
        -14    1    3    3    0    0  0.11459655627E+02  0.17264205786E+02  0.12068870983E+02  0.23979869793E+02  0.00000000000E+00 0.  1.
        -11    1    4    4    0    0  0.74449966737E+02 -0.38406995475E+02 -0.12581289649E+03  0.15115151263E+03  0.00000000000E+00 0. -1.
         11    1    4    4    0    0 -0.34869945723E+01  0.31996685781E+02 -0.36641155995E+02  0.48770086577E+02  0.00000000000E+00 0.  1.
          4    1    1    2  501    0  0.13501785108E+02 -0.18863263501E+02  0.50657344891E+02  0.55716133233E+02  0.00000000000E+00 0. -1.
<scales pt_clust_5="13000.00000" pt_clust_6="13000.00000" pt_clust_7="13000.00000" pt_clust_8="13000.00000" pt_clust_9="23.19744"></scales>
<clustering>
<clus scale="   23.197">  2  9  1 -1</clus>
<clus scale="   79.558">  5  6 -1 -1</clus>
<clus scale="   92.198">  7  8 -1 -1</clus>
<clus scale="  115.901">  1  5  2 -1</clus>
<clus scale="   23.197">  2  5  1 -1</clus>
</clustering>
</event>
<event>
 9    1  0.6345107E-005  0.1018567E+03  0.7546771E-02  0.1279072E+00
         21   -1    0    0  501  502  0.00000000000E+00  0.00000000000E+00  0.13579046382E+03  0.13579046382E+03  0.00000000000E+00 0. -1.
          1   -1    0    0  502    0 -0.00000000000E+00 -0.00000000000E+00 -0.13817516253E+03  0.13817516253E+03  0.00000000000E+00 0. -1.
         23    2    1    2    0    0 -0.42227209447E+02 -0.63819181728E+01 -0.52453112786E+02  0.11136042146E+03  0.88464390181E+02 0.  0.
        -24    2    1    2    0    0  0.72944820005E+02  0.20041357420E+02  0.60582675601E+02  0.12738161089E+03  0.82663241141E+02 0.  0.
         13    1    4    4    0    0  0.37476309943E+02  0.25331095307E+02  0.75923628662E+02  0.88377234544E+02  0.00000000000E+00 0. -1.
        -14    1    4    4    0    0  0.35468510062E+02 -0.52897378875E+01 -0.15340953061E+02  0.39004376341E+02  0.00000000000E+00 0.  1.
        -13    1    3    3    0    0  0.65927077554E+01 -0.38671821033E+02 -0.26440416201E+02  0.47308235504E+02  0.00000000000E+00 0. -1.
         13    1    3    3    0    0 -0.48819917203E+02  0.32289902861E+02 -0.26012696584E+02  0.64052185958E+02  0.00000000000E+00 0.  1.
          2    1    1    2  501    0 -0.30717610558E+02 -0.13659439247E+02 -0.10514261534E+02  0.35223594004E+02  0.00000000000E+00 0. -1.
<scales pt_clust_5="13000.00000" pt_clust_6="13000.00000" pt_clust_7="13000.00000" pt_clust_8="13000.00000" pt_clust_9="33.61775"></scales>
<clustering>
<clus scale="   33.618">  1  9  2 -1</clus>
<clus scale="   82.663">  5  6 -1 -1</clus>
<clus scale="   88.464">  7  8 -1 -1</clus>
<clus scale="   96.861">  1  5  2 -1</clus>
<clus scale="   33.618">  1  5  2 -1</clus>
</clustering>
</event>
<event>
 9    1  0.6345107E-005  0.9984566E+02  0.7546771E-02  0.1284653E+00
          1   -1    0    0  502    0 -0.00000000000E+00  0.00000000000E+00  0.49734298606E+03  0.49734298606E+03  0.00000000000E+00 0. -1.
         21   -1    0    0  501  502  0.00000000000E+00 -0.00000000000E+00 -0.44299019671E+02  0.44299019671E+02  0.00000000000E+00 0. -1.
         23    2    1    2    0    0  0.72439273220E+02  0.18524478204E+02  0.16922062163E+03  0.20529090228E+03  0.88983881553E+02 0.  0.
        -24    2    1    2    0    0 -0.11955536433E+02  0.86094957390E+01  0.56532989917E+02  0.99590801962E+02  0.80655381830E+02 0.  0.
         13    1    4    4    0    0 -0.34776731523E+02  0.19500677185E+02  0.62005795785E+02  0.73718492775E+02  0.00000000000E+00 0. -1.
        -14    1    4    4    0    0  0.22821195089E+02 -0.10891181446E+02 -0.54728058676E+01  0.25872309187E+02  0.00000000000E+00 0.  1.
        -11    1    3    3    0    0  0.77238476048E+02 -0.33684923366E+01  0.72431913744E+02  0.10594107349E+03  0.00000000000E+00 0. -1.
         11    1    3    3    0    0 -0.47992028279E+01  0.21892970541E+02  0.96788707885E+02  0.99349828792E+02  0.00000000000E+00 0.  1.
          2    1    1    2  501    0 -0.60483736787E+02 -0.27133973943E+02  0.22729035484E+03  0.23676030149E+03  0.00000000000E+00 0. -1.
<scales pt_clust_5="13000.00000" pt_clust_6="13000.00000" pt_clust_7="13000.00000" pt_clust_8="13000.00000" pt_clust_9="66.29132"></scales>
<clustering>
<clus scale="   66.291">  2  9  1 -1</clus>
<clus scale="   80.655">  5  6 -1 -1</clus>
<clus scale="   88.984">  7  8 -1 -1</clus>
<clus scale="   92.500">  2  5  1 -1</clus>
<clus scale="   66.291">  2  5  1 -1</clus>
</clustering>
</event>
<event>
 9    1  0.6345107E-005  0.8766698E+02  0.7546771E-02  0.1311877E+00
          3   -1    0    0  502    0 -0.00000000000E+00  0.00000000000E+00  0.27261067963E+03  0.27261067963E+03  0.00000000000E+00 0. -1.
         21   -1    0    0  501  502  0.00000000000E+00 -0.00000000000E+00 -0.79961236332E+02  0.79961236332E+02  0.00000000000E+00 0.  1.
         23    2    1    2    0    0  0.37158217298E+02  0.40579283798E+01  0.17761655179E+03  0.19651447576E+03  0.75319982853E+02 0.  0.
        -24    2    1    2    0    0 -0.14532034005E+02  0.46073756074E+02 -0.11715941492E+02  0.94896750023E+02  0.80834144201E+02 0.  0.
         11    1    4    4    0    0  0.87782766438E+01 -0.19805525151E+02  0.66143802453E+01  0.22650982172E+02  0.00000000000E+00 0. -1.
        -12    1    4    4    0    0 -0.23310310649E+02  0.65879281225E+02 -0.18330321737E+02  0.72245767850E+02  0.00000000000E+00 0.  1.
        -13    1    3    3    0    0  0.57363967997E+02  0.24474558890E+01  0.91325976651E+02  0.10787515412E+03  0.00000000000E+00 0. -1.
         13    1    3    3    0    0 -0.20205750699E+02  0.16104724908E+01  0.86290575137E+02  0.88639321638E+02  0.00000000000E+00 0.  1.
          4    1    1    2  501    0 -0.22626183293E+02 -0.50131684454E+02  0.26748832997E+02  0.61160690180E+02  0.00000000000E+00 0. -1.
<scales pt_clust_5="13000.00000" pt_clust_6="13000.00000" pt_clust_7="13000.00000" pt_clust_8="13000.00000" pt_clust_9="55.00118"></scales>
<clustering>
<clus scale="   55.001">  2  9  1 -1</clus>
<clus scale="   75.320">  7  8 -1 -1</clus>
<clus scale="   80.834">  5  6 -1 -1</clus>
<clus scale="   82.610">  1  7  2 -1</clus>
<clus scale="   55.001">  2  5  1 -1</clus>
</clustering>
</event>
<event>
 9    1  0.6345107E-005  0.1077422E+03  0.7546771E-02  0.1268193E+00
         21   -1    0    0  501  502  0.00000000000E+00  0.00000000000E+00  0.37133046356E+02  0.37133046356E+02  0.00000000000E+00 0. -1.
          1   -1    0    0  502    0 -0.00000000000E+00 -0.00000000000E+00 -0.70851837812E+03  0.70851837812E+03  0.00000000000E+00 0. -1.
         23    2    1    2    0    0  0.54229901565E+02 -0.36306515908E+02 -0.53068057537E+03  0.54212134271E+03  0.89524476165E+02 0.  0.
        -24    2    1    2    0    0 -0.48351700348E+02 -0.94319817196E+01 -0.65546147629E+02  0.11535196721E+03  0.81135255368E+02 0.  0.
         13    1    4    4    0    0 -0.35253058272E+02 -0.27812825101E+02 -0.77681441059E+02  0.89725902852E+02  0.00000000000E+00 0. -1.
        -14    1    4    4    0    0 -0.13098642076E+02  0.18380843381E+02  0.12135293430E+02  0.25626064354E+02  0.00000000000E+00 0.  1.
        -13    1    3    3    0    0 -0.62796113120E+01  0.22233519913E+02 -0.67320189405E+02  0.71174228675E+02  0.00000000000E+00 0.  1.
         13    1    3    3    0    0  0.60509512877E+02 -0.58540035821E+02 -0.46336038596E+03  0.47094711404E+03  0.00000000000E+00 0. -1.
          2    1    1    2  501    0 -0.58782012164E+01  0.45738497627E+02 -0.75158608771E+02  0.88178114559E+02  0.00000000000E+00 0. -1.
<scales pt_clust_5="13000.00000" pt_clust_6="13000.00000" pt_clust_7="13000.00000" pt_clust_8="13000.00000" pt_clust_9="46.11468"></scales>
<clustering>
<clus scale="   46.115">  1  9  2 -1</clus>
<clus scale="   81.135">  5  6 -1 -1</clus>
<clus scale="   89.524">  7  8 -1 -1</clus>
<clus scale="  100.880">  1  5  2 -1</clus>
<clus scale="   46.115">  1  5  2 -1</clus>
</clustering>
</event>
<event>
 9    1  0.6345107E-005  0.1302073E+03  0.7546771E-02  0.1228118E+00
         21   -1    0    0  501  502  0.00000000000E+00  0.00000000000E+00  0.14173102352E+03  0.14173102352E+03  0.00000000000E+00 0. -1.
         -2   -1    0    0    0  501 -0.00000000000E+00 -0.00000000000E+00 -0.27030200505E+03  0.27030200505E+03  0.00000000000E+00 0.  1.
         23    2    1    2    0    0 -0.82608122062E+02 -0.51519821164E+02 -0.18432116822E+03  0.22675617991E+03  0.89250648562E+02 0.  0.
        -24    2    1    2    0    0  0.88409151501E+02  0.20662508442E+02  0.39770156844E+01  0.12472697725E+03  0.85427658732E+02 0.  0.
         11    1    4    4    0    0  0.82935791576E+02  0.46425878073E+02  0.14912677069E+02  0.96208604691E+02  0.00000000000E+00 0. -1.
        -12    1    4    4    0    0  0.54733599256E+01 -0.25763369631E+02 -0.10935661385E+02  0.28518372562E+02  0.00000000000E+00 0.  1.
        -11    1    3    3    0    0 -0.54192911882E+02 -0.56116918577E+02 -0.18183605857E+03  0.19786442946E+03  0.00000000000E+00 0.  1.
         11    1    3    3    0    0 -0.28415210180E+02  0.45970974128E+01 -0.24851096539E+01  0.28891750452E+02  0.00000000000E+00 0. -1.
         -1    1    1    2    0  502 -0.58010294392E+01  0.30857312722E+02  0.51773171009E+02  0.60549871406E+02  0.00000000000E+00 0.  1.
<scales pt_clust_5="13000.00000" pt_clust_6="13000.00000" pt_clust_7="13000.00000" pt_clust_8="13000.00000" pt_clust_9="31.39786"></scales>
<clustering>
<clus scale="   31.398">  1  9  2 -1</clus>
<clus scale="   85.428">  5  6 -1 -1</clus>
<clus scale="   89.251">  7  8 -1 -1</clus>
<clus scale="  127.617">  1  5  2 -1</clus>
<clus scale="   31.398">  1  5  2 -1</clus>
</clustering>
</event>
<event>
 9    1  0.6345107E-005  0.2228089E+03  0.7546771E-02  0.1132771E+00
          1   -1    0    0  502    0 -0.00000000000E+00  0.00000000000E+00  0.60969671668E+03  0.60969671668E+03  0.00000000000E+00 0. -1.
         21   -1    0    0  501  502  0.00000000000E+00 -0.00000000000E+00 -0.23926068017E+03  0.23926068017E+03  0.00000000000E+00 0.  1.
        -24    2    1    2    0    0 -0.18152105259E+03 -0.75706810463E+02  0.43339120146E+03  0.48271671013E+03  0.80660244545E+02 0.  0.
         23    2    1    2    0    0  0.24774055577E+03  0.35952730865E+02 -0.93467831279E+02  0.28319592618E+03  0.93785474838E+02 0.  0.
         11    1    3    3    0    0 -0.94289632076E+02  0.12091560753E+01  0.22714409843E+03  0.24593990775E+03  0.00000000000E+00 0. -1.
        -12    1    3    3    0    0 -0.87231420512E+02 -0.76915966538E+02  0.20624710303E+03  0.23677680238E+03  0.00000000000E+00 0.  1.
        -11    1    4    4    0    0  0.16003308605E+02  0.30423248209E+02 -0.35292090712E+01  0.34556261872E+02  0.00000000000E+00 0. -1.
         11    1    4    4    0    0  0.23173724717E+03  0.55294826561E+01 -0.89938622208E+02  0.24863966431E+03  0.00000000000E+00 0.  1.
          2    1    1    2  501    0 -0.66219503184E+02  0.39754079598E+02  0.30512666323E+02  0.83044760537E+02  0.00000000000E+00 0. -1.
<scales pt_clust_5="13000.00000" pt_clust_6="13000.00000" pt_clust_7="13000.00000" pt_clust_8="13000.00000" pt_clust_9="77.23606"></scales>
<clustering>
<clus scale="   77.236">  2  9  1 -1</clus>
<clus scale="   80.660">  5  6 -1 -1</clus>
<clus scale="   93.785">  7  8 -1 -1</clus>
<clus scale="  217.610">  1  5  2 -1</clus>
<clus scale="   77.236">  2  5  1 -1</clus>
</clustering>
</event>
<event>
 9    1  0.6345107E-005  0.1485706E+03  0.7546771E-02  0.1218148E+00
         -4   -1    0    0    0  501 -0.00000000000E+00  0.00000000000E+00  0.16409867400E+04  0.16409867400E+04  0.00000000000E+00 0.  1.
         21   -1    0    0  501  502  0.00000000000E+00 -0.00000000000E+00 -0.27071879447E+02  0.27071879447E+02  0.00000000000E+00 0.  1.
         23    2    1    2    0    0 -0.49702522153E+02 -0.18469799115E+02  0.52602971939E+03  0.53656238792E+03  0.91544831985E+02 0.  0.
        -24    2    1    2    0    0  0.11155312212E+03 -0.87155121092E+02  0.83340340355E+03  0.84910806736E+03  0.79894698261E+02 0.  0.
         13    1    4    4    0    0 -0.70134783082E+01 -0.29926504919E+02  0.17299804134E+03  0.17570744686E+03  0.00000000000E+00 0. -1.
        -14    1    4    4    0    0  0.11856660043E+03 -0.57228616173E+02  0.66040536221E+03  0.67340062050E+03  0.00000000000E+00 0.  1.
        -13    1    3    3    0    0  0.12547828938E+02  0.24208430891E+02  0.89693047957E+02  0.93746141196E+02  0.00000000000E+00 0. -1.
         13    1    3    3    0    0 -0.62250351092E+02 -0.42678230006E+02  0.43633667144E+03  0.44281624673E+03  0.00000000000E+00 0.  1.
         -3    1    1    2    0  502 -0.61850599969E+02  0.10562492021E+03  0.25448173761E+03  0.28238816417E+03  0.00000000000E+00 0.  1.
<scales pt_clust_5="13000.00000" pt_clust_6="13000.00000" pt_clust_7="13000.00000" pt_clust_8="13000.00000" pt_clust_9="125.26001"></scales>
<clustering>
<clus scale="   79.895">  5  6 -1 -1</clus>
<clus scale="   91.545">  7  8 -1 -1</clus>
<clus scale="  105.792">  1  7  2 -1</clus>
<clus scale="  125.260">  2  9  1 -1</clus>
<clus scale="  125.260">  2  5  1 -1</clus>
</clustering>
</event>
<event>
 9    1  0.6345107E-005  0.1460458E+03  0.7546771E-02  0.1206620E+00
         21   -1    0    0  501  502  0.00000000000E+00  0.00000000000E+00  0.95995384369E+02  0.95995384369E+02  0.00000000000E+00 0. -1.
          1   -1    0    0  502    0 -0.00000000000E+00 -0.00000000000E+00 -0.68657512004E+03  0.68657512004E+03  0.00000000000E+00 0. -1.
         23    2    1    2    0    0  0.39063626144E+02  0.10735254871E+03 -0.55189283297E+03  0.57077624209E+03  0.90273378359E+02 0.  0.
        -24    2    1    2    0    0 -0.74621857017E+02 -0.66846939346E+02 -0.63304361515E+02  0.15253963000E+03  0.96041458182E+02 0.  0.
         11    1    4    4    0    0 -0.57798952873E+02 -0.36193349601E+01  0.47859686986E+01  0.58109586431E+02  0.00000000000E+00 0. -1.
        -12    1    4    4    0    0 -0.16822904143E+02 -0.63227604386E+02 -0.68090330213E+02  0.94430043570E+02  0.00000000000E+00 0.  1.
        -11    1    3    3    0    0  0.58797052105E+00  0.10639890457E+03 -0.42898764819E+03  0.44198583111E+03  0.00000000000E+00 0. -1.
         11    1    3    3    0    0  0.38475655623E+02  0.95364414322E+00 -0.12290518479E+03  0.12879041098E+03  0.00000000000E+00 0.  1.
          2    1    1    2  501    0  0.35558230873E+02 -0.40505609367E+02  0.24617458816E+02  0.59254632322E+02  0.00000000000E+00 0. -1.
<scales pt_clust_5="13000.00000" pt_clust_6="13000.00000" pt_clust_7="13000.00000" pt_clust_8="13000.00000" pt_clust_9="53.89891"></scales>
<clustering>
<clus scale="   53.899">  1  9  2 -1</clus>
<clus scale="   90.273">  7  8 -1 -1</clus>
<clus scale="   96.041">  5  6 -1 -1</clus>
<clus scale="  142.319">  2  7  1 -1</clus>
<clus scale="   53.899">  1  5  2 -1</clus>
</clustering>
</event>
<event>
 9    1  0.6345107E-005  0.1094893E+03  0.7546771E-02  0.1265742E+00
          1   -1    0    0  502    0 -0.00000000000E+00  0.00000000000E+00  0.18312558028E+04  0.18312558028E+04  0.00000000000E+00 0. -1.
         21   -1    0    0  501  502  0.00000000000E+00 -0.00000000000E+00 -0.21716888144E+02  0.21716888144E+02  0.00000000000E+00 0. -1.
        -24    2    1    2    0    0 -0.29170050761E+02 -0.50213471214E+02  0.10274253042E+04  0.10322910871E+04  0.81546601892E+02 0.  0.
         23    2    1    2    0    0 -0.27554699068E+02  0.88724733024E+02  0.23211012517E+03  0.26642115209E+03  0.92053138918E+02 0.  0.
         11    1    3    3    0    0 -0.16856915005E+02 -0.42816448151E+02  0.22108722108E+03  0.22582507199E+03  0.00000000000E+00 0. -1.
        -12    1    3    3    0    0 -0.12313135756E+02 -0.73970230630E+01  0.80633808307E+03  0.80646601508E+03  0.00000000000E+00 0.  1.
        -11    1    4    4    0    0 -0.20260185437E+02  0.53303212749E+02  0.36972983311E+02  0.67961085175E+02  0.00000000000E+00 0. -1.
         11    1    4    4    0    0 -0.72945136317E+01  0.35421520275E+02  0.19513714186E+03  0.19846006691E+03  0.00000000000E+00 0.  1.
          2    1    1    2  501    0  0.56724749830E+02 -0.38511261810E+02  0.55000348529E+03  0.55426045174E+03  0.00000000000E+00 0. -1.
<scales pt_clust_5="13000.00000" pt_clust_6="13000.00000" pt_clust_7="13000.00000" pt_clust_8="13000.00000" pt_clust_9="68.56252"></scales>
<clustering>
<clus scale="   68.563">  2  9  1 -1</clus>
<clus scale="   81.547">  5  6 -1 -1</clus>
<clus scale="   92.053">  7  8 -1 -1</clus>
<clus scale="  100.817">  1  5  2 -1</clus>
<clus scale="   68.563">  2  5  1 -1</clus>
</clustering>
</event>
<event>
 9    1  0.6345107E-005  0.1193756E+03  0.7546771E-02  0.1247964E+00
          3   -1    0    0  502    0 -0.00000000000E+00  0.00000000000E+00  0.33778472651E+03  0.33778472651E+03  0.00000000000E+00 0. -1.
         21   -1    0    0  501  502  0.00000000000E+00 -0.00000000000E+00 -0.59547556582E+02  0.59547556582E+02  0.00000000000E+00 0. -1.
         23    2    1    2    0    0  0.40839496163E+02 -0.36317823073E+02  0.10634412399E+03  0.15112086549E+03  0.92420747444E+02 0.  0.
        -24    2    1    2    0    0 -0.61104427770E+02  0.76160510997E+02  0.15037402393E+03  0.19660118134E+03  0.80656697829E+02 0.  0.
         11    1    4    4    0    0 -0.51226566902E+02  0.80769876456E+02  0.15700400814E+03  0.18384284776E+03  0.00000000000E+00 0. -1.
        -12    1    4    4    0    0 -0.98778608674E+01 -0.46093654589E+01 -0.66299842119E+01  0.12758333586E+02  0.00000000000E+00 0.  1.
        -11    1    3    3    0    0 -0.25537758549E+02 -0.30661868147E+02  0.49231600317E+02  0.63372531429E+02  0.00000000000E+00 0.  1.
         11    1    3    3    0    0  0.66377254712E+02 -0.56559549263E+01  0.57112523675E+02  0.87748334057E+02  0.00000000000E+00 0. -1.
          4    1    1    2  501    0  0.20264931607E+02 -0.39842687924E+02  0.21519022011E+02  0.49610236266E+02  0.00000000000E+00 0. -1.
<scales pt_clust_5="13000.00000" pt_clust_6="13000.00000" pt_clust_7="13000.00000" pt_clust_8="13000.00000" pt_clust_9="44.70019"></scales>
<clustering>
<clus scale="   44.700">  2  9  1 -1</clus>
<clus scale="   80.657">  5  6 -1 -1</clus>
<clus scale="   92.421">  7  8 -1 -1</clus>
<clus scale="  110.519">  2  5  1 -1</clus>
<clus scale="   44.700">  2  5  1 -1</clus>
</clustering>
</event>
<event>
 9    1  0.6345107E-005  0.9685670E+02  0.7546771E-02  0.1294133E+00
          3   -1    0    0  502    0 -0.00000000000E+00  0.00000000000E+00  0.26272890323E+03  0.26272890323E+03  0.00000000000E+00 0. -1.
         21   -1    0    0  501  502  0.00000000000E+00 -0.00000000000E+00 -0.11172983726E+03  0.11172983726E+03  0.00000000000E+00 0. -1.
         23    2    1    2    0    0 -0.14498444067E+02 -0.32286882997E+02  0.19027235184E+03  0.21402196610E+03  0.91373882519E+02 0.  0.
        -24    2    1    2    0    0  0.38880362523E+02  0.18780949675E+01  0.19630996815E+02  0.89804721791E+02  0.78513070182E+02 0.  0.
         13    1    4    4    0    0  0.59915577042E+02 -0.12779836919E+02  0.84849683214E+01  0.61848163201E+02  0.00000000000E+00 0. -1.
        -14    1    4    4    0    0 -0.21035214519E+02  0.14657931886E+02  0.11146028494E+02  0.27956558590E+02  0.00000000000E+00 0.  1.
        -11    1    3    3    0    0  0.27142514409E+02 -0.57024057949E+00  0.14824710934E+02  0.30932399148E+02  0.00000000000E+00 0.  1.
         11    1    3    3    0    0 -0.41640958476E+02 -0.31716642418E+02  0.17544764090E+03  0.18308956695E+03  0.00000000000E+00 0. -1.
          4    1    1    2  501    0 -0.24381918456E+02  0.30408788030E+02 -0.58904282675E+02  0.70632052600E+02  0.00000000000E+00 0. -1.
<scales pt_clust_5="13000.00000" pt_clust_6="13000.00000" pt_clust_7="13000.00000" pt_clust_8="13000.00000" pt_clust_9="38.97656"></scales>
<clustering>
<clus scale="   38.977">  2  9  1 -1</clus>
<clus scale="   78.513">  5  6 -1 -1</clus>
<clus scale="   84.831">  2  5  1 -1</clus>
<clus scale="   91.374">  7  8 -1 -1</clus>
<clus scale="   38.977">  2  5  1 -1</clus>
</clustering>
</event>
<event>
 9    1  0.6345107E-005  0.1390932E+03  0.7546771E-02  0.1216213E+00
         21   -1    0    0  501  502  0.00000000000E+00  0.00000000000E+00  0.49188925840E+03  0.49188925840E+03  0.00000000000E+00 0. -1.
          1   -1    0    0  502    0 -0.00000000000E+00 -0.00000000000E+00 -0.14889205414E+03  0.14889205414E+03  0.00000000000E+00 0. -1.
         23    2    1    2    0    0 -0.22851991298E+02  0.11583337430E+03 -0.74296400334E+02  0.16666193125E+03  0.91195724237E+02 0.  0.
        -24    2    1    2    0    0 -0.63600074179E+02 -0.51237209370E+02  0.20690686120E+03  0.23766810523E+03  0.83698613928E+02 0.  0.
         11    1    4    4    0    0 -0.79189717778E+02 -0.56886611242E+02  0.19213947468E+03  0.21546386163E+03  0.00000000000E+00 0. -1.
        -12    1    4    4    0    0  0.15589643600E+02  0.56494018715E+01  0.14767386517E+02  0.22204243595E+02  0.00000000000E+00 0.  1.
        -11    1    3    3    0    0 -0.30056961260E+02  0.77163066700E+02 -0.91778964278E+02  0.12361609146E+03  0.00000000000E+00 0. -1.
         11    1    3    3    0    0  0.72049699624E+01  0.38670307597E+02  0.17482563944E+02  0.43045839798E+02  0.00000000000E+00 0.  1.
          2    1    1    2  501    0  0.86452065477E+02 -0.64596164927E+02  0.21038674340E+03  0.23645127605E+03  0.00000000000E+00 0. -1.
<scales pt_clust_5="13000.00000" pt_clust_6="13000.00000" pt_clust_7="13000.00000" pt_clust_8="13000.00000" pt_clust_9="107.91953"></scales>
<clustering>
<clus scale="   83.699">  5  6 -1 -1</clus>
<clus scale="   91.196">  7  8 -1 -1</clus>
<clus scale="  107.920">  1  9  2 -1</clus>
<clus scale="  134.297">  1  5  2 -1</clus>
<clus scale="  107.920">  1  5  2 -1</clus>
</clustering>
</event>
<event>
 9    1  0.6345107E-005  0.1389897E+03  0.7546771E-02  0.1216874E+00
         -4   -1    0    0    0  501 -0.00000000000E+00  0.00000000000E+00  0.14348374078E+03  0.14348374078E+03  0.00000000000E+00 0.  1.
         21   -1    0    0  501  502  0.00000000000E+00 -0.00000000000E+00 -0.22588136189E+03  0.22588136189E+03  0.00000000000E+00 0.  1.
        -24    2    1    2    0    0 -0.11840076309E+02  0.90479939609E+02 -0.32239368846E+02  0.12687677653E+03  0.82045917886E+02 0.  0.
         23    2    1    2    0    0  0.44376556793E+02 -0.12064022793E+03 -0.90896185964E+02  0.18225673313E+03  0.91826231329E+02 0.  0.
         11    1    3    3    0    0 -0.22886475801E+02  0.50881047081E+02 -0.56284618605E+02  0.79250425980E+02  0.00000000000E+00 0. -1.
        -12    1    3    3    0    0  0.11046399492E+02  0.39598892528E+02  0.24045249759E+02  0.47626350554E+02  0.00000000000E+00 0.  1.
        -13    1    4    4    0    0  0.54478651882E+02 -0.22453414704E+02 -0.28217182356E+02  0.65332141576E+02  0.00000000000E+00 0.  1.
         13    1    4    4    0    0 -0.10102095089E+02 -0.98186813222E+02 -0.62679003608E+02  0.11692459155E+03  0.00000000000E+00 0. -1.
         -3    1    1    2    0  502 -0.32536480484E+02  0.30160288317E+02  0.40737933706E+02  0.60231593008E+02  0.00000000000E+00 0.  1.
<scales pt_clust_5="13000.00000" pt_clust_6="13000.00000" pt_clust_7="13000.00000" pt_clust_8="13000.00000" pt_clust_9="44.36516"></scales>
<clustering>
<clus scale="   44.365">  2  9  1 -1</clus>
<clus scale="   82.046">  5  6 -1 -1</clus>
<clus scale="   91.826">  7  8 -1 -1</clus>
<clus scale="  132.731">  1  5  2 -1</clus>
<clus scale="   44.365">  2  5  1 -1</clus>
</clustering>
</event>
<event>
 9    1  0.6345107E-005  0.1320864E+03  0.7546771E-02  0.1225678E+00
         21   -1    0    0  501  502  0.00000000000E+00  0.00000000000E+00  0.19865616414E+02  0.19865616414E+02  0.00000000000E+00 0.  1.
          1   -1    0    0  502    0 -0.00000000000E+00 -0.00000000000E+00 -0.12954977494E+04  0.12954977494E+04  0.00000000000E+00 0. -1.
        -24    2    1    2    0    0 -0.10192744442E+03  0.62035994655E+01 -0.59725859511E+03  0.61182828763E+03  0.84784052389E+02 0.  0.
         23    2    1    2    0    0  0.87578323191E+02  0.31804102411E+02 -0.36029514612E+03  0.38287272307E+03  0.89985921866E+02 0.  0.
         11    1    3    3    0    0 -0.13290612000E+02  0.20885013282E+02 -0.37689575440E+02  0.45092441096E+02  0.00000000000E+00 0. -1.
        -12    1    3    3    0    0 -0.88636832420E+02 -0.14681413816E+02 -0.55956901967E+03  0.56673584653E+03  0.00000000000E+00 0.  1.
        -11    1    4    4    0    0  0.20549893772E+02 -0.25734924186E+02 -0.16882230426E+03  0.17200451992E+03  0.00000000000E+00 0. -1.
         11    1    4    4    0    0  0.67028429420E+02  0.57539026597E+02 -0.19147284185E+03  0.21086820315E+03  0.00000000000E+00 0.  1.
          2    1    1    2  501    0  0.14349121230E+02 -0.38007701876E+02 -0.31807839177E+03  0.32066235512E+03  0.00000000000E+00 0. -1.
<scales pt_clust_5="13000.00000" pt_clust_6="13000.00000" pt_clust_7="13000.00000" pt_clust_8="13000.00000" pt_clust_9="40.62615"></scales>
<clustering>
<clus scale="   40.626">  1  9  2 -1</clus>
<clus scale="   84.784">  5  6 -1 -1</clus>
<clus scale="   89.986">  7  8 -1 -1</clus>
<clus scale="  128.599">  2  5  1 -1</clus>
<clus scale="   40.626">  1  5  2 -1</clus>
</clustering>
</event>
<event>
 9    1  0.6345107E-005  0.2628872E+03  0.7546771E-02  0.1105421E+00
          1   -1    0    0  502    0 -0.00000000000E+00  0.00000000000E+00  0.10517550504E+03  0.10517550504E+03  0.00000000000E+00 0. -1.
         21   -1    0    0  501  502  0.00000000000E+00 -0.00000000000E+00 -0.52427319019E+03  0.52427319019E+03  0.00000000000E+00 0. -1.
        -24    2    1    2    0    0 -0.53435529734E+01  0.97123952081E+02 -0.19888752965E+03  0.23624595027E+03  0.82427446538E+02 0.  0.
         23    2    1    2    0    0 -0.81548929817E+02  0.56022058519E+02 -0.15681326317E+03  0.20605796122E+03  0.89893185942E+02 0.  0.
         11    1    3    3    0    0  0.12225736930E+02  0.35944357639E+02 -0.15335436805E+03  0.15798426405E+03  0.00000000000E+00 0. -1.
        -12    1    3    3    0    0 -0.17569289903E+02  0.61179594442E+02 -0.45533161600E+02  0.78261686214E+02  0.00000000000E+00 0.  1.
        -11    1    4    4    0    0 -0.94850807594E+02  0.26147806749E+02 -0.98624705913E+02  0.13930978471E+03  0.00000000000E+00 0. -1.
         11    1    4    4    0    0  0.13301877777E+02  0.29874251769E+02 -0.58188557260E+02  0.66748176508E+02  0.00000000000E+00 0.  1.
          2    1    1    2  501    0  0.86892482790E+02 -0.15314601060E+03 -0.63396892331E+02  0.18714478375E+03  0.00000000000E+00 0. -1.
<scales pt_clust_5="13000.00000" pt_clust_6="13000.00000" pt_clust_7="13000.00000" pt_clust_8="13000.00000" pt_clust_9="176.07963"></scales>
<clustering>
<clus scale="   82.427">  5  6 -1 -1</clus>
<clus scale="   89.893">  7  8 -1 -1</clus>
<clus scale="  127.321">  5  7 -1 -1</clus>
<clus scale="  176.080">  2  9  1 -1</clus>
<clus scale="  176.080">  2  5  1 -1</clus>
</clustering>
</event>
<event>
 9    1  0.6345107E-005  0.9379671E+02  0.7546771E-02  0.1301424E+00
         21   -1    0    0  501  502  0.00000000000E+00  0.00000000000E+00  0.20499800862E+03  0.20499800862E+03  0.00000000000E+00 0. -1.
          3   -1    0    0  502    0 -0.00000000000E+00 -0.00000000000E+00 -0.18039957758E+03  0.18039957758E+03  0.00000000000E+00 0. -1.
         23    2    1    2    0    0 -0.14684129635E+02  0.57091634259E+01 -0.14415880406E+03  0.17182454743E+03  0.92161250538E+02 0.  0.
        -24    2    1    2    0    0  0.34166825357E+02  0.14661756563E+02  0.74798587711E+02  0.11547728335E+03  0.79736034419E+02 0.  0.
         11    1    4    4    0    0  0.23342983522E+02  0.40656071524E+02  0.14736469817E+02  0.49142390806E+02  0.00000000000E+00 0. -1.
        -12    1    4    4    0    0  0.10823841835E+02 -0.25994314961E+02  0.60062117894E+02  0.66334892540E+02  0.00000000000E+00 0.  1.
        -11    1    3    3    0    0 -0.51151577097E+02 -0.16458139708E+01 -0.54543564601E+02  0.74794337905E+02  0.00000000000E+00 0. -1.
         11    1    3    3    0    0  0.36467447462E+02  0.73549773966E+01 -0.89615239458E+02  0.97030209523E+02  0.00000000000E+00 0.  1.
          4    1    1    2  501    0 -0.19482695722E+02 -0.20370919989E+02  0.93958647386E+02  0.98095755425E+02  0.00000000000E+00 0. -1.
<scales pt_clust_5="13000.00000" pt_clust_6="13000.00000" pt_clust_7="13000.00000" pt_clust_8="13000.00000" pt_clust_9="28.18776"></scales>
<clustering>
<clus scale="   28.188">  1  9  2 -1</clus>
<clus scale="   79.736">  5  6 -1 -1</clus>
<clus scale="   81.621">  1  5  2 -1</clus>
<clus scale="   92.161">  7  8 -1 -1</clus>
<clus scale="   28.188">  1  5  2 -1</clus>
</clustering>
</event>
<event>
 9    1  0.6345107E-005  0.9594110E+02  0.7546771E-02  0.1302870E+00
         21   -1    0    0  501  502  0.00000000000E+00  0.00000000000E+00  0.54689839070E+02  0.54689839070E+02  0.00000000000E+00 0. -1.
          3   -1    0    0  502    0 -0.00000000000E+00 -0.00000000000E+00 -0.34706085554E+03  0.34706085554E+03  0.00000000000E+00 0. -1.
        -24    2    1    2    0    0  0.11403926972E+02 -0.84867440966E+01 -0.22194659121E+03  0.23418394833E+03  0.73346833130E+02 0.  0.
         23    2    1    2    0    0  0.11464568722E+02  0.14682834609E+02 -0.93314940865E+02  0.13462231826E+03  0.95228506324E+02 0.  0.
         11    1    3    3    0    0 -0.24775190939E+02 -0.24752258447E+02 -0.10116518975E+03  0.10705549963E+03  0.00000000000E+00 0. -1.
        -12    1    3    3    0    0  0.36179117911E+02  0.16265514350E+02 -0.12078140146E+03  0.12712844870E+03  0.00000000000E+00 0.  1.
        -13    1    4    4    0    0 -0.78091456399E+01  0.50182658200E+02 -0.28462717147E+02  0.58218624228E+02  0.00000000000E+00 0.  1.
         13    1    4    4    0    0  0.19273714361E+02 -0.35499823592E+02 -0.64852223718E+02  0.76403694031E+02  0.00000000000E+00 0. -1.
          4    1    1    2  501    0 -0.22868495693E+02 -0.61960905119E+01  0.22890515605E+02  0.32944428020E+02  0.00000000000E+00 0. -1.
<scales pt_clust_5="13000.00000" pt_clust_6="13000.00000" pt_clust_7="13000.00000" pt_clust_8="13000.00000" pt_clust_9="23.69303"></scales>
<clustering>
<clus scale="   23.693">  1  9  2 -1</clus>
<clus scale="   73.347">  5  6 -1 -1</clus>
<clus scale="   74.270">  2  5  1 -1</clus>
<clus scale="   95.229">  7  8 -1 -1</clus>
<clus scale="   23.693">  1  5  2 -1</clus>
</clustering>
</event>
<event>
 9    1  0.6345107E-005  0.1256956E+03  0.7546771E-02  0.1237464E+00
         21   -1    0    0  501  502  0.00000000000E+00  0.00000000000E+00  0.89864668710E+03  0.89864668710E+03  0.00000000000E+00 0. -1.
          3   -1    0    0  502    0 -0.00000000000E+00 -0.00000000000E+00 -0.39737776692E+02  0.39737776692E+02  0.00000000000E+00 0. -1.
         23    2    1    2    0    0  0.11566044124E+02 -0.85258616104E+02  0.10336838874E+03  0.16308318707E+03  0.92240431047E+02 0.  0.
        -24    2    1    2    0    0  0.34239755157E+02  0.85791968588E+02  0.44853376309E+03  0.46489572662E+03  0.80080442654E+02 0.  0.
         11    1    4    4    0    0  0.39488909934E+02  0.75444857657E+02  0.21757055445E+03  0.23364127786E+03  0.00000000000E+00 0. -1.
        -12    1    4    4    0    0 -0.52491547771E+01  0.10347110932E+02  0.23096320863E+03  0.23125444876E+03  0.00000000000E+00 0.  1.
        -11    1    3    3    0    0  0.23788325915E+02 -0.75897435509E+00 -0.57958961124E+01  0.24495977295E+02  0.00000000000E+00 0.  1.
         11    1    3    3    0    0 -0.12222281791E+02 -0.84499641749E+02  0.10916428485E+03  0.13858720978E+03  0.00000000000E+00 0. -1.
          4    1    1    2  501    0 -0.45805799280E+02 -0.53335248431E+00  0.30700675858E+03  0.31040555009E+03  0.00000000000E+00 0. -1.
<scales pt_clust_5="13000.00000" pt_clust_6="13000.00000" pt_clust_7="13000.00000" pt_clust_8="13000.00000" pt_clust_9="45.80890"></scales>
<clustering>
<clus scale="   45.809">  1  9  2 -1</clus>
<clus scale="   80.080">  5  6 -1 -1</clus>
<clus scale="   92.240">  7  8 -1 -1</clus>
<clus scale="  117.064">  1  5  2 -1</clus>
<clus scale="   45.809">  1  5  2 -1</clus>
</clustering>
</event>
<event>
 9    1  0.6345107E-005  0.9127419E+02  0.7546771E-02  0.1305960E+00
         21   -1    0    0  501  502  0.00000000000E+00  0.00000000000E+00  0.40575104102E+02  0.40575104102E+02  0.00000000000E+00 0. -1.
          1   -1    0    0  502    0 -0.00000000000E+00 -0.00000000000E+00 -0.42102635047E+03  0.42102635047E+03  0.00000000000E+00 0. -1.
         23    2    1    2    0    0  0.11443358203E+02 -0.11681948249E+02 -0.23726605251E+03  0.25467707923E+03  0.91092352316E+02 0.  0.
        -24    2    1    2    0    0  0.31162571373E+02 -0.12093023813E+02 -0.48483135212E+02  0.10039271599E+03  0.81306432371E+02 0.  0.
         13    1    4    4    0    0  0.34957443515E+02 -0.43356414734E+02 -0.37035843922E+02  0.66883894105E+02  0.00000000000E+00 0. -1.
        -14    1    4    4    0    0 -0.37948721422E+01  0.31263390921E+02 -0.11447291291E+02  0.33508821888E+02  0.00000000000E+00 0.  1.
        -13    1    3    3    0    0 -0.36358332860E+02 -0.15583542928E+02 -0.14968694502E+03  0.15482556859E+03  0.00000000000E+00 0.  1.
         13    1    3    3    0    0  0.47801691063E+02  0.39015946795E+01 -0.87579107492E+02  0.99851510648E+02  0.00000000000E+00 0. -1.
          2    1    1    2  501    0 -0.42605929576E+02  0.23774972062E+02 -0.94702058647E+02  0.10653165935E+03  0.00000000000E+00 0. -1.
<scales pt_clust_5="13000.00000" pt_clust_6="13000.00000" pt_clust_7="13000.00000" pt_clust_8="13000.00000" pt_clust_9="48.79054"></scales>
<clustering>
<clus scale="   48.791">  1  9  2 -1</clus>
<clus scale="   81.306">  5  6 -1 -1</clus>
<clus scale="   81.510">  1  5  2 -1</clus>
<clus scale="   91.092">  7  8 -1 -1</clus>
<clus scale="   48.791">  1  5  2 -1</clus>
</clustering>
</event>
<event>
 9    1  0.6345107E-005  0.1104434E+03  0.7546771E-02  0.1260912E+00
         21   -1    0    0  501  502  0.00000000000E+00  0.00000000000E+00  0.10472608240E+03  0.10472608240E+03  0.00000000000E+00 0. -1.
         -2   -1    0    0    0  501 -0.00000000000E+00 -0.00000000000E+00 -0.69385270700E+03  0.69385270700E+03  0.00000000000E+00 0.  1.
        -24    2    1    2    0    0  0.65665160336E+01 -0.59683933399E+02 -0.62692293126E+03  0.63667799880E+03  0.93387479789E+02 0.  0.
         23    2    1    2    0    0 -0.48439792988E+02  0.38390961245E+02  0.18355728684E+02  0.11106086477E+03  0.90428443852E+02 0.  0.
         11    1    3    3    0    0 -0.21615154253E+02 -0.36128941431E+02 -0.10032652595E+03  0.10880223854E+03  0.00000000000E+00 0. -1.
        -12    1    3    3    0    0  0.28181670287E+02 -0.23554991968E+02 -0.52659640531E+03  0.52787576026E+03  0.00000000000E+00 0.  1.
        -13    1    4    4    0    0 -0.57494121987E+01  0.60872696978E+02  0.13059874572E+02  0.62522806254E+02  0.00000000000E+00 0. -1.
         13    1    4    4    0    0 -0.42690380789E+02 -0.22481735734E+02  0.52958541119E+01  0.48538058514E+02  0.00000000000E+00 0.  1.
         -1    1    1    2    0  502  0.41873276955E+02  0.21292972154E+02  0.19440577978E+02  0.50839925828E+02  0.00000000000E+00 0.  1.
<scales pt_clust_5="13000.00000" pt_clust_6="13000.00000" pt_clust_7="13000.00000" pt_clust_8="13000.00000" pt_clust_9="46.97619"></scales>
<clustering>
<clus scale="   46.976">  1  9  2 -1</clus>
<clus scale="   90.428">  7  8 -1 -1</clus>
<clus scale="   93.387">  5  6 -1 -1</clus>
<clus scale="  107.953">  1  7  2 -1</clus>
<clus scale="   46.976">  1  5  2 -1</clus>
</clustering>
</event>
<event>
 9    1  0.6345107E-005  0.1680169E+03  0.7546771E-02  0.1207687E+00
          1   -1    0    0  502    0 -0.00000000000E+00  0.00000000000E+00  0.31615428040E+03  0.31615428040E+03  0.00000000000E+00 0. -1.
         21   -1    0    0  501  502  0.00000000000E+00 -0.00000000000E+00 -0.16284293210E+03  0.16284293210E+03  0.00000000000E+00 0. -1.
         23    2    1    2    0    0 -0.13096227175E+02 -0.16974878491E+02 -0.47121654369E+02  0.10279136457E+03  0.88802909034E+02 0.  0.
        -24    2    1    2    0    0 -0.12762868670E+03 -0.45537312536E+02  0.13765402803E+03  0.20991551427E+03  0.82177631968E+02 0.  0.
         13    1    4    4    0    0 -0.59496222490E+02  0.21029718292E+02  0.50825277234E+02  0.81026281835E+02  0.00000000000E+00 0. -1.
        -14    1    4    4    0    0 -0.68132464213E+02 -0.66567030828E+02  0.86828750798E+02  0.12888923244E+03  0.00000000000E+00 0.  1.
        -11    1    3    3    0    0 -0.32325919718E+02 -0.29736101257E+02  0.65122246500E+01  0.44402813801E+02  0.00000000000E+00 0.  1.
         11    1    3    3    0    0  0.19229692543E+02  0.12761222766E+02 -0.53633879019E+02  0.58388550765E+02  0.00000000000E+00 0. -1.
          2    1    1    2  501    0  0.14072491388E+03  0.62512191027E+02  0.62778974630E+02  0.16629033366E+03  0.00000000000E+00 0. -1.
<scales pt_clust_5="13000.00000" pt_clust_6="13000.00000" pt_clust_7="13000.00000" pt_clust_8="13000.00000" pt_clust_9="146.54865"></scales>
<clustering>
<clus scale="   82.178">  5  6 -1 -1</clus>
<clus scale="   88.803">  7  8 -1 -1</clus>
<clus scale="   91.354">  1  7  2 -1</clus>
<clus scale="  146.549">  2  9  1 -1</clus>
<clus scale="  146.549">  2  5  1 -1</clus>
</clustering>
</event>
<event>
 9    1  0.6345107E-005  0.1013944E+03  0.7546771E-02  0.1282188E+00
         -4   -1    0    0    0  501 -0.00000000000E+00  0.00000000000E+00  0.83330306715E+02  0.83330306715E+02  0.00000000000E+00 0.  1.
         21   -1    0    0  501  502  0.00000000000E+00 -0.00000000000E+00 -0.32478660334E+03  0.32478660334E+03  0.00000000000E+00 0.  1.
        -24    2    1    2    0    0  0.26504768419E+02  0.22663701304E+02  0.14294931601E+02  0.90238650036E+02  0.81990992097E+02 0.  0.
         23    2    1    2    0    0 -0.69445172358E+02 -0.20479408375E+02 -0.92677824098E+02  0.14923193020E+03  0.91863767513E+02 0.  0.
         11    1    3    3    0    0  0.29133365245E+02  0.67449370741E+01 -0.30447125230E+02  0.42676393725E+02  0.00000000000E+00 0. -1.
        -12    1    3    3    0    0 -0.26285968266E+01  0.15918764230E+02  0.44742056831E+02  0.47562256310E+02  0.00000000000E+00 0.  1.
        -13    1    4    4    0    0 -0.48124901624E+02 -0.35900751253E+02 -0.10439411070E+03  0.12042840382E+03  0.00000000000E+00 0. -1.
         13    1    4    4    0    0 -0.21320270734E+02  0.15421342878E+02  0.11716286607E+02  0.28803526384E+02  0.00000000000E+00 0.  1.
         -3    1    1    2    0  502  0.42940403939E+02 -0.21842929291E+01 -0.16307340413E+03  0.16864632982E+03  0.00000000000E+00 0.  1.
<scales pt_clust_5="13000.00000" pt_clust_6="13000.00000" pt_clust_7="13000.00000" pt_clust_8="13000.00000" pt_clust_9="42.99592"></scales>
<clustering>
<clus scale="   42.996">  2  9  1 -1</clus>
<clus scale="   81.991">  5  6 -1 -1</clus>
<clus scale="   91.864">  7  8 -1 -1</clus>
<clus scale="   92.544">  1  5  2 -1</clus>
<clus scale="   42.996">  2  5  1 -1</clus>
</clustering>
</event>
<event>
 9    1  0.6345107E-005  0.1267470E+03  0.7546771E-02  0.1237170E+00
          1   -1    0    0  502    0 -0.00000000000E+00  0.00000000000E+00  0.55721604533E+03  0.55721604533E+03  0.00000000000E+00 0. -1.
         21   -1    0    0  501  502  0.00000000000E+00 -0.00000000000E+00 -0.48256479774E+02  0.48256479774E+02  0.00000000000E+00 0. -1.
         23    2    1    2    0    0 -0.18558184533E+01 -0.85582239144E+02  0.23473051811E+03  0.26604583971E+03  0.91401362009E+02 0.  0.
        -24    2    1    2    0    0 -0.66394976540E+02  0.78912877886E+02  0.21043285856E+03  0.24576449925E+03  0.74045026316E+02 0.  0.
         13    1    4    4    0    0 -0.72699089754E+02  0.67002294196E+02  0.12547713414E+03  0.15974660019E+03  0.00000000000E+00 0. -1.
        -14    1    4    4    0    0  0.63041132139E+01  0.11910583690E+02  0.84955724421E+02  0.86017899062E+02  0.00000000000E+00 0.  1.
        -11    1    3    3    0    0 -0.27710941918E+02 -0.26290598455E+02  0.22847867689E+02  0.44509739687E+02  0.00000000000E+00 0.  1.
         11    1    3    3    0    0  0.25855123464E+02 -0.59291640689E+02  0.21188265042E+03  0.22153610002E+03  0.00000000000E+00 0. -1.
          2    1    1    2  501    0  0.68250794994E+02  0.66693612583E+01  0.63796188885E+02  0.93662186143E+02  0.00000000000E+00 0. -1.
<scales pt_clust_5="13000.00000" pt_clust_6="13000.00000" pt_clust_7="13000.00000" pt_clust_8="13000.00000" pt_clust_9="68.57588"></scales>
<clustering>
<clus scale="   68.576">  2  9  1 -1</clus>
<clus scale="   74.045">  5  6 -1 -1</clus>
<clus scale="   91.401">  7  8 -1 -1</clus>
<clus scale="  114.862">  2  5  1 -1</clus>
<clus scale="   68.576">  2  5  1 -1</clus>
</clustering>
</event>
<event>
 9    1  0.6345107E-005  0.2002226E+03  0.7546771E-02  0.1150953E+00
          1   -1    0    0  502    0 -0.00000000000E+00  0.00000000000E+00  0.91423302320E+02  0.91423302320E+02  0.00000000000E+00 0. -1.
         21   -1    0    0  501  502  0.00000000000E+00 -0.00000000000E+00 -0.81760312937E+03  0.81760312937E+03  0.00000000000E+00 0. -1.
        -24    2    1    2    0    0 -0.15834436951E+03 -0.15283622279E+03 -0.16996935038E+03  0.28964197462E+03  0.81061970386E+02 0.  0.
         23    2    1    2    0    0  0.10909384634E+03  0.42289073769E+02 -0.32510474489E+03  0.35850872909E+03  0.95632529056E+02 0.  0.
         11    1    3    3    0    0 -0.46712325124E+02 -0.24620536326E+01 -0.26843315204E+02  0.53932055383E+02  0.00000000000E+00 0. -1.
        -12    1    3    3    0    0 -0.11163204438E+03 -0.15037416915E+03 -0.14312603518E+03  0.23570991924E+03  0.00000000000E+00 0.  1.
        -13    1    4    4    0    0  0.45176260271E+02  0.68461013485E+02 -0.17956255013E+03  0.19740950906E+03  0.00000000000E+00 0.  1.
         13    1    4    4    0    0  0.63917586065E+02 -0.26171939716E+02 -0.14554219476E+03  0.16109922003E+03  0.00000000000E+00 0. -1.
          2    1    1    2  501    0  0.49250523173E+02  0.11054714902E+03 -0.23110573178E+03  0.26087572798E+03  0.00000000000E+00 0. -1.
<scales pt_clust_5="13000.00000" pt_clust_6="13000.00000" pt_clust_7="13000.00000" pt_clust_8="13000.00000" pt_clust_9="121.02184"></scales>
<clustering>
<clus scale="   81.062">  5  6 -1 -1</clus>
<clus scale="   95.633">  7  8 -1 -1</clus>
<clus scale="  121.022">  2  9  1 -1</clus>
<clus scale="  193.687">  1  5  2 -1</clus>
<clus scale="  121.022">  2  5  1 -1</clus>
</clustering>
</event>
<event>
 9    1  0.6345107E-005  0.2142516E+03  0.7546771E-02  0.1139021E+00
          1   -1    0    0  502    0 -0.00000000000E+00  0.00000000000E+00  0.61513693214E+03  0.61513693214E+03  0.00000000000E+00 0. -1.
         21   -1    0    0  501  502  0.00000000000E+00 -0.00000000000E+00 -0.11552561904E+03  0.11552561904E+03  0.00000000000E+00 0. -1.
        -24    2    1    2    0    0 -0.17824814922E+03  0.66626954987E+02  0.38072012025E+03  0.43310444430E+03  0.80125500796E+02 0.  0.
         23    2    1    2    0    0  0.19894103891E+03 -0.61862812214E+02  0.59736833606E+02  0.23470803960E+03  0.90082351577E+02 0.  0.
         11    1    3    3    0    0 -0.13440291710E+03  0.44767993678E+02  0.34353924577E+03  0.37160130619E+03  0.00000000000E+00 0. -1.
        -12    1    3    3    0    0 -0.43845232124E+02  0.21858961309E+02  0.37180874477E+02  0.61503138102E+02  0.00000000000E+00 0.  1.
        -13    1    4    4    0    0  0.21019798189E+02 -0.41618084135E+02  0.24140759431E+01  0.46687520877E+02  0.00000000000E+00 0.  1.
         13    1    4    4    0    0  0.17792124072E+03 -0.20244728079E+02  0.57322757663E+02  0.18802051872E+03  0.00000000000E+00 0. -1.
          2    1    1    2  501    0 -0.20692889686E+02 -0.47641427731E+01  0.59154359250E+02  0.62850067289E+02  0.00000000000E+00 0. -1.
<scales pt_clust_5="13000.00000" pt_clust_6="13000.00000" pt_clust_7="13000.00000" pt_clust_8="13000.00000" pt_clust_9="21.23425"></scales>
<clustering>
<clus scale="   21.234">  2  9  1 -1</clus>
<clus scale="   80.126">  5  6 -1 -1</clus>
<clus scale="   90.082">  7  8 -1 -1</clus>
<clus scale="  210.259">  1  5  2 -1</clus>
<clus scale="   21.234">  2  5  1 -1</clus>
</clustering>
</event>
<event>
 9    1  0.6345107E-005  0.9841663E+02  0.7546771E-02  0.1288243E+00
         21   -1    0    0  501  502  0.00000000000E+00  0.00000000000E+00  0.12413032477E+03  0.12413032477E+03  0.00000000000E+00 0. -1.
          1   -1    0    0  502    0 -0.00000000000E+00 -0.00000000000E+00 -0.13141949770E+03  0.13141949770E+03  0.00000000000E+00 0. -1.
        -24    2    1    2    0    0  0.17413427479E+02  0.22934323503E+02 -0.47324404115E+02  0.98991979331E+02  0.82040246806E+02 0.  0.
         23    2    1    2    0    0 -0.26158630077E+02 -0.60101192691E+02  0.37881129131E+02  0.11831526361E+03  0.90923563329E+02 0.  0.
         11    1    3    3    0    0  0.45834650381E+02  0.18033820815E+01 -0.43762690449E+02  0.63397479744E+02  0.00000000000E+00 0. -1.
        -12    1    3    3    0    0 -0.28421222902E+02  0.21130941422E+02 -0.35617136653E+01  0.35594499587E+02  0.00000000000E+00 0.  1.
        -13    1    4    4    0    0 -0.28286756767E+02  0.17515735581E+02  0.19349862627E+02  0.38488424040E+02  0.00000000000E+00 0.  1.
         13    1    4    4    0    0  0.21281266904E+01 -0.77616928272E+02  0.18531266503E+02  0.79826839571E+02  0.00000000000E+00 0. -1.
          2    1    1    2  501    0  0.87452025978E+01  0.37166869188E+02  0.21541020501E+01  0.38242579533E+02  0.00000000000E+00 0. -1.
<scales pt_clust_5="13000.00000" pt_clust_6="13000.00000" pt_clust_7="13000.00000" pt_clust_8="13000.00000" pt_clust_9="38.18186"></scales>
<clustering>
<clus scale="   38.182">  1  9  2 -1</clus>
<clus scale="   82.040">  5  6 -1 -1</clus>
<clus scale="   90.274">  2  5  1 -1</clus>
<clus scale="   90.924">  7  8 -1 -1</clus>
<clus scale="   38.182">  1  5  2 -1</clus>
</clustering>
</event>
<event>
 9    1  0.6345107E-005  0.9960325E+02  0.7546771E-02  0.1287390E+00
          3   -1    0    0  502    0 -0.00000000000E+00  0.00000000000E+00  0.38159147256E+03  0.38159147256E+03  0.00000000000E+00 0. -1.
         21   -1    0    0  501  502  0.00000000000E+00 -0.00000000000E+00 -0.64373716676E+02  0.64373716676E+02  0.00000000000E+00 0.  1.
        -24    2    1    2    0    0  0.49120250475E+01  0.34908012072E+02  0.16686624468E+03  0.18851953575E+03  0.80327918246E+02 0.  0.
         23    2    1    2    0    0 -0.82238060166E+02 -0.11660637732E+02  0.66108026715E+02  0.14075494777E+03  0.92426268526E+02 0.  0.
         11    1    3    3    0    0  0.29823586628E+02  0.56960758016E+01  0.19153443220E+02  0.35899108430E+02  0.00000000000E+00 0. -1.
        -12    1    3    3    0    0 -0.24911561580E+02  0.29211936270E+02  0.14771280146E+03  0.15262042732E+03  0.00000000000E+00 0.  1.
        -13    1    4    4    0    0  0.91593700271E+01  0.21177040960E+02  0.28357927239E+02  0.36558626347E+02  0.00000000000E+00 0. -1.
         13    1    4    4    0    0 -0.91397430193E+02 -0.32837678691E+02  0.37750099476E+02  0.10419632142E+03  0.00000000000E+00 0.  1.
          4    1    1    2  501    0  0.77326035119E+02 -0.23247374340E+02  0.84243484487E+02  0.11669070571E+03  0.00000000000E+00 0. -1.
<scales pt_clust_5="13000.00000" pt_clust_6="13000.00000" pt_clust_7="13000.00000" pt_clust_8="13000.00000" pt_clust_9="80.74505"></scales>
<clustering>
<clus scale="   80.328">  5  6 -1 -1</clus>
<clus scale="   80.745">  2  9  1 -1</clus>
<clus scale="   88.492">  1  5  2 -1</clus>
<clus scale="   92.426">  7  8 -1 -1</clus>
<clus scale="   80.745">  2  5  1 -1</clus>
</clustering>
</event>
<event>
 9    1  0.6345107E-005  0.1337393E+03  0.7546771E-02  0.1222612E+00
         21   -1    0    0  501  502  0.00000000000E+00  0.00000000000E+00  0.24215049047E+03  0.24215049047E+03  0.00000000000E+00 0.  1.
          3   -1    0    0  502    0 -0.00000000000E+00 -0.00000000000E+00 -0.17568733587E+03  0.17568733587E+03  0.00000000000E+00 0. -1.
        -24    2    1    2    0    0 -0.81246890281E+01 -0.97332532659E+02 -0.12041830198E+03  0.18150788476E+03  0.94365842827E+02 0.  0.
         23    2    1    2    0    0 -0.52627770988E+01  0.78014333260E+02  0.16282288327E+03  0.20269614864E+03  0.91980999891E+02 0.  0.
         11    1    3    3    0    0  0.13447314145E+02 -0.10778499292E+03 -0.11220769408E+03  0.15616978442E+03  0.00000000000E+00 0. -1.
        -12    1    3    3    0    0 -0.21572003173E+02  0.10452460263E+02 -0.82106079001E+01  0.25338100334E+02  0.00000000000E+00 0.  1.
        -13    1    4    4    0    0  0.20965617815E+02  0.81511796306E+02  0.81426437932E+02  0.11710676693E+03  0.00000000000E+00 0.  1.
         13    1    4    4    0    0 -0.26228394914E+02 -0.34974630462E+01  0.81396445334E+02  0.85589381704E+02  0.00000000000E+00 0. -1.
          4    1    1    2  501    0  0.13387466127E+02  0.19318199398E+02  0.24058573315E+02  0.33633792936E+02  0.00000000000E+00 0. -1.
<scales pt_clust_5="13000.00000" pt_clust_6="13000.00000" pt_clust_7="13000.00000" pt_clust_8="13000.00000" pt_clust_9="23.50355"></scales>
<clustering>
<clus scale="   23.504">  1  9  2 -1</clus>
<clus scale="   91.981">  7  8 -1 -1</clus>
<clus scale="   94.366">  5  6 -1 -1</clus>
<clus scale="  132.067">  1  7  2 -1</clus>
<clus scale="   23.504">  1  5  2 -1</clus>
</clustering>
</event>
<event>
 9    1  0.6345107E-005  0.9201019E+02  0.7546771E-02  0.1304177E+00
          1   -1    0    0  502    0 -0.00000000000E+00  0.00000000000E+00  0.33936118775E+03  0.33936118775E+03  0.00000000000E+00 0. -1.
         21   -1    0    0  501  502  0.00000000000E+00 -0.00000000000E+00 -0.63292576171E+02  0.63292576171E+02  0.00000000000E+00 0.  1.
         23    2    1    2    0    0  0.64195998073E+01 -0.20300096728E+02  0.24971075788E+03  0.26650738805E+03  0.90649986740E+02 0.  0.
        -24    2    1    2    0    0 -0.21815851880E+02 -0.22403791843E+02  0.70516620724E+01  0.86816914978E+02  0.80682027156E+02 0.  0.
         13    1    4    4    0    0 -0.30951400282E+02  0.86831041083E+01  0.32427698341E+02  0.45661155220E+02  0.00000000000E+00 0. -1.
        -14    1    4    4    0    0  0.91355484016E+01 -0.31086895951E+02 -0.25376036269E+02  0.41155759757E+02  0.00000000000E+00 0.  1.
        -13    1    3    3    0    0 -0.15512099839E+02  0.23845684873E+02  0.30032480556E+02  0.41366554326E+02  0.00000000000E+00 0.  1.
         13    1    3    3    0    0  0.21931699646E+02 -0.44145781601E+02  0.21967827732E+03  0.22514083372E+03  0.00000000000E+00 0. -1.
          2    1    1    2  501    0  0.15396252073E+02  0.42703888571E+02  0.19306191629E+02  0.49329460895E+02  0.00000000000E+00 0. -1.
<scales pt_clust_5="13000.00000" pt_clust_6="13000.00000" pt_clust_7="13000.00000" pt_clust_8="13000.00000" pt_clust_9="45.39457"></scales>
<clustering>
<clus scale="   45.395">  2  9  1 -1</clus>
<clus scale="   80.682">  5  6 -1 -1</clus>
<clus scale="   82.207">  2  5  1 -1</clus>
<clus scale="   90.650">  7  8 -1 -1</clus>
<clus scale="   45.395">  2  5  1 -1</clus>
</clustering>
</event>
<event>
 9    1  0.6345107E-005  0.1291779E+03  0.7546771E-02  0.1231254E+00
          1   -1    0    0  502    0 -0.00000000000E+00  0.00000000000E+00  0.69057930416E+03  0.69057930416E+03  0.00000000000E+00 0. -1.
         21   -1    0    0  501  502  0.00000000000E+00 -0.00000000000E+00 -0.11840404979E+03  0.11840404979E+03  0.00000000000E+00 0. -1.
         23    2    1    2    0    0 -0.22761984127E+02 -0.93761247727E+02  0.54763732235E+03  0.56363519562E+03  0.92025634553E+02 0.  0.
        -24    2    1    2    0    0 -0.83494380490E+02  0.59456694389E+02  0.24272583523E+01  0.13152329597E+03  0.82377640896E+02 0.  0.
         11    1    4    4    0    0 -0.98978093627E+02  0.42904022664E+02  0.80300764963E+01  0.10817532208E+03  0.00000000000E+00 0. -1.
        -12    1    4    4    0    0  0.15483713137E+02  0.16552671725E+02 -0.56028181440E+01  0.23347973893E+02  0.00000000000E+00 0.  1.
        -11    1    3    3    0    0 -0.32013683974E+02  0.49016381361E+01  0.17925090860E+03  0.18215320544E+03  0.00000000000E+00 0.  1.
         11    1    3    3    0    0  0.92516998468E+01 -0.98662885863E+02  0.36838641375E+03  0.38148199018E+03  0.00000000000E+00 0. -1.
          2    1    1    2  501    0  0.10625636462E+03  0.34304553338E+02  0.22110673666E+02  0.11382486236E+03  0.00000000000E+00 0. -1.
<scales pt_clust_5="13000.00000" pt_clust_6="13000.00000" pt_clust_7="13000.00000" pt_clust_8="13000.00000" pt_clust_9="111.65669"></scales>
<clustering>
<clus scale="   82.378">  5  6 -1 -1</clus>
<clus scale="   92.026">  7  8 -1 -1</clus>
<clus scale="  111.657">  2  9  1 -1</clus>
<clus scale="  122.492">  2  5  1 -1</clus>
<clus scale="  111.657">  2  5  1 -1</clus>
</clustering>
</event>
<event>
 9    1  0.6345107E-005  0.1401242E+03  0.7546771E-02  0.1229772E+00
         -2   -1    0    0    0  501 -0.00000000000E+00  0.00000000000E+00  0.12543742273E+03  0.12543742273E+03  0.00000000000E+00 0.  1.
         21   -1    0    0  501  502  0.00000000000E+00 -0.00000000000E+00 -0.33124896811E+03  0.33124896811E+03  0.00000000000E+00 0. -1.
         23    2    1    2    0    0 -0.35800370397E+02 -0.60443810802E+01  0.32905817392E+02  0.10427751355E+03  0.92047845991E+02 0.  0.
        -24    2    1    2    0    0  0.87581108888E+02  0.93922057633E+02 -0.17786003399E+03  0.23363453080E+03  0.80368518398E+02 0.  0.
         11    1    4    4    0    0  0.96838225143E+02  0.64184115553E+02 -0.11493628056E+03  0.16342457321E+03  0.00000000000E+00 0. -1.
        -12    1    4    4    0    0 -0.92571162555E+01  0.29737942080E+02 -0.62923753429E+02  0.70209957599E+02  0.00000000000E+00 0.  1.
        -11    1    3    3    0    0 -0.53867108047E+02 -0.21477009326E+02 -0.64053406530E+01  0.58343428489E+02  0.00000000000E+00 0. -1.
         11    1    3    3    0    0  0.18066737650E+02  0.15432628246E+02  0.39311158045E+02  0.45934085065E+02  0.00000000000E+00 0.  1.
         -1    1    1    2    0  502 -0.51780738491E+02 -0.87877676553E+02 -0.60857328779E+02  0.11877434648E+03  0.00000000000E+00 0.  1.
<scales pt_clust_5="13000.00000" pt_clust_6="13000.00000" pt_clust_7="13000.00000" pt_clust_8="13000.00000" pt_clust_9="114.78550"></scales>
<clustering>
<clus scale="   80.369">  5  6 -1 -1</clus>
<clus scale="   92.048">  7  8 -1 -1</clus>
<clus scale="   98.950">  1  7  2 -1</clus>
<clus scale="  114.786">  2  9  1 -1</clus>
<clus scale="  114.786">  2  5  1 -1</clus>
</clustering>
</event>
<event>
 9    1  0.6345107E-005  0.2044743E+03  0.7546771E-02  0.1178478E+00
         -4   -1    0    0    0  501 -0.00000000000E+00  0.00000000000E+00  0.20523986747E+03  0.20523986747E+03  0.00000000000E+00 0.  1.
         21   -1    0    0  501  502  0.00000000000E+00 -0.00000000000E+00 -0.78962211254E+03  0.78962211254E+03  0.00000000000E+00 0.  1.
         23    2    1    2    0    0 -0.13003696993E+02  0.15131461323E+02  0.11327214928E+03  0.14868711770E+03  0.94229623309E+02 0.  0.
        -24    2    1    2    0    0 -0.64176275605E+02  0.16031645862E+03 -0.93450198682E+02  0.21229677400E+03  0.80728058092E+02 0.  0.
         13    1    4    4    0    0  0.50200098865E+01  0.86651828152E+02 -0.61219158958E+02  0.10621452464E+03  0.00000000000E+00 0. -1.
        -14    1    4    4    0    0 -0.69196285491E+02  0.73664630466E+02 -0.32231039724E+02  0.10608224936E+03  0.00000000000E+00 0.  1.
        -11    1    3    3    0    0 -0.44993267612E+02  0.28484006042E+02  0.36814181289E+02  0.64738062024E+02  0.00000000000E+00 0.  1.
         11    1    3    3    0    0  0.31989570619E+02 -0.13352544720E+02  0.76457967995E+02  0.83949055675E+02  0.00000000000E+00 0. -1.
         -3    1    1    2    0  502  0.77179972598E+02 -0.17544791994E+03 -0.60420419567E+03  0.63387808831E+03  0.00000000000E+00 0.  1.
<scales pt_clust_5="13000.00000" pt_clust_6="13000.00000" pt_clust_7="13000.00000" pt_clust_8="13000.00000" pt_clust_9="187.86361"></scales>
<clustering>
<clus scale="   80.728">  5  6 -1 -1</clus>
<clus scale="   94.230">  7  8 -1 -1</clus>
<clus scale="   96.319">  1  7  2 -1</clus>
<clus scale="  187.864">  2  9  1 -1</clus>
<clus scale="  187.864">  2  5  1 -1</clus>
</clustering>
</event>
<event>
 9    1  0.6345107E-005  0.9655533E+02  0.7546771E-02  0.1292937E+00
          1   -1    0    0  502    0 -0.00000000000E+00  0.00000000000E+00  0.24672781768E+03  0.24672781768E+03  0.00000000000E+00 0. -1.
         21   -1    0    0  501  502  0.00000000000E+00 -0.00000000000E+00 -0.11541681699E+03  0.11541681699E+03  0.00000000000E+00 0. -1.
        -24    2    1    2    0    0  0.20882423228E+01 -0.30328296004E+02  0.19426491960E+02  0.87719654628E+02  0.79957381922E+02 0.  0.
         23    2    1    2    0    0 -0.77265076872E+02  0.10321689743E+02 -0.20757664898E+02  0.12065317843E+03  0.89721120315E+02 0.  0.
         13    1    3    3    0    0  0.30622574582E+02 -0.14947769561E+02 -0.17728399722E+02  0.38411899791E+02  0.00000000000E+00 0. -1.
        -14    1    3    3    0    0 -0.28534332259E+02 -0.15380526443E+02  0.37154891682E+02  0.49307754837E+02  0.00000000000E+00 0.  1.
        -11    1    4    4    0    0 -0.11710418077E+02 -0.33717440584E+02  0.80493408842E+01  0.36589500949E+02  0.00000000000E+00 0.  1.
         11    1    4    4    0    0 -0.65554658795E+02  0.44039130327E+02 -0.28807005782E+02  0.84063677483E+02  0.00000000000E+00 0. -1.
          2    1    1    2  501    0  0.75176834549E+02  0.20006606261E+02  0.13264217363E+03  0.15377180161E+03  0.00000000000E+00 0. -1.
<scales pt_clust_5="13000.00000" pt_clust_6="13000.00000" pt_clust_7="13000.00000" pt_clust_8="13000.00000" pt_clust_9="77.79349"></scales>
<clustering>
<clus scale="   77.793">  2  9  1 -1</clus>
<clus scale="   79.957">  5  6 -1 -1</clus>
<clus scale="   87.557">  1  5  2 -1</clus>
<clus scale="   89.721">  7  8 -1 -1</clus>
<clus scale="   77.793">  2  5  1 -1</clus>
</clustering>
</event>
<event>
 9    1  0.6345107E-005  0.2658291E+03  0.7546771E-02  0.1104549E+00
         21   -1    0    0  501  502  0.00000000000E+00  0.00000000000E+00  0.25285199052E+03  0.25285199052E+03  0.00000000000E+00 0. -1.
          1   -1    0    0  502    0 -0.00000000000E+00 -0.00000000000E+00 -0.54450994753E+03  0.54450994753E+03  0.00000000000E+00 0. -1.
        -24    2    1    2    0    0  0.24818716988E+03 -0.61664920603E+02 -0.41126827740E+03  0.48955098011E+03  0.71548112547E+02 0.  0.
         23    2    1    2    0    0 -0.22252059334E+03  0.28787005315E+02  0.10266915303E+03  0.26279169966E+03  0.90412478627E+02 0.  0.
         13    1    3    3    0    0  0.16029808101E+03 -0.65548956790E+02 -0.31253209964E+03  0.35730722609E+03  0.00000000000E+00 0. -1.
        -14    1    3    3    0    0  0.87889088866E+02  0.38840361872E+01 -0.98736177758E+02  0.13224375402E+03  0.00000000000E+00 0.  1.
        -13    1    4    4    0    0 -0.15951423779E+03  0.58557215691E+02  0.55960438851E+02  0.17890028028E+03  0.00000000000E+00 0. -1.
         13    1    4    4    0    0 -0.63006355544E+02 -0.29770210377E+02  0.46708714182E+02  0.83891419378E+02  0.00000000000E+00 0.  1.
          2    1    1    2  501    0 -0.25666576542E+02  0.32877915289E+02  0.16941167348E+02  0.45019258282E+02  0.00000000000E+00 0. -1.
<scales pt_clust_5="13000.00000" pt_clust_6="13000.00000" pt_clust_7="13000.00000" pt_clust_8="13000.00000" pt_clust_9="41.71008"></scales>
<clustering>
<clus scale="   41.710">  1  9  2 -1</clus>
<clus scale="   71.548">  5  6 -1 -1</clus>
<clus scale="   90.412">  7  8 -1 -1</clus>
<clus scale="  260.019">  2  5  1 -1</clus>
<clus scale="   41.710">  1  5  2 -1</clus>
</clustering>
</event>
<event>
 9    1  0.6345107E-005  0.1080516E+03  0.7546771E-02  0.1268113E+00
         21   -1    0    0  501  502  0.00000000000E+00  0.00000000000E+00  0.11060168533E+03  0.11060168533E+03  0.00000000000E+00 0.  1.
          1   -1    0    0  502    0 -0.00000000000E+00 -0.00000000000E+00 -0.31525254807E+03  0.31525254807E+03  0.00000000000E+00 0. -1.
        -24    2    1    2    0    0 -0.43456968277E+02 -0.19595284803E+02 -0.16178200754E+03  0.18765027314E+03  0.82260098278E+02 0.  0.
         23    2    1    2    0    0  0.47708275326E+02  0.10332450581E+03 -0.48993216197E+02  0.15414348287E+03  0.91694302126E+02 0.  0.
         13    1    3    3    0    0 -0.58918133556E+02 -0.23958401853E+02 -0.15912706128E+03  0.17136736303E+03  0.00000000000E+00 0. -1.
        -14    1    3    3    0    0  0.15461165279E+02  0.43631170493E+01 -0.26549462650E+01  0.16282910116E+02  0.00000000000E+00 0.  1.
        -13    1    4    4    0    0 -0.15592836742E+02  0.74391301302E+02 -0.32193383963E+02  0.82544631794E+02  0.00000000000E+00 0.  1.
         13    1    4    4    0    0  0.63301112068E+02  0.28933204507E+02 -0.16799832234E+02  0.71598851075E+02  0.00000000000E+00 0. -1.
          2    1    1    2  501    0 -0.42513070492E+01 -0.83729221005E+02  0.61243609997E+01  0.84060477392E+02  0.00000000000E+00 0. -1.
<scales pt_clust_5="13000.00000" pt_clust_6="13000.00000" pt_clust_7="13000.00000" pt_clust_8="13000.00000" pt_clust_9="83.83708"></scales>
<clustering>
<clus scale="   82.260">  5  6 -1 -1</clus>
<clus scale="   83.837">  1  9  2 -1</clus>
<clus scale="   91.694">  7  8 -1 -1</clus>
<clus scale="  100.170">  2  5  1 -1</clus>
<clus scale="   83.837">  1  5  2 -1</clus>
</clustering>
</event>
<event>
 9    1  0.6345107E-005  0.1708875E+03  0.7546771E-02  0.1178382E+00
          3   -1    0    0  502    0 -0.00000000000E+00  0.00000000000E+00  0.24282299135E+03  0.24282299135E+03  0.00000000000E+00 0. -1.
         21   -1    0    0  501  502  0.00000000000E+00 -0.00000000000E+00 -0.29210390084E+03  0.29210390084E+03  0.00000000000E+00 0.  1.
         23    2    1    2    0    0 -0.14070388606E+03  0.16510733251E+01  0.14959513066E+03  0.22391254862E+03  0.89206595710E+02 0.  0.
        -24    2    1    2    0    0  0.17232807344E+03  0.32518886901E+02 -0.15110356055E+03  0.24430688359E+03  0.78096891465E+02 0.  0.
         13    1    4    4    0    0  0.27359254554E+02  0.87573104146E+01 -0.71869375984E+02  0.77397845576E+02  0.00000000000E+00 0. -1.
        -14    1    4    4    0    0  0.14496881888E+03  0.23761576487E+02 -0.79234184569E+02  0.16690903801E+03  0.00000000000E+00 0.  1.
        -11    1    3    3    0    0 -0.11334190001E+03  0.55838218196E+01  0.15844196323E+03  0.19488822713E+03  0.00000000000E+00 0. -1.
         11    1    3    3    0    0 -0.27361986053E+02 -0.39327484945E+01 -0.88468325677E+01  0.29024321490E+02  0.00000000000E+00 0.  1.
          4    1    1    2  501    0 -0.31624187380E+02 -0.34169960226E+02 -0.47772479603E+02  0.66707459978E+02  0.00000000000E+00 0. -1.
<scales pt_clust_5="13000.00000" pt_clust_6="13000.00000" pt_clust_7="13000.00000" pt_clust_8="13000.00000" pt_clust_9="46.55830"></scales>
<clustering>
<clus scale="   46.558">  2  9  1 -1</clus>
<clus scale="   78.097">  5  6 -1 -1</clus>
<clus scale="   89.207">  7  8 -1 -1</clus>
<clus scale="  165.360">  2  5  1 -1</clus>
<clus scale="   46.558">  2  5  1 -1</clus>
</clustering>
</event>
<event>
 9    1  0.6345107E-005  0.9953591E+02  0.7546771E-02  0.1284573E+00
          1   -1    0    0  502    0 -0.00000000000E+00  0.00000000000E+00  0.26257269585E+03  0.26257269585E+03  0.00000000000E+00 0. -1.
         21   -1    0    0  501  502  0.00000000000E+00 -0.00000000000E+00 -0.11893982799E+03  0.11893982799E+03  0.00000000000E+00 0. -1.
         23    2    1    2    0    0 -0.39332712635E+02  0.37545432972E+02  0.20927970330E+03  0.23321872886E+03  0.87385693665E+02 0.  0.
        -24    2    1    2    0    0  0.51059435436E+01 -0.16686887874E+01 -0.54931473267E+02  0.97564794578E+02  0.80452266618E+02 0.  0.
         13    1    4    4    0    0 -0.34889295468E+02 -0.91763093855E+01 -0.11076433926E+02  0.37737977963E+02  0.00000000000E+00 0. -1.
        -14    1    4    4    0    0  0.39995239012E+02  0.75076205982E+01 -0.43855039341E+02  0.59826816615E+02  0.00000000000E+00 0.  1.
        -11    1    3    3    0    0  0.21091024663E+02  0.31014866800E+02  0.11577035942E+03  0.12169440991E+03  0.00000000000E+00 0. -1.
         11    1    3    3    0    0 -0.60423737297E+02  0.65305661721E+01  0.93509343877E+02  0.11152431894E+03  0.00000000000E+00 0.  1.
          2    1    1    2  501    0  0.34226769091E+02 -0.35876744185E+02 -0.10715362163E+02  0.50729000404E+02  0.00000000000E+00 0. -1.
<scales pt_clust_5="13000.00000" pt_clust_6="13000.00000" pt_clust_7="13000.00000" pt_clust_8="13000.00000" pt_clust_9="49.58440"></scales>
<clustering>
<clus scale="   49.584">  2  9  1 -1</clus>
<clus scale="   80.452">  5  6 -1 -1</clus>
<clus scale="   87.386">  7  8 -1 -1</clus>
<clus scale="   93.508">  2  5  1 -1</clus>
<clus scale="   49.584">  2  5  1 -1</clus>
</clustering>
</event>
<event>
 9    1  0.6345107E-005  0.9125956E+02  0.7546771E-02  0.1300721E+00
         -2   -1    0    0    0  501 -0.00000000000E+00  0.00000000000E+00  0.12000980912E+03  0.12000980912E+03  0.00000000000E+00 0.  1.
         21   -1    0    0  501  502  0.00000000000E+00 -0.00000000000E+00 -0.17302606209E+03  0.17302606209E+03  0.00000000000E+00 0. -1.
         23    2    1    2    0    0  0.29337574380E+02 -0.36774934681E+02  0.47137588241E+02  0.10374313310E+03  0.79546190033E+02 0.  0.
        -24    2    1    2    0    0 -0.36991522048E+02  0.12028131123E+02 -0.12572131181E+03  0.15289654664E+03  0.77836091186E+02 0.  0.
         13    1    4    4    0    0 -0.17009617928E+02 -0.32846624172E+02 -0.65060243012E+02  0.74840250149E+02  0.00000000000E+00 0. -1.
        -14    1    4    4    0    0 -0.19981904119E+02  0.44874755295E+02 -0.60661068795E+02  0.78056296494E+02  0.00000000000E+00 0.  1.
        -11    1    3    3    0    0 -0.15158895814E+02 -0.16082436684E+02  0.49918277010E+02  0.54591860855E+02  0.00000000000E+00 0. -1.
         11    1    3    3    0    0  0.44496470195E+02 -0.20692497997E+02 -0.27806887694E+01  0.49151272244E+02  0.00000000000E+00 0.  1.
         -1    1    1    2    0  502  0.76539476676E+01  0.24746803558E+02  0.25567470597E+02  0.36396191476E+02  0.00000000000E+00 0.  1.
<scales pt_clust_5="13000.00000" pt_clust_6="13000.00000" pt_clust_7="13000.00000" pt_clust_8="13000.00000" pt_clust_9="25.90343"></scales>
<clustering>
<clus scale="   25.903">  2  9  1 -1</clus>
<clus scale="   77.836">  5  6 -1 -1</clus>
<clus scale="   79.546">  7  8 -1 -1</clus>
<clus scale="   89.773">  2  5  1 -1</clus>
<clus scale="   25.903">  2  5  1 -1</clus>
</clustering>
</event>
<event>
 9    1  0.6345107E-005  0.1077325E+03  0.7546771E-02  0.1267929E+00
          1   -1    0    0  502    0 -0.00000000000E+00  0.00000000000E+00  0.55982060808E+03  0.55982060808E+03  0.00000000000E+00 0. -1.
         21   -1    0    0  501  502  0.00000000000E+00 -0.00000000000E+00 -0.35785975074E+02  0.35785975074E+02  0.00000000000E+00 0.  1.
         23    2    1    2    0    0  0.12141046801E+02  0.84225434564E+02  0.32222690917E+03  0.34509048736E+03  0.89531752067E+02 0.  0.
        -24    2    1    2    0    0 -0.69791103935E+01 -0.23524685707E+02  0.96729609564E+02  0.12905566356E+03  0.81832928036E+02 0.  0.
         13    1    4    4    0    0  0.88622830346E+00  0.26901514095E+02  0.61237388499E+02  0.66891663243E+02  0.00000000000E+00 0. -1.
        -14    1    4    4    0    0 -0.78653386969E+01 -0.50426199802E+02  0.35492221065E+02  0.62164000317E+02  0.00000000000E+00 0.  1.
        -11    1    3    3    0    0 -0.29946549908E+02  0.14263639923E+02  0.43818630774E+02  0.54957435149E+02  0.00000000000E+00 0. -1.
         11    1    3    3    0    0  0.42087596709E+02  0.69961794642E+02  0.27840827840E+03  0.29013305221E+03  0.00000000000E+00 0.  1.
          2    1    1    2  501    0 -0.51619364076E+01 -0.60700748857E+02  0.10507811427E+03  0.12146043223E+03  0.00000000000E+00 0. -1.
<scales pt_clust_5="13000.00000" pt_clust_6="13000.00000" pt_clust_7="13000.00000" pt_clust_8="13000.00000" pt_clust_9="60.91984"></scales>
<clustering>
<clus scale="   60.920">  2  9  1 -1</clus>
<clus scale="   81.833">  5  6 -1 -1</clus>
<clus scale="   89.532">  7  8 -1 -1</clus>
<clus scale="  101.425">  2  5  1 -1</clus>
<clus scale="   60.920">  2  5  1 -1</clus>
</clustering>
</event>
<event>
 9    1  0.6345107E-005  0.1049012E+03  0.7546771E-02  0.1274385E+00
          1   -1    0    0  502    0 -0.00000000000E+00  0.00000000000E+00  0.11353250390E+03  0.11353250390E+03  0.00000000000E+00 0. -1.
         21   -1    0    0  501  502  0.00000000000E+00 -0.00000000000E+00 -0.27128014967E+03  0.27128014967E+03  0.00000000000E+00 0. -1.
         23    2    1    2    0    0  0.33545802505E+02 -0.50130914864E+00  0.13246896131E+02  0.97145811954E+02  0.90201199252E+02 0.  0.
        -24    2    1    2    0    0 -0.83731296879E+02 -0.47123995671E+02 -0.27781201684E+02  0.12861711883E+03  0.80863879717E+02 0.  0.
         11    1    4    4    0    0 -0.94653260713E+02 -0.49161715705E+02 -0.93132565937E+01  0.10706470382E+03  0.00000000000E+00 0. -1.
        -12    1    4    4    0    0  0.10921963833E+02  0.20377200340E+01 -0.18467945090E+02  0.21552415010E+02  0.00000000000E+00 0.  1.
        -13    1    3    3    0    0  0.51138863863E+02 -0.31427159528E+02  0.29074588577E+01  0.60094118433E+02  0.00000000000E+00 0. -1.
         13    1    3    3    0    0 -0.17593061357E+02  0.30925850380E+02  0.10339437274E+02  0.37051693521E+02  0.00000000000E+00 0.  1.
          2    1    1    2  501    0  0.50185494374E+02  0.47625304820E+02 -0.14321334022E+03  0.15904972280E+03  0.00000000000E+00 0. -1.
<scales pt_clust_5="13000.00000" pt_clust_6="13000.00000" pt_clust_7="13000.00000" pt_clust_8="13000.00000" pt_clust_9="69.18637"></scales>
<clustering>
<clus scale="   69.186">  2  9  1 -1</clus>
<clus scale="   80.864">  5  6 -1 -1</clus>
<clus scale="   90.201">  7  8 -1 -1</clus>
<clus scale="   96.990">  2  5  1 -1</clus>
<clus scale="   69.186">  2  5  1 -1</clus>
</clustering>
</event>
<event>
 9    1  0.6345107E-005  0.1550424E+03  0.7546771E-02  0.1217706E+00
         -4   -1    0    0    0  501 -0.00000000000E+00  0.00000000000E+00  0.18537275777E+03  0.18537275777E+03  0.00000000000E+00 0.  1.
         21   -1    0    0  501  502  0.00000000000E+00 -0.00000000000E+00 -0.38442560702E+03  0.38442560702E+03  0.00000000000E+00 0.  1.
         23    2    1    2    0    0 -0.11896924809E+02  0.65998523982E+01 -0.85627996446E+02  0.12712419381E+03  0.92969414351E+02 0.  0.
        -24    2    1    2    0    0  0.13119566034E+03  0.46181383308E+02  0.10178515734E+03  0.19101289941E+03  0.82344933244E+02 0.  0.
         13    1    4    4    0    0 -0.64494464828E+01  0.20081395938E+02  0.18318016069E+02  0.27935775190E+02  0.00000000000E+00 0. -1.
        -14    1    4    4    0    0  0.13764510682E+03  0.26099987370E+02  0.83467141273E+02  0.16307712422E+03  0.00000000000E+00 0.  1.
        -11    1    3    3    0    0 -0.39537620752E+02  0.32509806304E+02 -0.28531698847E+02  0.58601781541E+02  0.00000000000E+00 0.  1.
         11    1    3    3    0    0  0.27640695943E+02 -0.25909953905E+02 -0.57096297600E+02  0.68522412269E+02  0.00000000000E+00 0. -1.
         -3    1    1    2    0  502 -0.11929873553E+03 -0.52781235707E+02 -0.21521001014E+03  0.25166127157E+03  0.00000000000E+00 0.  1.
<scales pt_clust_5="13000.00000" pt_clust_6="13000.00000" pt_clust_7="13000.00000" pt_clust_8="13000.00000" pt_clust_9="131.36759"></scales>
<clustering>
<clus scale="   82.345">  5  6 -1 -1</clus>
<clus scale="   92.969">  7  8 -1 -1</clus>
<clus scale="   93.960">  1  7  2 -1</clus>
<clus scale="  131.368">  2  9  1 -1</clus>
<clus scale="  131.368">  2  5  1 -1</clus>
</clustering>
</event>
<event>
 9    1  0.6345107E-005  0.1323732E+03  0.7546771E-02  0.1232028E+00
         21   -1    0    0  501  502  0.00000000000E+00  0.00000000000E+00  0.74363190025E+03  0.74363190025E+03  0.00000000000E+00 0. -1.
          1   -1    0    0  502    0 -0.00000000000E+00 -0.00000000000E+00 -0.27155543310E+03  0.27155543310E+03  0.00000000000E+00 0. -1.
         23    2    1    2    0    0 -0.72739380863E+02  0.58988411117E+02 -0.20177559076E+03  0.24710444507E+03  0.10759445885E+03 0.  0.
        -24    2    1    2    0    0 -0.15827026478E+02 -0.62077345956E+02  0.16514110689E+02  0.10479808755E+03  0.81276267466E+02 0.  0.
         13    1    4    4    0    0 -0.29447154154E+02 -0.71004270129E+02 -0.58980105217E+01  0.77094278597E+02  0.00000000000E+00 0. -1.
        -14    1    4    4    0    0  0.13620127676E+02  0.89269241726E+01  0.22412121211E+02  0.27703808949E+02  0.00000000000E+00 0.  1.
        -11    1    3    3    0    0 -0.75432617690E+02  0.21247915979E+02 -0.19294231636E+03  0.20825054907E+03  0.00000000000E+00 0. -1.
         11    1    3    3    0    0  0.26932368268E+01  0.37740495138E+02 -0.88332743942E+01  0.38853896000E+02  0.00000000000E+00 0.  1.
          2    1    1    2  501    0  0.88566407341E+02  0.30889348388E+01  0.65733794722E+03  0.66328480073E+03  0.00000000000E+00 0. -1.
<scales pt_clust_5="13000.00000" pt_clust_6="13000.00000" pt_clust_7="13000.00000" pt_clust_8="13000.00000" pt_clust_9="88.62026"></scales>
<clustering>
<clus scale="   81.276">  5  6 -1 -1</clus>
<clus scale="   88.620">  1  9  2 -1</clus>
<clus scale="  107.594">  7  8 -1 -1</clus>
<clus scale="  112.035">  1  5  2 -1</clus>
<clus scale="   88.620">  1  5  2 -1</clus>
</clustering>
</event>
<event>
 9    1  0.6345107E-005  0.9767479E+02  0.7546771E-02  0.1291917E+00
         21   -1    0    0  501  502  0.00000000000E+00  0.00000000000E+00  0.36366810409E+02  0.36366810409E+02  0.00000000000E+00 0.  1.
          1   -1    0    0  502    0 -0.00000000000E+00 -0.00000000000E+00 -0.38980425899E+03  0.38980425899E+03  0.00000000000E+00 0. -1.
         23    2    1    2    0    0 -0.29004049377E+02  0.12069364615E+02 -0.22403760830E+03  0.24484926028E+03  0.93655784061E+02 0.  0.
        -24    2    1    2    0    0  0.24228580452E+02  0.16094135830E+02 -0.57601687860E+02  0.10404980544E+03  0.81623294766E+02 0.  0.
         13    1    4    4    0    0  0.15671903193E+02  0.22850734698E+02 -0.76980021557E+02  0.81814964065E+02  0.00000000000E+00 0. -1.
        -14    1    4    4    0    0  0.85566772587E+01 -0.67565988682E+01  0.19378333697E+02  0.22234841373E+02  0.00000000000E+00 0.  1.
        -13    1    3    3    0    0 -0.39660160121E+02  0.47000352495E+02 -0.15484753195E+03  0.16661248328E+03  0.00000000000E+00 0. -1.
         13    1    3    3    0    0  0.10656110743E+02 -0.34930987879E+02 -0.69190076351E+02  0.78236777004E+02  0.00000000000E+00 0.  1.
          2    1    1    2  501    0  0.47754689252E+01 -0.28163500445E+02 -0.71798152426E+02  0.77272003679E+02  0.00000000000E+00 0. -1.
<scales pt_clust_5="13000.00000" pt_clust_6="13000.00000" pt_clust_7="13000.00000" pt_clust_8="13000.00000" pt_clust_9="28.56552"></scales>
<clustering>
<clus scale="   28.566">  1  9  2 -1</clus>
<clus scale="   81.623">  5  6 -1 -1</clus>
<clus scale="   86.205">  1  5  2 -1</clus>
<clus scale="   93.656">  7  8 -1 -1</clus>
<clus scale="   28.566">  1  5  2 -1</clus>
</clustering>
</event>
<event>
 9    1  0.6345107E-005  0.1189776E+03  0.7546771E-02  0.1248207E+00
         21   -1    0    0  501  502  0.00000000000E+00  0.00000000000E+00  0.15097531476E+04  0.15097531476E+04  0.00000000000E+00 0.  1.
         -4   -1    0    0    0  501 -0.00000000000E+00 -0.00000000000E+00 -0.37542217180E+02  0.37542217180E+02  0.00000000000E+00 0.  1.
         23    2    1    2    0    0 -0.49047406685E+02  0.43636215621E+02  0.30755384593E+03  0.32739711237E+03  0.91047974294E+02 0.  0.
        -24    2    1    2    0    0  0.43232899544E+02 -0.11770004674E+03  0.11266324027E+04  0.11364408621E+04  0.80466624318E+02 0.  0.
         13    1    4    4    0    0  0.41258389534E+02 -0.55300304786E+02  0.31783673778E+03  0.32523925086E+03  0.00000000000E+00 0. -1.
        -14    1    4    4    0    0  0.19745100100E+01 -0.62399741958E+02  0.80879566495E+03  0.81120161127E+03  0.00000000000E+00 0.  1.
        -13    1    3    3    0    0 -0.21314084312E+02  0.59988399641E+02  0.27234862165E+03  0.27969031087E+03  0.00000000000E+00 0.  1.
         13    1    3    3    0    0 -0.27733322373E+02 -0.16352184020E+02  0.35205224280E+02  0.47706801493E+02  0.00000000000E+00 0. -1.
         -3    1    1    2    0  502  0.58145071413E+01  0.74063831123E+02  0.38024681803E+02  0.83457390326E+02  0.00000000000E+00 0.  1.
<scales pt_clust_5="13000.00000" pt_clust_6="13000.00000" pt_clust_7="13000.00000" pt_clust_8="13000.00000" pt_clust_9="74.29176"></scales>
<clustering>
<clus scale="   74.292">  1  9  2 -1</clus>
<clus scale="   80.467">  5  6 -1 -1</clus>
<clus scale="   91.048">  7  8 -1 -1</clus>
<clus scale="  111.089">  1  5  2 -1</clus>
<clus scale="   74.292">  1  5  2 -1</clus>
</clustering>
</event>
<event>
 9    1  0.6345107E-005  0.9927944E+02  0.7546771E-02  0.1287954E+00
         21   -1    0    0  501  502  0.00000000000E+00  0.00000000000E+00  0.35149973625E+02  0.35149973625E+02  0.00000000000E+00 0. -1.
          1   -1    0    0  502    0 -0.00000000000E+00 -0.00000000000E+00 -0.38093101816E+03  0.38093101816E+03  0.00000000000E+00 0. -1.
        -24    2    1    2    0    0  0.37280678982E+02 -0.16409479232E+02 -0.15746566056E+03  0.18163878197E+03  0.80858474038E+02 0.  0.
         23    2    1    2    0    0 -0.31788381208E+02 -0.11948223455E+02 -0.95730675238E+02  0.13745637102E+03  0.92610099492E+02 0.  0.
         11    1    3    3    0    0  0.99855984127E+01  0.31623714626E+02 -0.40992737129E+02  0.52727374291E+02  0.00000000000E+00 0. -1.
        -12    1    3    3    0    0  0.27295080570E+02 -0.48033193858E+02 -0.11647292344E+03  0.12891140768E+03  0.00000000000E+00 0.  1.
        -13    1    4    4    0    0 -0.89431833498E+01 -0.30289118648E+02  0.55127930643E+01  0.32059353148E+02  0.00000000000E+00 0. -1.
         13    1    4    4    0    0 -0.22845197858E+02  0.18340895193E+02 -0.10124346830E+03  0.10539701787E+03  0.00000000000E+00 0.  1.
          2    1    1    2  501    0 -0.54922977745E+01  0.28357702687E+02 -0.92584708731E+02  0.96985838798E+02  0.00000000000E+00 0. -1.
<scales pt_clust_5="13000.00000" pt_clust_6="13000.00000" pt_clust_7="13000.00000" pt_clust_8="13000.00000" pt_clust_9="28.88469"></scales>
<clustering>
<clus scale="   28.885">  1  9  2 -1</clus>
<clus scale="   80.858">  5  6 -1 -1</clus>
<clus scale="   88.419">  2  5  1 -1</clus>
<clus scale="   92.610">  7  8 -1 -1</clus>
<clus scale="   28.885">  1  5  2 -1</clus>
</clustering>
</event>
<event>
 9    1  0.6345107E-005  0.1176807E+03  0.7546771E-02  0.1256709E+00
         21   -1    0    0  501  502  0.00000000000E+00  0.00000000000E+00  0.90964327739E+02  0.90964327739E+02  0.00000000000E+00 0. -1.
          1   -1    0    0  502    0 -0.00000000000E+00 -0.00000000000E+00 -0.35701614185E+03  0.35701614185E+03  0.00000000000E+00 0. -1.
        -24    2    1    2    0    0 -0.30027785779E+02  0.40901415459E+02 -0.26805392748E+03  0.28453888902E+03  0.80838589944E+02 0.  0.
         23    2    1    2    0    0  0.27359845566E+02 -0.73366702519E+02  0.25768881960E+01  0.13086178415E+03  0.10481856711E+03 0.  0.
         11    1    3    3    0    0 -0.16083947113E+02  0.57194220965E+02 -0.10984470928E+03  0.12488287482E+03  0.00000000000E+00 0. -1.
        -12    1    3    3    0    0 -0.13943838665E+02 -0.16292805507E+02 -0.15820921819E+03  0.15965601420E+03  0.00000000000E+00 0.  1.
        -13    1    4    4    0    0 -0.40308756687E+02 -0.31955274392E+02  0.30030833400E+01  0.51526245124E+02  0.00000000000E+00 0.  1.
         13    1    4    4    0    0  0.67668602253E+02 -0.41411428127E+02 -0.42619514405E+00  0.79335539027E+02  0.00000000000E+00 0. -1.
          2    1    1    2  501    0  0.26679402123E+01  0.32465287060E+02 -0.57477483564E+00  0.32579796423E+02  0.00000000000E+00 0. -1.
<scales pt_clust_5="13000.00000" pt_clust_6="13000.00000" pt_clust_7="13000.00000" pt_clust_8="13000.00000" pt_clust_9="32.57473"></scales>
<clustering>
<clus scale="   32.575">  1  9  2 -1</clus>
<clus scale="   80.839">  5  6 -1 -1</clus>
<clus scale="   96.937">  2  5  1 -1</clus>
<clus scale="  104.819">  7  8 -1 -1</clus>
<clus scale="   32.575">  1  5  2 -1</clus>
</clustering>
</event>
<event>
 9    1  0.6345107E-005  0.1353540E+03  0.7546771E-02  0.1222128E+00
          1   -1    0    0  502    0 -0.00000000000E+00  0.00000000000E+00  0.80331788761E+03  0.80331788761E+03  0.00000000000E+00 0. -1.
         21   -1    0    0  501  502  0.00000000000E+00 -0.00000000000E+00 -0.18719884759E+03  0.18719884759E+03  0.00000000000E+00 0. -1.
         23    2    1    2    0    0  0.10986416188E+03 -0.22531903647E+02  0.66760033900E+03  0.68311239973E+03  0.91512388732E+02 0.  0.
        -24    2    1    2    0    0 -0.63735263920E+02 -0.42312909290E+02  0.91106130759E+02  0.14411349031E+03  0.81337598123E+02 0.  0.
         13    1    4    4    0    0  0.11856781527E+02 -0.26702295125E+02  0.46637367636E+02  0.55033079990E+02  0.00000000000E+00 0. -1.
        -14    1    4    4    0    0 -0.75592045447E+02 -0.15610614165E+02  0.44468763123E+02  0.89080410322E+02  0.00000000000E+00 0.  1.
        -13    1    3    3    0    0  0.61097862751E+02  0.31698742948E+02  0.39352388116E+03  0.39949819046E+03  0.00000000000E+00 0.  1.
         13    1    3    3    0    0  0.48766299131E+02 -0.54230646595E+02  0.27407645783E+03  0.28361420927E+03  0.00000000000E+00 0. -1.
          2    1    1    2  501    0 -0.46128897963E+02  0.64844812937E+02 -0.14258742974E+03  0.16329084515E+03  0.00000000000E+00 0. -1.
<scales pt_clust_5="13000.00000" pt_clust_6="13000.00000" pt_clust_7="13000.00000" pt_clust_8="13000.00000" pt_clust_9="79.57842"></scales>
<clustering>
<clus scale="   79.578">  2  9  1 -1</clus>
<clus scale="   81.338">  5  6 -1 -1</clus>
<clus scale="   91.512">  7  8 -1 -1</clus>
<clus scale="  128.693">  2  5  1 -1</clus>
<clus scale="   79.578">  2  5  1 -1</clus>
</clustering>
</event>
<event>
 9    1  0.6345107E-005  0.1763188E+03  0.7546771E-02  0.1171493E+00
         21   -1    0    0  501  502  0.00000000000E+00  0.00000000000E+00  0.10868085084E+03  0.10868085084E+03  0.00000000000E+00 0.  1.
         -4   -1    0    0    0  501 -0.00000000000E+00 -0.00000000000E+00 -0.38219497023E+03  0.38219497023E+03  0.00000000000E+00 0.  1.
        -24    2    1    2    0    0  0.10206520743E+03  0.13676717262E+03 -0.20988899219E+03  0.28324300587E+03  0.83968120444E+02 0.  0.
         23    2    1    2    0    0 -0.82022134531E+02 -0.99467554864E+02 -0.40792002878E+02  0.15952525008E+03  0.84633875549E+02 0.  0.
         11    1    3    3    0    0  0.81967896620E+02  0.60793508629E+02 -0.16122424463E+03  0.19080839558E+03  0.00000000000E+00 0. -1.
        -12    1    3    3    0    0  0.20097310813E+02  0.75973663995E+02 -0.48664747564E+02  0.92434610284E+02  0.00000000000E+00 0.  1.
        -11    1    4    4    0    0 -0.81284864668E+02 -0.72960906365E+02 -0.61976591880E+02  0.12558511465E+03  0.00000000000E+00 0. -1.
         11    1    4    4    0    0 -0.73726986344E+00 -0.26506648500E+02  0.21184589002E+02  0.33940135426E+02  0.00000000000E+00 0.  1.
         -3    1    1    2    0  502 -0.20043072902E+02 -0.37299617760E+02 -0.22833124321E+02  0.48107565129E+02  0.00000000000E+00 0.  1.
<scales pt_clust_5="13000.00000" pt_clust_6="13000.00000" pt_clust_7="13000.00000" pt_clust_8="13000.00000" pt_clust_9="42.34367"></scales>
<clustering>
<clus scale="   42.344">  1  9  2 -1</clus>
<clus scale="   83.968">  5  6 -1 -1</clus>
<clus scale="   84.634">  7  8 -1 -1</clus>
<clus scale="  176.000">  2  5  1 -1</clus>
<clus scale="   42.344">  1  5  2 -1</clus>
</clustering>
</event>
<event>
 9    1  0.6345107E-005  0.1114366E+03  0.7546771E-02  0.1259013E+00
          3   -1    0    0  502    0 -0.00000000000E+00  0.00000000000E+00  0.35768288177E+03  0.35768288177E+03  0.00000000000E+00 0. -1.
         21   -1    0    0  501  502  0.00000000000E+00 -0.00000000000E+00 -0.86587964332E+02  0.86587964332E+02  0.00000000000E+00 0.  1.
        -24    2    1    2    0    0  0.36288791623E+02 -0.12473743179E+02  0.10871152202E+03  0.14863065738E+03  0.93810482496E+02 0.  0.
         23    2    1    2    0    0 -0.11905690550E+03 -0.17866901393E+02  0.65110838711E+02  0.16436541706E+03  0.91009868111E+02 0.  0.
         11    1    3    3    0    0  0.16020335621E+02 -0.53363413981E+02  0.60160110590E+02  0.81997219534E+02  0.00000000000E+00 0. -1.
        -12    1    3    3    0    0  0.20268456002E+02  0.40889670802E+02  0.48551411431E+02  0.66633437844E+02  0.00000000000E+00 0.  1.
        -13    1    4    4    0    0 -0.11234387401E+03  0.17902629647E+02  0.56249882042E+02  0.12690823222E+03  0.00000000000E+00 0. -1.
         13    1    4    4    0    0 -0.67130314908E+01 -0.35769531040E+02  0.88609566690E+01  0.37457184834E+02  0.00000000000E+00 0.  1.
          4    1    1    2  501    0  0.82768113880E+02  0.30340644572E+02  0.97272556710E+02  0.13127477167E+03  0.00000000000E+00 0. -1.
<scales pt_clust_5="13000.00000" pt_clust_6="13000.00000" pt_clust_7="13000.00000" pt_clust_8="13000.00000" pt_clust_9="88.15397"></scales>
<clustering>
<clus scale="   88.154">  2  9  1 -1</clus>
<clus scale="   91.010">  7  8 -1 -1</clus>
<clus scale="   93.810">  5  6 -1 -1</clus>
<clus scale="  109.089">  2  7  1 -1</clus>
<clus scale="   88.154">  2  5  1 -1</clus>
</clustering>
</event>
<event>
 9    1  0.6345107E-005  0.2318147E+03  0.7546771E-02  0.1125369E+00
         -4   -1    0    0    0  501 -0.00000000000E+00  0.00000000000E+00  0.33554943957E+02  0.33554943957E+02  0.00000000000E+00 0.  1.
         21   -1    0    0  501  502  0.00000000000E+00 -0.00000000000E+00 -0.10380493567E+04  0.10380493567E+04  0.00000000000E+00 0.  1.
        -24    2    1    2    0    0  0.50967297748E+02  0.59271580382E+02 -0.18181406034E+03  0.21358613879E+03  0.80323722927E+02 0.  0.
         23    2    1    2    0    0  0.24810315537E+02  0.49485489126E+02 -0.33871116587E+03  0.35622485745E+03  0.95428139409E+02 0.  0.
         13    1    3    3    0    0  0.40639229232E+02  0.35756951733E+02 -0.17986013341E+03  0.18782910887E+03  0.00000000000E+00 0. -1.
        -14    1    3    3    0    0  0.10328068516E+02  0.23514628648E+02 -0.19539269320E+01  0.25757029918E+02  0.00000000000E+00 0.  1.
        -13    1    4    4    0    0 -0.36403818066E+01 -0.25754998317E+02 -0.48054046986E+02  0.54642142617E+02  0.00000000000E+00 0. -1.
         13    1    4    4    0    0  0.28450697344E+02  0.75240487443E+02 -0.29065711889E+03  0.30158271484E+03  0.00000000000E+00 0.  1.
         -3    1    1    2    0  502 -0.75777613285E+02 -0.10875706951E+03 -0.48396918655E+03  0.50179330443E+03  0.00000000000E+00 0.  1.
<scales pt_clust_5="13000.00000" pt_clust_6="13000.00000" pt_clust_7="13000.00000" pt_clust_8="13000.00000" pt_clust_9="132.55318"></scales>
<clustering>
<clus scale="   80.324">  5  6 -1 -1</clus>
<clus scale="   95.428">  7  8 -1 -1</clus>
<clus scale="  108.687">  5  7 -1 -1</clus>
<clus scale="  132.553">  2  9  1 -1</clus>
<clus scale="  132.553">  2  5  1 -1</clus>
</clustering>
</event>
<event>
 9    1  0.9164503E-005  0.1628948E+03  0.7546771E-02  0.1208137E+00
         -2   -1    0    0    0  501 -0.00000000000E+00  0.00000000000E+00  0.58706110764E+03  0.58706110764E+03  0.00000000000E+00 0.  1.
         21   -1    0    0  501  502  0.00000000000E+00 -0.00000000000E+00 -0.21601504068E+03  0.21601504068E+03  0.00000000000E+00 0. -1.
         23    2    1    2    0    0  0.13102204150E+02 -0.38205484891E+02  0.74527335820E+02  0.12414335589E+03  0.90696869839E+02 0.  0.
        -24    2    1    2    0    0  0.96450701702E+02 -0.97969885538E+02 -0.13730166704E+03  0.21123020685E+03  0.82859013884E+02 0.  0.
         13    1    4    4    0    0  0.91997223281E+02 -0.10851819510E+03 -0.13985708961E+03  0.19949860469E+03  0.00000000000E+00 0. -1.
        -14    1    4    4    0    0  0.44534784218E+01  0.10548309560E+02  0.25554225737E+01  0.11731602156E+02  0.00000000000E+00 0.  1.
        -13    1    3    3    0    0 -0.34800715146E+02  0.43884858257E+01  0.23634604262E+02  0.42295899341E+02  0.00000000000E+00 0.  1.
         13    1    3    3    0    0  0.47902919295E+02 -0.42593970717E+02  0.50892731559E+02  0.81847456552E+02  0.00000000000E+00 0. -1.
         -1    1    1    2    0  502 -0.10955290585E+03  0.13617537043E+03  0.43382039817E+03  0.46770258558E+03  0.00000000000E+00 0.  1.
<scales pt_clust_5="13000.00000" pt_clust_6="13000.00000" pt_clust_7="13000.00000" pt_clust_8="13000.00000" pt_clust_9="140.24669"></scales>
<clustering>
<clus scale="   82.859">  5  6 -1 -1</clus>
<clus scale="   90.697">  7  8 -1 -1</clus>
<clus scale="   99.284">  1  7  2 -1</clus>
<clus scale="  140.247">  2  9  1 -1</clus>
<clus scale="  140.247">  2  5  1 -1</clus>
</clustering>
</event>
<event>
 9    1  0.6345107E-005  0.1201831E+03  0.7546771E-02  0.1246358E+00
         21   -1    0    0  501  502  0.00000000000E+00  0.00000000000E+00  0.28059038246E+03  0.28059038246E+03  0.00000000000E+00 0.  1.
         -2   -1    0    0    0  501 -0.00000000000E+00 -0.00000000000E+00 -0.34063543782E+03  0.34063543782E+03  0.00000000000E+00 0.  1.
        -24    2    1    2    0    0 -0.44674153568E+02  0.76466202262E+02 -0.25135876921E+03  0.27835611483E+03  0.80361904666E+02 0.  0.
         23    2    1    2    0    0  0.12688361664E+00 -0.53199544914E+02 -0.34598616766E+02  0.11143466548E+03  0.91599196011E+02 0.  0.
         13    1    3    3    0    0  0.21799242936E+02  0.58128485013E+01 -0.49292821611E+02  0.54210501406E+02  0.00000000000E+00 0. -1.
        -14    1    3    3    0    0 -0.66473396503E+02  0.70653353760E+02 -0.20206594760E+03  0.22414561343E+03  0.00000000000E+00 0.  1.
        -11    1    4    4    0    0  0.23123314233E+02  0.18165718397E+02 -0.14112263551E+01  0.29439302740E+02  0.00000000000E+00 0. -1.
         11    1    4    4    0    0 -0.22996430616E+02 -0.71365263311E+02 -0.33187390411E+02  0.81995362739E+02  0.00000000000E+00 0.  1.
         -1    1    1    2    0  502  0.44547269951E+02 -0.23266657348E+02  0.22591233061E+03  0.23143503997E+03  0.00000000000E+00 0.  1.
<scales pt_clust_5="13000.00000" pt_clust_6="13000.00000" pt_clust_7="13000.00000" pt_clust_8="13000.00000" pt_clust_9="50.25730"></scales>
<clustering>
<clus scale="   50.257">  1  9  2 -1</clus>
<clus scale="   80.362">  5  6 -1 -1</clus>
<clus scale="   91.599">  7  8 -1 -1</clus>
<clus scale="  111.855">  2  5  1 -1</clus>
<clus scale="   50.257">  1  5  2 -1</clus>
</clustering>
</event>
<event>
 9    1  0.6345107E-005  0.1164409E+03  0.7546771E-02  0.1253466E+00
         21   -1    0    0  501  502  0.00000000000E+00  0.00000000000E+00  0.78602222486E+03  0.78602222486E+03  0.00000000000E+00 0. -1.
         -2   -1    0    0    0  501 -0.00000000000E+00 -0.00000000000E+00 -0.37930722965E+02  0.37930722965E+02  0.00000000000E+00 0.  1.
         23    2    1    2    0    0  0.92704828877E+02 -0.55756775055E+02  0.20728605170E+03  0.25121807272E+03  0.91869524697E+02 0.  0.
        -24    2    1    2    0    0 -0.60014251397E+01  0.51074702667E+02  0.20186652264E+03  0.22285061048E+03  0.79168549772E+02 0.  0.
         11    1    4    4    0    0  0.17875127345E+02  0.34429207282E+02  0.18538862077E+03  0.18940388381E+03  0.00000000000E+00 0. -1.
        -12    1    4    4    0    0 -0.23876552485E+02  0.16645495385E+02  0.16477901878E+02  0.33446726678E+02  0.00000000000E+00 0.  1.
        -11    1    3    3    0    0  0.89801455694E+02 -0.93163927897E+01  0.16622290885E+03  0.18915906546E+03  0.00000000000E+00 0. -1.
         11    1    3    3    0    0  0.29033731829E+01 -0.46440382266E+02  0.41063142850E+02  0.62059007255E+02  0.00000000000E+00 0.  1.
         -1    1    1    2    0  502 -0.86703403737E+02  0.46820723879E+01  0.33893892755E+03  0.34988426462E+03  0.00000000000E+00 0.  1.
<scales pt_clust_5="13000.00000" pt_clust_6="13000.00000" pt_clust_7="13000.00000" pt_clust_8="13000.00000" pt_clust_9="86.82973"></scales>
<clustering>
<clus scale="   79.169">  5  6 -1 -1</clus>
<clus scale="   86.830">  1  9  2 -1</clus>
<clus scale="   91.870">  7  8 -1 -1</clus>
<clus scale="  106.706">  1  5  2 -1</clus>
<clus scale="   86.830">  1  5  2 -1</clus>
</clustering>
</event>
<event>
 9    1  0.6345107E-005  0.8868713E+02  0.7546771E-02  0.1306264E+00
          1   -1    0    0  502    0 -0.00000000000E+00  0.00000000000E+00  0.43930221341E+03  0.43930221341E+03  0.00000000000E+00 0. -1.
         21   -1    0    0  501  502  0.00000000000E+00 -0.00000000000E+00 -0.34183938633E+02  0.34183938633E+02  0.00000000000E+00 0.  1.
         23    2    1    2    0    0 -0.22788138117E+02 -0.10608224394E+02  0.20146819905E+03  0.21882022694E+03  0.81615089461E+02 0.  0.
        -24    2    1    2    0    0  0.48387201914E+02 -0.31288008253E+01  0.20478572594E+03  0.22559175047E+03  0.81260898507E+02 0.  0.
         13    1    4    4    0    0  0.49166098096E+02  0.26984637989E+02  0.83256893471E+02  0.10038518915E+03  0.00000000000E+00 0. -1.
        -14    1    4    4    0    0 -0.77889618184E+00 -0.30113438814E+02  0.12152883247E+03  0.12520656132E+03  0.00000000000E+00 0.  1.
        -11    1    3    3    0    0 -0.26497891930E+02 -0.43849917475E+02  0.10771172092E+03  0.11927601755E+03  0.00000000000E+00 0.  1.
         11    1    3    3    0    0  0.37097538135E+01  0.33241693081E+02  0.93756478130E+02  0.99544209393E+02  0.00000000000E+00 0. -1.
          2    1    1    2  501    0 -0.25599063797E+02  0.13737025220E+02 -0.11356502135E+01  0.29074174633E+02  0.00000000000E+00 0. -1.
<scales pt_clust_5="13000.00000" pt_clust_6="13000.00000" pt_clust_7="13000.00000" pt_clust_8="13000.00000" pt_clust_9="29.05199"></scales>
<clustering>
<clus scale="   29.052">  2  9  1 -1</clus>
<clus scale="   81.261">  5  6 -1 -1</clus>
<clus scale="   81.615">  7  8 -1 -1</clus>
<clus scale="   88.361">  2  5  1 -1</clus>
<clus scale="   29.052">  2  5  1 -1</clus>
</clustering>
</event>
<event>
 9    1  0.6345107E-005  0.1253025E+03  0.7546771E-02  0.1237461E+00
         21   -1    0    0  501  502  0.00000000000E+00  0.00000000000E+00  0.88724100673E+02  0.88724100673E+02  0.00000000000E+00 0. -1.
          1   -1    0    0  502    0 -0.00000000000E+00 -0.00000000000E+00 -0.44172110808E+03  0.44172110808E+03  0.00000000000E+00 0. -1.
         23    2    1    2    0    0  0.18039725178E+02 -0.86775781788E+02 -0.19617737057E+03  0.23374021682E+03  0.91068437148E+02 0.  0.
        -24    2    1    2    0    0 -0.11148648483E+03  0.40305507901E+02 -0.64597229068E+02  0.15743275586E+03  0.80984568578E+02 0.  0.
         13    1    4    4    0    0 -0.11637121025E+03  0.21396328300E+02 -0.69597364810E+02  0.13727292023E+03  0.00000000000E+00 0. -1.
        -14    1    4    4    0    0  0.48847254111E+01  0.18909179601E+02  0.50001357425E+01  0.20159835638E+02  0.00000000000E+00 0.  1.
        -13    1    3    3    0    0 -0.33729253187E+02 -0.29117600017E+02 -0.42231073795E+02  0.61391862207E+02  0.00000000000E+00 0.  1.
         13    1    3    3    0    0  0.51768978365E+02 -0.57658181771E+02 -0.15394629678E+03  0.17234835461E+03  0.00000000000E+00 0. -1.
          2    1    1    2  501    0  0.93446759657E+02  0.46470273887E+02 -0.92222407768E+02  0.13927223607E+03  0.00000000000E+00 0. -1.
<scales pt_clust_5="13000.00000" pt_clust_6="13000.00000" pt_clust_7="13000.00000" pt_clust_8="13000.00000" pt_clust_9="104.36371"></scales>
<clustering>
<clus scale="   80.985">  5  6 -1 -1</clus>
<clus scale="   91.068">  7  8 -1 -1</clus>
<clus scale="  104.364">  1  9  2 -1</clus>
<clus scale="  118.177">  1  5  2 -1</clus>
<clus scale="  104.364">  1  5  2 -1</clus>
</clustering>
</event>
<event>
 9    1  0.6345107E-005  0.1594189E+03  0.7546771E-02  0.1193747E+00
         21   -1    0    0  501  502  0.00000000000E+00  0.00000000000E+00  0.83186052056E+02  0.83186052056E+02  0.00000000000E+00 0. -1.
          1   -1    0    0  502    0 -0.00000000000E+00 -0.00000000000E+00 -0.43143417311E+03  0.43143417311E+03  0.00000000000E+00 0. -1.
        -24    2    1    2    0    0 -0.11741493762E+03 -0.58938491815E+02 -0.26474073729E+03  0.30644536871E+03  0.81000571784E+02 0.  0.
         23    2    1    2    0    0  0.70334138755E+02  0.66573407413E+02 -0.59351418651E+02  0.15471081050E+03  0.10504253587E+03 0.  0.
         13    1    3    3    0    0 -0.64386005003E+02 -0.57515821681E+02 -0.22240738521E+03  0.23857634497E+03  0.00000000000E+00 0. -1.
        -14    1    3    3    0    0 -0.53028932621E+02 -0.14226701338E+01 -0.42333352083E+02  0.67869023743E+02  0.00000000000E+00 0.  1.
        -11    1    4    4    0    0  0.34637060847E+02  0.12132428916E+02 -0.78665533581E+02  0.86805460595E+02  0.00000000000E+00 0.  1.
         11    1    4    4    0    0  0.35697077908E+02  0.54440978497E+02  0.19314114930E+02  0.67905349910E+02  0.00000000000E+00 0. -1.
          2    1    1    2  501    0  0.47080798869E+02 -0.76349155982E+01 -0.24155965105E+02  0.53464045943E+02  0.00000000000E+00 0. -1.
<scales pt_clust_5="13000.00000" pt_clust_6="13000.00000" pt_clust_7="13000.00000" pt_clust_8="13000.00000" pt_clust_9="47.69584"></scales>
<clustering>
<clus scale="   47.696">  1  9  2 -1</clus>
<clus scale="   81.001">  5  6 -1 -1</clus>
<clus scale="  105.043">  7  8 -1 -1</clus>
<clus scale="  144.712">  2  5  1 -1</clus>
<clus scale="   47.696">  1  5  2 -1</clus>
</clustering>
</event>
<event>
 9    1  0.6345107E-005  0.1535864E+03  0.7546771E-02  0.1198265E+00
         -2   -1    0    0    0  501 -0.00000000000E+00  0.00000000000E+00  0.40758610293E+03  0.40758610293E+03  0.00000000000E+00 0.  1.
         21   -1    0    0  501  502  0.00000000000E+00 -0.00000000000E+00 -0.19624095326E+03  0.19624095326E+03  0.00000000000E+00 0.  1.
         23    2    1    2    0    0  0.97209117807E+02 -0.75413297248E+02  0.31602640439E+03  0.35157506576E+03  0.92712246241E+02 0.  0.
        -24    2    1    2    0    0 -0.64599302965E+02  0.10630857359E+03 -0.13299289379E+03  0.19915333667E+03  0.80624803547E+02 0.  0.
         13    1    4    4    0    0  0.12524343314E+02  0.38761748666E+02 -0.16440673805E+02  0.43927532258E+02  0.00000000000E+00 0. -1.
        -14    1    4    4    0    0 -0.77123646280E+02  0.67546824924E+02 -0.11655221999E+03  0.15522580442E+03  0.00000000000E+00 0.  1.
        -11    1    3    3    0    0  0.52760644523E+02 -0.90395736679E+02  0.18717622541E+03  0.21445282507E+03  0.00000000000E+00 0.  1.
         11    1    3    3    0    0  0.44448473284E+02  0.14982439431E+02  0.12885017898E+03  0.13712224069E+03  0.00000000000E+00 0. -1.
         -1    1    1    2    0  502 -0.32609814842E+02 -0.30895276342E+02  0.28311639071E+02  0.53098653760E+02  0.00000000000E+00 0.  1.
<scales pt_clust_5="13000.00000" pt_clust_6="13000.00000" pt_clust_7="13000.00000" pt_clust_8="13000.00000" pt_clust_9="44.92127"></scales>
<clustering>
<clus scale="   44.921">  2  9  1 -1</clus>
<clus scale="   80.625">  5  6 -1 -1</clus>
<clus scale="   92.712">  7  8 -1 -1</clus>
<clus scale="  146.607">  2  5  1 -1</clus>
<clus scale="   44.921">  2  5  1 -1</clus>
</clustering>
</event>
<event>
 9    1  0.6345107E-005  0.1514180E+03  0.7546771E-02  0.1223516E+00
          3   -1    0    0  502    0 -0.00000000000E+00  0.00000000000E+00  0.11992626904E+03  0.11992626904E+03  0.00000000000E+00 0. -1.
         21   -1    0    0  501  502  0.00000000000E+00 -0.00000000000E+00 -0.54153105810E+03  0.54153105810E+03  0.00000000000E+00 0.  1.
         23    2    1    2    0    0  0.92616273695E+01 -0.13239455938E+02 -0.25902430559E+03  0.27398470502E+03  0.87823497788E+02 0.  0.
        -24    2    1    2    0    0 -0.10621853709E+03 -0.71841267936E+02 -0.20212483766E+03  0.25255365435E+03  0.80531688937E+02 0.  0.
         11    1    4    4    0    0 -0.42359511178E+02  0.12429720654E+01 -0.21532443290E+02  0.47534401025E+02  0.00000000000E+00 0. -1.
        -12    1    4    4    0    0 -0.63859025913E+02 -0.73084240001E+02 -0.18059239437E+03  0.20501925332E+03  0.00000000000E+00 0.  1.
        -11    1    3    3    0    0  0.16346928206E+01 -0.48971958734E+02 -0.10787216745E+03  0.11847923647E+03  0.00000000000E+00 0. -1.
         11    1    3    3    0    0  0.76269345489E+01  0.35732502796E+02 -0.15115213813E+03  0.15550546855E+03  0.00000000000E+00 0.  1.
          4    1    1    2  501    0  0.96956909721E+02  0.85080723874E+02  0.39544354184E+02  0.13491896777E+03  0.00000000000E+00 0. -1.
<scales pt_clust_5="13000.00000" pt_clust_6="13000.00000" pt_clust_7="13000.00000" pt_clust_8="13000.00000" pt_clust_9="128.22660"></scales>
<clustering>
<clus scale="   80.532">  5  6 -1 -1</clus>
<clus scale="   87.823">  7  8 -1 -1</clus>
<clus scale="   89.297">  1  7  2 -1</clus>
<clus scale="  128.227">  2  9  1 -1</clus>
<clus scale="  128.227">  2  5  1 -1</clus>
</clustering>
</event>
<event>
 9    1  0.6345107E-005  0.1660210E+03  0.7546771E-02  0.1186055E+00
         21   -1    0    0  501  502  0.00000000000E+00  0.00000000000E+00  0.20298886152E+03  0.20298886152E+03  0.00000000000E+00 0. -1.
          1   -1    0    0  502    0 -0.00000000000E+00 -0.00000000000E+00 -0.54032807862E+03  0.54032807862E+03  0.00000000000E+00 0. -1.
         23    2    1    2    0    0  0.12795789429E+03 -0.81131787969E+02 -0.42963329011E+03  0.46574914625E+03  0.96860278393E+02 0.  0.
        -24    2    1    2    0    0 -0.92167955816E+02  0.33230871028E+02 -0.44478996524E+02  0.12829525760E+03  0.69871804922E+02 0.  0.
         13    1    4    4    0    0 -0.15984388287E+02  0.40348061245E+02 -0.10968356306E+02  0.44763506958E+02  0.00000000000E+00 0. -1.
        -14    1    4    4    0    0 -0.76183567529E+02 -0.71171902164E+01 -0.33510640218E+02  0.83531750645E+02  0.00000000000E+00 0.  1.
        -13    1    3    3    0    0  0.87895429886E+02 -0.95599860243E+02 -0.37247726499E+03  0.39446704908E+03  0.00000000000E+00 0. -1.
         13    1    3    3    0    0  0.40062464406E+02  0.14468072275E+02 -0.57156025117E+02  0.71282097169E+02  0.00000000000E+00 0.  1.
          2    1    1    2  501    0 -0.35789938475E+02  0.47900916941E+02  0.13677306954E+03  0.14927253629E+03  0.00000000000E+00 0. -1.
<scales pt_clust_5="13000.00000" pt_clust_6="13000.00000" pt_clust_7="13000.00000" pt_clust_8="13000.00000" pt_clust_9="59.79480"></scales>
<clustering>
<clus scale="   59.795">  1  9  2 -1</clus>
<clus scale="   69.872">  5  6 -1 -1</clus>
<clus scale="   96.860">  7  8 -1 -1</clus>
<clus scale="  151.865">  1  5  2 -1</clus>
<clus scale="   59.795">  1  5  2 -1</clus>
</clustering>
</event>
<event>
 9    1  0.6345107E-005  0.2848860E+03  0.7546771E-02  0.1104574E+00
         21   -1    0    0  501  502  0.00000000000E+00  0.00000000000E+00  0.20426189990E+03  0.20426189990E+03  0.00000000000E+00 0. -1.
         -2   -1    0    0    0  501 -0.00000000000E+00 -0.00000000000E+00 -0.87972233937E+03  0.87972233937E+03  0.00000000000E+00 0.  1.
        -24    2    1    2    0    0 -0.13134886487E+03 -0.14118085582E+03 -0.42826472037E+02  0.21541254736E+03  0.85929625268E+02 0.  0.
         23    2    1    2    0    0  0.26188451077E+02  0.32887541213E+03 -0.23067774279E+03  0.41265857999E+03  0.90719407780E+02 0.  0.
         13    1    3    3    0    0 -0.20470770212E+02 -0.56799889899E+02  0.18546197003E+02  0.63160441329E+02  0.00000000000E+00 0. -1.
        -14    1    3    3    0    0 -0.11087809465E+03 -0.84380965926E+02 -0.61372669040E+02  0.15225210603E+03  0.00000000000E+00 0.  1.
        -13    1    4    4    0    0 -0.14442518572E+02  0.13816002658E+03 -0.14132631827E+03  0.19816636325E+03  0.00000000000E+00 0.  1.
         13    1    4    4    0    0  0.40630969650E+02  0.19071538555E+03 -0.89351424527E+02  0.21449221675E+03  0.00000000000E+00 0. -1.
         -1    1    1    2    0  502  0.10516041379E+03 -0.18769455631E+03 -0.40195622463E+03  0.45591311192E+03  0.00000000000E+00 0.  1.
<scales pt_clust_5="13000.00000" pt_clust_6="13000.00000" pt_clust_7="13000.00000" pt_clust_8="13000.00000" pt_clust_9="270.05576"></scales>
<clustering>
<clus scale="   85.930">  5  6 -1 -1</clus>
<clus scale="   90.719">  7  8 -1 -1</clus>
<clus scale="  211.113">  2  5  1 -1</clus>
<clus scale="  270.056">  1  9  2 -1</clus>
<clus scale="  270.056">  1  5  2 -1</clus>
</clustering>
</event>
<event>
 9    1  0.6345107E-005  0.1897340E+03  0.7546771E-02  0.1159433E+00
         21   -1    0    0  501  502  0.00000000000E+00  0.00000000000E+00  0.67201741253E+03  0.67201741253E+03  0.00000000000E+00 0. -1.
          3   -1    0    0  502    0 -0.00000000000E+00 -0.00000000000E+00 -0.19921419896E+03  0.19921419896E+03  0.00000000000E+00 0. -1.
         23    2    1    2    0    0 -0.16549367502E+03 -0.39978342426E+02 -0.11731133794E+03  0.22513200854E+03  0.89084493172E+02 0.  0.
        -24    2    1    2    0    0  0.13786234153E+03  0.75300012740E+02  0.27066612943E+03  0.32351875208E+03  0.82025070524E+02 0.  0.
         11    1    4    4    0    0  0.91061668323E+02  0.65189929962E+02  0.24456348340E+03  0.26898559779E+03  0.00000000000E+00 0. -1.
        -12    1    4    4    0    0  0.46800673210E+02  0.10110082779E+02  0.26102646026E+02  0.54533154285E+02  0.00000000000E+00 0.  1.
        -13    1    3    3    0    0 -0.15000917238E+02 -0.32402954336E+02 -0.26896972284E+01  0.35808008027E+02  0.00000000000E+00 0.  1.
         13    1    3    3    0    0 -0.15049275778E+03 -0.75753880908E+01 -0.11462164071E+03  0.18932400051E+03  0.00000000000E+00 0. -1.
          4    1    1    2  501    0  0.27631333489E+02 -0.35321670314E+02  0.31944842208E+03  0.32258085088E+03  0.00000000000E+00 0. -1.
<scales pt_clust_5="13000.00000" pt_clust_6="13000.00000" pt_clust_7="13000.00000" pt_clust_8="13000.00000" pt_clust_9="44.84541"></scales>
<clustering>
<clus scale="   44.845">  1  9  2 -1</clus>
<clus scale="   82.025">  5  6 -1 -1</clus>
<clus scale="   89.084">  7  8 -1 -1</clus>
<clus scale="  186.524">  1  5  2 -1</clus>
<clus scale="   44.845">  1  5  2 -1</clus>
</clustering>
</event>
<event>
 9    1  0.6345107E-005  0.1564376E+03  0.7546771E-02  0.1194826E+00
         21   -1    0    0  501  502  0.00000000000E+00  0.00000000000E+00  0.32356607770E+02  0.32356607770E+02  0.00000000000E+00 0. -1.
          1   -1    0    0  502    0 -0.00000000000E+00 -0.00000000000E+00 -0.11745327332E+04  0.11745327332E+04  0.00000000000E+00 0. -1.
        -24    2    1    2    0    0  0.14671107785E+03 -0.76031128349E+00 -0.62547548881E+03  0.64748804542E+03  0.80600641576E+02 0.  0.
         23    2    1    2    0    0 -0.90992282041E+02 -0.27295150363E+02 -0.22623396810E+03  0.26231110949E+03  0.92739900871E+02 0.  0.
         13    1    3    3    0    0  0.60989670414E+02  0.33828823080E+02 -0.19222090066E+03  0.20448228241E+03  0.00000000000E+00 0. -1.
        -14    1    3    3    0    0  0.85721407434E+02 -0.34589134363E+02 -0.43325458815E+03  0.44300576301E+03  0.00000000000E+00 0.  1.
        -13    1    4    4    0    0 -0.39797162108E+02 -0.56333889963E+02 -0.86110697352E+02  0.11032847986E+03  0.00000000000E+00 0. -1.
         13    1    4    4    0    0 -0.51195119934E+02  0.29038739600E+02 -0.14012327075E+03  0.15198262963E+03  0.00000000000E+00 0.  1.
          2    1    1    2  501    0 -0.55718795807E+02  0.28055461647E+02 -0.29046666851E+03  0.29709018606E+03  0.00000000000E+00 0. -1.
<scales pt_clust_5="13000.00000" pt_clust_6="13000.00000" pt_clust_7="13000.00000" pt_clust_8="13000.00000" pt_clust_9="62.38347"></scales>
<clustering>
<clus scale="   62.383">  1  9  2 -1</clus>
<clus scale="   80.601">  5  6 -1 -1</clus>
<clus scale="   92.740">  7  8 -1 -1</clus>
<clus scale="  149.561">  2  5  1 -1</clus>
<clus scale="   62.383">  1  5  2 -1</clus>
</clustering>
</event>
<event>
 9    1  0.6345107E-005  0.1575824E+03  0.7546771E-02  0.1221490E+00
          1   -1    0    0  502    0 -0.00000000000E+00  0.00000000000E+00  0.58515580086E+03  0.58515580086E+03  0.00000000000E+00 0. -1.
         21   -1    0    0  501  502  0.00000000000E+00 -0.00000000000E+00 -0.72896248721E+02  0.72896248721E+02  0.00000000000E+00 0. -1.
        -24    2    1    2    0    0 -0.17675557948E+02 -0.80805301776E+01  0.53178655221E+02  0.98280425339E+02  0.80332759923E+02 0.  0.
         23    2    1    2    0    0  0.11331924604E+03  0.86716062545E+02  0.37074880147E+03  0.40767356013E+03  0.91553977566E+02 0.  0.
         11    1    3    3    0    0 -0.34430652878E+02 -0.12011851119E+02  0.66951220864E+02  0.76237919700E+02  0.00000000000E+00 0. -1.
        -12    1    3    3    0    0  0.16755094930E+02  0.39313209419E+01 -0.13772565643E+02  0.22042505639E+02  0.00000000000E+00 0.  1.
        -11    1    4    4    0    0  0.13123990538E+02  0.57094300483E+02  0.83403335432E+02  0.10192210082E+03  0.00000000000E+00 0.  1.
         11    1    4    4    0    0  0.10019525550E+03  0.29621762063E+02  0.28734546604E+03  0.30575145930E+03  0.00000000000E+00 0. -1.
          2    1    1    2  501    0 -0.95643688087E+02 -0.78635532368E+02  0.88332095444E+02  0.15209806411E+03  0.00000000000E+00 0. -1.
<scales pt_clust_5="13000.00000" pt_clust_6="13000.00000" pt_clust_7="13000.00000" pt_clust_8="13000.00000" pt_clust_9="128.25782"></scales>
<clustering>
<clus scale="   80.333">  5  6 -1 -1</clus>
<clus scale="   82.650">  1  5  2 -1</clus>
<clus scale="   91.554">  7  8 -1 -1</clus>
<clus scale="  128.258">  2  9  1 -1</clus>
<clus scale="  128.258">  2  5  1 -1</clus>
</clustering>
</event>
<event>
 9    1  0.6345107E-005  0.1597914E+03  0.7546771E-02  0.1203642E+00
         21   -1    0    0  501  502  0.00000000000E+00  0.00000000000E+00  0.22726792553E+03  0.22726792553E+03  0.00000000000E+00 0. -1.
          3   -1    0    0  502    0 -0.00000000000E+00 -0.00000000000E+00 -0.23388292414E+03  0.23388292414E+03  0.00000000000E+00 0. -1.
         23    2    1    2    0    0  0.67194587314E+02 -0.21334800304E+02  0.27026882808E+02  0.11896587763E+03  0.91935528372E+02 0.  0.
        -24    2    1    2    0    0 -0.13415399310E+03 -0.94518206335E+02 -0.82008136727E+02  0.19990083440E+03  0.79397883534E+02 0.  0.
         13    1    4    4    0    0 -0.63666326411E+02 -0.85920112930E+02 -0.70186788879E+02  0.12791345612E+03  0.00000000000E+00 0. -1.
        -14    1    4    4    0    0 -0.70487666692E+02 -0.85980934054E+01 -0.11821347848E+02  0.71987378275E+02  0.00000000000E+00 0.  1.
        -13    1    3    3    0    0  0.36181248000E+02 -0.57661085517E+02  0.16922390107E+02  0.70144499262E+02  0.00000000000E+00 0. -1.
         13    1    3    3    0    0  0.31013339313E+02  0.36326285213E+02  0.10104492701E+02  0.48821378365E+02  0.00000000000E+00 0.  1.
          4    1    1    2  501    0  0.66959405790E+02  0.11585300664E+03  0.48366255311E+02  0.14228413764E+03  0.00000000000E+00 0. -1.
<scales pt_clust_5="13000.00000" pt_clust_6="13000.00000" pt_clust_7="13000.00000" pt_clust_8="13000.00000" pt_clust_9="138.66958"></scales>
<clustering>
<clus scale="   79.398">  5  6 -1 -1</clus>
<clus scale="   91.936">  7  8 -1 -1</clus>
<clus scale="  115.855">  2  7  1 -1</clus>
<clus scale="  138.670">  1  9  2 -1</clus>
<clus scale="  138.670">  1  5  2 -1</clus>
</clustering>
</event>
<event>
 9    1  0.6345107E-005  0.2032692E+03  0.7546771E-02  0.1186178E+00
         21   -1    0    0  501  502  0.00000000000E+00  0.00000000000E+00  0.72145010791E+02  0.72145010791E+02  0.00000000000E+00 0. -1.
          3   -1    0    0  502    0 -0.00000000000E+00 -0.00000000000E+00 -0.77893432873E+03  0.77893432873E+03  0.00000000000E+00 0. -1.
        -24    2    1    2    0    0  0.24877228832E+02  0.38270523289E+01 -0.10674610527E+03  0.13492079150E+03  0.78583497919E+02 0.  0.
         23    2    1    2    0    0 -0.90028256398E+00 -0.18285899738E+03 -0.25692421274E+03  0.32839833937E+03  0.91636208861E+02 0.  0.
         11    1    3    3    0    0  0.28875074182E+02  0.15508040229E+02 -0.11532141270E+03  0.11988868774E+03  0.00000000000E+00 0. -1.
        -12    1    3    3    0    0 -0.39978453498E+01 -0.11680987901E+02  0.85753074351E+01  0.15032103758E+02  0.00000000000E+00 0.  1.
        -11    1    4    4    0    0  0.23966708359E+02 -0.16552952954E+03 -0.17996929788E+03  0.24568959367E+03  0.00000000000E+00 0. -1.
         11    1    4    4    0    0 -0.24866990923E+02 -0.17329467843E+02 -0.76954914864E+02  0.82708745698E+02  0.00000000000E+00 0.  1.
          4    1    1    2  501    0 -0.23976946268E+02  0.17903194505E+03 -0.34311899993E+03  0.38776020865E+03  0.00000000000E+00 0. -1.
<scales pt_clust_5="13000.00000" pt_clust_6="13000.00000" pt_clust_7="13000.00000" pt_clust_8="13000.00000" pt_clust_9="181.44201"></scales>
<clustering>
<clus scale="   78.583">  5  6 -1 -1</clus>
<clus scale="   82.516">  2  5  1 -1</clus>
<clus scale="   91.636">  7  8 -1 -1</clus>
<clus scale="  181.442">  1  9  2 -1</clus>
<clus scale="  181.442">  1  5  2 -1</clus>
</clustering>
</event>
<event>
 9    1  0.6345107E-005  0.1101666E+03  0.7546771E-02  0.1266360E+00
         -2   -1    0    0    0  501 -0.00000000000E+00  0.00000000000E+00  0.24625565924E+03  0.24625565924E+03  0.00000000000E+00 0.  1.
         21   -1    0    0  501  502  0.00000000000E+00 -0.00000000000E+00 -0.98369281430E+02  0.98369281430E+02  0.00000000000E+00 0. -1.
        -24    2    1    2    0    0  0.38655697474E+02 -0.37588623895E+02  0.30546063533E+02  0.10111660714E+03  0.79902056599E+02 0.  0.
         23    2    1    2    0    0  0.36166293073E+02  0.77671375135E+02  0.59951441551E+02  0.14104643852E+03  0.94652412566E+02 0.  0.
         13    1    3    3    0    0  0.51547603355E+02 -0.39272593312E+02 -0.32713785714E+01  0.64886007080E+02  0.00000000000E+00 0. -1.
        -14    1    3    3    0    0 -0.12891905881E+02  0.16839694170E+01  0.33817442105E+02  0.36230600061E+02  0.00000000000E+00 0.  1.
        -13    1    4    4    0    0 -0.23173410832E+01  0.48675412835E+02 -0.15835357070E+02  0.51238895557E+02  0.00000000000E+00 0. -1.
         13    1    4    4    0    0  0.38483634156E+02  0.28995962300E+02  0.75786798621E+02  0.89807542961E+02  0.00000000000E+00 0.  1.
         -1    1    1    2    0  502 -0.74821990547E+02 -0.40082751240E+02  0.57388872727E+02  0.10246189501E+03  0.00000000000E+00 0.  1.
<scales pt_clust_5="13000.00000" pt_clust_6="13000.00000" pt_clust_7="13000.00000" pt_clust_8="13000.00000" pt_clust_9="84.88206"></scales>
<clustering>
<clus scale="   79.902">  5  6 -1 -1</clus>
<clus scale="   84.882">  2  9  1 -1</clus>
<clus scale="   94.652">  7  8 -1 -1</clus>
<clus scale="   97.785">  1  5  2 -1</clus>
<clus scale="   84.882">  2  5  1 -1</clus>
</clustering>
</event>
<event>
 9    1  0.6345107E-005  0.9857244E+02  0.7546771E-02  0.1287408E+00
         21   -1    0    0  501  502  0.00000000000E+00  0.00000000000E+00  0.22474289172E+02  0.22474289172E+02  0.00000000000E+00 0.  1.
          1   -1    0    0  502    0 -0.00000000000E+00 -0.00000000000E+00 -0.93752905533E+03  0.93752905533E+03  0.00000000000E+00 0. -1.
        -24    2    1    2    0    0  0.11210784866E+02 -0.47828623761E+01 -0.20222485317E+03  0.21846108502E+03  0.81742259311E+02 0.  0.
         23    2    1    2    0    0  0.49573028223E+01  0.82922676454E+02 -0.37670701591E+03  0.39607758757E+03  0.89825021103E+02 0.  0.
         13    1    3    3    0    0 -0.51867395519E+01 -0.38953165041E+02 -0.14170418173E+03  0.14705212155E+03  0.00000000000E+00 0. -1.
        -14    1    3    3    0    0  0.16397524418E+02  0.34170302665E+02 -0.60520671447E+02  0.71408963468E+02  0.00000000000E+00 0.  1.
        -13    1    4    4    0    0  0.40981569582E+02  0.56887463930E+02 -0.15736042084E+03  0.17227296551E+03  0.00000000000E+00 0. -1.
         13    1    4    4    0    0 -0.36024266760E+02  0.26035212524E+02 -0.21934659507E+03  0.22380462206E+03  0.00000000000E+00 0.  1.
          2    1    1    2  501    0 -0.16168087688E+02 -0.78139814078E+02 -0.33612289708E+03  0.34546467192E+03  0.00000000000E+00 0. -1.
<scales pt_clust_5="13000.00000" pt_clust_6="13000.00000" pt_clust_7="13000.00000" pt_clust_8="13000.00000" pt_clust_9="79.79501"></scales>
<clustering>
<clus scale="   79.795">  1  9  2 -1</clus>
<clus scale="   81.742">  5  6 -1 -1</clus>
<clus scale="   89.825">  7  8 -1 -1</clus>
<clus scale="   91.268">  2  5  1 -1</clus>
<clus scale="   79.795">  1  5  2 -1</clus>
</clustering>
</event>
<event>
 9    1  0.6345107E-005  0.4159817E+03  0.7546771E-02  0.1038382E+00
          1   -1    0    0  502    0 -0.00000000000E+00  0.00000000000E+00  0.16078094131E+04  0.16078094131E+04  0.00000000000E+00 0. -1.
         21   -1    0    0  501  502  0.00000000000E+00 -0.00000000000E+00 -0.21896382673E+03  0.21896382673E+03  0.00000000000E+00 0. -1.
        -24    2    1    2    0    0 -0.97640632264E+02 -0.81304847537E+02  0.48130161924E+03  0.50426132779E+03  0.80523702809E+02 0.  0.
         23    2    1    2    0    0 -0.15768932124E+03 -0.19268714337E+03  0.91009136343E+03  0.94798356132E+03  0.91718512182E+02 0.  0.
         13    1    3    3    0    0 -0.61562107376E+02 -0.30893279519E+02  0.37442144750E+03  0.38070422658E+03  0.00000000000E+00 0. -1.
        -14    1    3    3    0    0 -0.36078524888E+02 -0.50411568017E+02  0.10688017174E+03  0.12355710121E+03  0.00000000000E+00 0.  1.
        -11    1    4    4    0    0 -0.15360558727E+03 -0.15348679583E+03  0.83956087914E+03  0.86718818184E+03  0.00000000000E+00 0. -1.
         11    1    4    4    0    0 -0.40837339661E+01 -0.39200347543E+02  0.70530484295E+02  0.80795379481E+02  0.00000000000E+00 0.  1.
          2    1    1    2  501    0  0.25532995350E+03  0.27399199091E+03 -0.25473963473E+01  0.37452835068E+03  0.00000000000E+00 0. -1.
<scales pt_clust_5="13000.00000" pt_clust_6="13000.00000" pt_clust_7="13000.00000" pt_clust_8="13000.00000" pt_clust_9="374.51969"></scales>
<clustering>
<clus scale="   80.524">  5  6 -1 -1</clus>
<clus scale="   91.719">  7  8 -1 -1</clus>
<clus scale="   94.861">  5  7 -1 -1</clus>
<clus scale="  374.520">  2  9  1 -1</clus>
<clus scale="  374.520">  2  5  1 -1</clus>
</clustering>
</event>
<event>
 9    1  0.6345107E-005  0.2325742E+03  0.7546771E-02  0.1125493E+00
          3   -1    0    0  502    0 -0.00000000000E+00  0.00000000000E+00  0.44978545899E+03  0.44978545899E+03  0.00000000000E+00 0. -1.
         21   -1    0    0  501  502  0.00000000000E+00 -0.00000000000E+00 -0.13020589233E+03  0.13020589233E+03  0.00000000000E+00 0.  1.
         23    2    1    2    0    0  0.20952415881E+03 -0.72957077419E+02  0.17471091391E+03  0.29578770865E+03  0.87996345814E+02 0.  0.
        -24    2    1    2    0    0 -0.19114747529E+03  0.83358269389E+02  0.12501858902E+03  0.25522240182E+03  0.77607141466E+02 0.  0.
         11    1    4    4    0    0 -0.15360928125E+03  0.59763463945E+02  0.57737036015E+02  0.17464549303E+03  0.00000000000E+00 0. -1.
        -12    1    4    4    0    0 -0.37538194044E+02  0.23594805444E+02  0.67281553005E+02  0.80576908793E+02  0.00000000000E+00 0.  1.
        -13    1    3    3    0    0  0.10708038353E+03 -0.73698896050E+02  0.63804555342E+02  0.14480592908E+03  0.00000000000E+00 0.  1.
         13    1    3    3    0    0  0.10244377528E+03  0.74181863088E+00  0.11090635857E+03  0.15098177956E+03  0.00000000000E+00 0. -1.
          4    1    1    2  501    0 -0.18376683519E+02 -0.10401191970E+02  0.19850063720E+02  0.28981240851E+02  0.00000000000E+00 0. -1.
<scales pt_clust_5="13000.00000" pt_clust_6="13000.00000" pt_clust_7="13000.00000" pt_clust_8="13000.00000" pt_clust_9="21.11605"></scales>
<clustering>
<clus scale="   21.116">  2  9  1 -1</clus>
<clus scale="   77.607">  5  6 -1 -1</clus>
<clus scale="   87.996">  7  8 -1 -1</clus>
<clus scale="  228.846">  2  5  1 -1</clus>
<clus scale="   21.116">  2  5  1 -1</clus>
</clustering>
</event>
<event>
 9    1  0.6345107E-005  0.1033976E+03  0.7546771E-02  0.1276923E+00
         -2   -1    0    0    0  501 -0.00000000000E+00  0.00000000000E+00  0.11076561157E+03  0.11076561157E+03  0.00000000000E+00 0.  1.
         21   -1    0    0  501  502  0.00000000000E+00 -0.00000000000E+00 -0.15521370792E+03  0.15521370792E+03  0.00000000000E+00 0.  1.
        -24    2    1    2    0    0  0.19576482384E+02  0.51682777745E+02  0.41248165784E+02  0.10725854759E+03  0.82150086262E+02 0.  0.
         23    2    1    2    0    0 -0.73933244529E+01 -0.33783136131E+02 -0.94706021578E+02  0.13526864466E+03  0.90179898930E+02 0.  0.
         13    1    3    3    0    0 -0.24228127956E+02 -0.66055350338E+01  0.41606544224E+01  0.25454789776E+02  0.00000000000E+00 0. -1.
        -14    1    3    3    0    0  0.43804610340E+02  0.58288312778E+02  0.37087511362E+02  0.81803757815E+02  0.00000000000E+00 0.  1.
        -11    1    4    4    0    0 -0.33025494069E+02 -0.49964546275E+02 -0.83907251399E+02  0.10309008672E+03  0.00000000000E+00 0.  1.
         11    1    4    4    0    0  0.25632169616E+02  0.16181410144E+02 -0.10798770179E+02  0.32178557936E+02  0.00000000000E+00 0. -1.
         -1    1    1    2    0  502 -0.12183157931E+02 -0.17899641614E+02  0.90097594416E+01  0.23452127244E+02  0.00000000000E+00 0.  1.
<scales pt_clust_5="13000.00000" pt_clust_6="13000.00000" pt_clust_7="13000.00000" pt_clust_8="13000.00000" pt_clust_9="21.65241"></scales>
<clustering>
<clus scale="   21.652">  2  9  1 -1</clus>
<clus scale="   82.150">  5  6 -1 -1</clus>
<clus scale="   90.180">  7  8 -1 -1</clus>
<clus scale="   96.474">  1  5  2 -1</clus>
<clus scale="   21.652">  2  5  1 -1</clus>
</clustering>
</event>
<event>
 9    1  0.6345107E-005  0.1228288E+03  0.7546771E-02  0.1241508E+00
         -2   -1    0    0    0  501 -0.00000000000E+00  0.00000000000E+00  0.26460926348E+03  0.26460926348E+03  0.00000000000E+00 0.  1.
         21   -1    0    0  501  502  0.00000000000E+00 -0.00000000000E+00 -0.21757455228E+03  0.21757455228E+03  0.00000000000E+00 0. -1.
         23    2    1    2    0    0  0.82183504006E+02 -0.26336146426E+02 -0.33203513063E+02  0.12998282832E+03  0.91352840345E+02 0.  0.
        -24    2    1    2    0    0 -0.81985482165E+02 -0.41993131571E+02 -0.10065485048E+03  0.15883285684E+03  0.81310731767E+02 0.  0.
         13    1    4    4    0    0 -0.97446851275E+02 -0.32961032384E+02 -0.95075950205E+02  0.14007767412E+03  0.00000000000E+00 0. -1.
        -14    1    4    4    0    0  0.15461369110E+02 -0.90320991869E+01 -0.55789002780E+01  0.18755182718E+02  0.00000000000E+00 0.  1.
        -11    1    3    3    0    0  0.74772945798E+02 -0.64283209907E+01 -0.59788799685E+02  0.95953203708E+02  0.00000000000E+00 0. -1.
         11    1    3    3    0    0  0.74105582084E+01 -0.19907825435E+02  0.26585286622E+02  0.34029624613E+02  0.00000000000E+00 0.  1.
         -1    1    1    2    0  502 -0.19802184124E+00  0.68329277997E+02  0.18089307475E+03  0.19336813061E+03  0.00000000000E+00 0.  1.
<scales pt_clust_5="13000.00000" pt_clust_6="13000.00000" pt_clust_7="13000.00000" pt_clust_8="13000.00000" pt_clust_9="68.32960"></scales>
<clustering>
<clus scale="   68.330">  2  9  1 -1</clus>
<clus scale="   81.311">  5  6 -1 -1</clus>
<clus scale="   91.353">  7  8 -1 -1</clus>
<clus scale="  115.555">  2  5  1 -1</clus>
<clus scale="   68.330">  2  5  1 -1</clus>
</clustering>
</event>
<event>
 9    1  0.6345107E-005  0.1146433E+03  0.7546771E-02  0.1256201E+00
          1   -1    0    0  502    0 -0.00000000000E+00  0.00000000000E+00  0.59385740790E+03  0.59385740790E+03  0.00000000000E+00 0. -1.
         21   -1    0    0  501  502  0.00000000000E+00 -0.00000000000E+00 -0.71822018649E+02  0.71822018649E+02  0.00000000000E+00 0.  1.
         23    2    1    2    0    0  0.21993127855E+02 -0.77580826674E+02  0.82793541710E+02  0.14831759650E+03  0.92956207652E+02 0.  0.
        -24    2    1    2    0    0 -0.81196553175E+02  0.82295291586E+01  0.66024977213E+02  0.13316724350E+03  0.81936632399E+02 0.  0.
         11    1    4    4    0    0 -0.28785089765E+02 -0.16727140426E+02  0.67320557076E+02  0.75102836328E+02  0.00000000000E+00 0. -1.
        -12    1    4    4    0    0 -0.52411463410E+02  0.24956669584E+02 -0.12955798624E+01  0.58064407176E+02  0.00000000000E+00 0.  1.
        -13    1    3    3    0    0  0.32097462903E+02  0.82567162469E+00  0.56533897218E+02  0.65015462723E+02  0.00000000000E+00 0.  1.
         13    1    3    3    0    0 -0.10104335048E+02 -0.78406498299E+02  0.26259644492E+02  0.83302133773E+02  0.00000000000E+00 0. -1.
          2    1    1    2  501    0  0.59203425320E+02  0.69351297516E+02  0.37321687033E+03  0.38419458655E+03  0.00000000000E+00 0. -1.
<scales pt_clust_5="13000.00000" pt_clust_6="13000.00000" pt_clust_7="13000.00000" pt_clust_8="13000.00000" pt_clust_9="91.18474"></scales>
<clustering>
<clus scale="   81.937">  5  6 -1 -1</clus>
<clus scale="   91.185">  2  9  1 -1</clus>
<clus scale="   92.956">  7  8 -1 -1</clus>
<clus scale="  105.905">  2  5  1 -1</clus>
<clus scale="   91.185">  2  5  1 -1</clus>
</clustering>
</event>
<event>
 9    1  0.6345107E-005  0.1226492E+03  0.7546771E-02  0.1245545E+00
         21   -1    0    0  501  502  0.00000000000E+00  0.00000000000E+00  0.13027832978E+03  0.13027832978E+03  0.00000000000E+00 0. -1.
          3   -1    0    0  502    0 -0.00000000000E+00 -0.00000000000E+00 -0.17674285366E+03  0.17674285366E+03  0.00000000000E+00 0. -1.
         23    2    1    2    0    0 -0.69715569165E+02 -0.32774075763E+02 -0.11226258346E+03  0.16889871766E+03  0.99947428965E+02 0.  0.
        -24    2    1    2    0    0  0.45231017074E+02  0.30739241562E+02  0.51571519747E+02  0.10973182864E+03  0.79941895714E+02 0.  0.
         11    1    4    4    0    0 -0.21188096518E+02  0.20207245599E+02  0.11550007958E+02  0.31474924823E+02  0.00000000000E+00 0. -1.
        -12    1    4    4    0    0  0.66419113592E+02  0.10531995963E+02  0.40021511789E+02  0.78256903818E+02  0.00000000000E+00 0.  1.
        -11    1    3    3    0    0 -0.20486829093E+02  0.28427581755E+02 -0.73250184595E+02  0.81199920652E+02  0.00000000000E+00 0.  1.
         11    1    3    3    0    0 -0.49228740072E+02 -0.61201657518E+02 -0.39012398870E+02  0.87698797013E+02  0.00000000000E+00 0. -1.
          4    1    1    2  501    0  0.24484552091E+02  0.20348342009E+01  0.14226539839E+02  0.28390637138E+02  0.00000000000E+00 0. -1.
<scales pt_clust_5="13000.00000" pt_clust_6="13000.00000" pt_clust_7="13000.00000" pt_clust_8="13000.00000" pt_clust_9="24.56896"></scales>
<clustering>
<clus scale="   24.569">  1  9  2 -1</clus>
<clus scale="   79.942">  5  6 -1 -1</clus>
<clus scale="   99.947">  7  8 -1 -1</clus>
<clus scale="  106.977">  1  5  2 -1</clus>
<clus scale="   24.569">  1  5  2 -1</clus>
</clustering>
</event>
<event>
 9    1  0.6345107E-005  0.1043396E+03  0.7546771E-02  0.1275442E+00
         21   -1    0    0  501  502  0.00000000000E+00  0.00000000000E+00  0.38036266074E+03  0.38036266074E+03  0.00000000000E+00 0.  1.
          1   -1    0    0  502    0 -0.00000000000E+00 -0.00000000000E+00 -0.21462565946E+03  0.21462565946E+03  0.00000000000E+00 0. -1.
         23    2    1    2    0    0  0.17624366959E+02  0.46526311677E+02 -0.17703054464E+03  0.20481087197E+03  0.90179618282E+02 0.  0.
        -24    2    1    2    0    0 -0.32610598811E+02 -0.74432048438E+02  0.12341612087E+03  0.16855081407E+03  0.81081792316E+02 0.  0.
         13    1    4    4    0    0 -0.27953873313E+02  0.10403483519E+02  0.31416480225E+02  0.43320280843E+02  0.00000000000E+00 0. -1.
        -14    1    4    4    0    0 -0.46567254974E+01 -0.84835531957E+02  0.91999640640E+02  0.12523053323E+03  0.00000000000E+00 0.  1.
        -13    1    3    3    0    0 -0.33812099330E+02  0.36341937725E+02 -0.99784878733E+02  0.11144961428E+03  0.00000000000E+00 0. -1.
         13    1    3    3    0    0  0.51436466289E+02  0.10184373952E+02 -0.77245665910E+02  0.93361257698E+02  0.00000000000E+00 0.  1.
          2    1    1    2  501    0  0.14986231852E+02  0.27905736761E+02  0.21935142506E+03  0.22162663415E+03  0.00000000000E+00 0. -1.
<scales pt_clust_5="13000.00000" pt_clust_6="13000.00000" pt_clust_7="13000.00000" pt_clust_8="13000.00000" pt_clust_9="31.67518"></scales>
<clustering>
<clus scale="   31.675">  1  9  2 -1</clus>
<clus scale="   81.082">  5  6 -1 -1</clus>
<clus scale="   90.180">  7  8 -1 -1</clus>
<clus scale="   96.585">  1  5  2 -1</clus>
<clus scale="   31.675">  1  5  2 -1</clus>
</clustering>
</event>
<event>
 9    1  0.6345107E-005  0.3479849E+03  0.7546771E-02  0.1063445E+00
         21   -1    0    0  501  502  0.00000000000E+00  0.00000000000E+00  0.14216750478E+03  0.14216750478E+03  0.00000000000E+00 0. -1.
          1   -1    0    0  502    0 -0.00000000000E+00 -0.00000000000E+00 -0.69739456018E+03  0.69739456018E+03  0.00000000000E+00 0. -1.
        -24    2    1    2    0    0 -0.14199574161E+03  0.64924668062E+02 -0.24446687328E+03  0.30071918629E+03  0.79309354503E+02 0.  0.
         23    2    1    2    0    0 -0.12051763206E+03  0.35608892249E+02 -0.81725574807E+02  0.17624514089E+03  0.92686499899E+02 0.  0.
         13    1    3    3    0    0 -0.13263651531E+03  0.30855241359E+02 -0.16632977697E+03  0.21496531307E+03  0.00000000000E+00 0. -1.
        -14    1    3    3    0    0 -0.93592262910E+01  0.34069426703E+02 -0.78137096308E+02  0.85753873219E+02  0.00000000000E+00 0.  1.
        -13    1    4    4    0    0 -0.92833253997E+02  0.34159815548E+02 -0.10089334507E+02  0.99431889838E+02  0.00000000000E+00 0. -1.
         13    1    4    4    0    0 -0.27684378063E+02  0.14490767002E+01 -0.71636240301E+02  0.76813251047E+02  0.00000000000E+00 0.  1.
          2    1    1    2  501    0  0.26251337367E+03 -0.10053356031E+03 -0.22903460731E+03  0.36259773779E+03  0.00000000000E+00 0. -1.
<scales pt_clust_5="13000.00000" pt_clust_6="13000.00000" pt_clust_7="13000.00000" pt_clust_8="13000.00000" pt_clust_9="281.10544"></scales>
<clustering>
<clus scale="   79.309">  5  6 -1 -1</clus>
<clus scale="   92.686">  7  8 -1 -1</clus>
<clus scale="  134.160">  5  7 -1 -1</clus>
<clus scale="  281.105">  1  9  2 -1</clus>
<clus scale="  281.105">  1  5  2 -1</clus>
</clustering>
</event>
<event>
 9    1  0.6345107E-005  0.4137448E+03  0.7546771E-02  0.1039122E+00
          1   -1    0    0  502    0 -0.00000000000E+00  0.00000000000E+00  0.74536930457E+03  0.74536930457E+03  0.00000000000E+00 0. -1.
         21   -1    0    0  501  502  0.00000000000E+00 -0.00000000000E+00 -0.25965859290E+03  0.25965859290E+03  0.00000000000E+00 0. -1.
        -24    2    1    2    0    0  0.57159671212E+02  0.71347565457E+02  0.81365855399E+02  0.14717719953E+03  0.81749755514E+02 0.  0.
         23    2    1    2    0    0  0.82938009558E+02  0.24874935511E+03  0.42631683790E+03  0.50774761786E+03  0.85478898357E+02 0.  0.
         13    1    3    3    0    0  0.67081621274E+02  0.41313909370E+02  0.25196360526E+02  0.82714204366E+02  0.00000000000E+00 0. -1.
        -14    1    3    3    0    0 -0.99219500620E+01  0.30033656088E+02  0.56169494873E+02  0.64462995163E+02  0.00000000000E+00 0.  1.
        -11    1    4    4    0    0  0.67691300436E+02  0.11875866587E+03  0.15602971489E+03  0.20743915928E+03  0.00000000000E+00 0.  1.
         11    1    4    4    0    0  0.15246709122E+02  0.12999068924E+03  0.27028712301E+03  0.30030845858E+03  0.00000000000E+00 0. -1.
          2    1    1    2  501    0 -0.14009768077E+03 -0.32009692057E+03 -0.21971981633E+02  0.35010308009E+03  0.00000000000E+00 0. -1.
<scales pt_clust_5="13000.00000" pt_clust_6="13000.00000" pt_clust_7="13000.00000" pt_clust_8="13000.00000" pt_clust_9="349.41293"></scales>
<clustering>
<clus scale="   81.750">  5  6 -1 -1</clus>
<clus scale="   85.479">  7  8 -1 -1</clus>
<clus scale="  106.756">  5  7 -1 -1</clus>
<clus scale="  349.413">  2  9  1 -1</clus>
<clus scale="  349.413">  2  5  1 -1</clus>
</clustering>
</event>
<event>
 9    1  0.6345107E-005  0.9374259E+02  0.7546771E-02  0.1299849E+00
         21   -1    0    0  501  502  0.00000000000E+00  0.00000000000E+00  0.27078463966E+03  0.27078463966E+03  0.00000000000E+00 0.  1.
         -2   -1    0    0    0  501 -0.00000000000E+00 -0.00000000000E+00 -0.10956923750E+03  0.10956923750E+03  0.00000000000E+00 0.  1.
         23    2    1    2    0    0  0.51686010726E+01 -0.17842522082E+02 -0.74157739485E+02  0.11957928946E+03  0.91949802127E+02 0.  0.
        -24    2    1    2    0    0 -0.24437314090E+02  0.73560684370E+01  0.21161470950E+03  0.22843711547E+03  0.82167124735E+02 0.  0.
         11    1    4    4    0    0  0.16559454756E+02  0.33237285581E+02  0.80713985594E+02  0.88846385211E+02  0.00000000000E+00 0. -1.
        -12    1    4    4    0    0 -0.40996768846E+02 -0.25881217144E+02  0.13090072390E+03  0.13959073026E+03  0.00000000000E+00 0.  1.
        -13    1    3    3    0    0  0.30952222090E+02  0.21732376552E+02 -0.86116471404E+01  0.38787842288E+02  0.00000000000E+00 0. -1.
         13    1    3    3    0    0 -0.25783621018E+02 -0.39574898634E+02 -0.65546092345E+02  0.80791447173E+02  0.00000000000E+00 0.  1.
         -1    1    1    2    0  502  0.19268713018E+02  0.10486453645E+02  0.23758432156E+02  0.32337472225E+02  0.00000000000E+00 0.  1.
<scales pt_clust_5="13000.00000" pt_clust_6="13000.00000" pt_clust_7="13000.00000" pt_clust_8="13000.00000" pt_clust_9="21.93739"></scales>
<clustering>
<clus scale="   21.937">  1  9  2 -1</clus>
<clus scale="   82.167">  5  6 -1 -1</clus>
<clus scale="   84.169">  1  5  2 -1</clus>
<clus scale="   91.950">  7  8 -1 -1</clus>
<clus scale="   21.937">  1  5  2 -1</clus>
</clustering>
</event>
<event>
 9    1  0.6345107E-005  0.9994987E+02  0.7546771E-02  0.1287483E+00
          3   -1    0    0  502    0 -0.00000000000E+00  0.00000000000E+00  0.12173070251E+03  0.12173070251E+03  0.00000000000E+00 0. -1.
         21   -1    0    0  501  502  0.00000000000E+00 -0.00000000000E+00 -0.29765589788E+03  0.29765589788E+03  0.00000000000E+00 0. -1.
        -24    2    1    2    0    0  0.37907023049E+01 -0.36746294335E+02  0.74447101194E+02  0.11386133583E+03  0.77829129186E+02 0.  0.
         23    2    1    2    0    0  0.34003259484E+02  0.72462178197E+02 -0.19227648995E+03  0.22755648456E+03  0.91677239018E+02 0.  0.
         11    1    3    3    0    0  0.34196975917E+02  0.49277196001E+01  0.28872451474E+02  0.45025926270E+02  0.00000000000E+00 0. -1.
        -12    1    3    3    0    0 -0.30406273612E+02 -0.41674013936E+02  0.45574649719E+02  0.68835409562E+02  0.00000000000E+00 0.  1.
        -13    1    4    4    0    0  0.55941128435E+02  0.60343012504E+02 -0.18332230271E+03  0.20094216999E+03  0.00000000000E+00 0. -1.
         13    1    4    4    0    0 -0.21937868950E+02  0.12119165693E+02 -0.89541872430E+01  0.26614314576E+02  0.00000000000E+00 0.  1.
          4    1    1    2  501    0 -0.37793961789E+02 -0.35715883861E+02 -0.58095806614E+02  0.77968779995E+02  0.00000000000E+00 0. -1.
<scales pt_clust_5="13000.00000" pt_clust_6="13000.00000" pt_clust_7="13000.00000" pt_clust_8="13000.00000" pt_clust_9="52.00008"></scales>
<clustering>
<clus scale="   52.000">  2  9  1 -1</clus>
<clus scale="   77.829">  5  6 -1 -1</clus>
<clus scale="   87.422">  1  5  2 -1</clus>
<clus scale="   91.677">  7  8 -1 -1</clus>
<clus scale="   52.000">  2  5  1 -1</clus>
</clustering>
</event>
<event>
 9    1  0.6345107E-005  0.1495203E+03  0.7546771E-02  0.1203035E+00
         21   -1    0    0  501  502  0.00000000000E+00  0.00000000000E+00  0.81245178912E+03  0.81245178912E+03  0.00000000000E+00 0.  1.
          1   -1    0    0  502    0 -0.00000000000E+00 -0.00000000000E+00 -0.37874573925E+02  0.37874573925E+02  0.00000000000E+00 0. -1.
         23    2    1    2    0    0 -0.94203447762E+02 -0.84732492774E+02  0.23362881704E+03  0.28067931554E+03  0.90247266531E+02 0.  0.
        -24    2    1    2    0    0  0.59510244883E+02  0.93717820179E+02  0.35649562601E+03  0.38174499966E+03  0.79470839521E+02 0.  0.
         11    1    4    4    0    0  0.23302630677E+02 -0.62677167195E+01  0.30789066393E+02  0.39118582268E+02  0.00000000000E+00 0. -1.
        -12    1    4    4    0    0  0.36207614206E+02  0.99985536899E+02  0.32570655961E+03  0.34262641739E+03  0.00000000000E+00 0.  1.
        -13    1    3    3    0    0 -0.72743469715E+02 -0.20186360097E+02  0.17607825395E+03  0.19157936484E+03  0.00000000000E+00 0.  1.
         13    1    3    3    0    0 -0.21459978048E+02 -0.64546132677E+02  0.57550563090E+02  0.89099950692E+02  0.00000000000E+00 0. -1.
          2    1    1    2  501    0  0.34693202879E+02 -0.89853274056E+01  0.18445277215E+03  0.18790204785E+03  0.00000000000E+00 0. -1.
<scales pt_clust_5="13000.00000" pt_clust_6="13000.00000" pt_clust_7="13000.00000" pt_clust_8="13000.00000" pt_clust_9="35.83789"></scales>
<clustering>
<clus scale="   35.838">  1  9  2 -1</clus>
<clus scale="   79.471">  5  6 -1 -1</clus>
<clus scale="   90.247">  7  8 -1 -1</clus>
<clus scale="  143.274">  1  5  2 -1</clus>
<clus scale="   35.838">  1  5  2 -1</clus>
</clustering>
</event>
<event>
 9    1  0.6345107E-005  0.2733702E+03  0.7546771E-02  0.1134131E+00
          1   -1    0    0  502    0 -0.00000000000E+00  0.00000000000E+00  0.70471895263E+03  0.70471895263E+03  0.00000000000E+00 0. -1.
         21   -1    0    0  501  502  0.00000000000E+00 -0.00000000000E+00 -0.19376789965E+03  0.19376789965E+03  0.00000000000E+00 0. -1.
        -24    2    1    2    0    0 -0.79037941521E+02 -0.16644540011E+02  0.21214773585E+03  0.24082608532E+03  0.80414579727E+02 0.  0.
         23    2    1    2    0    0  0.21038527454E+03 -0.19496066854E+03  0.27479268909E+03  0.40745006289E+03  0.90735361057E+02 0.  0.
         11    1    3    3    0    0 -0.81686842564E+02  0.45311817904E+01  0.20042023813E+03  0.21647527274E+03  0.00000000000E+00 0. -1.
        -12    1    3    3    0    0  0.26489010426E+01 -0.21175721801E+02  0.11727497721E+02  0.24350812581E+02  0.00000000000E+00 0.  1.
        -11    1    4    4    0    0  0.11367364473E+03 -0.54884486456E+02  0.15190634271E+03  0.19750833226E+03  0.00000000000E+00 0.  1.
         11    1    4    4    0    0  0.96711629810E+02 -0.14007618209E+03  0.12288634639E+03  0.20994173062E+03  0.00000000000E+00 0. -1.
          2    1    1    2  501    0 -0.13134733302E+03  0.21160520855E+03  0.24010628034E+02  0.25021070408E+03  0.00000000000E+00 0. -1.
<scales pt_clust_5="13000.00000" pt_clust_6="13000.00000" pt_clust_7="13000.00000" pt_clust_8="13000.00000" pt_clust_9="257.87274"></scales>
<clustering>
<clus scale="   80.415">  5  6 -1 -1</clus>
<clus scale="   90.735">  7  8 -1 -1</clus>
<clus scale="  113.976">  1  5  2 -1</clus>
<clus scale="  257.873">  2  9  1 -1</clus>
<clus scale="  257.873">  2  5  1 -1</clus>
</clustering>
</event>
<event>
 9    1  0.6345107E-005  0.9378280E+02  0.7546771E-02  0.1300648E+00
         -4   -1    0    0    0  501 -0.00000000000E+00  0.00000000000E+00  0.55205254381E+02  0.55205254381E+02  0.00000000000E+00 0.  1.
         21   -1    0    0  501  502  0.00000000000E+00 -0.00000000000E+00 -0.50609098763E+03  0.50609098763E+03  0.00000000000E+00 0. -1.
         23    2    1    2    0    0 -0.10474831382E+02  0.31625649362E+02 -0.36124133440E+02  0.10317406353E+03  0.90719515976E+02 0.  0.
        -24    2    1    2    0    0 -0.56367833530E+00  0.29743766226E+02 -0.37434175114E+03  0.38381324205E+03  0.79346384722E+02 0.  0.
         11    1    4    4    0    0 -0.22077488886E+02  0.48074505135E+02 -0.29205926599E+03  0.29681170531E+03  0.00000000000E+00 0. -1.
        -12    1    4    4    0    0  0.21513810551E+02 -0.18330738909E+02 -0.82282485147E+02  0.87001536742E+02  0.00000000000E+00 0.  1.
        -11    1    3    3    0    0  0.39766146844E+02  0.13719788222E+02 -0.24165597530E+02  0.48513453058E+02  0.00000000000E+00 0. -1.
         11    1    3    3    0    0 -0.50240978226E+02  0.17905861140E+02 -0.11958535910E+02  0.54660610474E+02  0.00000000000E+00 0.  1.
         -3    1    1    2    0  502  0.11038509717E+02 -0.61369415588E+02 -0.40419848677E+02  0.74308936431E+02  0.00000000000E+00 0.  1.
<scales pt_clust_5="13000.00000" pt_clust_6="13000.00000" pt_clust_7="13000.00000" pt_clust_8="13000.00000" pt_clust_9="62.35429"></scales>
<clustering>
<clus scale="   62.354">  2  9  1 -1</clus>
<clus scale="   79.346">  5  6 -1 -1</clus>
<clus scale="   82.831">  2  5  1 -1</clus>
<clus scale="   90.720">  7  8 -1 -1</clus>
<clus scale="   62.354">  2  5  1 -1</clus>
</clustering>
</event>
<event>
 9    1  0.6345107E-005  0.9757870E+02  0.7546771E-02  0.1292417E+00
         21   -1    0    0  501  502  0.00000000000E+00  0.00000000000E+00  0.24758053236E+02  0.24758053236E+02  0.00000000000E+00 0.  1.
         -4   -1    0    0    0  501 -0.00000000000E+00 -0.00000000000E+00 -0.64845812120E+03  0.64845812120E+03  0.00000000000E+00 0.  1.
         23    2    1    2    0    0  0.73617702094E+01 -0.12665651568E+02 -0.21236936362E+03  0.23220067682E+03  0.92745853401E+02 0.  0.
        -24    2    1    2    0    0 -0.56387093458E+02 -0.11795806273E+02 -0.20463507608E+03  0.22718161820E+03  0.80108226377E+02 0.  0.
         13    1    4    4    0    0 -0.98083035158E+01 -0.35592829121E+02 -0.13579590189E+03  0.14072519061E+03  0.00000000000E+00 0. -1.
        -14    1    4    4    0    0 -0.46578789942E+02  0.23797022848E+02 -0.68839174191E+02  0.86456427593E+02  0.00000000000E+00 0.  1.
        -13    1    3    3    0    0  0.17794546697E+02  0.36149868103E+02 -0.12776580865E+03  0.13396850644E+03  0.00000000000E+00 0. -1.
         13    1    3    3    0    0 -0.10432776488E+02 -0.48815519671E+02 -0.84603554966E+02  0.98232170387E+02  0.00000000000E+00 0.  1.
         -3    1    1    2    0  502  0.49025323249E+02  0.24461457841E+02 -0.20669562827E+03  0.21383387942E+03  0.00000000000E+00 0.  1.
<scales pt_clust_5="13000.00000" pt_clust_6="13000.00000" pt_clust_7="13000.00000" pt_clust_8="13000.00000" pt_clust_9="54.78913"></scales>
<clustering>
<clus scale="   54.789">  1  9  2 -1</clus>
<clus scale="   80.108">  5  6 -1 -1</clus>
<clus scale="   85.657">  1  5  2 -1</clus>
<clus scale="   92.746">  7  8 -1 -1</clus>
<clus scale="   54.789">  1  5  2 -1</clus>
</clustering>
</event>
<event>
 9    1  0.6345107E-005  0.1804825E+03  0.7546771E-02  0.1200304E+00
         21   -1    0    0  501  502  0.00000000000E+00  0.00000000000E+00  0.43778861459E+03  0.43778861459E+03  0.00000000000E+00 0.  1.
         -2   -1    0    0    0  501 -0.00000000000E+00 -0.00000000000E+00 -0.32812549645E+03  0.32812549645E+03  0.00000000000E+00 0.  1.
        -24    2    1    2    0    0 -0.17735784579E+02 -0.27198558611E+02 -0.12946448787E+03  0.15566239233E+03  0.80096236615E+02 0.  0.
         23    2    1    2    0    0 -0.47643913975E+02  0.16542720430E+03 -0.11314438360E+03  0.22622409193E+03  0.93485751682E+02 0.  0.
         13    1    3    3    0    0  0.21824826927E+02 -0.36920503295E+02 -0.85939551782E+02  0.96047140480E+02  0.00000000000E+00 0. -1.
        -14    1    3    3    0    0 -0.39560611506E+02  0.97219446836E+01 -0.43524936088E+02  0.59615251845E+02  0.00000000000E+00 0.  1.
        -11    1    4    4    0    0 -0.25864709050E+02  0.13991468081E+01 -0.23393382568E+00  0.25903581047E+02  0.00000000000E+00 0. -1.
         11    1    4    4    0    0 -0.21779204925E+02  0.16402805749E+03 -0.11291044977E+03  0.20032051088E+03  0.00000000000E+00 0.  1.
         -1    1    1    2    0  502  0.65379698554E+02 -0.13822864569E+03  0.35227198960E+03  0.38402762678E+03  0.00000000000E+00 0.  1.
<scales pt_clust_5="13000.00000" pt_clust_6="13000.00000" pt_clust_7="13000.00000" pt_clust_8="13000.00000" pt_clust_9="154.38373"></scales>
<clustering>
<clus scale="   80.096">  5  6 -1 -1</clus>
<clus scale="   86.428">  2  5  1 -1</clus>
<clus scale="   93.486">  7  8 -1 -1</clus>
<clus scale="  154.384">  1  9  2 -1</clus>
<clus scale="  154.384">  1  5  2 -1</clus>
</clustering>
</event>
<event>
 9    1  0.6345107E-005  0.1128910E+03  0.7546771E-02  0.1259927E+00
          1   -1    0    0  502    0 -0.00000000000E+00  0.00000000000E+00  0.80911172485E+03  0.80911172485E+03  0.00000000000E+00 0. -1.
         21   -1    0    0  501  502  0.00000000000E+00 -0.00000000000E+00 -0.21253287083E+02  0.21253287083E+02  0.00000000000E+00 0. -1.
         23    2    1    2    0    0 -0.46399300115E+02  0.41908473359E+02  0.37178838878E+03  0.38789288788E+03  0.91241828377E+02 0.  0.
        -24    2    1    2    0    0  0.67734784315E+02 -0.31113632320E+02  0.22340536459E+03  0.24832936190E+03  0.78749323399E+02 0.  0.
         11    1    4    4    0    0  0.60953545960E+02 -0.54900608436E+02  0.15142459349E+03  0.17221736000E+03  0.00000000000E+00 0. -1.
        -12    1    4    4    0    0  0.67812383547E+01  0.23786976116E+02  0.71980771094E+02  0.76112001903E+02  0.00000000000E+00 0.  1.
        -13    1    3    3    0    0 -0.16138326273E+02  0.54698883441E+02  0.32921064179E+03  0.33411384302E+03  0.00000000000E+00 0. -1.
         13    1    3    3    0    0 -0.30260973843E+02 -0.12790410082E+02  0.42577746982E+02  0.53779044860E+02  0.00000000000E+00 0.  1.
          2    1    1    2  501    0 -0.21335484200E+02 -0.10794841039E+02  0.19266468440E+03  0.19414276215E+03  0.00000000000E+00 0. -1.
<scales pt_clust_5="13000.00000" pt_clust_6="13000.00000" pt_clust_7="13000.00000" pt_clust_8="13000.00000" pt_clust_9="23.91092"></scales>
<clustering>
<clus scale="   23.911">  2  9  1 -1</clus>
<clus scale="   78.749">  5  6 -1 -1</clus>
<clus scale="   91.242">  7  8 -1 -1</clus>
<clus scale="  103.057">  2  5  1 -1</clus>
<clus scale="   23.911">  2  5  1 -1</clus>
</clustering>
</event>
<event>
 9    1  0.6345107E-005  0.1196186E+03  0.7546771E-02  0.1247115E+00
          1   -1    0    0  502    0 -0.00000000000E+00  0.00000000000E+00  0.69760561395E+03  0.69760561395E+03  0.00000000000E+00 0. -1.
         21   -1    0    0  501  502  0.00000000000E+00 -0.00000000000E+00 -0.54200168600E+02  0.54200168600E+02  0.00000000000E+00 0. -1.
        -24    2    1    2    0    0  0.55144846752E+02 -0.86503233081E+02  0.22274100356E+03  0.25833338686E+03  0.81233125276E+02 0.  0.
         23    2    1    2    0    0 -0.14302036780E+02  0.25158658699E+02  0.37491751762E+02  0.10327680075E+03  0.91776684177E+02 0.  0.
         13    1    3    3    0    0  0.18818741120E+02 -0.82133244131E+02  0.10271581111E+03  0.13285538251E+03  0.00000000000E+00 0. -1.
        -14    1    3    3    0    0  0.36326105632E+02 -0.43699889502E+01  0.12002519245E+03  0.12547800435E+03  0.00000000000E+00 0.  1.
        -13    1    4    4    0    0  0.36273309026E+02  0.27112191105E+02  0.21992393696E+02  0.50343710974E+02  0.00000000000E+00 0. -1.
         13    1    4    4    0    0 -0.50575345806E+02 -0.19535324060E+01  0.15499358066E+02  0.52933089771E+02  0.00000000000E+00 0.  1.
          2    1    1    2  501    0 -0.40842809972E+02  0.61344574382E+02  0.38317269003E+03  0.39019559495E+03  0.00000000000E+00 0. -1.
<scales pt_clust_5="13000.00000" pt_clust_6="13000.00000" pt_clust_7="13000.00000" pt_clust_8="13000.00000" pt_clust_9="73.69734"></scales>
<clustering>
<clus scale="   73.697">  2  9  1 -1</clus>
<clus scale="   81.233">  5  6 -1 -1</clus>
<clus scale="   91.777">  7  8 -1 -1</clus>
<clus scale="  111.734">  1  5  2 -1</clus>
<clus scale="   73.697">  2  5  1 -1</clus>
</clustering>
</event>
<event>
 9    1  0.6345107E-005  0.1437628E+03  0.7546771E-02  0.1228401E+00
         21   -1    0    0  501  502  0.00000000000E+00  0.00000000000E+00  0.59900698998E+02  0.59900698998E+02  0.00000000000E+00 0. -1.
          1   -1    0    0  502    0 -0.00000000000E+00 -0.00000000000E+00 -0.59652430102E+03  0.59652430102E+03  0.00000000000E+00 0. -1.
         23    2    1    2    0    0  0.12856402856E+01  0.24255492243E+02 -0.10217165318E+03  0.13901085929E+03  0.91076838517E+02 0.  0.
        -24    2    1    2    0    0  0.11307267203E+03 -0.34326797448E+00 -0.33556878917E+03  0.36435370387E+03  0.85800129735E+02 0.  0.
         13    1    4    4    0    0  0.82951084860E+02  0.11048519075E+02 -0.31549755427E+03  0.32640719815E+03  0.00000000000E+00 0. -1.
        -14    1    4    4    0    0  0.30121587166E+02 -0.11391787049E+02 -0.20071234901E+02  0.37946505716E+02  0.00000000000E+00 0.  1.
        -11    1    3    3    0    0  0.27443952372E+02 -0.49889994688E+01  0.17302495719E+01  0.27947350520E+02  0.00000000000E+00 0.  1.
         11    1    3    3    0    0 -0.26158312087E+02  0.29244491712E+02 -0.10390190275E+03  0.11106350877E+03  0.00000000000E+00 0. -1.
          2    1    1    2  501    0 -0.11435831231E+03 -0.23912224268E+02 -0.98883159675E+02  0.15306043686E+03  0.00000000000E+00 0. -1.
<scales pt_clust_5="13000.00000" pt_clust_6="13000.00000" pt_clust_7="13000.00000" pt_clust_8="13000.00000" pt_clust_9="115.35201"></scales>
<clustering>
<clus scale="   85.800">  5  6 -1 -1</clus>
<clus scale="   91.077">  7  8 -1 -1</clus>
<clus scale="   94.260">  2  7  1 -1</clus>
<clus scale="  115.352">  1  9  2 -1</clus>
<clus scale="  115.352">  1  5  2 -1</clus>
</clustering>
</event>
<event>
 9    1  0.6345107E-005  0.9355946E+02  0.7546771E-02  0.1301225E+00
         21   -1    0    0  501  502  0.00000000000E+00  0.00000000000E+00  0.42714227444E+02  0.42714227444E+02  0.00000000000E+00 0.  1.
          3   -1    0    0  502    0 -0.00000000000E+00 -0.00000000000E+00 -0.33985874818E+03  0.33985874818E+03  0.00000000000E+00 0. -1.
         23    2    1    2    0    0 -0.16845163979E+01 -0.33253847452E+01 -0.16842140833E+03  0.19233635037E+03  0.92809509800E+02 0.  0.
        -24    2    1    2    0    0 -0.27367249897E+02 -0.31628396377E+02 -0.67220706024E+02  0.11376232938E+03  0.81694078383E+02 0.  0.
         13    1    4    4    0    0 -0.55374604993E+02 -0.31582409657E+02 -0.45524515252E+02  0.78334391980E+02  0.00000000000E+00 0. -1.
        -14    1    4    4    0    0  0.28007355096E+02 -0.45986719667E-01 -0.21696190772E+02  0.35427937398E+02  0.00000000000E+00 0.  1.
        -11    1    3    3    0    0  0.41422690212E+02 -0.20526289187E+02 -0.90990294238E+02  0.10206077335E+03  0.00000000000E+00 0. -1.
         11    1    3    3    0    0 -0.43107206610E+02  0.17200904442E+02 -0.77431114092E+02  0.90275577012E+02  0.00000000000E+00 0.  1.
          4    1    1    2  501    0  0.29051766294E+02  0.34953781122E+02 -0.61502406383E+02  0.76474295881E+02  0.00000000000E+00 0. -1.
<scales pt_clust_5="13000.00000" pt_clust_6="13000.00000" pt_clust_7="13000.00000" pt_clust_8="13000.00000" pt_clust_9="45.45079"></scales>
<clustering>
<clus scale="   45.451">  1  9  2 -1</clus>
<clus scale="   81.694">  5  6 -1 -1</clus>
<clus scale="   82.545">  1  5  2 -1</clus>
<clus scale="   92.810">  7  8 -1 -1</clus>
<clus scale="   45.451">  1  5  2 -1</clus>
</clustering>
</event>
<event>
 9    1  0.6345107E-005  0.9205682E+02  0.7546771E-02  0.1303602E+00
         21   -1    0    0  501  502  0.00000000000E+00  0.00000000000E+00  0.57326903329E+02  0.57326903329E+02  0.00000000000E+00 0. -1.
          1   -1    0    0  502    0 -0.00000000000E+00 -0.00000000000E+00 -0.40510087491E+03  0.40510087491E+03  0.00000000000E+00 0. -1.
        -24    2    1    2    0    0  0.15211228759E+02 -0.33341814168E+01 -0.25300711699E+03  0.26652289651E+03  0.82336837855E+02 0.  0.
         23    2    1    2    0    0  0.39529972391E+02  0.32103781281E+02 -0.81401367107E+02  0.13263620674E+03  0.91503602565E+02 0.  0.
         13    1    3    3    0    0  0.49389029667E+02 -0.96907127582E+00 -0.14178981345E+03  0.15014848167E+03  0.00000000000E+00 0. -1.
        -14    1    3    3    0    0 -0.34177800908E+02 -0.23651101410E+01 -0.11121730354E+03  0.11637441483E+03  0.00000000000E+00 0.  1.
        -11    1    4    4    0    0  0.52237090547E+01  0.30484550691E+02 -0.91704420201E+02  0.96779624155E+02  0.00000000000E+00 0.  1.
         11    1    4    4    0    0  0.34306263336E+02  0.16192305900E+01  0.10303053095E+02  0.35856582587E+02  0.00000000000E+00 0. -1.
          2    1    1    2  501    0 -0.54741201150E+02 -0.28769599864E+02 -0.13365487487E+02  0.63268674993E+02  0.00000000000E+00 0. -1.
<scales pt_clust_5="13000.00000" pt_clust_6="13000.00000" pt_clust_7="13000.00000" pt_clust_8="13000.00000" pt_clust_9="61.84084"></scales>
<clustering>
<clus scale="   61.841">  1  9  2 -1</clus>
<clus scale="   82.337">  5  6 -1 -1</clus>
<clus scale="   82.951">  2  5  1 -1</clus>
<clus scale="   91.504">  7  8 -1 -1</clus>
<clus scale="   61.841">  1  5  2 -1</clus>
</clustering>
</event>
<event>
 9    1  0.6345107E-005  0.9678358E+02  0.7546771E-02  0.1307524E+00
         -4   -1    0    0    0  501 -0.00000000000E+00  0.00000000000E+00  0.29130293478E+03  0.29130293478E+03  0.00000000000E+00 0.  1.
         21   -1    0    0  501  502  0.00000000000E+00 -0.00000000000E+00 -0.86917434531E+02  0.86917434531E+02  0.00000000000E+00 0.  1.
        -24    2    1    2    0    0 -0.32054096073E+02  0.33935408830E+02  0.16547195092E+03  0.18063226269E+03  0.55389265519E+02 0.  0.
         23    2    1    2    0    0 -0.14812402404E+02 -0.23906476418E+02  0.88226520904E+02  0.12882170981E+03  0.89555497026E+02 0.  0.
         13    1    3    3    0    0 -0.33639036532E+02  0.91053532520E+01  0.41516158058E+02  0.54204092249E+02  0.00000000000E+00 0. -1.
        -14    1    3    3    0    0  0.15849404589E+01  0.24830055578E+02  0.12395579286E+03  0.12642817044E+03  0.00000000000E+00 0.  1.
        -11    1    4    4    0    0 -0.38341809137E+02 -0.42941297078E+02  0.34379237823E+02  0.67052079132E+02  0.00000000000E+00 0.  1.
         11    1    4    4    0    0  0.23529406733E+02  0.19034820660E+02  0.53847283081E+02  0.61769630677E+02  0.00000000000E+00 0. -1.
         -3    1    1    2    0  502  0.46866498477E+02 -0.10028932412E+02 -0.49312971578E+02  0.68766396813E+02  0.00000000000E+00 0.  1.
<scales pt_clust_5="13000.00000" pt_clust_6="13000.00000" pt_clust_7="13000.00000" pt_clust_8="13000.00000" pt_clust_9="47.92753"></scales>
<clustering>
<clus scale="   47.928">  2  9  1 -1</clus>
<clus scale="   55.389">  5  6 -1 -1</clus>
<clus scale="   66.444">  1  5  2 -1</clus>
<clus scale="   89.555">  7  8 -1 -1</clus>
<clus scale="   47.928">  2  5  1 -1</clus>
</clustering>
</event>
<event>
 9    1  0.6345107E-005  0.1404886E+03  0.7546771E-02  0.1228692E+00
         21   -1    0    0  501  502  0.00000000000E+00  0.00000000000E+00  0.11036536036E+03  0.11036536036E+03  0.00000000000E+00 0. -1.
          1   -1    0    0  502    0 -0.00000000000E+00 -0.00000000000E+00 -0.34342016577E+03  0.34342016577E+03  0.00000000000E+00 0. -1.
         23    2    1    2    0    0 -0.83041873793E+01 -0.20396660276E+02 -0.55634803912E+02  0.11478366130E+03  0.97954449707E+02 0.  0.
        -24    2    1    2    0    0  0.10605915812E+03 -0.43565704871E+02 -0.18140477061E+02  0.14147418229E+03  0.80866258006E+02 0.  0.
         13    1    4    4    0    0  0.82760739944E+02 -0.42585735506E+02  0.21461272269E+02  0.95516863181E+02  0.00000000000E+00 0. -1.
        -14    1    4    4    0    0  0.23298418180E+02 -0.97996936503E+00 -0.39601749330E+02  0.45957319109E+02  0.00000000000E+00 0.  1.
        -13    1    3    3    0    0 -0.74686807597E+00 -0.46778308287E+02  0.61420272046E+01  0.47185722802E+02  0.00000000000E+00 0.  1.
         13    1    3    3    0    0 -0.75573193034E+01  0.26381648011E+02 -0.61776831116E+02  0.67597938501E+02  0.00000000000E+00 0. -1.
          2    1    1    2  501    0 -0.97754970744E+02  0.63962365146E+02 -0.15927952444E+03  0.19752768253E+03  0.00000000000E+00 0. -1.
<scales pt_clust_5="13000.00000" pt_clust_6="13000.00000" pt_clust_7="13000.00000" pt_clust_8="13000.00000" pt_clust_9="114.88132"></scales>
<clustering>
<clus scale="   80.866">  5  6 -1 -1</clus>
<clus scale="   97.954">  7  8 -1 -1</clus>
<clus scale="  100.400">  2  7  1 -1</clus>
<clus scale="  114.881">  1  9  2 -1</clus>
<clus scale="  114.881">  1  5  2 -1</clus>
</clustering>
</event>
<event>
 9    1  0.6345107E-005  0.1013081E+03  0.7546771E-02  0.1279165E+00
          1   -1    0    0  502    0 -0.00000000000E+00  0.00000000000E+00  0.32563402294E+03  0.32563402294E+03  0.00000000000E+00 0. -1.
         21   -1    0    0  501  502  0.00000000000E+00 -0.00000000000E+00 -0.53006429155E+02  0.53006429155E+02  0.00000000000E+00 0.  1.
         23    2    1    2    0    0 -0.69913449781E+00 -0.45841952701E+02  0.20339706122E+03  0.22864040104E+03  0.93830139398E+02 0.  0.
        -24    2    1    2    0    0  0.10344052858E+01  0.16306123629E+02  0.22496954996E+02  0.94714384936E+02  0.90541383177E+02 0.  0.
         13    1    4    4    0    0 -0.10785317063E+02  0.43345773993E+02  0.40375440945E+02  0.60210924414E+02  0.00000000000E+00 0. -1.
        -14    1    4    4    0    0  0.11819722349E+02 -0.27039650365E+02 -0.17878485948E+02  0.34503460523E+02  0.00000000000E+00 0.  1.
        -13    1    3    3    0    0  0.18582992600E+02 -0.66269938719E+02  0.17772208620E+03  0.19058376718E+03  0.00000000000E+00 0. -1.
         13    1    3    3    0    0 -0.19282127098E+02  0.20427986019E+02  0.25674975021E+02  0.38056633857E+02  0.00000000000E+00 0.  1.
          2    1    1    2  501    0 -0.33527078795E+00  0.29535829072E+02  0.46733577572E+02  0.55285666118E+02  0.00000000000E+00 0. -1.
<scales pt_clust_5="13000.00000" pt_clust_6="13000.00000" pt_clust_7="13000.00000" pt_clust_8="13000.00000" pt_clust_9="29.53775"></scales>
<clustering>
<clus scale="   29.538">  2  9  1 -1</clus>
<clus scale="   90.541">  5  6 -1 -1</clus>
<clus scale="   93.830">  7  8 -1 -1</clus>
<clus scale="   98.270">  2  5  1 -1</clus>
<clus scale="   29.538">  2  5  1 -1</clus>
</clustering>
</event>
<event>
 9    1  0.6345107E-005  0.2396735E+03  0.7546771E-02  0.1156298E+00
         21   -1    0    0  501  502  0.00000000000E+00  0.00000000000E+00  0.79142683295E+02  0.79142683295E+02  0.00000000000E+00 0. -1.
          1   -1    0    0  502    0 -0.00000000000E+00 -0.00000000000E+00 -0.12069539451E+04  0.12069539451E+04  0.00000000000E+00 0. -1.
        -24    2    1    2    0    0 -0.32713109501E+02  0.49257388436E+02 -0.48532491790E+03  0.49543337022E+03  0.80109366101E+02 0.  0.
         23    2    1    2    0    0  0.12727771673E+03  0.16078517265E+03 -0.35365741197E+03  0.42122788586E+03  0.10152771968E+03 0.  0.
         11    1    3    3    0    0  0.18100127930E+02 -0.10424528439E+02 -0.11859889072E+03  0.12042417657E+03  0.00000000000E+00 0. -1.
        -12    1    3    3    0    0 -0.50813237431E+02  0.59681916876E+02 -0.36672602719E+03  0.37500919364E+03  0.00000000000E+00 0.  1.
        -11    1    4    4    0    0  0.91598073922E+01  0.86043917498E+02 -0.16640391038E+03  0.18755724246E+03  0.00000000000E+00 0.  1.
         11    1    4    4    0    0  0.11811790933E+03  0.74741255148E+02 -0.18725350160E+03  0.23367064340E+03  0.00000000000E+00 0. -1.
          2    1    1    2  501    0 -0.94564607225E+02 -0.21004256108E+03 -0.28882893194E+03  0.36943537234E+03  0.00000000000E+00 0. -1.
<scales pt_clust_5="13000.00000" pt_clust_6="13000.00000" pt_clust_7="13000.00000" pt_clust_8="13000.00000" pt_clust_9="217.10714"></scales>
<clustering>
<clus scale="   80.109">  5  6 -1 -1</clus>
<clus scale="   99.569">  2  5  1 -1</clus>
<clus scale="  101.528">  7  8 -1 -1</clus>
<clus scale="  217.107">  1  9  2 -1</clus>
<clus scale="  217.107">  1  5  2 -1</clus>
</clustering>
</event>
<event>
 9    1  0.6345107E-005  0.1666632E+03  0.7546771E-02  0.1182776E+00
          1   -1    0    0  502    0 -0.00000000000E+00  0.00000000000E+00  0.54635159213E+03  0.54635159213E+03  0.00000000000E+00 0. -1.
         21   -1    0    0  501  502  0.00000000000E+00 -0.00000000000E+00 -0.72845056927E+02  0.72845056927E+02  0.00000000000E+00 0. -1.
        -24    2    1    2    0    0  0.36305604246E+02  0.11786096626E+03  0.22830297683E+03  0.27210545370E+03  0.81913518030E+02 0.  0.
         23    2    1    2    0    0 -0.37062662851E+02 -0.16687021452E+03  0.17350933466E+03  0.26024339017E+03  0.91661461056E+02 0.  0.
         11    1    3    3    0    0 -0.13810730756E+02  0.80732217697E+02  0.98569104853E+02  0.12815730837E+03  0.00000000000E+00 0. -1.
        -12    1    3    3    0    0  0.50116335002E+02  0.37128748559E+02  0.12973387198E+03  0.14394814533E+03  0.00000000000E+00 0.  1.
        -13    1    4    4    0    0 -0.23978441647E+02 -0.12490812084E+03  0.64295718219E+02  0.14251646816E+03  0.00000000000E+00 0. -1.
         13    1    4    4    0    0 -0.13084221203E+02 -0.41962093680E+02  0.10921361644E+03  0.11772692201E+03  0.00000000000E+00 0.  1.
          2    1    1    2  501    0  0.75705860452E+00  0.49009248259E+02  0.71694223712E+02  0.86847805190E+02  0.00000000000E+00 0. -1.
<scales pt_clust_5="13000.00000" pt_clust_6="13000.00000" pt_clust_7="13000.00000" pt_clust_8="13000.00000" pt_clust_9="49.01512"></scales>
<clustering>
<clus scale="   49.015">  2  9  1 -1</clus>
<clus scale="   81.914">  5  6 -1 -1</clus>
<clus scale="   91.661">  7  8 -1 -1</clus>
<clus scale="  161.507">  1  5  2 -1</clus>
<clus scale="   49.015">  2  5  1 -1</clus>
</clustering>
</event>
<event>
 9    1  0.6345107E-005  0.5247413E+03  0.7546771E-02  0.1007515E+00
         21   -1    0    0  501  502  0.00000000000E+00  0.00000000000E+00  0.49704992495E+03  0.49704992495E+03  0.00000000000E+00 0. -1.
          3   -1    0    0  502    0 -0.00000000000E+00 -0.00000000000E+00 -0.83088960474E+03  0.83088960474E+03  0.00000000000E+00 0. -1.
        -24    2    1    2    0    0  0.21875070513E+03  0.69304951640E+02 -0.17985980133E+03  0.30346204156E+03  0.84170156343E+02 0.  0.
         23    2    1    2    0    0  0.22621613790E+03 -0.49065293403E+02 -0.42952143075E+03  0.50071391340E+03  0.11244829717E+03 0.  0.
         11    1    3    3    0    0  0.16397864347E+03  0.86550587636E+02 -0.15137420841E+03  0.23936196587E+03  0.00000000000E+00 0. -1.
        -12    1    3    3    0    0  0.54772061665E+02 -0.17245635996E+02 -0.28485592915E+02  0.64100075692E+02  0.00000000000E+00 0.  1.
        -13    1    4    4    0    0  0.26218023584E+02  0.38490977666E+01 -0.30006738777E+01  0.26668414988E+02  0.00000000000E+00 0.  1.
         13    1    4    4    0    0  0.19999811432E+03 -0.52914391170E+02 -0.42652075688E+03  0.47404549842E+03  0.00000000000E+00 0. -1.
          4    1    1    2  501    0 -0.44496684303E+03 -0.20239658237E+02  0.27554155229E+03  0.52376357472E+03  0.00000000000E+00 0. -1.
<scales pt_clust_5="13000.00000" pt_clust_6="13000.00000" pt_clust_7="13000.00000" pt_clust_8="13000.00000" pt_clust_9="445.42691"></scales>
<clustering>
<clus scale="   84.170">  5  6 -1 -1</clus>
<clus scale="  112.448">  7  8 -1 -1</clus>
<clus scale="  224.564">  5  7 -1 -1</clus>
<clus scale="  445.427">  1  9  2 -1</clus>
<clus scale="  445.427">  1  5  2 -1</clus>
</clustering>
</event>
<event>
 9    1  0.6345107E-005  0.1496790E+03  0.7546771E-02  0.1216649E+00
          1   -1    0    0  502    0 -0.00000000000E+00  0.00000000000E+00  0.28582908526E+03  0.28582908526E+03  0.00000000000E+00 0. -1.
         21   -1    0    0  501  502  0.00000000000E+00 -0.00000000000E+00 -0.41397387196E+03  0.41397387196E+03  0.00000000000E+00 0.  1.
        -24    2    1    2    0    0 -0.59480695272E+02 -0.41436483387E+02  0.16636126148E+03  0.19768252306E+03  0.78405199683E+02 0.  0.
         23    2    1    2    0    0 -0.10946449794E+03  0.29722132444E+01 -0.29640690823E+03  0.32884149240E+03  0.91040438914E+02 0.  0.
         13    1    3    3    0    0 -0.41693694041E+02  0.16800436356E+02  0.57948335694E+02  0.73339132761E+02  0.00000000000E+00 0. -1.
        -14    1    3    3    0    0 -0.17787001231E+02 -0.58236919742E+02  0.10841292578E+03  0.12434339030E+03  0.00000000000E+00 0.  1.
        -11    1    4    4    0    0 -0.69574200126E+02  0.39465415881E+02 -0.11903984070E+03  0.14341747469E+03  0.00000000000E+00 0. -1.
         11    1    4    4    0    0 -0.39890297814E+02 -0.36493202637E+02 -0.17736706753E+03  0.18542401771E+03  0.00000000000E+00 0.  1.
          2    1    1    2  501    0  0.16894519321E+03  0.38464270142E+02  0.19008600598E+01  0.17327894176E+03  0.00000000000E+00 0. -1.
<scales pt_clust_5="13000.00000" pt_clust_6="13000.00000" pt_clust_7="13000.00000" pt_clust_8="13000.00000" pt_clust_9="118.80854"></scales>
<clustering>
<clus scale="   78.405">  5  6 -1 -1</clus>
<clus scale="   91.040">  7  8 -1 -1</clus>
<clus scale="  106.782">  1  5  2 -1</clus>
<clus scale="  118.809">  2  9  1 -1</clus>
<clus scale="  118.809">  2  5  1 -1</clus>
</clustering>
</event>
<event>
 9    1  0.6345107E-005  0.1473658E+03  0.7546771E-02  0.1220171E+00
         21   -1    0    0  501  502  0.00000000000E+00  0.00000000000E+00  0.10549170181E+04  0.10549170181E+04  0.00000000000E+00 0. -1.
         -4   -1    0    0    0  501 -0.00000000000E+00 -0.00000000000E+00 -0.33197279866E+03  0.33197279866E+03  0.00000000000E+00 0.  1.
         23    2    1    2    0    0  0.20536431048E+02  0.50196930651E+02 -0.30218167988E+03  0.31954302715E+03  0.88614342502E+02 0.  0.
        -24    2    1    2    0    0 -0.28798809628E+02 -0.15847316750E+03  0.51398107416E+03  0.54479435907E+03  0.81738808559E+02 0.  0.
         13    1    4    4    0    0 -0.23795461041E+02 -0.12595207620E+03  0.48257440464E+03  0.49930772624E+03  0.00000000000E+00 0. -1.
        -14    1    4    4    0    0 -0.50033485873E+01 -0.32521091293E+02  0.31406669521E+02  0.45486632832E+02  0.00000000000E+00 0.  1.
        -11    1    3    3    0    0  0.41675514347E+02 -0.59973250832E+01 -0.96682610565E+02  0.10545303974E+03  0.00000000000E+00 0.  1.
         11    1    3    3    0    0 -0.21139083299E+02  0.56194255734E+02 -0.20549906932E+03  0.21408998742E+03  0.00000000000E+00 0. -1.
         -3    1    1    2    0  502  0.82623785796E+01  0.10827623685E+03  0.51114482517E+03  0.52255243054E+03  0.00000000000E+00 0.  1.
<scales pt_clust_5="13000.00000" pt_clust_6="13000.00000" pt_clust_7="13000.00000" pt_clust_8="13000.00000" pt_clust_9="122.61916"></scales>
<clustering>
<clus scale="   81.739">  5  6 -1 -1</clus>
<clus scale="   88.614">  7  8 -1 -1</clus>
<clus scale="  103.894">  2  7  1 -1</clus>
<clus scale="  122.619">  1  9  2 -1</clus>
<clus scale="  122.619">  1  5  2 -1</clus>
</clustering>
</event>
<event>
 9    1  0.6345107E-005  0.1064358E+03  0.7546771E-02  0.1267580E+00
          1   -1    0    0  502    0 -0.00000000000E+00  0.00000000000E+00  0.33451392667E+03  0.33451392667E+03  0.00000000000E+00 0. -1.
         21   -1    0    0  501  502  0.00000000000E+00 -0.00000000000E+00 -0.71591363888E+02  0.71591363888E+02  0.00000000000E+00 0.  1.
         23    2    1    2    0    0  0.19280935814E+02  0.51280813912E+02  0.14344516951E+03  0.17620167788E+03  0.86423597881E+02 0.  0.
        -24    2    1    2    0    0 -0.41329360093E+02 -0.55897912088E+02  0.15314491640E+03  0.18939493802E+03  0.87088372039E+02 0.  0.
         11    1    4    4    0    0 -0.11507972028E+02 -0.27532759127E+02  0.14422845899E+03  0.14728317836E+03  0.00000000000E+00 0. -1.
        -12    1    4    4    0    0 -0.29821388066E+02 -0.28365152961E+02  0.89164574160E+01  0.42111759658E+02  0.00000000000E+00 0.  1.
        -11    1    3    3    0    0  0.91282441839E+01  0.71517955430E+02  0.74674791543E+02  0.10380013142E+03  0.00000000000E+00 0.  1.
         11    1    3    3    0    0  0.10152691631E+02 -0.20237141518E+02  0.68770377965E+02  0.72401546459E+02  0.00000000000E+00 0. -1.
          2    1    1    2  501    0  0.22048424279E+02  0.46170981760E+01 -0.33667523134E+02  0.40508674660E+02  0.00000000000E+00 0. -1.
<scales pt_clust_5="13000.00000" pt_clust_6="13000.00000" pt_clust_7="13000.00000" pt_clust_8="13000.00000" pt_clust_9="22.52666"></scales>
<clustering>
<clus scale="   22.527">  2  9  1 -1</clus>
<clus scale="   86.424">  7  8 -1 -1</clus>
<clus scale="   87.088">  5  6 -1 -1</clus>
<clus scale="  105.893">  1  7  2 -1</clus>
<clus scale="   22.527">  2  5  1 -1</clus>
</clustering>
</event>
<event>
 9    1  0.6345107E-005  0.6441621E+03  0.7546771E-02  0.1042195E+00
         -2   -1    0    0    0  501 -0.00000000000E+00  0.00000000000E+00  0.45930843366E+03  0.45930843366E+03  0.00000000000E+00 0.  1.
         21   -1    0    0  501  502  0.00000000000E+00 -0.00000000000E+00 -0.12481234733E+04  0.12481234733E+04  0.00000000000E+00 0.  1.
         23    2    1    2    0    0 -0.42010070462E+02 -0.42290442418E+01  0.67643559669E+02  0.12095108527E+03  0.90943845464E+02 0.  0.
        -24    2    1    2    0    0 -0.53134025067E+03 -0.30905604013E+03 -0.17839520075E+03  0.64486088386E+03  0.78629599768E+02 0.  0.
         11    1    4    4    0    0 -0.11645148436E+03 -0.59773854093E+02 -0.59200000122E+01  0.13103018065E+03  0.00000000000E+00 0. -1.
        -12    1    4    4    0    0 -0.41488876632E+03 -0.24928218603E+03 -0.17247520074E+03  0.51383070321E+03  0.00000000000E+00 0.  1.
        -13    1    3    3    0    0  0.14790849374E+02 -0.23577639917E+02 -0.33061860138E+01  0.28028649543E+02  0.00000000000E+00 0.  1.
         13    1    3    3    0    0 -0.56800919836E+02  0.19348595675E+02  0.70949745683E+02  0.92922435726E+02  0.00000000000E+00 0. -1.
         -1    1    1    2    0  502  0.57335032114E+03  0.31328508437E+03 -0.67806339856E+03  0.94161993782E+03  0.00000000000E+00 0.  1.
<scales pt_clust_5="13000.00000" pt_clust_6="13000.00000" pt_clust_7="13000.00000" pt_clust_8="13000.00000" pt_clust_9="639.34512"></scales>
<clustering>
<clus scale="   78.630">  5  6 -1 -1</clus>
<clus scale="   90.944">  7  8 -1 -1</clus>
<clus scale="  100.267">  1  7  2 -1</clus>
<clus scale="  639.345">  2  9  1 -1</clus>
<clus scale="  639.345">  2  5  1 -1</clus>
</clustering>
</event>
<event>
 9    1  0.6345107E-005  0.1080616E+03  0.7546771E-02  0.1270713E+00
          1   -1    0    0  502    0 -0.00000000000E+00  0.00000000000E+00  0.82791432061E+03  0.82791432061E+03  0.00000000000E+00 0. -1.
         21   -1    0    0  501  502  0.00000000000E+00 -0.00000000000E+00 -0.63152661305E+02  0.63152661305E+02  0.00000000000E+00 0. -1.
         23    2    1    2    0    0 -0.47196390311E+02  0.39404528393E+02  0.51176387966E+03  0.52396016914E+03  0.94083867902E+02 0.  0.
        -24    2    1    2    0    0  0.51823293366E+02  0.38429134449E+01  0.29308046089E+03  0.30795978586E+03  0.79010451425E+02 0.  0.
         13    1    4    4    0    0 -0.58582220855E+01  0.30202897769E+02  0.83157492402E+02  0.88666241277E+02  0.00000000000E+00 0. -1.
        -14    1    4    4    0    0  0.57681515452E+02 -0.26359984324E+02  0.20992296849E+03  0.21929354458E+03  0.00000000000E+00 0.  1.
        -13    1    3    3    0    0  0.27433591011E+02 -0.72723785732E+00  0.13955666554E+03  0.14222936999E+03  0.00000000000E+00 0.  1.
         13    1    3    3    0    0 -0.74629981322E+02  0.40131766250E+02  0.37220721412E+03  0.38173079915E+03  0.00000000000E+00 0. -1.
          2    1    1    2  501    0 -0.46269030552E+01 -0.43247441838E+02 -0.40082681243E+02  0.59147026917E+02  0.00000000000E+00 0. -1.
<scales pt_clust_5="13000.00000" pt_clust_6="13000.00000" pt_clust_7="13000.00000" pt_clust_8="13000.00000" pt_clust_9="43.49425"></scales>
<clustering>
<clus scale="   43.494">  2  9  1 -1</clus>
<clus scale="   79.010">  5  6 -1 -1</clus>
<clus scale="   94.084">  7  8 -1 -1</clus>
<clus scale="   95.227">  2  5  1 -1</clus>
<clus scale="   43.494">  2  5  1 -1</clus>
</clustering>
</event>
<event>
 9    1  0.6345107E-005  0.2633174E+03  0.7546771E-02  0.1105479E+00
         21   -1    0    0  501  502  0.00000000000E+00  0.00000000000E+00  0.36864555149E+03  0.36864555149E+03  0.00000000000E+00 0. -1.
          1   -1    0    0  502    0 -0.00000000000E+00 -0.00000000000E+00 -0.24037956382E+03  0.24037956382E+03  0.00000000000E+00 0. -1.
        -24    2    1    2    0    0 -0.22080107251E+03 -0.24462238443E+02  0.45522840507E+02  0.24169660249E+03  0.83626574210E+02 0.  0.
         23    2    1    2    0    0  0.27225591674E+03  0.50277091250E+02  0.36321757927E+02  0.29337614302E+03  0.89995672637E+02 0.  0.
         13    1    3    3    0    0 -0.13399980151E+03  0.20098342656E+02  0.37254572162E+01  0.13554987722E+03  0.00000000000E+00 0. -1.
        -14    1    3    3    0    0 -0.86801271000E+02 -0.44560581099E+02  0.41797383291E+02  0.10614672527E+03  0.00000000000E+00 0.  1.
        -13    1    4    4    0    0  0.12991834424E+03  0.49519079823E+02  0.55592648424E+02  0.14973796445E+03  0.00000000000E+00 0. -1.
         13    1    4    4    0    0  0.14233757249E+03  0.75801142727E+00 -0.19270890496E+02  0.14363817858E+03  0.00000000000E+00 0.  1.
          2    1    1    2  501    0 -0.51454844221E+02 -0.25814852808E+02  0.46421389239E+02  0.73952369794E+02  0.00000000000E+00 0. -1.
<scales pt_clust_5="13000.00000" pt_clust_6="13000.00000" pt_clust_7="13000.00000" pt_clust_8="13000.00000" pt_clust_9="57.56742"></scales>
<clustering>
<clus scale="   57.567">  1  9  2 -1</clus>
<clus scale="   83.627">  5  6 -1 -1</clus>
<clus scale="   89.996">  7  8 -1 -1</clus>
<clus scale="  261.209">  2  5  1 -1</clus>
<clus scale="   57.567">  1  5  2 -1</clus>
</clustering>
</event>
<event>
 9    1  0.6345107E-005  0.1484211E+03  0.7546771E-02  0.1216754E+00
         -2   -1    0    0    0  501 -0.00000000000E+00  0.00000000000E+00  0.35260035428E+03  0.35260035428E+03  0.00000000000E+00 0.  1.
         21   -1    0    0  501  502  0.00000000000E+00 -0.00000000000E+00 -0.24982502202E+03  0.24982502202E+03  0.00000000000E+00 0.  1.
        -24    2    1    2    0    0  0.69019244701E+02 -0.33359750249E+01  0.15103062052E+03  0.18641850479E+03  0.84657106770E+02 0.  0.
         23    2    1    2    0    0 -0.98762132804E+02 -0.10932379672E+03  0.12082648018E+03  0.21066445509E+03  0.89860018475E+02 0.  0.
         13    1    3    3    0    0  0.74927783065E+01 -0.29249271881E+02  0.93616498102E+02  0.98365188706E+02  0.00000000000E+00 0. -1.
        -14    1    3    3    0    0  0.61526466395E+02  0.25913296857E+02  0.57414122414E+02  0.88053316085E+02  0.00000000000E+00 0.  1.
        -11    1    4    4    0    0 -0.58623159591E+02 -0.11177895385E+03  0.65313832730E+02  0.14211652300E+03  0.00000000000E+00 0.  1.
         11    1    4    4    0    0 -0.40138973212E+02  0.24551571271E+01  0.55512647446E+02  0.68547932088E+02  0.00000000000E+00 0. -1.
         -1    1    1    2    0  502  0.29742888102E+02  0.11265977174E+03 -0.16908176844E+03  0.20534241642E+03  0.00000000000E+00 0.  1.
<scales pt_clust_5="13000.00000" pt_clust_6="13000.00000" pt_clust_7="13000.00000" pt_clust_8="13000.00000" pt_clust_9="118.12702"></scales>
<clustering>
<clus scale="   84.657">  5  6 -1 -1</clus>
<clus scale="   89.860">  7  8 -1 -1</clus>
<clus scale="  109.278">  1  5  2 -1</clus>
<clus scale="  118.127">  2  9  1 -1</clus>
<clus scale="  118.127">  2  5  1 -1</clus>
</clustering>
</event>
<event>
 9    1  0.6345107E-005  0.1190547E+03  0.7546771E-02  0.1249311E+00
         21   -1    0    0  501  502  0.00000000000E+00  0.00000000000E+00  0.59737346599E+02  0.59737346599E+02  0.00000000000E+00 0. -1.
          1   -1    0    0  502    0 -0.00000000000E+00 -0.00000000000E+00 -0.40677332093E+03  0.40677332093E+03  0.00000000000E+00 0. -1.
        -24    2    1    2    0    0 -0.70645463709E+02 -0.31523178980E+02 -0.16256007743E+03  0.19575556117E+03  0.76876320141E+02 0.  0.
         23    2    1    2    0    0  0.30988856025E+02  0.86910611052E+02 -0.12807343135E+03  0.18231500073E+03  0.91226049793E+02 0.  0.
         13    1    3    3    0    0 -0.35123664514E+02 -0.32645684190E+02 -0.25798311012E+02  0.54451495445E+02  0.00000000000E+00 0. -1.
        -14    1    3    3    0    0 -0.35521799195E+02  0.11225052104E+01 -0.13676176642E+03  0.14130406572E+03  0.00000000000E+00 0.  1.
        -13    1    4    4    0    0  0.11342954425E+02  0.38051708232E+02 -0.12318692987E+03  0.12942802945E+03  0.00000000000E+00 0. -1.
         13    1    4    4    0    0  0.19645901600E+02  0.48858902820E+02 -0.48865014753E+01  0.52886971280E+02  0.00000000000E+00 0.  1.
          2    1    1    2  501    0  0.39656607684E+02 -0.55387432073E+02 -0.56402465554E+02  0.88440105637E+02  0.00000000000E+00 0. -1.
<scales pt_clust_5="13000.00000" pt_clust_6="13000.00000" pt_clust_7="13000.00000" pt_clust_8="13000.00000" pt_clust_9="68.12059"></scales>
<clustering>
<clus scale="   68.121">  1  9  2 -1</clus>
<clus scale="   76.876">  5  6 -1 -1</clus>
<clus scale="   91.226">  7  8 -1 -1</clus>
<clus scale="  108.452">  2  5  1 -1</clus>
<clus scale="   68.121">  1  5  2 -1</clus>
</clustering>
</event>
<event>
 9    1  0.6345107E-005  0.1233529E+03  0.7546771E-02  0.1240827E+00
         21   -1    0    0  501  502  0.00000000000E+00  0.00000000000E+00  0.67669106983E+03  0.67669106983E+03  0.00000000000E+00 0.  1.
          1   -1    0    0  502    0 -0.00000000000E+00 -0.00000000000E+00 -0.39429185867E+02  0.39429185867E+02  0.00000000000E+00 0. -1.
         23    2    1    2    0    0 -0.52564735183E+02  0.56400931234E+02  0.13197673037E+03  0.17771186731E+03  0.90661645664E+02 0.  0.
        -24    2    1    2    0    0  0.34983822789E+02 -0.10182989596E+03  0.41044595534E+03  0.43179059981E+03  0.79900214398E+02 0.  0.
         13    1    4    4    0    0 -0.23063310439E+02 -0.47703192668E+02  0.13150856267E+03  0.14178156768E+03  0.00000000000E+00 0. -1.
        -14    1    4    4    0    0  0.58047133228E+02 -0.54126703288E+02  0.27893739268E+03  0.29000903213E+03  0.00000000000E+00 0.  1.
        -13    1    3    3    0    0  0.12798968671E+02  0.49649893662E+02  0.74326763885E+02  0.90296142605E+02  0.00000000000E+00 0.  1.
         13    1    3    3    0    0 -0.65363703854E+02  0.67510375723E+01  0.57649966480E+02  0.87415724701E+02  0.00000000000E+00 0. -1.
          2    1    1    2  501    0  0.17580912394E+02  0.45428964721E+02  0.94839198257E+02  0.10661778858E+03  0.00000000000E+00 0. -1.
<scales pt_clust_5="13000.00000" pt_clust_6="13000.00000" pt_clust_7="13000.00000" pt_clust_8="13000.00000" pt_clust_9="48.71223"></scales>
<clustering>
<clus scale="   48.712">  1  9  2 -1</clus>
<clus scale="   79.900">  5  6 -1 -1</clus>
<clus scale="   90.662">  7  8 -1 -1</clus>
<clus scale="  115.674">  1  5  2 -1</clus>
<clus scale="   48.712">  1  5  2 -1</clus>
</clustering>
</event>
<event>
 9    1  0.6345107E-005  0.1889569E+03  0.7546771E-02  0.1191443E+00
          1   -1    0    0  502    0 -0.00000000000E+00  0.00000000000E+00  0.27142605761E+03  0.27142605761E+03  0.00000000000E+00 0. -1.
         21   -1    0    0  501  502  0.00000000000E+00 -0.00000000000E+00 -0.21789569401E+03  0.21789569401E+03  0.00000000000E+00 0. -1.
        -24    2    1    2    0    0  0.50371217909E+02 -0.18339787208E+02  0.16656571087E+02  0.92926058971E+02  0.74055409573E+02 0.  0.
         23    2    1    2    0    0  0.14668185715E+03  0.13415198637E+02 -0.47041275697E+02  0.18216239776E+03  0.96305362095E+02 0.  0.
         11    1    3    3    0    0  0.57714995630E+02  0.82047246023E+01  0.26016675424E+02  0.63837337245E+02  0.00000000000E+00 0. -1.
        -12    1    3    3    0    0 -0.73437777213E+01 -0.26544511811E+02 -0.93601043370E+01  0.29088721727E+02  0.00000000000E+00 0.  1.
        -13    1    4    4    0    0  0.10191342226E+02  0.33253920682E+02  0.41861299346E+01  0.35031562639E+02  0.00000000000E+00 0.  1.
         13    1    4    4    0    0  0.13649051492E+03 -0.19838722045E+02 -0.51227405632E+02  0.14713083512E+03  0.00000000000E+00 0. -1.
          2    1    1    2  501    0 -0.19705307506E+03  0.49245885713E+01  0.83915068217E+02  0.21423329488E+03  0.00000000000E+00 0. -1.
<scales pt_clust_5="13000.00000" pt_clust_6="13000.00000" pt_clust_7="13000.00000" pt_clust_8="13000.00000" pt_clust_9="162.57315"></scales>
<clustering>
<clus scale="   74.055">  5  6 -1 -1</clus>
<clus scale="   91.421">  1  5  2 -1</clus>
<clus scale="   96.305">  7  8 -1 -1</clus>
<clus scale="  162.573">  2  9  1 -1</clus>
<clus scale="  162.573">  2  5  1 -1</clus>
</clustering>
</event>
<event>
 9    1  0.6345107E-005  0.1456178E+03  0.7546771E-02  0.1224269E+00
         21   -1    0    0  501  502  0.00000000000E+00  0.00000000000E+00  0.61685000102E+03  0.61685000102E+03  0.00000000000E+00 0. -1.
          1   -1    0    0  502    0 -0.00000000000E+00 -0.00000000000E+00 -0.29554577580E+03  0.29554577580E+03  0.00000000000E+00 0. -1.
         23    2    1    2    0    0 -0.20032093491E+02 -0.36317704540E+02 -0.23436905149E+03  0.25435628904E+03  0.89710696380E+02 0.  0.
        -24    2    1    2    0    0  0.13171380941E+03  0.69083938012E+02  0.12143173772E+03  0.20847064330E+03  0.81198670632E+02 0.  0.
         11    1    4    4    0    0  0.19693202869E+02  0.52675819164E+02  0.40532730920E+02  0.69321471707E+02  0.00000000000E+00 0. -1.
        -12    1    4    4    0    0  0.11202060655E+03  0.16408118848E+02  0.80899006798E+02  0.13914917160E+03  0.00000000000E+00 0.  1.
        -13    1    3    3    0    0 -0.52340653866E+02 -0.10143947775E+02 -0.95244380399E+02  0.10915097673E+03  0.00000000000E+00 0.  1.
         13    1    3    3    0    0  0.32308560375E+02 -0.26173756765E+02 -0.13912467109E+03  0.14520531231E+03  0.00000000000E+00 0. -1.
          2    1    1    2  501    0 -0.11168171592E+03 -0.32766233471E+02  0.43424153900E+03  0.44956884447E+03  0.00000000000E+00 0. -1.
<scales pt_clust_5="13000.00000" pt_clust_6="13000.00000" pt_clust_7="13000.00000" pt_clust_8="13000.00000" pt_clust_9="120.87726"></scales>
<clustering>
<clus scale="   81.199">  5  6 -1 -1</clus>
<clus scale="   89.711">  7  8 -1 -1</clus>
<clus scale="   98.835">  2  7  1 -1</clus>
<clus scale="  120.877">  1  9  2 -1</clus>
<clus scale="  120.877">  1  5  2 -1</clus>
</clustering>
</event>
<event>
 9    1  0.6345107E-005  0.1862567E+03  0.7546771E-02  0.1162737E+00
         21   -1    0    0  501  502  0.00000000000E+00  0.00000000000E+00  0.75403165808E+02  0.75403165808E+02  0.00000000000E+00 0.  1.
          1   -1    0    0  502    0 -0.00000000000E+00 -0.00000000000E+00 -0.10849344561E+04  0.10849344561E+04  0.00000000000E+00 0. -1.
        -24    2    1    2    0    0  0.15686653406E+03 -0.61407301405E+02 -0.92155306368E+03  0.94025173815E+03  0.80220419764E+02 0.  0.
         23    2    1    2    0    0 -0.13288740179E+03  0.35114261137E+02 -0.57253092259E+02  0.17307145371E+03  0.88225498721E+02 0.  0.
         11    1    3    3    0    0  0.14211930166E+03 -0.69518694388E+02 -0.68210166493E+03  0.70020955868E+03  0.00000000000E+00 0. -1.
        -12    1    3    3    0    0  0.14747232391E+02  0.81113929832E+01 -0.23945139875E+03  0.24004217946E+03  0.00000000000E+00 0.  1.
        -13    1    4    4    0    0 -0.73183837386E+02  0.62622973228E+02 -0.23359836709E+02  0.99112021479E+02  0.00000000000E+00 0.  1.
         13    1    4    4    0    0 -0.59703564404E+02 -0.27508712091E+02 -0.33893255550E+02  0.73959432226E+02  0.00000000000E+00 0. -1.
          2    1    1    2  501    0 -0.23979132265E+02  0.26293040268E+02 -0.30725134310E+02  0.47014430010E+02  0.00000000000E+00 0. -1.
<scales pt_clust_5="13000.00000" pt_clust_6="13000.00000" pt_clust_7="13000.00000" pt_clust_8="13000.00000" pt_clust_9="35.58543"></scales>
<clustering>
<clus scale="   35.585">  1  9  2 -1</clus>
<clus scale="   80.220">  5  6 -1 -1</clus>
<clus scale="   88.225">  7  8 -1 -1</clus>
<clus scale="  182.601">  2  5  1 -1</clus>
<clus scale="   35.585">  1  5  2 -1</clus>
</clustering>
</event>
<event>
 9    1  0.6345107E-005  0.1137995E+03  0.7546771E-02  0.1257821E+00
         21   -1    0    0  501  502  0.00000000000E+00  0.00000000000E+00  0.10149455455E+03  0.10149455455E+03  0.00000000000E+00 0. -1.
          1   -1    0    0  502    0 -0.00000000000E+00 -0.00000000000E+00 -0.32339016515E+03  0.32339016515E+03  0.00000000000E+00 0. -1.
        -24    2    1    2    0    0 -0.64586883085E+02  0.42059799898E+02 -0.23599494107E+03  0.26123852336E+03  0.81310894986E+02 0.  0.
         23    2    1    2    0    0  0.61609574038E+00 -0.28777911198E+02  0.16273528830E+02  0.98274969189E+02  0.92545092153E+02 0.  0.
         13    1    3    3    0    0 -0.32507881420E+01  0.41418199719E+02 -0.47963680961E+02  0.63455098951E+02  0.00000000000E+00 0. -1.
        -14    1    3    3    0    0 -0.61336094943E+02  0.64160017955E+00 -0.18803126010E+03  0.19778342441E+03  0.00000000000E+00 0.  1.
        -11    1    4    4    0    0 -0.10681991745E+02  0.29418464788E+02  0.22673452211E+02  0.38647593111E+02  0.00000000000E+00 0. -1.
         11    1    4    4    0    0  0.11298087485E+02 -0.58196375986E+02 -0.63999233815E+01  0.59627376078E+02  0.00000000000E+00 0.  1.
          2    1    1    2  501    0  0.63970787344E+02 -0.13281888701E+02 -0.21741983613E+01  0.65371227152E+02  0.00000000000E+00 0. -1.
<scales pt_clust_5="13000.00000" pt_clust_6="13000.00000" pt_clust_7="13000.00000" pt_clust_8="13000.00000" pt_clust_9="65.33506"></scales>
<clustering>
<clus scale="   65.335">  1  9  2 -1</clus>
<clus scale="   81.311">  5  6 -1 -1</clus>
<clus scale="   92.545">  7  8 -1 -1</clus>
<clus scale="  104.868">  2  5  1 -1</clus>
<clus scale="   65.335">  1  5  2 -1</clus>
</clustering>
</event>
<event>
 9    1  0.6345107E-005  0.9403619E+02  0.7546771E-02  0.1298696E+00
          1   -1    0    0  502    0 -0.00000000000E+00  0.00000000000E+00  0.92207168515E+02  0.92207168515E+02  0.00000000000E+00 0. -1.
         21   -1    0    0  501  502  0.00000000000E+00 -0.00000000000E+00 -0.15688369989E+03  0.15688369989E+03  0.00000000000E+00 0. -1.
        -24    2    1    2    0    0 -0.22038050084E+02  0.19618402195E+01  0.41837495519E+01  0.84384112481E+02  0.81324351890E+02 0.  0.
         23    2    1    2    0    0  0.10814741475E+02 -0.46363189459E+02 -0.36499282055E+02  0.10862933874E+03  0.90562860346E+02 0.  0.
         11    1    3    3    0    0 -0.25904931110E+01 -0.37197960746E+02 -0.96651329834E+01  0.38520302878E+02  0.00000000000E+00 0. -1.
        -12    1    3    3    0    0 -0.19447556973E+02  0.39159800965E+02  0.13848882535E+02  0.45863809603E+02  0.00000000000E+00 0.  1.
        -13    1    4    4    0    0 -0.16644068388E+02 -0.50181133666E+02 -0.54217611970E+02  0.75727938281E+02  0.00000000000E+00 0.  1.
         13    1    4    4    0    0  0.27458809862E+02  0.38179442072E+01  0.17718329915E+02  0.32901400457E+02  0.00000000000E+00 0. -1.
          2    1    1    2  501    0  0.11223308609E+02  0.44401349239E+02 -0.32360998875E+02  0.56077417189E+02  0.00000000000E+00 0. -1.
<scales pt_clust_5="13000.00000" pt_clust_6="13000.00000" pt_clust_7="13000.00000" pt_clust_8="13000.00000" pt_clust_9="45.79784"></scales>
<clustering>
<clus scale="   45.798">  2  9  1 -1</clus>
<clus scale="   81.324">  5  6 -1 -1</clus>
<clus scale="   85.175">  1  5  2 -1</clus>
<clus scale="   90.563">  7  8 -1 -1</clus>
<clus scale="   45.798">  2  5  1 -1</clus>
</clustering>
</event>
<event>
 9    1  0.6345107E-005  0.1997781E+03  0.7546771E-02  0.1177689E+00
          1   -1    0    0  502    0 -0.00000000000E+00  0.00000000000E+00  0.14678698258E+04  0.14678698258E+04  0.00000000000E+00 0. -1.
         21   -1    0    0  501  502  0.00000000000E+00 -0.00000000000E+00 -0.49357471810E+02  0.49357471810E+02  0.00000000000E+00 0. -1.
         23    2    1    2    0    0  0.37276221721E+02 -0.35437014453E+02  0.38780903346E+03  0.40180526656E+03  0.91686024556E+02 0.  0.
        -24    2    1    2    0    0  0.83645158580E+02  0.16713329137E+03  0.29515413914E+03  0.35845539519E+03  0.80276116311E+02 0.  0.
         11    1    4    4    0    0  0.59158981914E+02  0.54366766199E+02  0.75095322560E+02  0.10997653331E+03  0.00000000000E+00 0. -1.
        -12    1    4    4    0    0  0.24486176666E+02  0.11276652518E+03  0.22005881658E+03  0.24847886188E+03  0.00000000000E+00 0.  1.
        -13    1    3    3    0    0 -0.22030440625E+02 -0.10433414895E+02  0.32026054756E+02  0.40247542083E+02  0.00000000000E+00 0. -1.
         13    1    3    3    0    0  0.59306662346E+02 -0.25003599558E+02  0.35578297871E+03  0.36155772447E+03  0.00000000000E+00 0.  1.
          2    1    1    2  501    0 -0.12092138030E+03 -0.13169627692E+03  0.73554918141E+03  0.75696663588E+03  0.00000000000E+00 0. -1.
<scales pt_clust_5="13000.00000" pt_clust_6="13000.00000" pt_clust_7="13000.00000" pt_clust_8="13000.00000" pt_clust_9="182.94005"></scales>
<clustering>
<clus scale="   80.276">  5  6 -1 -1</clus>
<clus scale="   91.686">  7  8 -1 -1</clus>
<clus scale="  105.127">  1  7  2 -1</clus>
<clus scale="  182.940">  2  9  1 -1</clus>
<clus scale="  182.940">  2  5  1 -1</clus>
</clustering>
</event>
<event>
 9    1  0.6345107E-005  0.1054737E+03  0.7546771E-02  0.1275590E+00
         21   -1    0    0  501  502  0.00000000000E+00  0.00000000000E+00  0.34066817674E+02  0.34066817674E+02  0.00000000000E+00 0. -1.
          1   -1    0    0  502    0 -0.00000000000E+00 -0.00000000000E+00 -0.68673315021E+03  0.68673315021E+03  0.00000000000E+00 0. -1.
         23    2    1    2    0    0 -0.39816889410E+01  0.25743412563E+02 -0.30123384204E+03  0.31687107607E+03  0.94799125118E+02 0.  0.
        -24    2    1    2    0    0 -0.52874393911E+02 -0.71143853464E+02 -0.26516540923E+03  0.29107578596E+03  0.80964618826E+02 0.  0.
         11    1    4    4    0    0 -0.13174118791E+02 -0.52420543728E+02 -0.57877052515E+02  0.79191060218E+02  0.00000000000E+00 0. -1.
        -12    1    4    4    0    0 -0.39700275120E+02 -0.18723309736E+02 -0.20728835671E+03  0.21188472574E+03  0.00000000000E+00 0.  1.
        -13    1    3    3    0    0 -0.15409697563E+02  0.58842276897E+02 -0.15511029680E+03  0.16661055339E+03  0.00000000000E+00 0. -1.
         13    1    3    3    0    0  0.11428008622E+02 -0.33098864334E+02 -0.14612354524E+03  0.15026052268E+03  0.00000000000E+00 0.  1.
          2    1    1    2  501    0  0.56856082852E+02  0.45400440900E+02 -0.86267081273E+02  0.11285310586E+03  0.00000000000E+00 0. -1.
<scales pt_clust_5="13000.00000" pt_clust_6="13000.00000" pt_clust_7="13000.00000" pt_clust_8="13000.00000" pt_clust_9="72.75860"></scales>
<clustering>
<clus scale="   72.759">  1  9  2 -1</clus>
<clus scale="   80.965">  5  6 -1 -1</clus>
<clus scale="   93.237">  1  5  2 -1</clus>
<clus scale="   94.799">  7  8 -1 -1</clus>
<clus scale="   72.759">  1  5  2 -1</clus>
</clustering>
</event>
<event>
 9    1  0.6345107E-005  0.1681845E+03  0.7546771E-02  0.1180734E+00
          3   -1    0    0  502    0 -0.00000000000E+00  0.00000000000E+00  0.52116836344E+03  0.52116836344E+03  0.00000000000E+00 0. -1.
         21   -1    0    0  501  502  0.00000000000E+00 -0.00000000000E+00 -0.17049320050E+03  0.17049320050E+03  0.00000000000E+00 0.  1.
        -24    2    1    2    0    0  0.12141208472E+03 -0.92999151669E+02  0.28618796361E+03  0.33590718379E+03  0.86835183438E+02 0.  0.
         23    2    1    2    0    0 -0.11227359617E+03 -0.31835560296E+02 -0.75837652580E+02  0.16771640167E+03  0.93587277672E+02 0.  0.
         11    1    3    3    0    0  0.63289915753E+02  0.30086435705E+00  0.13376212417E+03  0.14797976152E+03  0.00000000000E+00 0. -1.
        -12    1    3    3    0    0  0.58122168967E+02 -0.93300016026E+02  0.15242583943E+03  0.18792742227E+03  0.00000000000E+00 0.  1.
        -11    1    4    4    0    0 -0.10001146131E+03 -0.58999530696E+02 -0.74339694092E+02  0.13787540438E+03  0.00000000000E+00 0.  1.
         11    1    4    4    0    0 -0.12262134863E+02  0.27163970400E+02 -0.14979584874E+01  0.29840997284E+02  0.00000000000E+00 0. -1.
          4    1    1    2  501    0 -0.91384885462E+01  0.12483471196E+03  0.14032485192E+03  0.18803797848E+03  0.00000000000E+00 0. -1.
<scales pt_clust_5="13000.00000" pt_clust_6="13000.00000" pt_clust_7="13000.00000" pt_clust_8="13000.00000" pt_clust_9="125.16882"></scales>
<clustering>
<clus scale="   86.835">  5  6 -1 -1</clus>
<clus scale="   93.587">  7  8 -1 -1</clus>
<clus scale="  125.169">  2  9  1 -1</clus>
<clus scale="  164.523">  1  5  2 -1</clus>
<clus scale="  125.169">  2  5  1 -1</clus>
</clustering>
</event>
<event>
 9    1  0.6345107E-005  0.2591280E+03  0.7546771E-02  0.1136157E+00
          1   -1    0    0  502    0 -0.00000000000E+00  0.00000000000E+00  0.10216603871E+04  0.10216603871E+04  0.00000000000E+00 0. -1.
         21   -1    0    0  501  502  0.00000000000E+00 -0.00000000000E+00 -0.10485719641E+03  0.10485719641E+03  0.00000000000E+00 0. -1.
        -24    2    1    2    0    0  0.89542010304E+02  0.38964496255E+02  0.20986729948E+03  0.24550165997E+03  0.81797176471E+02 0.  0.
         23    2    1    2    0    0  0.15831990490E+03 -0.15941856833E+03  0.26390467580E+03  0.35926754519E+03  0.94593968619E+02 0.  0.
         13    1    3    3    0    0  0.85864845580E+02  0.39886561131E+02  0.21737103205E+03  0.23709465418E+03  0.00000000000E+00 0. -1.
        -14    1    3    3    0    0  0.36771647236E+01 -0.92206487572E+00 -0.75037325646E+01  0.84070057953E+01  0.00000000000E+00 0.  1.
        -11    1    4    4    0    0  0.80509532103E+02 -0.25056420261E+02  0.62473572072E+02  0.10494072690E+03  0.00000000000E+00 0.  1.
         11    1    4    4    0    0  0.77810372799E+02 -0.13436214807E+03  0.20143110373E+03  0.25432681828E+03  0.00000000000E+00 0. -1.
          2    1    1    2  501    0 -0.24786191521E+03  0.12045407208E+03  0.44303121539E+03  0.52174837834E+03  0.00000000000E+00 0. -1.
<scales pt_clust_5="13000.00000" pt_clust_6="13000.00000" pt_clust_7="13000.00000" pt_clust_8="13000.00000" pt_clust_9="241.24547"></scales>
<clustering>
<clus scale="   81.797">  5  6 -1 -1</clus>
<clus scale="   94.594">  7  8 -1 -1</clus>
<clus scale="  127.384">  1  5  2 -1</clus>
<clus scale="  241.245">  2  9  1 -1</clus>
<clus scale="  241.245">  2  5  1 -1</clus>
</clustering>
</event>
<event>
 9    1  0.6345107E-005  0.1448262E+03  0.7546771E-02  0.1229814E+00
         21   -1    0    0  501  502  0.00000000000E+00  0.00000000000E+00  0.35372746430E+02  0.35372746430E+02  0.00000000000E+00 0. -1.
          1   -1    0    0  502    0 -0.00000000000E+00 -0.00000000000E+00 -0.14684950072E+04  0.14684950072E+04  0.00000000000E+00 0. -1.
         23    2    1    2    0    0 -0.84667092348E+01  0.28095124724E+01 -0.19641689629E+03  0.21586472466E+03  0.89097719839E+02 0.  0.
        -24    2    1    2    0    0 -0.84624562116E+02 -0.86267089260E+02 -0.21625035524E+03  0.25991763474E+03  0.78674223906E+02 0.  0.
         13    1    4    4    0    0 -0.20652256742E+01 -0.56271783241E+02 -0.87781830756E+02  0.10429011725E+03  0.00000000000E+00 0. -1.
        -14    1    4    4    0    0 -0.82559336442E+02 -0.29995306019E+02 -0.12846852448E+03  0.15562751749E+03  0.00000000000E+00 0.  1.
        -11    1    3    3    0    0 -0.42017052572E+02  0.11139327565E+02 -0.15938125317E+03  0.16520260648E+03  0.00000000000E+00 0.  1.
         11    1    3    3    0    0  0.33550343338E+02 -0.83298150928E+01 -0.37035643115E+02  0.50662118180E+02  0.00000000000E+00 0. -1.
          2    1    1    2  501    0  0.93091271351E+02  0.83457576788E+02 -0.10204550092E+04  0.10280853942E+04  0.00000000000E+00 0. -1.
<scales pt_clust_5="13000.00000" pt_clust_6="13000.00000" pt_clust_7="13000.00000" pt_clust_8="13000.00000" pt_clust_9="121.59365"></scales>
<clustering>
<clus scale="   78.674">  5  6 -1 -1</clus>
<clus scale="   89.098">  7  8 -1 -1</clus>
<clus scale="   89.543">  2  7  1 -1</clus>
<clus scale="  121.594">  1  9  2 -1</clus>
<clus scale="  121.594">  1  5  2 -1</clus>
</clustering>
</event>
<event>
 9    1  0.6345107E-005  0.1373355E+03  0.7546771E-02  0.1234829E+00
         21   -1    0    0  501  502  0.00000000000E+00  0.00000000000E+00  0.10187557454E+03  0.10187557454E+03  0.00000000000E+00 0. -1.
          1   -1    0    0  502    0 -0.00000000000E+00 -0.00000000000E+00 -0.41864849874E+03  0.41864849874E+03  0.00000000000E+00 0. -1.
        -24    2    1    2    0    0  0.52677028287E+02  0.94583569594E+01 -0.26724545637E+02  0.98415155496E+02  0.78147371461E+02 0.  0.
         23    2    1    2    0    0  0.43376978694E+02 -0.65046501834E+02 -0.28767608316E+03  0.31110422467E+03  0.88970220323E+02 0.  0.
         13    1    3    3    0    0  0.56944739126E+02  0.31313048853E+02 -0.18259940396E+01  0.65011880429E+02  0.00000000000E+00 0. -1.
        -14    1    3    3    0    0 -0.42677108394E+01 -0.21854691894E+02 -0.24898551597E+02  0.33403275067E+02  0.00000000000E+00 0.  1.
        -11    1    4    4    0    0  0.63261800074E+01 -0.65716171565E+02 -0.24874142633E+03  0.25735371171E+03  0.00000000000E+00 0. -1.
         11    1    4    4    0    0  0.37050798687E+02  0.66966973136E+00 -0.38934656824E+02  0.53750512955E+02  0.00000000000E+00 0.  1.
          2    1    1    2  501    0 -0.96054006981E+02  0.55588144875E+02 -0.23722954013E+01  0.11100469311E+03  0.00000000000E+00 0. -1.
<scales pt_clust_5="13000.00000" pt_clust_6="13000.00000" pt_clust_7="13000.00000" pt_clust_8="13000.00000" pt_clust_9="104.62000"></scales>
<clustering>
<clus scale="   78.147">  5  6 -1 -1</clus>
<clus scale="   88.970">  7  8 -1 -1</clus>
<clus scale="   94.717">  2  5  1 -1</clus>
<clus scale="  104.620">  1  9  2 -1</clus>
<clus scale="  104.620">  1  5  2 -1</clus>
</clustering>
</event>
<event>
 9    1  0.6345107E-005  0.1661775E+03  0.7546771E-02  0.1208083E+00
         21   -1    0    0  501  502  0.00000000000E+00  0.00000000000E+00  0.14548712409E+03  0.14548712409E+03  0.00000000000E+00 0. -1.
         -2   -1    0    0    0  501 -0.00000000000E+00 -0.00000000000E+00 -0.58884381812E+03  0.58884381812E+03  0.00000000000E+00 0.  1.
         23    2    1    2    0    0  0.11431391707E+02 -0.10811862433E+02 -0.37014023403E+03  0.38179751292E+03  0.92292875861E+02 0.  0.
        -24    2    1    2    0    0  0.13369048125E+03  0.50445862617E+02  0.34103317121E+02  0.16773963464E+03  0.80966776883E+02 0.  0.
         11    1    4    4    0    0  0.13688552767E+03  0.55753807728E+02  0.45601047578E+02  0.15467899114E+03  0.00000000000E+00 0. -1.
        -12    1    4    4    0    0 -0.31950464165E+01 -0.53079451117E+01 -0.11497730457E+02  0.13060643498E+02  0.00000000000E+00 0.  1.
        -11    1    3    3    0    0  0.94369519644E+00 -0.51288653807E+02 -0.22358268961E+03  0.22939188229E+03  0.00000000000E+00 0.  1.
         11    1    3    3    0    0  0.10487696511E+02  0.40476791374E+02 -0.14655754443E+03  0.15240563062E+03  0.00000000000E+00 0. -1.
         -1    1    1    2    0  502 -0.14512187296E+03 -0.39634000184E+02 -0.10731977711E+03  0.18479379465E+03  0.00000000000E+00 0.  1.
<scales pt_clust_5="13000.00000" pt_clust_6="13000.00000" pt_clust_7="13000.00000" pt_clust_8="13000.00000" pt_clust_9="145.11839"></scales>
<clustering>
<clus scale="   80.967">  5  6 -1 -1</clus>
<clus scale="   92.293">  7  8 -1 -1</clus>
<clus scale="   93.625">  2  7  1 -1</clus>
<clus scale="  145.118">  1  9  2 -1</clus>
<clus scale="  145.118">  1  5  2 -1</clus>
</clustering>
</event>
<event>
 9    1  0.6345107E-005  0.1529634E+03  0.7546771E-02  0.1198749E+00
         21   -1    0    0  501  502  0.00000000000E+00  0.00000000000E+00  0.52096251770E+02  0.52096251770E+02  0.00000000000E+00 0. -1.
          1   -1    0    0  502    0 -0.00000000000E+00 -0.00000000000E+00 -0.94515434073E+03  0.94515434073E+03  0.00000000000E+00 0. -1.
        -24    2    1    2    0    0  0.38096349419E+02 -0.92216093581E+02 -0.22148690911E+03  0.25563386618E+03  0.79605796738E+02 0.  0.
         23    2    1    2    0    0  0.26579460262E+02  0.17202874058E+03 -0.31984081657E+03  0.37519174433E+03  0.90389942882E+02 0.  0.
         13    1    3    3    0    0 -0.20580416493E+02 -0.80987022566E+01 -0.63830069618E+02  0.67553092518E+02  0.00000000000E+00 0. -1.
        -14    1    3    3    0    0  0.58676765912E+02 -0.84117391324E+02 -0.15765683950E+03  0.18808077366E+03  0.00000000000E+00 0.  1.
        -13    1    4    4    0    0 -0.98244637481E+01  0.81748881246E+02 -0.22371482405E+03  0.23838565849E+03  0.00000000000E+00 0.  1.
         13    1    4    4    0    0  0.36403924010E+02  0.90279859334E+02 -0.96125992517E+02  0.13680608584E+03  0.00000000000E+00 0. -1.
          2    1    1    2  501    0 -0.64675809681E+02 -0.79812646999E+02 -0.35173036327E+03  0.36642498199E+03  0.00000000000E+00 0. -1.
<scales pt_clust_5="13000.00000" pt_clust_6="13000.00000" pt_clust_7="13000.00000" pt_clust_8="13000.00000" pt_clust_9="102.72794"></scales>
<clustering>
<clus scale="   79.606">  5  6 -1 -1</clus>
<clus scale="   90.390">  7  8 -1 -1</clus>
<clus scale="  102.728">  1  9  2 -1</clus>
<clus scale="  146.849">  2  5  1 -1</clus>
<clus scale="  102.728">  1  5  2 -1</clus>
</clustering>
</event>
<event>
 9    1  0.6345107E-005  0.1552348E+03  0.7546771E-02  0.1195691E+00
         21   -1    0    0  501  502  0.00000000000E+00  0.00000000000E+00  0.63228652017E+03  0.63228652017E+03  0.00000000000E+00 0.  1.
         -2   -1    0    0    0  501 -0.00000000000E+00 -0.00000000000E+00 -0.53560028278E+02  0.53560028278E+02  0.00000000000E+00 0.  1.
         23    2    1    2    0    0 -0.12414870118E+03 -0.64888907239E+02  0.19404891954E+03  0.25544850491E+03  0.89305572054E+02 0.  0.
        -24    2    1    2    0    0  0.84241817992E+02  0.78393606140E+02  0.22407840744E+03  0.26436483003E+03  0.80220878163E+02 0.  0.
         13    1    4    4    0    0  0.55105012402E+02 -0.13514051033E+00  0.71070473047E+02  0.89931044662E+02  0.00000000000E+00 0. -1.
        -14    1    4    4    0    0  0.29136805590E+02  0.78528746650E+02  0.15300793439E+03  0.17443378537E+03  0.00000000000E+00 0.  1.
        -13    1    3    3    0    0 -0.98158646042E+02 -0.23703283118E+02  0.71937004817E+02  0.12398345892E+03  0.00000000000E+00 0.  1.
         13    1    3    3    0    0 -0.25990055133E+02 -0.41185624121E+02  0.12211191472E+03  0.13146504599E+03  0.00000000000E+00 0. -1.
         -1    1    1    2    0  502  0.39906883183E+02 -0.13504698901E+02  0.16059916491E+03  0.16603321351E+03  0.00000000000E+00 0.  1.
<scales pt_clust_5="13000.00000" pt_clust_6="13000.00000" pt_clust_7="13000.00000" pt_clust_8="13000.00000" pt_clust_9="42.12999"></scales>
<clustering>
<clus scale="   42.130">  1  9  2 -1</clus>
<clus scale="   80.221">  5  6 -1 -1</clus>
<clus scale="   89.306">  7  8 -1 -1</clus>
<clus scale="  150.192">  1  5  2 -1</clus>
<clus scale="   42.130">  1  5  2 -1</clus>
</clustering>
</event>
<event>
 9    1  0.6345107E-005  0.1630708E+03  0.7546771E-02  0.1187314E+00
         21   -1    0    0  501  502  0.00000000000E+00  0.00000000000E+00  0.14456098002E+03  0.14456098002E+03  0.00000000000E+00 0.  1.
          1   -1    0    0  502    0 -0.00000000000E+00 -0.00000000000E+00 -0.38772015579E+03  0.38772015579E+03  0.00000000000E+00 0. -1.
         23    2    1    2    0    0 -0.33748701176E+02  0.12299101298E+03 -0.24068026468E+03  0.28805110959E+03  0.93705324430E+02 0.  0.
        -24    2    1    2    0    0 -0.14630379535E+02 -0.16189919021E+03 -0.10218147101E+02  0.18166583934E+03  0.80452910817E+02 0.  0.
         13    1    4    4    0    0 -0.70485026498E+01 -0.46527706819E+02 -0.40565141465E+02  0.62129216908E+02  0.00000000000E+00 0. -1.
        -14    1    4    4    0    0 -0.75818768847E+01 -0.11537148339E+03  0.30346994364E+02  0.11953662244E+03  0.00000000000E+00 0.  1.
        -11    1    3    3    0    0 -0.24597760877E+02  0.69985136817E+01 -0.62379502434E+01  0.26323773611E+02  0.00000000000E+00 0.  1.
         11    1    3    3    0    0 -0.91509402995E+01  0.11599249930E+03 -0.23444231443E+03  0.26172733598E+03  0.00000000000E+00 0. -1.
          2    1    1    2  501    0  0.48379080711E+02  0.38908177230E+02  0.77392360125E+01  0.62564186879E+02  0.00000000000E+00 0. -1.
<scales pt_clust_5="13000.00000" pt_clust_6="13000.00000" pt_clust_7="13000.00000" pt_clust_8="13000.00000" pt_clust_9="62.08367"></scales>
<clustering>
<clus scale="   62.084">  1  9  2 -1</clus>
<clus scale="   80.453">  5  6 -1 -1</clus>
<clus scale="   93.705">  7  8 -1 -1</clus>
<clus scale="  155.833">  1  5  2 -1</clus>
<clus scale="   62.084">  1  5  2 -1</clus>
</clustering>
</event>
<event>
 9    1  0.6345107E-005  0.1553023E+03  0.7546771E-02  0.1196537E+00
          3   -1    0    0  502    0 -0.00000000000E+00  0.00000000000E+00  0.10741332416E+03  0.10741332416E+03  0.00000000000E+00 0. -1.
         21   -1    0    0  501  502  0.00000000000E+00 -0.00000000000E+00 -0.10228107522E+04  0.10228107522E+04  0.00000000000E+00 0. -1.
        -24    2    1    2    0    0  0.92606927772E+02  0.10199185426E+03 -0.20010345634E+03  0.25561162169E+03  0.79482869191E+02 0.  0.
         23    2    1    2    0    0 -0.95600527207E+02 -0.12936608518E+02 -0.76217087788E+03  0.77392857931E+03  0.93563786514E+02 0.  0.
         11    1    3    3    0    0  0.93945843662E+02  0.10600513189E+03 -0.20497849969E+03  0.24915676764E+03  0.00000000000E+00 0. -1.
        -12    1    3    3    0    0 -0.13389158895E+01 -0.40132776276E+01  0.48750433477E+01  0.64548540431E+01  0.00000000000E+00 0.  1.
        -11    1    4    4    0    0 -0.96767752188E+01  0.34632250445E+02 -0.18523077904E+03  0.18868882917E+03  0.00000000000E+00 0.  1.
         11    1    4    4    0    0 -0.85923751988E+02 -0.47568858963E+02 -0.57694009883E+03  0.58523975014E+03  0.00000000000E+00 0. -1.
          4    1    1    2  501    0  0.29935994347E+01 -0.89055245741E+02  0.46876906161E+02  0.10068387539E+03  0.00000000000E+00 0. -1.
<scales pt_clust_5="13000.00000" pt_clust_6="13000.00000" pt_clust_7="13000.00000" pt_clust_8="13000.00000" pt_clust_9="89.10559"></scales>
<clustering>
<clus scale="   79.483">  5  6 -1 -1</clus>
<clus scale="   89.106">  2  9  1 -1</clus>
<clus scale="   93.564">  7  8 -1 -1</clus>
<clus scale="  147.249">  1  5  2 -1</clus>
<clus scale="   89.106">  2  5  1 -1</clus>
</clustering>
</event>
<event>
 9    1  0.6345107E-005  0.3579765E+03  0.7546771E-02  0.1059514E+00
          1   -1    0    0  502    0 -0.00000000000E+00  0.00000000000E+00  0.30722903808E+04  0.30722903808E+04  0.00000000000E+00 0. -1.
         21   -1    0    0  501  502  0.00000000000E+00 -0.00000000000E+00 -0.49259762561E+02  0.49259762561E+02  0.00000000000E+00 0. -1.
         23    2    1    2    0    0 -0.23677958587E+03 -0.26795355945E+03  0.14338154878E+04  0.14802095074E+04  0.85613377719E+02 0.  0.
        -24    2    1    2    0    0  0.18736500274E+03  0.28230945902E+03  0.12254653332E+04  0.12739691511E+04  0.80173812652E+02 0.  0.
         13    1    4    4    0    0  0.17977766624E+03  0.28694694731E+03  0.12046173351E+04  0.12513039135E+04  0.00000000000E+00 0. -1.
        -14    1    4    4    0    0  0.75873365024E+01 -0.46374882960E+01  0.20847998083E+02  0.22665237633E+02  0.00000000000E+00 0.  1.
        -13    1    3    3    0    0 -0.40643883576E+02 -0.14377148823E+02  0.25319792631E+03  0.25684200897E+03  0.00000000000E+00 0.  1.
         13    1    3    3    0    0 -0.19613570229E+03 -0.25357641063E+03  0.11806175615E+04  0.12233674984E+04  0.00000000000E+00 0. -1.
          2    1    1    2  501    0  0.49414583128E+02 -0.14355899567E+02  0.36374979723E+03  0.36737148483E+03  0.00000000000E+00 0. -1.
<scales pt_clust_5="13000.00000" pt_clust_6="13000.00000" pt_clust_7="13000.00000" pt_clust_8="13000.00000" pt_clust_9="51.45771"></scales>
<clustering>
<clus scale="   51.458">  2  9  1 -1</clus>
<clus scale="   80.174">  5  6 -1 -1</clus>
<clus scale="   85.613">  7  8 -1 -1</clus>
<clus scale="  356.715">  2  5  1 -1</clus>
<clus scale="   51.458">  2  5  1 -1</clus>
</clustering>
</event>
<event>
 9    1  0.6345107E-005  0.1163371E+03  0.7546771E-02  0.1266959E+00
         21   -1    0    0  501  502  0.00000000000E+00  0.00000000000E+00  0.37095091101E+03  0.37095091101E+03  0.00000000000E+00 0.  1.
          3   -1    0    0  502    0 -0.00000000000E+00 -0.00000000000E+00 -0.56633373684E+02  0.56633373684E+02  0.00000000000E+00 0. -1.
        -24    2    1    2    0    0  0.27294732675E+02  0.15636946520E+02  0.49393988103E+02  0.99714018440E+02  0.80706894901E+02 0.  0.
         23    2    1    2    0    0  0.32809758339E+02  0.12880912637E+02  0.20734279176E+03  0.23988525753E+03  0.11537549710E+03 0.  0.
         11    1    3    3    0    0 -0.24314556052E+02  0.13879993177E+02 -0.36871013406E+00  0.27999782031E+02  0.00000000000E+00 0. -1.
        -12    1    3    3    0    0  0.51609288727E+02  0.17569533430E+01  0.49762698237E+02  0.71714236410E+02  0.00000000000E+00 0.  1.
        -11    1    4    4    0    0  0.87948062465E+01 -0.31221802366E+02  0.17961723887E+03  0.18252260698E+03  0.00000000000E+00 0.  1.
         11    1    4    4    0    0  0.24014952093E+02  0.44102715003E+02  0.27725552896E+02  0.57362650549E+02  0.00000000000E+00 0. -1.
          4    1    1    2  501    0 -0.60104491014E+02 -0.28517859158E+02  0.57580757464E+02  0.87985008730E+02  0.00000000000E+00 0. -1.
<scales pt_clust_5="13000.00000" pt_clust_6="13000.00000" pt_clust_7="13000.00000" pt_clust_8="13000.00000" pt_clust_9="66.52686"></scales>
<clustering>
<clus scale="   66.527">  1  9  2 -1</clus>
<clus scale="   80.707">  5  6 -1 -1</clus>
<clus scale="   82.076">  2  5  1 -1</clus>
<clus scale="  115.375">  7  8 -1 -1</clus>
<clus scale="   66.527">  1  5  2 -1</clus>
</clustering>
</event>
<event>
 9    1  0.6345107E-005  0.1085335E+03  0.7546771E-02  0.1263346E+00
          1   -1    0    0  502    0 -0.00000000000E+00  0.00000000000E+00  0.75541280943E+03  0.75541280943E+03  0.00000000000E+00 0. -1.
         21   -1    0    0  501  502  0.00000000000E+00 -0.00000000000E+00 -0.12801066088E+03  0.12801066088E+03  0.00000000000E+00 0. -1.
        -24    2    1    2    0    0 -0.36970873802E+02  0.62702791908E+02  0.56042028046E+03  0.57162159018E+03  0.85917786242E+02 0.  0.
         23    2    1    2    0    0 -0.62917598947E+02 -0.67615782108E+02  0.13961126944E+03  0.18820222641E+03  0.86013099135E+02 0.  0.
         13    1    3    3    0    0 -0.38298125549E+02  0.82503752422E+02  0.49382624496E+03  0.50213342429E+03  0.00000000000E+00 0. -1.
        -14    1    3    3    0    0  0.13272517468E+01 -0.19800960514E+02  0.66594035501E+02  0.69488165890E+02  0.00000000000E+00 0.  1.
        -13    1    4    4    0    0 -0.23736165735E+02 -0.19631641589E+02 -0.46973251796E+01  0.31158815432E+02  0.00000000000E+00 0.  1.
         13    1    4    4    0    0 -0.39181433213E+02 -0.47984140519E+02  0.14430859462E+03  0.15704341098E+03  0.00000000000E+00 0. -1.
          2    1    1    2  501    0  0.99888472750E+02  0.49129901996E+01 -0.72629401342E+02  0.12359965372E+03  0.00000000000E+00 0. -1.
<scales pt_clust_5="13000.00000" pt_clust_6="13000.00000" pt_clust_7="13000.00000" pt_clust_8="13000.00000" pt_clust_9="100.00922"></scales>
<clustering>
<clus scale="   85.918">  5  6 -1 -1</clus>
<clus scale="   86.013">  7  8 -1 -1</clus>
<clus scale="  100.009">  2  9  1 -1</clus>
<clus scale="  108.458">  1  5  2 -1</clus>
<clus scale="  100.009">  2  5  1 -1</clus>
</clustering>
</event>
<event>
 9    1  0.6345107E-005  0.1164484E+03  0.7546771E-02  0.1254525E+00
          1   -1    0    0  502    0 -0.00000000000E+00  0.00000000000E+00  0.38392429021E+03  0.38392429021E+03  0.00000000000E+00 0. -1.
         21   -1    0    0  501  502  0.00000000000E+00 -0.00000000000E+00 -0.17673575022E+03  0.17673575022E+03  0.00000000000E+00 0. -1.
        -24    2    1    2    0    0 -0.77166027116E+02  0.42043456272E+02  0.25357937654E+03  0.27924685504E+03  0.77162542000E+02 0.  0.
         23    2    1    2    0    0 -0.38598212302E+01 -0.58966438643E+02  0.75989326814E+02  0.13366854144E+03  0.92741371973E+02 0.  0.
         13    1    3    3    0    0 -0.89909035700E+02  0.32391165949E+02  0.23980239017E+03  0.25814338779E+03  0.00000000000E+00 0. -1.
        -14    1    3    3    0    0  0.12743008585E+02  0.96522903234E+01  0.13776986369E+02  0.21103467243E+02  0.00000000000E+00 0.  1.
        -13    1    4    4    0    0  0.26413406716E+02  0.61869296581E+01 -0.25245298282E+01  0.27245539154E+02  0.00000000000E+00 0.  1.
         13    1    4    4    0    0 -0.30273227946E+02 -0.65153368302E+02  0.78513856642E+02  0.10642300229E+03  0.00000000000E+00 0. -1.
          2    1    1    2  501    0  0.81025848346E+02  0.16922982371E+02 -0.12238016336E+03  0.14774464395E+03  0.00000000000E+00 0. -1.
<scales pt_clust_5="13000.00000" pt_clust_6="13000.00000" pt_clust_7="13000.00000" pt_clust_8="13000.00000" pt_clust_9="82.77424"></scales>
<clustering>
<clus scale="   77.163">  5  6 -1 -1</clus>
<clus scale="   82.774">  2  9  1 -1</clus>
<clus scale="   92.741">  7  8 -1 -1</clus>
<clus scale="  104.467">  1  5  2 -1</clus>
<clus scale="   82.774">  2  5  1 -1</clus>
</clustering>
</event>
<event>
 9    1  0.6345107E-005  0.1024686E+03  0.7546771E-02  0.1279455E+00
         21   -1    0    0  501  502  0.00000000000E+00  0.00000000000E+00  0.97158792785E+02  0.97158792785E+02  0.00000000000E+00 0. -1.
          3   -1    0    0  502    0 -0.00000000000E+00 -0.00000000000E+00 -0.18118691074E+03  0.18118691074E+03  0.00000000000E+00 0. -1.
         23    2    1    2    0    0 -0.11795001647E+02  0.36184319814E+02 -0.77864741539E+02  0.12418119525E+03  0.88936068132E+02 0.  0.
        -24    2    1    2    0    0  0.33112581724E+02 -0.69267901969E+02 -0.20174327179E+02  0.11238808706E+03  0.79558741339E+02 0.  0.
         11    1    4    4    0    0  0.23199639366E+01 -0.77561965426E+02 -0.21337230296E+02  0.80476817221E+02  0.00000000000E+00 0. -1.
        -12    1    4    4    0    0  0.30792617787E+02  0.82940634571E+01  0.11629031178E+01  0.31911269835E+02  0.00000000000E+00 0.  1.
        -13    1    3    3    0    0 -0.37791774001E+02  0.45990491193E+02 -0.25207876218E+02  0.64643487574E+02  0.00000000000E+00 0. -1.
         13    1    3    3    0    0  0.25996772354E+02 -0.98061713795E+01 -0.52656865322E+02  0.59537707677E+02  0.00000000000E+00 0.  1.
          4    1    1    2  501    0 -0.21317580077E+02  0.33083582155E+02  0.14010950762E+02  0.41776421218E+02  0.00000000000E+00 0. -1.
<scales pt_clust_5="13000.00000" pt_clust_6="13000.00000" pt_clust_7="13000.00000" pt_clust_8="13000.00000" pt_clust_9="39.35686"></scales>
<clustering>
<clus scale="   39.357">  1  9  2 -1</clus>
<clus scale="   79.559">  5  6 -1 -1</clus>
<clus scale="   88.936">  7  8 -1 -1</clus>
<clus scale="   94.445">  1  5  2 -1</clus>
<clus scale="   39.357">  1  5  2 -1</clus>
</clustering>
</event>
<event>
 9    1  0.6345107E-005  0.1148218E+03  0.7546771E-02  0.1253910E+00
          3   -1    0    0  502    0 -0.00000000000E+00  0.00000000000E+00  0.52263723824E+03  0.52263723824E+03  0.00000000000E+00 0. -1.
         21   -1    0    0  501  502  0.00000000000E+00 -0.00000000000E+00 -0.50372838493E+02  0.50372838493E+02  0.00000000000E+00 0.  1.
         23    2    1    2    0    0  0.47675162224E+02 -0.63523050586E+02  0.30991287189E+03  0.33227522016E+03  0.89737030913E+02 0.  0.
        -24    2    1    2    0    0  0.53673110777E+01  0.60863361457E+02  0.47360891134E+02  0.11407221625E+03  0.83882416009E+02 0.  0.
         13    1    4    4    0    0  0.12803358643E+02  0.58428357756E+02  0.68849503737E+02  0.91203361492E+02  0.00000000000E+00 0. -1.
        -14    1    4    4    0    0 -0.74360475650E+01  0.24350037012E+01 -0.21488612603E+02  0.22868854760E+02  0.00000000000E+00 0.  1.
        -11    1    3    3    0    0  0.70807579719E+02 -0.63105233585E+02  0.22292976356E+03  0.24226775132E+03  0.00000000000E+00 0.  1.
         11    1    3    3    0    0 -0.23132417495E+02 -0.41781700112E+00  0.86983108338E+02  0.90007468836E+02  0.00000000000E+00 0. -1.
          4    1    1    2  501    0 -0.53042473301E+02  0.26596891286E+01  0.11499063672E+03  0.12666264032E+03  0.00000000000E+00 0. -1.
<scales pt_clust_5="13000.00000" pt_clust_6="13000.00000" pt_clust_7="13000.00000" pt_clust_8="13000.00000" pt_clust_9="53.10914"></scales>
<clustering>
<clus scale="   53.109">  2  9  1 -1</clus>
<clus scale="   83.882">  5  6 -1 -1</clus>
<clus scale="   89.737">  7  8 -1 -1</clus>
<clus scale="  110.307">  2  5  1 -1</clus>
<clus scale="   53.109">  2  5  1 -1</clus>
</clustering>
</event>
<event>
 9    1  0.6345107E-005  0.9356134E+02  0.7546771E-02  0.1302831E+00
         21   -1    0    0  501  502  0.00000000000E+00  0.00000000000E+00  0.19875480973E+02  0.19875480973E+02  0.00000000000E+00 0. -1.
          1   -1    0    0  502    0 -0.00000000000E+00 -0.00000000000E+00 -0.78931502621E+03  0.78931502621E+03  0.00000000000E+00 0. -1.
        -24    2    1    2    0    0 -0.67809917293E+01  0.28410696192E+02 -0.46189612582E+03  0.46914274022E+03  0.76770633330E+02 0.  0.
         23    2    1    2    0    0 -0.19991021838E+02 -0.16121800378E+01 -0.13815894848E+03  0.16647933616E+03  0.90693077160E+02 0.  0.
         13    1    3    3    0    0  0.99928004333E+01  0.37602189905E+02 -0.10912657465E+03  0.11585503892E+03  0.00000000000E+00 0. -1.
        -14    1    3    3    0    0 -0.16773792163E+02 -0.91914937134E+01 -0.35276955117E+03  0.35328770130E+03  0.00000000000E+00 0.  1.
        -11    1    4    4    0    0 -0.34066817054E+02  0.21189602151E+02 -0.19084651826E+02  0.44427144842E+02  0.00000000000E+00 0. -1.
         11    1    4    4    0    0  0.14075795217E+02 -0.22801782188E+02 -0.11907429665E+03  0.12205219132E+03  0.00000000000E+00 0.  1.
          2    1    1    2  501    0  0.26772013567E+02 -0.26798516154E+02 -0.16938447093E+03  0.17356843081E+03  0.00000000000E+00 0. -1.
<scales pt_clust_5="13000.00000" pt_clust_6="13000.00000" pt_clust_7="13000.00000" pt_clust_8="13000.00000" pt_clust_9="37.88011"></scales>
<clustering>
<clus scale="   37.880">  1  9  2 -1</clus>
<clus scale="   76.771">  5  6 -1 -1</clus>
<clus scale="   80.139">  2  5  1 -1</clus>
<clus scale="   90.693">  7  8 -1 -1</clus>
<clus scale="   37.880">  1  5  2 -1</clus>
</clustering>
</event>
<event>
 9    1  0.6345107E-005  0.1858368E+03  0.7546771E-02  0.1163139E+00
         21   -1    0    0  501  502  0.00000000000E+00  0.00000000000E+00  0.18453920962E+03  0.18453920962E+03  0.00000000000E+00 0.  1.
          1   -1    0    0  502    0 -0.00000000000E+00 -0.00000000000E+00 -0.34337380011E+03  0.34337380011E+03  0.00000000000E+00 0. -1.
        -24    2    1    2    0    0  0.89622163105E+02  0.16314107885E+03 -0.16800504701E+03  0.26396605655E+03  0.82493875292E+02 0.  0.
         23    2    1    2    0    0  0.29717272784E+01 -0.12618636131E+03  0.38661355803E+02  0.15998064699E+03  0.90372993935E+02 0.  0.
         11    1    3    3    0    0  0.95480008351E+02  0.15856145428E+03 -0.17428674400E+03  0.25423224798E+03  0.00000000000E+00 0. -1.
        -12    1    3    3    0    0 -0.58578452459E+01  0.45796245680E+01  0.62816969922E+01  0.97338085666E+01  0.00000000000E+00 0.  1.
        -13    1    4    4    0    0 -0.80374407546E+01 -0.83790160916E+02  0.67193703000E+02  0.10770508457E+03  0.00000000000E+00 0.  1.
         13    1    4    4    0    0  0.11009168033E+02 -0.42396200399E+02 -0.28532347196E+02  0.52275562413E+02  0.00000000000E+00 0. -1.
          2    1    1    2  501    0 -0.92593890383E+02 -0.36954717531E+02 -0.29490899280E+02  0.10396630620E+03  0.00000000000E+00 0. -1.
<scales pt_clust_5="13000.00000" pt_clust_6="13000.00000" pt_clust_7="13000.00000" pt_clust_8="13000.00000" pt_clust_9="99.69594"></scales>
<clustering>
<clus scale="   82.494">  5  6 -1 -1</clus>
<clus scale="   90.373">  7  8 -1 -1</clus>
<clus scale="   99.696">  1  9  2 -1</clus>
<clus scale="  182.135">  2  5  1 -1</clus>
<clus scale="   99.696">  1  5  2 -1</clus>
</clustering>
</event>
<event>
 9    1  0.6345107E-005  0.1146082E+03  0.7546771E-02  0.1256133E+00
          1   -1    0    0  502    0 -0.00000000000E+00  0.00000000000E+00  0.29906386933E+03  0.29906386933E+03  0.00000000000E+00 0. -1.
         21   -1    0    0  501  502  0.00000000000E+00 -0.00000000000E+00 -0.74774243504E+02  0.74774243504E+02  0.00000000000E+00 0. -1.
         23    2    1    2    0    0  0.26921434379E+02  0.58762662186E+02  0.10140466268E+03  0.15092010028E+03  0.91192965511E+02 0.  0.
        -24    2    1    2    0    0  0.33929795974E+02 -0.82410386584E+02  0.88947498493E+02  0.14933922069E+03  0.80298458746E+02 0.  0.
         13    1    4    4    0    0  0.39790168960E-01 -0.54058204711E+02  0.90174195134E+02  0.10513646631E+03  0.00000000000E+00 0. -1.
        -14    1    4    4    0    0  0.33890005805E+02 -0.28352181873E+02 -0.12266966411E+01  0.44202754383E+02  0.00000000000E+00 0.  1.
        -11    1    3    3    0    0 -0.40083742771E+01  0.30193449691E+02  0.10435738742E+03  0.10871143352E+03  0.00000000000E+00 0.  1.
         11    1    3    3    0    0  0.30929808656E+02  0.28569212495E+02 -0.29527247417E+01  0.42208666758E+02  0.00000000000E+00 0. -1.
          2    1    1    2  501    0 -0.60851230353E+02  0.23647724398E+02  0.33937464646E+02  0.73578791858E+02  0.00000000000E+00 0. -1.
<scales pt_clust_5="13000.00000" pt_clust_6="13000.00000" pt_clust_7="13000.00000" pt_clust_8="13000.00000" pt_clust_9="65.28466"></scales>
<clustering>
<clus scale="   65.285">  2  9  1 -1</clus>
<clus scale="   80.298">  5  6 -1 -1</clus>
<clus scale="   91.193">  7  8 -1 -1</clus>
<clus scale="  106.145">  2  5  1 -1</clus>
<clus scale="   65.285">  2  5  1 -1</clus>
</clustering>
</event>
<event>
 9    1  0.6345107E-005  0.2453084E+03  0.7546771E-02  0.1116993E+00
          1   -1    0    0  502    0 -0.00000000000E+00  0.00000000000E+00  0.92003189272E+03  0.92003189272E+03  0.00000000000E+00 0. -1.
         21   -1    0    0  501  502  0.00000000000E+00 -0.00000000000E+00 -0.14246438962E+03  0.14246438962E+03  0.00000000000E+00 0. -1.
         23    2    1    2    0    0  0.22628232481E+03  0.43431963667E+02  0.76502365588E+03  0.80427035887E+03  0.92193221581E+02 0.  0.
        -24    2    1    2    0    0 -0.20722119620E+03 -0.27969622312E+02 -0.10916793666E+02  0.22427283386E+03  0.80350505268E+02 0.  0.
         13    1    4    4    0    0 -0.13444790212E+03 -0.51280910615E+02  0.12266968658E+02  0.14441761907E+03  0.00000000000E+00 0. -1.
        -14    1    4    4    0    0 -0.72773294079E+02  0.23311288302E+02 -0.23183762324E+02  0.79855214788E+02  0.00000000000E+00 0.  1.
        -11    1    3    3    0    0  0.10147777482E+03 -0.26723213504E+02  0.33263003277E+03  0.34879020574E+03  0.00000000000E+00 0.  1.
         11    1    3    3    0    0  0.12480454999E+03  0.70155177171E+02  0.43239362312E+03  0.45548015313E+03  0.00000000000E+00 0. -1.
          2    1    1    2  501    0 -0.19061128608E+02 -0.15462341354E+02  0.23460640880E+02  0.33953089616E+02  0.00000000000E+00 0. -1.
<scales pt_clust_5="13000.00000" pt_clust_6="13000.00000" pt_clust_7="13000.00000" pt_clust_8="13000.00000" pt_clust_9="24.54405"></scales>
<clustering>
<clus scale="   24.544">  2  9  1 -1</clus>
<clus scale="   80.351">  5  6 -1 -1</clus>
<clus scale="   92.193">  7  8 -1 -1</clus>
<clus scale="  241.107">  2  5  1 -1</clus>
<clus scale="   24.544">  2  5  1 -1</clus>
</clustering>
</event>
<event>
 9    1  0.6345107E-005  0.1252329E+03  0.7546771E-02  0.1238981E+00
          3   -1    0    0  502    0 -0.00000000000E+00  0.00000000000E+00  0.20294976674E+03  0.20294976674E+03  0.00000000000E+00 0. -1.
         21   -1    0    0  501  502  0.00000000000E+00 -0.00000000000E+00 -0.94082732282E+02  0.94082732282E+02  0.00000000000E+00 0. -1.
        -24    2    1    2    0    0 -0.21843510593E+02 -0.94323900819E+02  0.80169666006E+02  0.14835993418E+03  0.78799476533E+02 0.  0.
         23    2    1    2    0    0  0.17739220756E+02  0.62492230251E+02  0.21318694012E+02  0.11574012972E+03  0.93388072682E+02 0.  0.
         13    1    3    3    0    0 -0.40240337301E+00 -0.64087152714E+02  0.46779495970E+01  0.64258915987E+02  0.00000000000E+00 0. -1.
        -14    1    3    3    0    0 -0.21441107220E+02 -0.30236748105E+02  0.75491716409E+02  0.84101018193E+02  0.00000000000E+00 0.  1.
        -13    1    4    4    0    0  0.29261053895E+02 -0.15080921956E+02  0.17360890509E+02  0.37216179295E+02  0.00000000000E+00 0.  1.
         13    1    4    4    0    0 -0.11521833139E+02  0.77573152207E+02  0.39578035028E+01  0.78523950428E+02  0.00000000000E+00 0. -1.
          4    1    1    2  501    0  0.41042898368E+01  0.31831670567E+02  0.73786744387E+01  0.32932435116E+02  0.00000000000E+00 0. -1.
<scales pt_clust_5="13000.00000" pt_clust_6="13000.00000" pt_clust_7="13000.00000" pt_clust_8="13000.00000" pt_clust_9="32.09518"></scales>
<clustering>
<clus scale="   32.095">  2  9  1 -1</clus>
<clus scale="   78.799">  5  6 -1 -1</clus>
<clus scale="   93.388">  7  8 -1 -1</clus>
<clus scale="  114.766">  1  5  2 -1</clus>
<clus scale="   32.095">  2  5  1 -1</clus>
</clustering>
</event>
<event>
 9    1  0.6345107E-005  0.1676921E+03  0.7546771E-02  0.1180331E+00
          1   -1    0    0  502    0 -0.00000000000E+00  0.00000000000E+00  0.28716554539E+03  0.28716554539E+03  0.00000000000E+00 0. -1.
         21   -1    0    0  501  502  0.00000000000E+00 -0.00000000000E+00 -0.12108343904E+03  0.12108343904E+03  0.00000000000E+00 0.  1.
         23    2    1    2    0    0 -0.22684873808E+02  0.13488932240E+03  0.62658675741E+02  0.17484052463E+03  0.89069448237E+02 0.  0.
        -24    2    1    2    0    0  0.48033538475E+02 -0.14088726927E+03  0.61123065805E+02  0.18373098976E+03  0.88682602380E+02 0.  0.
         11    1    4    4    0    0 -0.21565200777E+02 -0.90905241978E+01  0.23648288360E+01  0.23522073254E+02  0.00000000000E+00 0. -1.
        -12    1    4    4    0    0  0.69598739252E+02 -0.13179674507E+03  0.58758236969E+02  0.16020891650E+03  0.00000000000E+00 0.  1.
        -11    1    3    3    0    0  0.33845973203E+02  0.58882419662E+02  0.33500148482E+02  0.75729447348E+02  0.00000000000E+00 0.  1.
         11    1    3    3    0    0 -0.56530847011E+02  0.76006902739E+02  0.29158527260E+02  0.99111077281E+02  0.00000000000E+00 0. -1.
          2    1    1    2  501    0 -0.25348664667E+02  0.59979468644E+01  0.42300364807E+02  0.49677470042E+02  0.00000000000E+00 0. -1.
<scales pt_clust_5="13000.00000" pt_clust_6="13000.00000" pt_clust_7="13000.00000" pt_clust_8="13000.00000" pt_clust_9="26.04862"></scales>
<clustering>
<clus scale="   26.049">  2  9  1 -1</clus>
<clus scale="   88.683">  5  6 -1 -1</clus>
<clus scale="   89.069">  7  8 -1 -1</clus>
<clus scale="  167.487">  2  5  1 -1</clus>
<clus scale="   26.049">  2  5  1 -1</clus>
</clustering>
</event>
<event>
 9    1  0.6345107E-005  0.8811744E+02  0.7546771E-02  0.1307703E+00
          3   -1    0    0  502    0 -0.00000000000E+00  0.00000000000E+00  0.16694845323E+03  0.16694845323E+03  0.00000000000E+00 0. -1.
         21   -1    0    0  501  502  0.00000000000E+00 -0.00000000000E+00 -0.20001557043E+03  0.20001557043E+03  0.00000000000E+00 0.  1.
         23    2    1    2    0    0 -0.21491673345E+02  0.92070689361E+01  0.57431422071E+02  0.10714932153E+03  0.87383904252E+02 0.  0.
        -24    2    1    2    0    0 -0.65077734701E+02  0.51585593127E+01 -0.12508269457E+03  0.16549239574E+03  0.86488902634E+02 0.  0.
         11    1    4    4    0    0 -0.40607799697E+02  0.12211150363E+02 -0.49521125411E+01  0.42692259346E+02  0.00000000000E+00 0. -1.
        -12    1    4    4    0    0 -0.24469935003E+02 -0.70525910503E+01 -0.12013058203E+03  0.12280013640E+03  0.00000000000E+00 0.  1.
        -11    1    3    3    0    0 -0.29525299478E+02 -0.18750793691E+02  0.67781535816E+02  0.76273666300E+02  0.00000000000E+00 0.  1.
         11    1    3    3    0    0  0.80336261331E+01  0.27957862628E+02 -0.10350113744E+02  0.30875655233E+02  0.00000000000E+00 0. -1.
          4    1    1    2  501    0  0.86569408046E+02 -0.14365628249E+02  0.34584155298E+02  0.94322306386E+02  0.00000000000E+00 0. -1.
<scales pt_clust_5="13000.00000" pt_clust_6="13000.00000" pt_clust_7="13000.00000" pt_clust_8="13000.00000" pt_clust_9="87.75330"></scales>
<clustering>
<clus scale="   86.489">  5  6 -1 -1</clus>
<clus scale="   87.384">  7  8 -1 -1</clus>
<clus scale="   87.753">  2  9  1 -1</clus>
<clus scale="   87.753">  2  5  1 -1</clus>
<clus scale="   87.753">  2  5  1 -1</clus>
</clustering>
</event>
<event>
 9    1  0.6345107E-005  0.9344403E+02  0.7546771E-02  0.1301553E+00
         -2   -1    0    0    0  501 -0.00000000000E+00  0.00000000000E+00  0.34051457035E+03  0.34051457035E+03  0.00000000000E+00 0.  1.
         21   -1    0    0  501  502  0.00000000000E+00 -0.00000000000E+00 -0.84884080142E+02  0.84884080142E+02  0.00000000000E+00 0. -1.
         23    2    1    2    0    0 -0.73189676612E+01  0.17918839267E+02  0.28610624273E+03  0.30119208415E+03  0.92115348000E+02 0.  0.
        -24    2    1    2    0    0 -0.10467827630E+02 -0.39221817123E+00  0.40252098348E+01  0.81617026120E+02  0.80841866554E+02 0.  0.
         11    1    4    4    0    0 -0.41646681814E+02  0.17632813266E+02 -0.11055039990E+01  0.45239190409E+02  0.00000000000E+00 0. -1.
        -12    1    4    4    0    0  0.31178854184E+02 -0.18025031437E+02  0.51307138338E+01  0.36377835711E+02  0.00000000000E+00 0.  1.
        -11    1    3    3    0    0 -0.38706253744E+02 -0.13229970191E+02  0.74267167285E+02  0.84786899499E+02  0.00000000000E+00 0. -1.
         11    1    3    3    0    0  0.31387286083E+02  0.31148809458E+02  0.21183907544E+03  0.21640518465E+03  0.00000000000E+00 0.  1.
         -1    1    1    2    0  502  0.17786795291E+02 -0.17526621096E+02 -0.34500962351E+02  0.42589540229E+02  0.00000000000E+00 0.  1.
<scales pt_clust_5="13000.00000" pt_clust_6="13000.00000" pt_clust_7="13000.00000" pt_clust_8="13000.00000" pt_clust_9="24.97103"></scales>
<clustering>
<clus scale="   24.971">  2  9  1 -1</clus>
<clus scale="   80.842">  5  6 -1 -1</clus>
<clus scale="   82.353">  2  5  1 -1</clus>
<clus scale="   92.115">  7  8 -1 -1</clus>
<clus scale="   24.971">  2  5  1 -1</clus>
</clustering>
</event>
<event>
 9    1  0.6345107E-005  0.1032594E+03  0.7546771E-02  0.1281122E+00
         21   -1    0    0  501  502  0.00000000000E+00  0.00000000000E+00  0.33363931559E+03  0.33363931559E+03  0.00000000000E+00 0.  1.
         -2   -1    0    0    0  501 -0.00000000000E+00 -0.00000000000E+00 -0.26249100944E+03  0.26249100944E+03  0.00000000000E+00 0.  1.
        -24    2    1    2    0    0  0.19428000925E+02 -0.52058046357E+02 -0.16787665366E+03  0.19414043117E+03  0.80127702842E+02 0.  0.
         23    2    1    2    0    0 -0.12659482884E+02 -0.78211472095E+00 -0.49793353229E+02  0.10829972820E+03  0.95334038482E+02 0.  0.
         11    1    3    3    0    0 -0.15999504077E+02 -0.32978965104E+02 -0.21854677262E+02  0.42675791595E+02  0.00000000000E+00 0. -1.
        -12    1    3    3    0    0  0.35427505002E+02 -0.19079081252E+02 -0.14602197640E+03  0.15146463958E+03  0.00000000000E+00 0.  1.
        -11    1    4    4    0    0 -0.15359787607E+02  0.38574081280E+02  0.38667819750E+01  0.41699338421E+02  0.00000000000E+00 0. -1.
         11    1    4    4    0    0  0.27003047235E+01 -0.39356196001E+02 -0.53660135204E+02  0.66600389784E+02  0.00000000000E+00 0.  1.
         -1    1    1    2    0  502 -0.67685180409E+01  0.52840161078E+02  0.28881831303E+03  0.29369016565E+03  0.00000000000E+00 0.  1.
<scales pt_clust_5="13000.00000" pt_clust_6="13000.00000" pt_clust_7="13000.00000" pt_clust_8="13000.00000" pt_clust_9="53.27190"></scales>
<clustering>
<clus scale="   53.272">  1  9  2 -1</clus>
<clus scale="   80.128">  5  6 -1 -1</clus>
<clus scale="   89.411">  2  5  1 -1</clus>
<clus scale="   95.334">  7  8 -1 -1</clus>
<clus scale="   53.272">  1  5  2 -1</clus>
</clustering>
</event>
<event>
 9    1  0.6345107E-005  0.1232681E+03  0.7546771E-02  0.1253831E+00
         -4   -1    0    0    0  501 -0.00000000000E+00  0.00000000000E+00  0.23689939022E+03  0.23689939022E+03  0.00000000000E+00 0.  1.
         21   -1    0    0  501  502  0.00000000000E+00 -0.00000000000E+00 -0.16721985582E+03  0.16721985582E+03  0.00000000000E+00 0. -1.
        -24    2    1    2    0    0 -0.21997620946E+02 -0.28866745266E+02  0.84289643997E+02  0.12279046254E+03  0.81581672556E+02 0.  0.
         23    2    1    2    0    0 -0.20916146612E+02 -0.69365907499E+02 -0.91208729445E+02  0.14957676613E+03  0.93835293610E+02 0.  0.
         13    1    3    3    0    0  0.17012363367E+02 -0.42641647392E+02  0.57174838245E+02  0.73325934894E+02  0.00000000000E+00 0. -1.
        -14    1    3    3    0    0 -0.39009984313E+02  0.13774902127E+02  0.27114805752E+02  0.49464527650E+02  0.00000000000E+00 0.  1.
        -11    1    4    4    0    0 -0.19174045945E+02  0.14865816870E+02  0.14965016910E+01  0.24307942456E+02  0.00000000000E+00 0.  1.
         11    1    4    4    0    0 -0.17421006668E+01 -0.84231724369E+02 -0.92705231136E+02  0.12526882367E+03  0.00000000000E+00 0. -1.
         -3    1    1    2    0  502  0.42913767558E+02  0.98232652765E+02  0.76598619849E+02  0.13175201736E+03  0.00000000000E+00 0.  1.
<scales pt_clust_5="13000.00000" pt_clust_6="13000.00000" pt_clust_7="13000.00000" pt_clust_8="13000.00000" pt_clust_9="79.93725"></scales>
<clustering>
<clus scale="   81.582">  5  6 -1 -1</clus>
<clus scale="   89.290">  1  5  2 -1</clus>
<clus scale="   79.937">  2  9  1 -1</clus>
<clus scale="   93.835">  7  8 -1 -1</clus>
<clus scale="   79.937">  2  5  1 -1</clus>
</clustering>
</event>
<event>
 9    1  0.6345107E-005  0.1520712E+03  0.7546771E-02  0.1224919E+00
          1   -1    0    0  502    0 -0.00000000000E+00  0.00000000000E+00  0.90853420483E+03  0.90853420483E+03  0.00000000000E+00 0. -1.
         21   -1    0    0  501  502  0.00000000000E+00 -0.00000000000E+00 -0.49476575989E+02  0.49476575989E+02  0.00000000000E+00 0. -1.
        -24    2    1    2    0    0 -0.40773946153E+01  0.28750952085E+02  0.44779235785E+03  0.45590248756E+03  0.80534713167E+02 0.  0.
         23    2    1    2    0    0 -0.90388327259E+02 -0.10236450604E+03  0.28701339037E+03  0.32953582218E+03  0.86997873809E+02 0.  0.
         11    1    3    3    0    0  0.17820238172E+02 -0.22011123051E+02  0.10847321635E+03  0.11210927300E+03  0.00000000000E+00 0. -1.
        -12    1    3    3    0    0 -0.21897632787E+02  0.50762075136E+02  0.33931914150E+03  0.34379321457E+03  0.00000000000E+00 0.  1.
        -13    1    4    4    0    0 -0.55719351971E+01 -0.68238406362E+02  0.97683832358E+02  0.11928812878E+03  0.00000000000E+00 0.  1.
         13    1    4    4    0    0 -0.84816392061E+02 -0.34126099676E+02  0.18932955802E+03  0.21024769340E+03  0.00000000000E+00 0. -1.
          2    1    1    2  501    0  0.94465721874E+02  0.73613553953E+02  0.12425188062E+03  0.17257247107E+03  0.00000000000E+00 0. -1.
<scales pt_clust_5="13000.00000" pt_clust_6="13000.00000" pt_clust_7="13000.00000" pt_clust_8="13000.00000" pt_clust_9="124.72784"></scales>
<clustering>
<clus scale="   80.535">  5  6 -1 -1</clus>
<clus scale="   85.610">  1  5  2 -1</clus>
<clus scale="   86.998">  7  8 -1 -1</clus>
<clus scale="  124.728">  2  9  1 -1</clus>
<clus scale="  124.728">  2  5  1 -1</clus>
</clustering>
</event>
<event>
 9    1  0.6345107E-005  0.2043644E+03  0.7546771E-02  0.1182179E+00
          1   -1    0    0  502    0 -0.00000000000E+00  0.00000000000E+00  0.25090309440E+03  0.25090309440E+03  0.00000000000E+00 0. -1.
         21   -1    0    0  501  502  0.00000000000E+00 -0.00000000000E+00 -0.48087304607E+03  0.48087304607E+03  0.00000000000E+00 0. -1.
        -24    2    1    2    0    0 -0.24676158400E+02 -0.16342094258E+02 -0.40288815393E+02  0.97491671889E+02  0.83698629642E+02 0.  0.
         23    2    1    2    0    0 -0.16169445744E+03  0.22357743857E+02  0.15519918508E+03  0.24222244474E+03  0.89106449874E+02 0.  0.
         13    1    3    3    0    0 -0.27592996295E+02 -0.48216166548E+02 -0.17658804808E+02  0.58292414157E+02  0.00000000000E+00 0. -1.
        -14    1    3    3    0    0  0.29168378944E+01  0.31874072290E+02 -0.22630010585E+02  0.39199257732E+02  0.00000000000E+00 0.  1.
        -13    1    4    4    0    0 -0.13000326279E+03 -0.14949776890E+02  0.82893990309E+02  0.15490564158E+03  0.00000000000E+00 0. -1.
         13    1    4    4    0    0 -0.31691194649E+02  0.37307520747E+02  0.72305194767E+02  0.87316803153E+02  0.00000000000E+00 0.  1.
          2    1    1    2  501    0  0.18637061584E+03 -0.60156495995E+01 -0.34488032135E+03  0.39206202385E+03  0.00000000000E+00 0. -1.
<scales pt_clust_5="13000.00000" pt_clust_6="13000.00000" pt_clust_7="13000.00000" pt_clust_8="13000.00000" pt_clust_9="183.91532"></scales>
<clustering>
<clus scale="   83.699">  5  6 -1 -1</clus>
<clus scale="   88.778">  1  5  2 -1</clus>
<clus scale="   89.106">  7  8 -1 -1</clus>
<clus scale="  183.915">  2  9  1 -1</clus>
<clus scale="  183.915">  2  5  1 -1</clus>
</clustering>
</event>
<event>
 9    1  0.6345107E-005  0.1276062E+03  0.7546771E-02  0.1245565E+00
         21   -1    0    0  501  502  0.00000000000E+00  0.00000000000E+00  0.19020054436E+03  0.19020054436E+03  0.00000000000E+00 0. -1.
          3   -1    0    0  502    0 -0.00000000000E+00 -0.00000000000E+00 -0.25583374791E+03  0.25583374791E+03  0.00000000000E+00 0. -1.
         23    2    1    2    0    0  0.28224520908E+02 -0.20885708072E+02 -0.88608755129E+02  0.12987334081E+03  0.88219820814E+02 0.  0.
        -24    2    1    2    0    0 -0.18497725203E+02 -0.80655659304E+02 -0.10261506901E+03  0.15436396811E+03  0.80317376988E+02 0.  0.
         11    1    4    4    0    0  0.16822351618E+02 -0.70882796376E+02 -0.89588067427E+02  0.11547027393E+03  0.00000000000E+00 0. -1.
        -12    1    4    4    0    0 -0.35320076821E+02 -0.97728629286E+01 -0.13027001581E+02  0.38893694176E+02  0.00000000000E+00 0.  1.
        -13    1    3    3    0    0  0.47644815051E+02  0.11788256228E+01 -0.88457080813E+02  0.10047921764E+03  0.00000000000E+00 0.  1.
         13    1    3    3    0    0 -0.19420294143E+02 -0.22064533695E+02 -0.15167431629E+00  0.29394123169E+02  0.00000000000E+00 0. -1.
          4    1    1    2  501    0 -0.97267957048E+01  0.10154136738E+03  0.12559062059E+03  0.16179698336E+03  0.00000000000E+00 0. -1.
<scales pt_clust_5="13000.00000" pt_clust_6="13000.00000" pt_clust_7="13000.00000" pt_clust_8="13000.00000" pt_clust_9="99.15874"></scales>
<clustering>
<clus scale="   80.317">  5  6 -1 -1</clus>
<clus scale="   88.220">  7  8 -1 -1</clus>
<clus scale="   94.950">  2  7  1 -1</clus>
<clus scale="   99.159">  1  9  2 -1</clus>
<clus scale="   99.159">  1  5  2 -1</clus>
</clustering>
</event>
<event>
 9    1  0.6345107E-005  0.1706980E+03  0.7546771E-02  0.1195915E+00
         21   -1    0    0  501  502  0.00000000000E+00  0.00000000000E+00  0.96556884012E+03  0.96556884012E+03  0.00000000000E+00 0.  1.
         -2   -1    0    0    0  501 -0.00000000000E+00 -0.00000000000E+00 -0.38419280951E+03  0.38419280951E+03  0.00000000000E+00 0.  1.
        -24    2    1    2    0    0 -0.71761803496E+02  0.28838548572E+02 -0.17426306921E+03  0.20737374855E+03  0.81577178002E+02 0.  0.
         23    2    1    2    0    0  0.17331899997E+02 -0.16203341871E+03 -0.14102238097E+03  0.23425503693E+03  0.91830751162E+02 0.  0.
         11    1    3    3    0    0 -0.59970052316E+02  0.54035484278E+02 -0.15052013998E+03  0.17079974612E+03  0.00000000000E+00 0. -1.
        -12    1    3    3    0    0 -0.11791751180E+02 -0.25196935706E+02 -0.23742929233E+02  0.36574002426E+02  0.00000000000E+00 0.  1.
        -13    1    4    4    0    0  0.47188583691E+02 -0.65910196635E+02 -0.35710966400E+02  0.88578719636E+02  0.00000000000E+00 0. -1.
         13    1    4    4    0    0 -0.29856683694E+02 -0.96123222074E+02 -0.10531141457E+03  0.14567631730E+03  0.00000000000E+00 0.  1.
         -1    1    1    2    0  502  0.54429903499E+02  0.13319487014E+03  0.89666148078E+03  0.90813286415E+03  0.00000000000E+00 0.  1.
<scales pt_clust_5="13000.00000" pt_clust_6="13000.00000" pt_clust_7="13000.00000" pt_clust_8="13000.00000" pt_clust_9="143.89199"></scales>
<clustering>
<clus scale="   81.577">  5  6 -1 -1</clus>
<clus scale="   91.831">  7  8 -1 -1</clus>
<clus scale="  112.411">  2  5  1 -1</clus>
<clus scale="  143.892">  1  9  2 -1</clus>
<clus scale="  143.892">  1  5  2 -1</clus>
</clustering>
</event>
<event>
 9    1  0.6345107E-005  0.9623251E+02  0.7546771E-02  0.1293041E+00
         -2   -1    0    0    0  501 -0.00000000000E+00  0.00000000000E+00  0.12796400032E+03  0.12796400032E+03  0.00000000000E+00 0.  1.
         21   -1    0    0  501  502  0.00000000000E+00 -0.00000000000E+00 -0.39016895395E+03  0.39016895395E+03  0.00000000000E+00 0.  1.
        -24    2    1    2    0    0  0.73953938103E+01 -0.42916267082E+02  0.93329059674E+02  0.13016906449E+03  0.79606369974E+02 0.  0.
         23    2    1    2    0    0  0.10257947299E+02 -0.35448066551E+01 -0.13365283022E+03  0.16058418262E+03  0.88353888109E+02 0.  0.
         13    1    3    3    0    0 -0.76577265829E+01  0.22377734351E+02  0.26805491747E+02  0.35748260922E+02  0.00000000000E+00 0. -1.
        -14    1    3    3    0    0  0.15053120393E+02 -0.65294001433E+02  0.66523567927E+02  0.94420803568E+02  0.00000000000E+00 0.  1.
        -11    1    4    4    0    0 -0.33909314102E+02 -0.18127511022E+02 -0.37191025234E+02  0.53494117403E+02  0.00000000000E+00 0. -1.
         11    1    4    4    0    0  0.44167261401E+02  0.14582704367E+02 -0.96461804991E+02  0.10709006522E+03  0.00000000000E+00 0.  1.
         -1    1    1    2    0  502 -0.17653341109E+02  0.46461073737E+02 -0.22188118308E+03  0.22737970716E+03  0.00000000000E+00 0.  1.
<scales pt_clust_5="13000.00000" pt_clust_6="13000.00000" pt_clust_7="13000.00000" pt_clust_8="13000.00000" pt_clust_9="49.70183"></scales>
<clustering>
<clus scale="   49.702">  2  9  1 -1</clus>
<clus scale="   79.606">  5  6 -1 -1</clus>
<clus scale="   88.269">  1  5  2 -1</clus>
<clus scale="   88.354">  7  8 -1 -1</clus>
<clus scale="   49.702">  2  5  1 -1</clus>
</clustering>
</event>
<event>
 9    1  0.6345107E-005  0.1021881E+03  0.7546771E-02  0.1280560E+00
         21   -1    0    0  501  502  0.00000000000E+00  0.00000000000E+00  0.64730255892E+02  0.64730255892E+02  0.00000000000E+00 0. -1.
          1   -1    0    0  502    0 -0.00000000000E+00 -0.00000000000E+00 -0.61877431926E+03  0.61877431926E+03  0.00000000000E+00 0. -1.
        -24    2    1    2    0    0 -0.24956899998E+02 -0.35038629291E+02 -0.46642342587E+03  0.47564594499E+03  0.82690388744E+02 0.  0.
         23    2    1    2    0    0  0.43843313252E+02  0.20443622519E+02 -0.12535012422E+03  0.16321308170E+03  0.92658936839E+02 0.  0.
         13    1    3    3    0    0 -0.15039415787E+02 -0.61471817011E+02 -0.36113490048E+03  0.36663794765E+03  0.00000000000E+00 0. -1.
        -14    1    3    3    0    0 -0.99174842112E+01  0.26433187720E+02 -0.10528852539E+03  0.10900799735E+03  0.00000000000E+00 0.  1.
        -11    1    4    4    0    0  0.59872320450E+02  0.42670671893E+02 -0.70318258951E+02  0.10173563062E+03  0.00000000000E+00 0.  1.
         11    1    4    4    0    0 -0.16029007199E+02 -0.22227049374E+02 -0.55031865271E+02  0.61477451076E+02  0.00000000000E+00 0. -1.
          2    1    1    2  501    0 -0.18886413254E+02  0.14595006772E+02  0.37729486727E+02  0.44645548456E+02  0.00000000000E+00 0. -1.
<scales pt_clust_5="13000.00000" pt_clust_6="13000.00000" pt_clust_7="13000.00000" pt_clust_8="13000.00000" pt_clust_9="23.86862"></scales>
<clustering>
<clus scale="   23.869">  1  9  2 -1</clus>
<clus scale="   82.690">  5  6 -1 -1</clus>
<clus scale="   92.659">  7  8 -1 -1</clus>
<clus scale="   93.244">  2  5  1 -1</clus>
<clus scale="   23.869">  1  5  2 -1</clus>
</clustering>
</event>
<event>
 9    1  0.6345107E-005  0.1434496E+03  0.7546771E-02  0.1210792E+00
          1   -1    0    0  502    0 -0.00000000000E+00  0.00000000000E+00  0.95344451979E+03  0.95344451979E+03  0.00000000000E+00 0. -1.
         21   -1    0    0  501  502  0.00000000000E+00 -0.00000000000E+00 -0.67870769221E+02  0.67870769221E+02  0.00000000000E+00 0.  1.
        -24    2    1    2    0    0 -0.90553867648E+02 -0.79942353037E+02  0.73072848791E+03  0.74505325538E+03  0.80928657194E+02 0.  0.
         23    2    1    2    0    0  0.71568643720E+01  0.57460536243E+02  0.10795852845E+02  0.10830154807E+03  0.90883116929E+02 0.  0.
         11    1    3    3    0    0 -0.76601683644E+01 -0.58936968014E+02  0.27120410841E+03  0.27763989771E+03  0.00000000000E+00 0. -1.
        -12    1    3    3    0    0 -0.82893699284E+02 -0.21005385023E+02  0.45952437950E+03  0.46741335768E+03  0.00000000000E+00 0.  1.
        -11    1    4    4    0    0  0.27483827785E+02  0.60727291270E+02 -0.21467842593E+02  0.70028800934E+02  0.00000000000E+00 0.  1.
         11    1    4    4    0    0 -0.20326963413E+02 -0.32667550272E+01  0.32263695438E+02  0.38272747136E+02  0.00000000000E+00 0. -1.
          2    1    1    2  501    0  0.83397003276E+02  0.22481816794E+02  0.14404940981E+03  0.16796048556E+03  0.00000000000E+00 0. -1.
<scales pt_clust_5="13000.00000" pt_clust_6="13000.00000" pt_clust_7="13000.00000" pt_clust_8="13000.00000" pt_clust_9="86.37414"></scales>
<clustering>
<clus scale="   80.929">  5  6 -1 -1</clus>
<clus scale="   86.374">  2  9  1 -1</clus>
<clus scale="   90.883">  7  8 -1 -1</clus>
<clus scale="  137.359">  1  5  2 -1</clus>
<clus scale="   86.374">  2  5  1 -1</clus>
</clustering>
</event>
<event>
 9    1  0.6345107E-005  0.1195910E+03  0.7546771E-02  0.1246453E+00
          1   -1    0    0  502    0 -0.00000000000E+00  0.00000000000E+00  0.82694174902E+02  0.82694174902E+02  0.00000000000E+00 0. -1.
         21   -1    0    0  501  502  0.00000000000E+00 -0.00000000000E+00 -0.25766290950E+03  0.25766290950E+03  0.00000000000E+00 0.  1.
         23    2    1    2    0    0 -0.69499097789E+02 -0.32866938969E+02 -0.54715256657E+01  0.11854635002E+03  0.90071855985E+02 0.  0.
        -24    2    1    2    0    0  0.64267366782E+02  0.56045705548E+02 -0.12870186228E+03  0.17459964947E+03  0.81544176355E+02 0.  0.
         11    1    4    4    0    0  0.35048867164E+02  0.57831700848E+01 -0.24528578846E+01  0.35607368023E+02  0.00000000000E+00 0. -1.
        -12    1    4    4    0    0  0.29218499617E+02  0.50262535464E+02 -0.12624900440E+03  0.13899228145E+03  0.00000000000E+00 0.  1.
        -11    1    3    3    0    0  0.85769998818E+01 -0.36248320185E+02 -0.14300323449E+02  0.39899936015E+02  0.00000000000E+00 0. -1.
         11    1    3    3    0    0 -0.78076097670E+02  0.33813812164E+01  0.88287977838E+01  0.78646414010E+02  0.00000000000E+00 0.  1.
          2    1    1    2  501    0  0.52317310068E+01 -0.23178766580E+02 -0.40795346648E+02  0.47211084902E+02  0.00000000000E+00 0. -1.
<scales pt_clust_5="13000.00000" pt_clust_6="13000.00000" pt_clust_7="13000.00000" pt_clust_8="13000.00000" pt_clust_9="23.76187"></scales>
<clustering>
<clus scale="   23.762">  2  9  1 -1</clus>
<clus scale="   81.544">  5  6 -1 -1</clus>
<clus scale="   90.072">  7  8 -1 -1</clus>
<clus scale="  113.307">  2  5  1 -1</clus>
<clus scale="   23.762">  2  5  1 -1</clus>
</clustering>
</event>
<event>
 9    1  0.6345107E-005  0.2658849E+03  0.7546771E-02  0.1104233E+00
         21   -1    0    0  501  502  0.00000000000E+00  0.00000000000E+00  0.45680338380E+03  0.45680338380E+03  0.00000000000E+00 0. -1.
          1   -1    0    0  502    0 -0.00000000000E+00 -0.00000000000E+00 -0.39152902710E+03  0.39152902710E+03  0.00000000000E+00 0. -1.
        -24    2    1    2    0    0 -0.15906643062E+03  0.54106587008E+02  0.25168363176E+02  0.18758208489E+03  0.79523203898E+02 0.  0.
         23    2    1    2    0    0  0.33665505047E+03 -0.29028706443E+02 -0.16606754113E+03  0.38748462310E+03  0.91578469709E+02 0.  0.
         13    1    3    3    0    0 -0.46849654264E+02  0.25227052859E+02  0.45411790492E+02  0.69953734828E+02  0.00000000000E+00 0. -1.
        -14    1    3    3    0    0 -0.11221677636E+03  0.28879534149E+02 -0.20243427316E+02  0.11762835006E+03  0.00000000000E+00 0.  1.
        -11    1    4    4    0    0  0.25485425841E+02  0.22976893413E+02 -0.11667585929E+02  0.36243304521E+02  0.00000000000E+00 0.  1.
         11    1    4    4    0    0  0.31116962463E+03 -0.52005599856E+02 -0.15439995521E+03  0.35124131858E+03  0.00000000000E+00 0. -1.
          2    1    1    2  501    0 -0.17758861985E+03 -0.25077880564E+02  0.20617353465E+03  0.27326570291E+03  0.00000000000E+00 0. -1.
<scales pt_clust_5="13000.00000" pt_clust_6="13000.00000" pt_clust_7="13000.00000" pt_clust_8="13000.00000" pt_clust_9="179.35055"></scales>
<clustering>
<clus scale="   79.523">  5  6 -1 -1</clus>
<clus scale="   91.578">  7  8 -1 -1</clus>
<clus scale="  179.351">  1  9  2 -1</clus>
<clus scale="  261.977">  2  5  1 -1</clus>
<clus scale="  179.351">  1  5  2 -1</clus>
</clustering>
</event>
<event>
 9    1  0.6345107E-005  0.1922176E+03  0.7546771E-02  0.1179967E+00
          3   -1    0    0  502    0 -0.00000000000E+00  0.00000000000E+00  0.26614505993E+03  0.26614505993E+03  0.00000000000E+00 0. -1.
         21   -1    0    0  501  502  0.00000000000E+00 -0.00000000000E+00 -0.46660774722E+03  0.46660774722E+03  0.00000000000E+00 0. -1.
         23    2    1    2    0    0 -0.62790980380E+02 -0.23925830087E+02  0.54629331580E+02  0.12472238144E+03  0.89756091716E+02 0.  0.
        -24    2    1    2    0    0 -0.13684586019E+03 -0.92495223432E+02 -0.31900647115E+03  0.36825180485E+03  0.81006835079E+02 0.  0.
         13    1    4    4    0    0 -0.71579982056E+02 -0.89016203690E+02 -0.23938204273E+03  0.26523827162E+03  0.00000000000E+00 0. -1.
        -14    1    4    4    0    0 -0.65265878133E+02 -0.34790197418E+01 -0.79624428421E+02  0.10301353323E+03  0.00000000000E+00 0.  1.
        -13    1    3    3    0    0 -0.32460591522E+02  0.14899905112E+02 -0.15566842920E+02  0.38961824557E+02  0.00000000000E+00 0.  1.
         13    1    3    3    0    0 -0.30330388858E+02 -0.38825735199E+02  0.70196174500E+02  0.85760556880E+02  0.00000000000E+00 0. -1.
          4    1    1    2  501    0  0.19963684057E+03  0.11642105352E+03  0.63914452275E+02  0.23977862087E+03  0.00000000000E+00 0. -1.
<scales pt_clust_5="13000.00000" pt_clust_6="13000.00000" pt_clust_7="13000.00000" pt_clust_8="13000.00000" pt_clust_9="174.31443"></scales>
<clustering>
<clus scale="   81.007">  5  6 -1 -1</clus>
<clus scale="   89.756">  7  8 -1 -1</clus>
<clus scale="  112.122">  1  7  2 -1</clus>
<clus scale="  174.314">  2  9  1 -1</clus>
<clus scale="  174.314">  2  5  1 -1</clus>
</clustering>
</event>
<event>
 9    1  0.6345107E-005  0.2591787E+03  0.7546771E-02  0.1109749E+00
          1   -1    0    0  502    0 -0.00000000000E+00  0.00000000000E+00  0.82978395607E+03  0.82978395607E+03  0.00000000000E+00 0. -1.
         21   -1    0    0  501  502  0.00000000000E+00 -0.00000000000E+00 -0.41488515868E+03  0.41488515868E+03  0.00000000000E+00 0. -1.
         23    2    1    2    0    0  0.17843012347E+03  0.15520901889E+03  0.65922566113E+03  0.71007862823E+03  0.11707278711E+03 0.  0.
        -24    2    1    2    0    0 -0.39806757551E+02 -0.24713620827E+03 -0.33049197345E+02  0.26569404169E+03  0.82705446991E+02 0.  0.
         13    1    4    4    0    0 -0.37052400046E+02 -0.25376072949E+03 -0.31890530911E+02  0.25842676747E+03  0.00000000000E+00 0. -1.
        -14    1    4    4    0    0 -0.27543575052E+01  0.66245212261E+01 -0.11586664337E+01  0.72672742240E+01  0.00000000000E+00 0.  1.
        -11    1    3    3    0    0  0.43491949286E+02  0.27075614827E+02  0.44677390361E+02  0.67975788193E+02  0.00000000000E+00 0.  1.
         11    1    3    3    0    0  0.13493817419E+03  0.12813340406E+03  0.61454827076E+03  0.64210284004E+03  0.00000000000E+00 0. -1.
          2    1    1    2  501    0 -0.13862336592E+03  0.91927189379E+02 -0.21127766639E+03  0.26889644483E+03  0.00000000000E+00 0. -1.
<scales pt_clust_5="13000.00000" pt_clust_6="13000.00000" pt_clust_7="13000.00000" pt_clust_8="13000.00000" pt_clust_9="166.33414"></scales>
<clustering>
<clus scale="   82.705">  5  6 -1 -1</clus>
<clus scale="  117.073">  7  8 -1 -1</clus>
<clus scale="  166.334">  2  9  1 -1</clus>
<clus scale="  245.576">  2  5  1 -1</clus>
<clus scale="  166.334">  2  5  1 -1</clus>
</clustering>
</event>
<event>
 9    1  0.1182749E-004  0.9253567E+02  0.7546771E-02  0.1304358E+00
         -2   -1    0    0    0  501 -0.00000000000E+00  0.00000000000E+00  0.29763869582E+03  0.29763869582E+03  0.00000000000E+00 0.  1.
         21   -1    0    0  501  502  0.00000000000E+00 -0.00000000000E+00 -0.27968676400E+03  0.27968676400E+03  0.00000000000E+00 0. -1.
        -24    2    1    2    0    0 -0.30913004475E+02 -0.31978853657E+00  0.26920831868E+03  0.28118641425E+03  0.75079721625E+02 0.  0.
         23    2    1    2    0    0  0.28858434135E+01  0.58511498167E+00 -0.68947769504E+02  0.11168844482E+03  0.87817101611E+02 0.  0.
         11    1    3    3    0    0  0.25049398101E+02 -0.25156451373E+01  0.81049448350E+02  0.84869393150E+02  0.00000000000E+00 0. -1.
        -12    1    3    3    0    0 -0.55962402576E+02  0.21958566007E+01  0.18815887033E+03  0.19631702110E+03  0.00000000000E+00 0.  1.
        -11    1    4    4    0    0 -0.11644908415E+02  0.33927319316E+02 -0.25239014174E+01  0.35958823205E+02  0.00000000000E+00 0.  1.
         11    1    4    4    0    0  0.14530751829E+02 -0.33342204334E+02 -0.66423868087E+02  0.75729621616E+02  0.00000000000E+00 0. -1.
         -1    1    1    2    0  502  0.28027161062E+02 -0.26532644510E+00 -0.18230861736E+03  0.18445060075E+03  0.00000000000E+00 0.  1.
<scales pt_clust_5="13000.00000" pt_clust_6="13000.00000" pt_clust_7="13000.00000" pt_clust_8="13000.00000" pt_clust_9="28.02842"></scales>
<clustering>
<clus scale="   28.028">  2  9  1 -1</clus>
<clus scale="   75.080">  5  6 -1 -1</clus>
<clus scale="   80.548">  1  5  2 -1</clus>
<clus scale="   87.817">  7  8 -1 -1</clus>
<clus scale="   28.028">  2  5  1 -1</clus>
</clustering>
</event>
<event>
 9    1  0.6345107E-005  0.1213351E+03  0.7546771E-02  0.1251749E+00
         -2   -1    0    0    0  501 -0.00000000000E+00  0.00000000000E+00  0.51360077607E+03  0.51360077607E+03  0.00000000000E+00 0.  1.
         21   -1    0    0  501  502  0.00000000000E+00 -0.00000000000E+00 -0.69503489838E+02  0.69503489838E+02  0.00000000000E+00 0.  1.
        -24    2    1    2    0    0 -0.54682221868E+02  0.16402099460E+02  0.42999327395E+03  0.44123611696E+03  0.80845043206E+02 0.  0.
         23    2    1    2    0    0  0.32052228338E+02 -0.14234568094E+02  0.25123402385E+02  0.11660470188E+03  0.10833052609E+03 0.  0.
         13    1    3    3    0    0 -0.57107934302E+02  0.19949161881E+02  0.15762608611E+03  0.16883503263E+03  0.00000000000E+00 0. -1.
        -14    1    3    3    0    0  0.24257124346E+01 -0.35470624213E+01  0.27236718784E+03  0.27240108433E+03  0.00000000000E+00 0.  1.
        -11    1    4    4    0    0 -0.25031315846E+02  0.15647190986E+01  0.47155340435E+02  0.53410123108E+02  0.00000000000E+00 0.  1.
         11    1    4    4    0    0  0.57083544185E+02 -0.15799287193E+02 -0.22031938050E+02  0.63194578776E+02  0.00000000000E+00 0. -1.
         -1    1    1    2    0  502  0.22629993530E+02 -0.21675313661E+01 -0.11019390104E+02  0.25263447066E+02  0.00000000000E+00 0.  1.
<scales pt_clust_5="13000.00000" pt_clust_6="13000.00000" pt_clust_7="13000.00000" pt_clust_8="13000.00000" pt_clust_9="22.73356"></scales>
<clustering>
<clus scale="   22.734">  2  9  1 -1</clus>
<clus scale="   80.845">  5  6 -1 -1</clus>
<clus scale="   97.584">  1  5  2 -1</clus>
<clus scale="  108.331">  7  8 -1 -1</clus>
<clus scale="   22.734">  2  5  1 -1</clus>
</clustering>
</event>
<event>
 9    1  0.6345107E-005  0.2026594E+03  0.7546771E-02  0.1147857E+00
          1   -1    0    0  502    0 -0.00000000000E+00  0.00000000000E+00  0.75147408138E+03  0.75147408138E+03  0.00000000000E+00 0. -1.
         21   -1    0    0  501  502  0.00000000000E+00 -0.00000000000E+00 -0.20936026926E+03  0.20936026926E+03  0.00000000000E+00 0. -1.
         23    2    1    2    0    0 -0.88721223782E+02  0.15705288942E+03  0.60261310107E+03  0.63539671860E+03  0.89718308064E+02 0.  0.
        -24    2    1    2    0    0  0.15126481868E+02 -0.19031810204E+03 -0.10076043319E+03  0.23519506922E+03  0.93350229080E+02 0.  0.
         13    1    4    4    0    0  0.12317354981E+01 -0.18143267035E+03 -0.59797998430E+02  0.19103699029E+03  0.00000000000E+00 0. -1.
        -14    1    4    4    0    0  0.13894746369E+02 -0.88854316919E+01 -0.40962434765E+02  0.44158078931E+02  0.00000000000E+00 0.  1.
        -11    1    3    3    0    0 -0.40986066568E+02  0.14634674399E+03  0.43463256082E+03  0.46043749853E+03  0.00000000000E+00 0.  1.
         11    1    3    3    0    0 -0.47735157214E+02  0.10706145431E+02  0.16798054026E+03  0.17495922008E+03  0.00000000000E+00 0. -1.
          2    1    1    2  501    0  0.73594741915E+02  0.33265212617E+02  0.40261144240E+02  0.90242562816E+02  0.00000000000E+00 0. -1.
<scales pt_clust_5="13000.00000" pt_clust_6="13000.00000" pt_clust_7="13000.00000" pt_clust_8="13000.00000" pt_clust_9="80.76361"></scales>
<clustering>
<clus scale="   80.764">  2  9  1 -1</clus>
<clus scale="   89.718">  7  8 -1 -1</clus>
<clus scale="   93.350">  5  6 -1 -1</clus>
<clus scale="  201.012">  1  7  2 -1</clus>
<clus scale="   80.764">  2  5  1 -1</clus>
</clustering>
</event>
<event>
 9    1  0.6345107E-005  0.2038622E+03  0.7546771E-02  0.1147388E+00
         21   -1    0    0  501  502  0.00000000000E+00  0.00000000000E+00  0.13422432441E+03  0.13422432441E+03  0.00000000000E+00 0.  1.
          1   -1    0    0  502    0 -0.00000000000E+00 -0.00000000000E+00 -0.14033955328E+04  0.14033955328E+04  0.00000000000E+00 0. -1.
         23    2    1    2    0    0  0.25777226080E+02  0.17648126854E+03 -0.96313020791E+03  0.98358494085E+03  0.89495446526E+02 0.  0.
        -24    2    1    2    0    0 -0.84487301802E+02 -0.22867543397E+03 -0.19784548520E+02  0.25719512761E+03  0.79544622941E+02 0.  0.
         13    1    4    4    0    0 -0.10900288645E+02 -0.80562275448E+02  0.26410434489E+02  0.85478696573E+02  0.00000000000E+00 0. -1.
        -14    1    4    4    0    0 -0.73587013157E+02 -0.14811315852E+03 -0.46194983009E+02  0.17171643103E+03  0.00000000000E+00 0.  1.
        -13    1    3    3    0    0 -0.31604498119E+02  0.88601478260E+02 -0.41980058837E+03  0.43021111125E+03  0.00000000000E+00 0. -1.
         13    1    3    3    0    0  0.57381724199E+02  0.87879790276E+02 -0.54332961955E+03  0.55337382960E+03  0.00000000000E+00 0.  1.
          2    1    1    2  501    0  0.58710075723E+02  0.52194165430E+02 -0.28625645199E+03  0.29683978878E+03  0.00000000000E+00 0. -1.
<scales pt_clust_5="13000.00000" pt_clust_6="13000.00000" pt_clust_7="13000.00000" pt_clust_8="13000.00000" pt_clust_9="78.55641"></scales>
<clustering>
<clus scale="   78.556">  1  9  2 -1</clus>
<clus scale="   79.545">  5  6 -1 -1</clus>
<clus scale="   89.495">  7  8 -1 -1</clus>
<clus scale="  199.694">  1  5  2 -1</clus>
<clus scale="   78.556">  1  5  2 -1</clus>
</clustering>
</event>
<event>
 9    1  0.6345107E-005  0.9483980E+02  0.7546771E-02  0.1297658E+00
         -2   -1    0    0    0  501 -0.00000000000E+00  0.00000000000E+00  0.60292180334E+02  0.60292180334E+02  0.00000000000E+00 0.  1.
         21   -1    0    0  501  502  0.00000000000E+00 -0.00000000000E+00 -0.33168197456E+03  0.33168197456E+03  0.00000000000E+00 0. -1.
        -24    2    1    2    0    0  0.20397456995E+02 -0.11083832862E+02  0.77074807720E+01  0.83909361975E+02  0.80264987163E+02 0.  0.
         23    2    1    2    0    0 -0.44657977032E+02  0.21937765664E+02 -0.22813177437E+03  0.25058555367E+03  0.90958302308E+02 0.  0.
         13    1    3    3    0    0  0.25527121121E+02  0.31012970313E+02 -0.26491030576E+01  0.40254887745E+02  0.00000000000E+00 0. -1.
        -14    1    3    3    0    0 -0.51296641254E+01 -0.42096803175E+02  0.10356583830E+02  0.43654474230E+02  0.00000000000E+00 0.  1.
        -13    1    4    4    0    0 -0.65054854594E+02  0.19448897479E+02 -0.21666309548E+03  0.22705349735E+03  0.00000000000E+00 0. -1.
         13    1    4    4    0    0  0.20396877562E+02  0.24888681846E+01 -0.11468678893E+02  0.23532056321E+02  0.00000000000E+00 0.  1.
         -1    1    1    2    0  502  0.24260520037E+02 -0.10853932802E+02 -0.50965500625E+02  0.57479239241E+02  0.00000000000E+00 0.  1.
<scales pt_clust_5="13000.00000" pt_clust_6="13000.00000" pt_clust_7="13000.00000" pt_clust_8="13000.00000" pt_clust_9="26.57782"></scales>
<clustering>
<clus scale="   26.578">  2  9  1 -1</clus>
<clus scale="   80.265">  5  6 -1 -1</clus>
<clus scale="   84.638">  1  5  2 -1</clus>
<clus scale="   90.958">  7  8 -1 -1</clus>
<clus scale="   26.578">  2  5  1 -1</clus>
</clustering>
</event>
<event>
 9    1  0.6345107E-005  0.1047236E+03  0.7546771E-02  0.1275806E+00
         21   -1    0    0  501  502  0.00000000000E+00  0.00000000000E+00  0.15508545338E+03  0.15508545338E+03  0.00000000000E+00 0. -1.
          3   -1    0    0  502    0 -0.00000000000E+00 -0.00000000000E+00 -0.36279581771E+03  0.36279581771E+03  0.00000000000E+00 0. -1.
         23    2    1    2    0    0 -0.34264929305E+02  0.21651663288E+02 -0.21103177406E+03  0.23348606676E+03  0.91315134573E+02 0.  0.
        -24    2    1    2    0    0  0.62369501975E+02 -0.34000113959E+02 -0.11803732478E+03  0.15921416071E+03  0.79814637771E+02 0.  0.
         13    1    4    4    0    0  0.42665021110E+02  0.17593729953E+02 -0.79311296226E+02  0.91761239470E+02  0.00000000000E+00 0. -1.
        -14    1    4    4    0    0  0.19704480865E+02 -0.51593843912E+02 -0.38726028553E+02  0.67452921236E+02  0.00000000000E+00 0.  1.
        -11    1    3    3    0    0 -0.42966555581E+02 -0.10439703455E+02 -0.41221227311E+02  0.60450822060E+02  0.00000000000E+00 0.  1.
         11    1    3    3    0    0  0.87016262750E+01  0.32091366743E+02 -0.16981054675E+03  0.17303524470E+03  0.00000000000E+00 0. -1.
          4    1    1    2  501    0 -0.28104572670E+02  0.12348450672E+02  0.12135873452E+03  0.12518104362E+03  0.00000000000E+00 0. -1.
<scales pt_clust_5="13000.00000" pt_clust_6="13000.00000" pt_clust_7="13000.00000" pt_clust_8="13000.00000" pt_clust_9="30.69774"></scales>
<clustering>
<clus scale="   30.698">  1  9  2 -1</clus>
<clus scale="   79.815">  5  6 -1 -1</clus>
<clus scale="   91.315">  7  8 -1 -1</clus>
<clus scale="   94.863">  1  5  2 -1</clus>
<clus scale="   30.698">  1  5  2 -1</clus>
</clustering>
</event>
<event>
 9    1  0.6345107E-005  0.9300512E+02  0.7546771E-02  0.1297676E+00
         21   -1    0    0  501  502  0.00000000000E+00  0.00000000000E+00  0.63822042509E+02  0.63822042509E+02  0.00000000000E+00 0.  1.
          3   -1    0    0  502    0 -0.00000000000E+00 -0.00000000000E+00 -0.42109329516E+03  0.42109329516E+03  0.00000000000E+00 0. -1.
         23    2    1    2    0    0 -0.25559724843E+02 -0.67491545891E+01 -0.26038361605E+03  0.27574671397E+03  0.86820344022E+02 0.  0.
        -24    2    1    2    0    0  0.44301226876E+02  0.16189975172E+02 -0.13510158325E+03  0.16557184961E+03  0.83287967857E+02 0.  0.
         11    1    4    4    0    0  0.34692903587E+02  0.48155739418E+02 -0.10505715810E+03  0.12066308162E+03  0.00000000000E+00 0. -1.
        -12    1    4    4    0    0  0.96083232897E+01 -0.31965764246E+02 -0.30044425150E+02  0.44908767996E+02  0.00000000000E+00 0.  1.
        -11    1    3    3    0    0  0.29537475322E+02 -0.99545293401E+01 -0.56525645263E+02  0.64550009103E+02  0.00000000000E+00 0.  1.
         11    1    3    3    0    0 -0.55097200165E+02  0.32053747510E+01 -0.20385797079E+03  0.21119670487E+03  0.00000000000E+00 0. -1.
          4    1    1    2  501    0 -0.18741502034E+02 -0.94408205826E+01  0.38213946650E+02  0.43596774082E+02  0.00000000000E+00 0. -1.
<scales pt_clust_5="13000.00000" pt_clust_6="13000.00000" pt_clust_7="13000.00000" pt_clust_8="13000.00000" pt_clust_9="20.98507"></scales>
<clustering>
<clus scale="   20.985">  1  9  2 -1</clus>
<clus scale="   83.288">  5  6 -1 -1</clus>
<clus scale="   86.820">  7  8 -1 -1</clus>
<clus scale="   89.717">  1  5  2 -1</clus>
<clus scale="   20.985">  1  5  2 -1</clus>
</clustering>
</event>
<event>
 9    1  0.6345107E-005  0.1495522E+03  0.7546771E-02  0.1203191E+00
          1   -1    0    0  502    0 -0.00000000000E+00  0.00000000000E+00  0.40567927546E+03  0.40567927546E+03  0.00000000000E+00 0. -1.
         21   -1    0    0  501  502  0.00000000000E+00 -0.00000000000E+00 -0.24660918233E+03  0.24660918233E+03  0.00000000000E+00 0. -1.
        -24    2    1    2    0    0  0.97964421417E+02 -0.80763624890E+02  0.31280122777E+03  0.34680676621E+03  0.79438869709E+02 0.  0.
         23    2    1    2    0    0 -0.78339075270E+02  0.47053481549E+02  0.17134945218E+02  0.13021975841E+03  0.91173122640E+02 0.  0.
         13    1    3    3    0    0  0.76255973299E+02 -0.62657211154E+02  0.29992015104E+03  0.31574197785E+03  0.00000000000E+00 0. -1.
        -14    1    3    3    0    0  0.21708448118E+02 -0.18106413736E+02  0.12881076732E+02  0.31064788361E+02  0.00000000000E+00 0.  1.
        -11    1    4    4    0    0 -0.72984542536E+02 -0.65622062554E+01 -0.12428001067E+01  0.73289498239E+02  0.00000000000E+00 0.  1.
         11    1    4    4    0    0 -0.53545327348E+01  0.53615687805E+02  0.18377745324E+02  0.56930260168E+02  0.00000000000E+00 0. -1.
          2    1    1    2  501    0 -0.19625346147E+02  0.33710143341E+02 -0.17086607986E+03  0.17526193318E+03  0.00000000000E+00 0. -1.
<scales pt_clust_5="13000.00000" pt_clust_6="13000.00000" pt_clust_7="13000.00000" pt_clust_8="13000.00000" pt_clust_9="39.00677"></scales>
<clustering>
<clus scale="   39.007">  2  9  1 -1</clus>
<clus scale="   79.439">  5  6 -1 -1</clus>
<clus scale="   91.173">  7  8 -1 -1</clus>
<clus scale="  142.702">  1  5  2 -1</clus>
<clus scale="   39.007">  2  5  1 -1</clus>
</clustering>
</event>
<event>
 9    1  0.6345107E-005  0.1012751E+03  0.7546771E-02  0.1288518E+00
         21   -1    0    0  501  502  0.00000000000E+00  0.00000000000E+00  0.60879140112E+02  0.60879140112E+02  0.00000000000E+00 0.  1.
          1   -1    0    0  502    0 -0.00000000000E+00 -0.00000000000E+00 -0.40983183206E+03  0.40983183206E+03  0.00000000000E+00 0. -1.
        -24    2    1    2    0    0 -0.26694151001E+02  0.32584817128E+02 -0.24593942432E+03  0.25916934992E+03  0.70058571875E+02 0.  0.
         23    2    1    2    0    0  0.51239242829E+02 -0.26508941106E+02 -0.28187848087E+01  0.10820570310E+03  0.91500517324E+02 0.  0.
         11    1    3    3    0    0 -0.22045263094E+02  0.53187009911E+02 -0.20715656123E+03  0.21500858706E+03  0.00000000000E+00 0. -1.
        -12    1    3    3    0    0 -0.46488879065E+01 -0.20602192783E+02 -0.38782863093E+02  0.44160762855E+02  0.00000000000E+00 0.  1.
        -11    1    4    4    0    0  0.44738438152E+02  0.26673567810E+02 -0.12963242344E+02  0.53675438704E+02  0.00000000000E+00 0. -1.
         11    1    4    4    0    0  0.65008046765E+01 -0.53182508915E+02  0.10144457535E+02  0.54530264392E+02  0.00000000000E+00 0.  1.
          2    1    1    2  501    0 -0.24545091828E+02 -0.60758760219E+01 -0.10019448281E+03  0.10333591916E+03  0.00000000000E+00 0. -1.
<scales pt_clust_5="13000.00000" pt_clust_6="13000.00000" pt_clust_7="13000.00000" pt_clust_8="13000.00000" pt_clust_9="25.28593"></scales>
<clustering>
<clus scale="   25.286">  1  9  2 -1</clus>
<clus scale="   70.059">  5  6 -1 -1</clus>
<clus scale="   82.417">  2  5  1 -1</clus>
<clus scale="   91.501">  7  8 -1 -1</clus>
<clus scale="   25.286">  1  5  2 -1</clus>
</clustering>
</event>
<event>
 9    1  0.6345107E-005  0.1074928E+03  0.7546771E-02  0.1269530E+00
         21   -1    0    0  501  502  0.00000000000E+00  0.00000000000E+00  0.16733369673E+03  0.16733369673E+03  0.00000000000E+00 0. -1.
          1   -1    0    0  502    0 -0.00000000000E+00 -0.00000000000E+00 -0.15483294915E+03  0.15483294915E+03  0.00000000000E+00 0. -1.
        -24    2    1    2    0    0  0.22302142078E+02 -0.57360003541E+02 -0.67241828726E+02  0.12078674562E+03  0.79249093613E+02 0.  0.
         23    2    1    2    0    0  0.19975911738E+02  0.57443821848E+02  0.10603807916E+03  0.15159140430E+03  0.89649595132E+02 0.  0.
         11    1    3    3    0    0  0.27583221743E+02 -0.75930491823E+02 -0.50822100250E+02  0.95441917332E+02  0.00000000000E+00 0. -1.
        -12    1    3    3    0    0 -0.52810796658E+01  0.18570488282E+02 -0.16419728476E+02  0.25344828283E+02  0.00000000000E+00 0.  1.
        -13    1    4    4    0    0  0.39523846811E+02  0.25012945399E+02  0.10357272119E+03  0.11364457963E+03  0.00000000000E+00 0. -1.
         13    1    4    4    0    0 -0.19547935073E+02  0.32430876449E+02  0.24653579734E+01  0.37946824673E+02  0.00000000000E+00 0.  1.
          2    1    1    2  501    0 -0.42278053816E+02 -0.83818307334E-01 -0.26295502852E+02  0.49788495963E+02  0.00000000000E+00 0. -1.
<scales pt_clust_5="13000.00000" pt_clust_6="13000.00000" pt_clust_7="13000.00000" pt_clust_8="13000.00000" pt_clust_9="42.27816"></scales>
<clustering>
<clus scale="   42.278">  1  9  2 -1</clus>
<clus scale="   79.249">  5  6 -1 -1</clus>
<clus scale="   89.650">  7  8 -1 -1</clus>
<clus scale="   98.985">  2  5  1 -1</clus>
<clus scale="   42.278">  1  5  2 -1</clus>
</clustering>
</event>
<event>
 9    1  0.6345107E-005  0.1099264E+03  0.7546771E-02  0.1263200E+00
         21   -1    0    0  501  502  0.00000000000E+00  0.00000000000E+00  0.14993946212E+02  0.14993946212E+02  0.00000000000E+00 0. -1.
          1   -1    0    0  502    0 -0.00000000000E+00 -0.00000000000E+00 -0.11195143796E+04  0.11195143796E+04  0.00000000000E+00 0. -1.
        -24    2    1    2    0    0 -0.40960104896E+02 -0.17694579154E+02 -0.36835567273E+03  0.38081338399E+03  0.85686075117E+02 0.  0.
         23    2    1    2    0    0  0.76757866885E+02  0.19587502852E+02 -0.48413330748E+03  0.49912684422E+03  0.92016883325E+02 0.  0.
         13    1    3    3    0    0 -0.33301625543E+01 -0.34750473633E+02 -0.57819653729E+02  0.67541082000E+02  0.00000000000E+00 0. -1.
        -14    1    3    3    0    0 -0.37629942342E+02  0.17055894479E+02 -0.31053601900E+03  0.31327230199E+03  0.00000000000E+00 0.  1.
        -13    1    4    4    0    0  0.22130289740E+02 -0.36390639588E+02 -0.19531779458E+03  0.19990765181E+03  0.00000000000E+00 0.  1.
         13    1    4    4    0    0  0.54627577146E+02  0.55978142440E+02 -0.28881551290E+03  0.29921919241E+03  0.00000000000E+00 0. -1.
          2    1    1    2  501    0 -0.35797761989E+02 -0.18929236982E+01 -0.25203145313E+03  0.25456809755E+03  0.00000000000E+00 0. -1.
<scales pt_clust_5="13000.00000" pt_clust_6="13000.00000" pt_clust_7="13000.00000" pt_clust_8="13000.00000" pt_clust_9="35.84779"></scales>
<clustering>
<clus scale="   35.848">  1  9  2 -1</clus>
<clus scale="   85.686">  5  6 -1 -1</clus>
<clus scale="   92.017">  7  8 -1 -1</clus>
<clus scale="  104.684">  2  5  1 -1</clus>
<clus scale="   35.848">  1  5  2 -1</clus>
</clustering>
</event>
<event>
 9    1  0.6345107E-005  0.3308042E+03  0.7546771E-02  0.1094243E+00
         21   -1    0    0  501  502  0.00000000000E+00  0.00000000000E+00  0.22072909757E+03  0.22072909757E+03  0.00000000000E+00 0.  1.
          1   -1    0    0  502    0 -0.00000000000E+00 -0.00000000000E+00 -0.97965052232E+03  0.97965052232E+03  0.00000000000E+00 0. -1.
        -24    2    1    2    0    0  0.11102478171E+03 -0.11095538572E+03  0.12461859253E+02  0.17678469474E+03  0.80373693373E+02 0.  0.
         23    2    1    2    0    0  0.23854553146E+03  0.16215375065E+03 -0.47128862835E+03  0.56004613725E+03  0.91328501580E+02 0.  0.
         13    1    3    3    0    0  0.53090253101E+02 -0.45276550785E+02 -0.34029059369E+02  0.77630650563E+02  0.00000000000E+00 0. -1.
        -14    1    3    3    0    0  0.57934528606E+02 -0.65678834933E+02  0.46490918621E+02  0.99154044180E+02  0.00000000000E+00 0.  1.
        -13    1    4    4    0    0  0.21347905327E+03  0.11731543983E+03 -0.33345253958E+03  0.41294892512E+03  0.00000000000E+00 0.  1.
         13    1    4    4    0    0  0.25066478185E+02  0.44838310822E+02 -0.13783608877E+03  0.14709721212E+03  0.00000000000E+00 0. -1.
          2    1    1    2  501    0 -0.34957031316E+03 -0.51198364937E+02 -0.30009465565E+03  0.46354878790E+03  0.00000000000E+00 0. -1.
<scales pt_clust_5="13000.00000" pt_clust_6="13000.00000" pt_clust_7="13000.00000" pt_clust_8="13000.00000" pt_clust_9="317.94734"></scales>
<clustering>
<clus scale="   80.374">  5  6 -1 -1</clus>
<clus scale="   91.329">  7  8 -1 -1</clus>
<clus scale="  176.345">  2  5  1 -1</clus>
<clus scale="  317.947">  1  9  2 -1</clus>
<clus scale="  317.947">  1  5  2 -1</clus>
</clustering>
</event>
<event>
 9    1  0.6345107E-005  0.1276913E+03  0.7546771E-02  0.1233882E+00
         21   -1    0    0  501  502  0.00000000000E+00  0.00000000000E+00  0.15540260741E+03  0.15540260741E+03  0.00000000000E+00 0.  1.
         -2   -1    0    0    0  501 -0.00000000000E+00 -0.00000000000E+00 -0.16047147655E+03  0.16047147655E+03  0.00000000000E+00 0.  1.
         23    2    1    2    0    0 -0.50406974015E+02 -0.73744090082E+02 -0.78199996108E+02  0.15268683991E+03  0.96015508318E+02 0.  0.
        -24    2    1    2    0    0  0.55139098533E+02  0.45946865943E+02  0.75465958280E+02  0.13489360326E+03  0.85730616838E+02 0.  0.
         13    1    4    4    0    0  0.62643329553E+02  0.41982394426E+01  0.21740240529E+02  0.66441327576E+02  0.00000000000E+00 0. -1.
        -14    1    4    4    0    0 -0.75042310201E+01  0.41748626501E+02  0.53725717752E+02  0.68452275680E+02  0.00000000000E+00 0.  1.
        -13    1    3    3    0    0 -0.33124463207E+02 -0.33269656522E+02 -0.94689601564E+02  0.10568926508E+03  0.00000000000E+00 0.  1.
         13    1    3    3    0    0 -0.17282510808E+02 -0.40474433560E+02  0.16489605455E+02  0.46997574830E+02  0.00000000000E+00 0. -1.
         -1    1    1    2    0  502 -0.47321245175E+01  0.27797224138E+02 -0.23348313186E+01  0.28293640797E+02  0.00000000000E+00 0.  1.
<scales pt_clust_5="13000.00000" pt_clust_6="13000.00000" pt_clust_7="13000.00000" pt_clust_8="13000.00000" pt_clust_9="28.19715"></scales>
<clustering>
<clus scale="   28.197">  1  9  2 -1</clus>
<clus scale="   85.731">  5  6 -1 -1</clus>
<clus scale="   96.016">  7  8 -1 -1</clus>
<clus scale="  120.149">  1  5  2 -1</clus>
<clus scale="   28.197">  1  5  2 -1</clus>
</clustering>
</event>
<event>
 9    1  0.6345107E-005  0.2218379E+03  0.7546771E-02  0.1155450E+00
          1   -1    0    0  502    0 -0.00000000000E+00  0.00000000000E+00  0.95211401607E+03  0.95211401607E+03  0.00000000000E+00 0. -1.
         21   -1    0    0  501  502  0.00000000000E+00 -0.00000000000E+00 -0.12585520277E+03  0.12585520277E+03  0.00000000000E+00 0.  1.
        -24    2    1    2    0    0  0.63709373984E+01  0.98970323522E+02 -0.14604371387E+02  0.12891998562E+03  0.81063933089E+02 0.  0.
         23    2    1    2    0    0  0.13263042660E+03 -0.19448965179E+03  0.36202699539E+03  0.44137865356E+03  0.91293568856E+02 0.  0.
         13    1    3    3    0    0 -0.16619313573E+02  0.27507985468E+02 -0.38488775830E+02  0.50142563886E+02  0.00000000000E+00 0. -1.
        -14    1    3    3    0    0  0.22990250972E+02  0.71462338054E+02  0.23884404443E+02  0.78777421736E+02  0.00000000000E+00 0.  1.
        -13    1    4    4    0    0  0.59673869435E+02 -0.16128200696E+03  0.23569485412E+03  0.29176175335E+03  0.00000000000E+00 0.  1.
         13    1    4    4    0    0  0.72956557170E+02 -0.33207644825E+02  0.12633214127E+03  0.14961690021E+03  0.00000000000E+00 0. -1.
          2    1    1    2  501    0 -0.13900136400E+03  0.95519328263E+02  0.47883618930E+03  0.50767057966E+03  0.00000000000E+00 0. -1.
<scales pt_clust_5="13000.00000" pt_clust_6="13000.00000" pt_clust_7="13000.00000" pt_clust_8="13000.00000" pt_clust_9="202.18206"></scales>
<clustering>
<clus scale="   81.064">  5  6 -1 -1</clus>
<clus scale="   91.294">  7  8 -1 -1</clus>
<clus scale="  128.090">  1  5  2 -1</clus>
<clus scale="  202.182">  2  9  1 -1</clus>
<clus scale="  202.182">  2  5  1 -1</clus>
</clustering>
</event>
<event>
 9    1  0.6345107E-005  0.1006393E+03  0.7546771E-02  0.1286144E+00
          1   -1    0    0  502    0 -0.00000000000E+00  0.00000000000E+00  0.25129330208E+03  0.25129330208E+03  0.00000000000E+00 0. -1.
         21   -1    0    0  501  502  0.00000000000E+00 -0.00000000000E+00 -0.94265637354E+02  0.94265637354E+02  0.00000000000E+00 0.  1.
         23    2    1    2    0    0 -0.41316212591E+02 -0.25792919737E+02  0.17214214237E+03  0.20172452902E+03  0.93207104331E+02 0.  0.
        -24    2    1    2    0    0  0.11891265142E+02 -0.23862730387E+02 -0.19948433340E+02  0.85913099571E+02  0.79197781515E+02 0.  0.
         13    1    4    4    0    0 -0.16330939307E+02  0.22888630000E+02 -0.12600115653E+02  0.30811554267E+02  0.00000000000E+00 0. -1.
        -14    1    4    4    0    0  0.28222204449E+02 -0.46751360387E+02 -0.73483176871E+01  0.55101545303E+02  0.00000000000E+00 0.  1.
        -13    1    3    3    0    0 -0.50369669396E+01 -0.44324844544E+02  0.29752030510E+02  0.53621322244E+02  0.00000000000E+00 0.  1.
         13    1    3    3    0    0 -0.36279245651E+02  0.18531924806E+02  0.14239011186E+03  0.14810320678E+03  0.00000000000E+00 0. -1.
          2    1    1    2  501    0  0.29424947448E+02  0.49655650124E+02  0.48339556914E+01  0.57921310838E+02  0.00000000000E+00 0. -1.
<scales pt_clust_5="13000.00000" pt_clust_6="13000.00000" pt_clust_7="13000.00000" pt_clust_8="13000.00000" pt_clust_9="57.71924"></scales>
<clustering>
<clus scale="   57.719">  2  9  1 -1</clus>
<clus scale="   79.198">  5  6 -1 -1</clus>
<clus scale="   87.824">  2  5  1 -1</clus>
<clus scale="   93.207">  7  8 -1 -1</clus>
<clus scale="   57.719">  2  5  1 -1</clus>
</clustering>
</event>
<event>
 9    1  0.6345107E-005  0.1048089E+03  0.7546771E-02  0.1274112E+00
          3   -1    0    0  502    0 -0.00000000000E+00  0.00000000000E+00  0.49319516675E+03  0.49319516675E+03  0.00000000000E+00 0. -1.
         21   -1    0    0  501  502  0.00000000000E+00 -0.00000000000E+00 -0.91725966393E+02  0.91725966393E+02  0.00000000000E+00 0. -1.
         23    2    1    2    0    0  0.33599610451E+02 -0.62042043249E+02  0.29972460214E+03  0.32093143934E+03  0.90465477808E+02 0.  0.
        -24    2    1    2    0    0  0.21171992813E+02  0.40096672831E+02  0.15714956609E+03  0.18304997383E+03  0.82190694993E+02 0.  0.
         13    1    4    4    0    0  0.40555995822E+02  0.55359393900E+02  0.12405342576E+03  0.14176989713E+03  0.00000000000E+00 0. -1.
        -14    1    4    4    0    0 -0.19384003009E+02 -0.15262721069E+02  0.33096140331E+02  0.41280076694E+02  0.00000000000E+00 0.  1.
        -11    1    3    3    0    0 -0.67487578878E+01 -0.19086749462E+02  0.56621285574E+01  0.21021642131E+02  0.00000000000E+00 0.  1.
         11    1    3    3    0    0  0.40348368339E+02 -0.42955293786E+02  0.29406247358E+03  0.29990979720E+03  0.00000000000E+00 0. -1.
          4    1    1    2  501    0 -0.54771603264E+02  0.21945370417E+02 -0.55404967867E+02  0.80939719985E+02  0.00000000000E+00 0. -1.
<scales pt_clust_5="13000.00000" pt_clust_6="13000.00000" pt_clust_7="13000.00000" pt_clust_8="13000.00000" pt_clust_9="59.00447"></scales>
<clustering>
<clus scale="   59.004">  2  9  1 -1</clus>
<clus scale="   82.191">  5  6 -1 -1</clus>
<clus scale="   90.465">  7  8 -1 -1</clus>
<clus scale="   97.756">  2  5  1 -1</clus>
<clus scale="   59.004">  2  5  1 -1</clus>
</clustering>
</event>
<event>
 9    1  0.6345107E-005  0.1986664E+03  0.7546771E-02  0.1151883E+00
         21   -1    0    0  501  502  0.00000000000E+00  0.00000000000E+00  0.57901430280E+02  0.57901430280E+02  0.00000000000E+00 0.  1.
          3   -1    0    0  502    0 -0.00000000000E+00 -0.00000000000E+00 -0.13093606001E+04  0.13093606001E+04  0.00000000000E+00 0. -1.
        -24    2    1    2    0    0 -0.17187086113E+03 -0.52352535894E+02 -0.10275195545E+04  0.10462067540E+04  0.80447226707E+02 0.  0.
         23    2    1    2    0    0  0.16389954706E+03  0.15280651543E+02 -0.16142004854E+03  0.24793508297E+03  0.91207529601E+02 0.  0.
         11    1    3    3    0    0 -0.17860226417E+03 -0.48494705522E+02 -0.10127763943E+04  0.10295467596E+04  0.00000000000E+00 0. -1.
        -12    1    3    3    0    0  0.67314030475E+01 -0.38578303715E+01 -0.14743160201E+02  0.16659994444E+02  0.00000000000E+00 0.  1.
        -13    1    4    4    0    0  0.85758818561E+02  0.49505908377E+02 -0.61558118895E+02  0.11659679210E+03  0.00000000000E+00 0.  1.
         13    1    4    4    0    0  0.78140728497E+02 -0.34225256834E+02 -0.99861929649E+02  0.13133829087E+03  0.00000000000E+00 0. -1.
          4    1    1    2  501    0  0.79713140680E+01  0.37071884351E+02 -0.62519566765E+02  0.73120193420E+02  0.00000000000E+00 0. -1.
<scales pt_clust_5="13000.00000" pt_clust_6="13000.00000" pt_clust_7="13000.00000" pt_clust_8="13000.00000" pt_clust_9="37.91921"></scales>
<clustering>
<clus scale="   37.919">  1  9  2 -1</clus>
<clus scale="   80.447">  5  6 -1 -1</clus>
<clus scale="   91.208">  7  8 -1 -1</clus>
<clus scale="  193.962">  2  5  1 -1</clus>
<clus scale="   37.919">  1  5  2 -1</clus>
</clustering>
</event>
<event>
 9    1  0.6345107E-005  0.1738293E+03  0.7546771E-02  0.1175055E+00
          1   -1    0    0  502    0 -0.00000000000E+00  0.00000000000E+00  0.74369009316E+03  0.74369009316E+03  0.00000000000E+00 0. -1.
         21   -1    0    0  501  502  0.00000000000E+00 -0.00000000000E+00 -0.74134129057E+02  0.74134129057E+02  0.00000000000E+00 0.  1.
         23    2    1    2    0    0  0.33001172919E+02  0.15014021611E+03  0.58711468319E+03  0.61359774078E+03  0.90373526942E+02 0.  0.
        -24    2    1    2    0    0 -0.30066069713E+02 -0.12765550568E+03  0.91870681967E+02  0.17966857767E+03  0.81490360877E+02 0.  0.
         11    1    4    4    0    0 -0.32902220260E+02 -0.35575326886E+02  0.69742271051E+02  0.84924344875E+02  0.00000000000E+00 0. -1.
        -12    1    4    4    0    0  0.28361505475E+01 -0.92080178798E+02  0.22128410916E+02  0.94744232790E+02  0.00000000000E+00 0.  1.
        -11    1    3    3    0    0  0.58345605363E+02  0.10614007439E+03  0.33019267360E+03  0.35170602320E+03  0.00000000000E+00 0. -1.
         11    1    3    3    0    0 -0.25344432445E+02  0.44000141717E+02  0.25692200959E+03  0.26189171758E+03  0.00000000000E+00 0.  1.
          2    1    1    2  501    0 -0.29351032057E+01 -0.22484710425E+02 -0.94294010461E+01  0.24557903775E+02  0.00000000000E+00 0. -1.
<scales pt_clust_5="13000.00000" pt_clust_6="13000.00000" pt_clust_7="13000.00000" pt_clust_8="13000.00000" pt_clust_9="22.67547"></scales>
<clustering>
<clus scale="   22.675">  2  9  1 -1</clus>
<clus scale="   81.490">  5  6 -1 -1</clus>
<clus scale="   90.374">  7  8 -1 -1</clus>
<clus scale="  169.381">  2  5  1 -1</clus>
<clus scale="   22.675">  2  5  1 -1</clus>
</clustering>
</event>
<event>
 9    1  0.6948143E-005  0.1981973E+03  0.7546771E-02  0.1152036E+00
         21   -1    0    0  501  502  0.00000000000E+00  0.00000000000E+00  0.10917686957E+03  0.10917686957E+03  0.00000000000E+00 0. -1.
          3   -1    0    0  502    0 -0.00000000000E+00 -0.00000000000E+00 -0.50434410983E+03  0.50434410983E+03  0.00000000000E+00 0. -1.
         23    2    1    2    0    0  0.11139995025E+03 -0.14955104389E+03 -0.27242312188E+03  0.34197886778E+03  0.89217291070E+02 0.  0.
        -24    2    1    2    0    0 -0.88857964705E+02  0.12996879865E+03 -0.37178569741E+02  0.18091612996E+03  0.80998601937E+02 0.  0.
         13    1    4    4    0    0 -0.91354916860E+02  0.12792143112E+03 -0.52136617165E+02  0.16561352669E+03  0.00000000000E+00 0. -1.
        -14    1    4    4    0    0  0.24969521546E+01  0.20473675304E+01  0.14958047424E+02  0.15302603262E+02  0.00000000000E+00 0.  1.
        -13    1    3    3    0    0 -0.93434724320E+01 -0.27807115288E+02 -0.74756318501E+02  0.80305935606E+02  0.00000000000E+00 0.  1.
         13    1    3    3    0    0  0.12074342268E+03 -0.12174392860E+03 -0.19766680338E+03  0.26167293217E+03  0.00000000000E+00 0. -1.
          4    1    1    2  501    0 -0.22541985543E+02  0.19582245236E+02 -0.85565548628E+02  0.90625981665E+02  0.00000000000E+00 0. -1.
<scales pt_clust_5="13000.00000" pt_clust_6="13000.00000" pt_clust_7="13000.00000" pt_clust_8="13000.00000" pt_clust_9="29.85978"></scales>
<clustering>
<clus scale="   29.860">  1  9  2 -1</clus>
<clus scale="   80.999">  5  6 -1 -1</clus>
<clus scale="   89.217">  7  8 -1 -1</clus>
<clus scale="  194.636">  1  5  2 -1</clus>
<clus scale="   29.860">  1  5  2 -1</clus>
</clustering>
</event>
<event>
 9    1  0.6345107E-005  0.1346712E+03  0.7546771E-02  0.1241923E+00
          1   -1    0    0  502    0 -0.00000000000E+00  0.00000000000E+00  0.18464945356E+03  0.18464945356E+03  0.00000000000E+00 0. -1.
         21   -1    0    0  501  502  0.00000000000E+00 -0.00000000000E+00 -0.22620668784E+03  0.22620668784E+03  0.00000000000E+00 0. -1.
        -24    2    1    2    0    0 -0.25173667268E+02 -0.22806256901E+02 -0.29826739054E+02  0.91912300063E+02  0.80027480672E+02 0.  0.
         23    2    1    2    0    0 -0.75691666535E+02  0.13429265562E+01  0.10857709604E+03  0.16048751728E+03  0.90753653279E+02 0.  0.
         11    1    3    3    0    0 -0.17076841637E+02 -0.49085571521E+02 -0.36632527608E+02  0.63584227060E+02  0.00000000000E+00 0. -1.
        -12    1    3    3    0    0 -0.80968256307E+01  0.26279314621E+02  0.68057885542E+01  0.28328073003E+02  0.00000000000E+00 0.  1.
        -11    1    4    4    0    0 -0.91656964108E+02  0.19082176250E+02  0.93158836498E+02  0.13207459005E+03  0.00000000000E+00 0.  1.
         11    1    4    4    0    0  0.15965297574E+02 -0.17739249694E+02  0.15418259547E+02  0.28412927230E+02  0.00000000000E+00 0. -1.
          2    1    1    2  501    0  0.10086533380E+03  0.21463330345E+02 -0.12030759127E+03  0.15845632405E+03  0.00000000000E+00 0. -1.
<scales pt_clust_5="13000.00000" pt_clust_6="13000.00000" pt_clust_7="13000.00000" pt_clust_8="13000.00000" pt_clust_9="99.49928"></scales>
<clustering>
<clus scale="   80.027">  5  6 -1 -1</clus>
<clus scale="   86.938">  1  5  2 -1</clus>
<clus scale="   90.754">  7  8 -1 -1</clus>
<clus scale="   99.499">  2  9  1 -1</clus>
<clus scale="   99.499">  2  5  1 -1</clus>
</clustering>
</event>
<event>
 9    1  0.6345107E-005  0.1069253E+03  0.7546771E-02  0.1274896E+00
         -2   -1    0    0    0  501 -0.00000000000E+00  0.00000000000E+00  0.22807950986E+03  0.22807950986E+03  0.00000000000E+00 0.  1.
         21   -1    0    0  501  502  0.00000000000E+00 -0.00000000000E+00 -0.43029824317E+03  0.43029824317E+03  0.00000000000E+00 0. -1.
         23    2    1    2    0    0 -0.31231699536E+02 -0.25294650540E+02  0.19639536116E+03  0.22313195294E+03  0.97987203931E+02 0.  0.
        -24    2    1    2    0    0  0.66159158984E+02  0.57267307392E+02 -0.21376769070E+03  0.24443078183E+03  0.79957505632E+02 0.  0.
         13    1    4    4    0    0  0.57483088047E+02 -0.30501861794E+01 -0.10111479929E+03  0.11635210218E+03  0.00000000000E+00 0. -1.
        -14    1    4    4    0    0  0.86760709369E+01  0.60317493571E+02 -0.11265289141E+03  0.12807867965E+03  0.00000000000E+00 0.  1.
        -11    1    3    3    0    0 -0.41729606456E+02 -0.50207904535E+02  0.78130057230E+02  0.10181600844E+03  0.00000000000E+00 0.  1.
         11    1    3    3    0    0  0.10497906921E+02  0.24913253995E+02  0.11826530393E+03  0.12131594449E+03  0.00000000000E+00 0. -1.
         -1    1    1    2    0  502 -0.34927459448E+02 -0.31972656852E+02 -0.18484640377E+03  0.19081501827E+03  0.00000000000E+00 0.  1.
<scales pt_clust_5="13000.00000" pt_clust_6="13000.00000" pt_clust_7="13000.00000" pt_clust_8="13000.00000" pt_clust_9="47.35164"></scales>
<clustering>
<clus scale="   47.352">  2  9  1 -1</clus>
<clus scale="   79.958">  5  6 -1 -1</clus>
<clus scale="   90.690">  2  5  1 -1</clus>
<clus scale="   97.987">  7  8 -1 -1</clus>
<clus scale="   47.352">  2  5  1 -1</clus>
</clustering>
</event>
<event>
 9    1  0.6345107E-005  0.1063217E+03  0.7546771E-02  0.1270196E+00
          1   -1    0    0  502    0 -0.00000000000E+00  0.00000000000E+00  0.20601743937E+03  0.20601743937E+03  0.00000000000E+00 0. -1.
         21   -1    0    0  501  502  0.00000000000E+00 -0.00000000000E+00 -0.91299801210E+02  0.91299801210E+02  0.00000000000E+00 0. -1.
        -24    2    1    2    0    0  0.98785435943E+01 -0.49420679223E+02  0.12003457197E+03  0.15534223626E+03  0.84752125282E+02 0.  0.
         23    2    1    2    0    0 -0.35476569955E+00  0.69041644519E+02  0.10919564512E+02  0.11478477625E+03  0.91046325748E+02 0.  0.
         11    1    3    3    0    0 -0.11168009410E+02 -0.32111750011E+02  0.12329626051E+03  0.12789783727E+03  0.00000000000E+00 0. -1.
        -12    1    3    3    0    0  0.21046553004E+02 -0.17308929212E+02 -0.32616885379E+01  0.27444398990E+02  0.00000000000E+00 0.  1.
        -13    1    4    4    0    0 -0.37224913257E+02  0.39135178017E+02 -0.20592396135E+02  0.57804005952E+02  0.00000000000E+00 0.  1.
         13    1    4    4    0    0  0.36870147558E+02  0.29906466501E+02  0.31511960647E+02  0.56980770294E+02  0.00000000000E+00 0. -1.
          2    1    1    2  501    0 -0.95237778947E+01 -0.19620965295E+02 -0.16236498327E+02  0.27190228069E+02  0.00000000000E+00 0. -1.
<scales pt_clust_5="13000.00000" pt_clust_6="13000.00000" pt_clust_7="13000.00000" pt_clust_8="13000.00000" pt_clust_9="21.81020"></scales>
<clustering>
<clus scale="   21.810">  2  9  1 -1</clus>
<clus scale="   84.752">  5  6 -1 -1</clus>
<clus scale="   91.046">  7  8 -1 -1</clus>
<clus scale="  100.984">  1  5  2 -1</clus>
<clus scale="   21.810">  2  5  1 -1</clus>
</clustering>
</event>
<event>
 9    1  0.6345107E-005  0.2456272E+03  0.7546771E-02  0.1151278E+00
          1   -1    0    0  502    0 -0.00000000000E+00  0.00000000000E+00  0.13785999901E+04  0.13785999901E+04  0.00000000000E+00 0. -1.
         21   -1    0    0  501  502  0.00000000000E+00 -0.00000000000E+00 -0.88053723909E+02  0.88053723909E+02  0.00000000000E+00 0. -1.
        -24    2    1    2    0    0 -0.51109700269E+02 -0.47005876001E+02  0.39295092269E+02  0.11127376873E+03  0.77562835762E+02 0.  0.
         23    2    1    2    0    0 -0.17436619988E+03  0.13987154368E+03  0.37711670217E+03  0.44786989658E+03  0.91666879570E+02 0.  0.
         13    1    3    3    0    0 -0.50587673223E+02 -0.14213342413E+02 -0.85799820565E+01  0.53242350406E+02  0.00000000000E+00 0. -1.
        -14    1    3    3    0    0 -0.52202704588E+00 -0.32792533588E+02  0.47875074326E+02  0.58031418327E+02  0.00000000000E+00 0.  1.
        -11    1    4    4    0    0 -0.53915251433E+02  0.99040379391E+02  0.20347630060E+03  0.23263373786E+03  0.00000000000E+00 0.  1.
         11    1    4    4    0    0 -0.12045094845E+03  0.40831164294E+02  0.17364040158E+03  0.21523615872E+03  0.00000000000E+00 0. -1.
          2    1    1    2  501    0  0.22547590015E+03 -0.92865667684E+02  0.87413447179E+03  0.90751004873E+03  0.00000000000E+00 0. -1.
<scales pt_clust_5="13000.00000" pt_clust_6="13000.00000" pt_clust_7="13000.00000" pt_clust_8="13000.00000" pt_clust_9="227.88149"></scales>
<clustering>
<clus scale="   77.563">  5  6 -1 -1</clus>
<clus scale="   91.667">  7  8 -1 -1</clus>
<clus scale="  104.105">  1  5  2 -1</clus>
<clus scale="  227.881">  2  9  1 -1</clus>
<clus scale="  227.881">  2  5  1 -1</clus>
</clustering>
</event>
<event>
 9    1  0.6345107E-005  0.1855966E+03  0.7546771E-02  0.1183055E+00
          1   -1    0    0  502    0 -0.00000000000E+00  0.00000000000E+00  0.82785368172E+03  0.82785368172E+03  0.00000000000E+00 0. -1.
         21   -1    0    0  501  502  0.00000000000E+00 -0.00000000000E+00 -0.10489144883E+03  0.10489144883E+03  0.00000000000E+00 0. -1.
        -24    2    1    2    0    0 -0.43833965758E+02  0.75900797769E+02  0.47220084007E+03  0.48629326819E+03  0.76322746707E+02 0.  0.
         23    2    1    2    0    0  0.78293212418E+02 -0.20457629604E+03  0.16359183415E+03  0.28725589667E+03  0.88161068265E+02 0.  0.
         13    1    3    3    0    0 -0.64796838928E+02  0.46605706758E+02  0.34302361571E+03  0.35218734101E+03  0.00000000000E+00 0. -1.
        -14    1    3    3    0    0  0.20962873170E+02  0.29295091010E+02  0.12917722437E+03  0.13410592718E+03  0.00000000000E+00 0.  1.
        -11    1    4    4    0    0  0.81708499889E+02 -0.17873080675E+03  0.10429784783E+03  0.22248375513E+03  0.00000000000E+00 0. -1.
         11    1    4    4    0    0 -0.34152874710E+01 -0.25845489287E+02  0.59293986321E+02  0.64772141534E+02  0.00000000000E+00 0.  1.
          2    1    1    2  501    0 -0.34459246660E+02  0.12867549827E+03  0.87169558665E+02  0.15919596570E+03  0.00000000000E+00 0. -1.
<scales pt_clust_5="13000.00000" pt_clust_6="13000.00000" pt_clust_7="13000.00000" pt_clust_8="13000.00000" pt_clust_9="163.32091"></scales>
<clustering>
<clus scale="   76.323">  5  6 -1 -1</clus>
<clus scale="   88.161">  7  8 -1 -1</clus>
<clus scale="  116.222">  1  5  2 -1</clus>
<clus scale="  163.321">  2  9  1 -1</clus>
<clus scale="  163.321">  2  5  1 -1</clus>
</clustering>
</event>
<event>
 9    1  0.6345107E-005  0.9800363E+02  0.7546771E-02  0.1290363E+00
         -2   -1    0    0    0  501 -0.00000000000E+00  0.00000000000E+00  0.52682800004E+02  0.52682800004E+02  0.00000000000E+00 0.  1.
         21   -1    0    0  501  502  0.00000000000E+00 -0.00000000000E+00 -0.25361417908E+03  0.25361417908E+03  0.00000000000E+00 0.  1.
         23    2    1    2    0    0 -0.52072188570E+02  0.92494325168E+01 -0.65830652070E+02  0.12449742235E+03  0.91481520515E+02 0.  0.
        -24    2    1    2    0    0  0.17224640230E+02  0.69263133422E+01 -0.83565821611E+02  0.11752006659E+03  0.80517435760E+02 0.  0.
         11    1    4    4    0    0  0.27836795413E+02  0.14279447679E+02 -0.95157882715E+02  0.10016891957E+03  0.00000000000E+00 0. -1.
        -12    1    4    4    0    0 -0.10612155183E+02 -0.73531343363E+01  0.11592061104E+02  0.17351147017E+02  0.00000000000E+00 0.  1.
        -13    1    3    3    0    0 -0.39008441354E+02 -0.37969222597E+02 -0.21842569831E+02  0.58655078368E+02  0.00000000000E+00 0. -1.
         13    1    3    3    0    0 -0.13063747216E+02  0.47218655114E+02 -0.43988082239E+02  0.65842343983E+02  0.00000000000E+00 0.  1.
         -1    1    1    2    0  502  0.34847548340E+02 -0.16175745859E+02 -0.51534905394E+02  0.64279490145E+02  0.00000000000E+00 0.  1.
<scales pt_clust_5="13000.00000" pt_clust_6="13000.00000" pt_clust_7="13000.00000" pt_clust_8="13000.00000" pt_clust_9="38.41883"></scales>
<clustering>
<clus scale="   38.419">  2  9  1 -1</clus>
<clus scale="   80.517">  5  6 -1 -1</clus>
<clus scale="   87.857">  2  5  1 -1</clus>
<clus scale="   91.482">  7  8 -1 -1</clus>
<clus scale="   38.419">  2  5  1 -1</clus>
</clustering>
</event>
<event>
 9    1  0.6345107E-005  0.1040484E+03  0.7546771E-02  0.1277348E+00
         21   -1    0    0  501  502  0.00000000000E+00  0.00000000000E+00  0.14128695200E+03  0.14128695200E+03  0.00000000000E+00 0. -1.
          3   -1    0    0  502    0 -0.00000000000E+00 -0.00000000000E+00 -0.18316557823E+03  0.18316557823E+03  0.00000000000E+00 0. -1.
         23    2    1    2    0    0 -0.88850811356E+01 -0.56218150021E+02 -0.10077962110E+03  0.14771762448E+03  0.91785290176E+02 0.  0.
        -24    2    1    2    0    0 -0.14542220947E+02  0.15585634700E+02  0.88511429301E+02  0.12126763963E+03  0.80107297461E+02 0.  0.
         11    1    4    4    0    0 -0.47597150111E+02  0.54322788305E+01  0.57277432187E+02  0.74670627357E+02  0.00000000000E+00 0. -1.
        -12    1    4    4    0    0  0.33054929164E+02  0.10153355869E+02  0.31233997114E+02  0.46597012277E+02  0.00000000000E+00 0.  1.
        -13    1    3    3    0    0  0.27408660439E+02 -0.57652528367E+02 -0.89013276056E+02  0.10953726310E+03  0.00000000000E+00 0. -1.
         13    1    3    3    0    0 -0.36293741575E+02  0.14343783467E+01 -0.11766345049E+02  0.38180361373E+02  0.00000000000E+00 0.  1.
          4    1    1    2  501    0  0.23427302082E+02  0.40632515321E+02 -0.29610434422E+02  0.55467266120E+02  0.00000000000E+00 0. -1.
<scales pt_clust_5="13000.00000" pt_clust_6="13000.00000" pt_clust_7="13000.00000" pt_clust_8="13000.00000" pt_clust_9="46.90247"></scales>
<clustering>
<clus scale="   46.902">  1  9  2 -1</clus>
<clus scale="   80.107">  5  6 -1 -1</clus>
<clus scale="   91.785">  7  8 -1 -1</clus>
<clus scale="   93.908">  1  5  2 -1</clus>
<clus scale="   46.902">  1  5  2 -1</clus>
</clustering>
</event>
<event>
 9    1  0.6345107E-005  0.1313894E+03  0.7546771E-02  0.1228844E+00
          3   -1    0    0  502    0 -0.00000000000E+00  0.00000000000E+00  0.18537194233E+03  0.18537194233E+03  0.00000000000E+00 0. -1.
         21   -1    0    0  501  502  0.00000000000E+00 -0.00000000000E+00 -0.18895260746E+03  0.18895260746E+03  0.00000000000E+00 0.  1.
        -24    2    1    2    0    0  0.28687929828E+02  0.70764748737E+02  0.49365009338E+02  0.12023553049E+03  0.78670398905E+02 0.  0.
         23    2    1    2    0    0 -0.23564234028E+02 -0.12640876583E+03  0.22967942145E+02  0.15982669340E+03  0.92101011673E+02 0.  0.
         13    1    3    3    0    0  0.25602934394E+02  0.68532183239E+02  0.68802301677E+02  0.10042871654E+03  0.00000000000E+00 0. -1.
        -14    1    3    3    0    0  0.30849954338E+01  0.22325654985E+01 -0.19437292339E+02  0.19806813954E+02  0.00000000000E+00 0.  1.
        -11    1    4    4    0    0  0.10214997347E+02 -0.10388467680E+03 -0.13497516575E+02  0.10525471580E+03  0.00000000000E+00 0.  1.
         11    1    4    4    0    0 -0.33779231375E+02 -0.22524089032E+02  0.36465458721E+02  0.54571977596E+02  0.00000000000E+00 0. -1.
          4    1    1    2  501    0 -0.51236958004E+01  0.55644017093E+02 -0.75913616613E+02  0.94262325900E+02  0.00000000000E+00 0. -1.
<scales pt_clust_5="13000.00000" pt_clust_6="13000.00000" pt_clust_7="13000.00000" pt_clust_8="13000.00000" pt_clust_9="55.87941"></scales>
<clustering>
<clus scale="   55.879">  2  9  1 -1</clus>
<clus scale="   78.670">  5  6 -1 -1</clus>
<clus scale="   92.101">  7  8 -1 -1</clus>
<clus scale="  122.350">  1  5  2 -1</clus>
<clus scale="   55.879">  2  5  1 -1</clus>
</clustering>
</event>
<event>
 9    1  0.6345107E-005  0.1058179E+03  0.7546771E-02  0.1272220E+00
         21   -1    0    0  501  502  0.00000000000E+00  0.00000000000E+00  0.17180961893E+03  0.17180961893E+03  0.00000000000E+00 0.  1.
          3   -1    0    0  502    0 -0.00000000000E+00 -0.00000000000E+00 -0.11551738973E+03  0.11551738973E+03  0.00000000000E+00 0. -1.
         23    2    1    2    0    0  0.58204686789E+00  0.69743326540E+02 -0.42567399879E+02  0.12136986687E+03  0.89745142915E+02 0.  0.
        -24    2    1    2    0    0 -0.15064299244E+02 -0.24862636338E+02  0.66639727908E+02  0.10884204730E+03  0.80997864960E+02 0.  0.
         13    1    4    4    0    0 -0.46109465901E+02 -0.58194472993E+01  0.51584003768E+02  0.69432400630E+02  0.00000000000E+00 0. -1.
        -14    1    4    4    0    0  0.31045166657E+02 -0.19043189038E+02  0.15055724140E+02  0.39409646673E+02  0.00000000000E+00 0.  1.
        -13    1    3    3    0    0 -0.43629009405E+01  0.48062220176E+02  0.22031173604E+02  0.53050773070E+02  0.00000000000E+00 0.  1.
         13    1    3    3    0    0  0.49449478084E+01  0.21681106363E+02 -0.64598573483E+02  0.68319093803E+02  0.00000000000E+00 0. -1.
          4    1    1    2  501    0  0.14482252377E+02 -0.44880690202E+02  0.32219901168E+02  0.57115094487E+02  0.00000000000E+00 0. -1.
<scales pt_clust_5="13000.00000" pt_clust_6="13000.00000" pt_clust_7="13000.00000" pt_clust_8="13000.00000" pt_clust_9="47.15943"></scales>
<clustering>
<clus scale="   47.159">  1  9  2 -1</clus>
<clus scale="   80.998">  5  6 -1 -1</clus>
<clus scale="   89.745">  7  8 -1 -1</clus>
<clus scale="   98.508">  1  5  2 -1</clus>
<clus scale="   47.159">  1  5  2 -1</clus>
</clustering>
</event>
<event>
 9    1  0.6345107E-005  0.2522945E+03  0.7546771E-02  0.1143573E+00
          1   -1    0    0  502    0 -0.00000000000E+00  0.00000000000E+00  0.52780104620E+03  0.52780104620E+03  0.00000000000E+00 0. -1.
         21   -1    0    0  501  502  0.00000000000E+00 -0.00000000000E+00 -0.18264456070E+03  0.18264456070E+03  0.00000000000E+00 0. -1.
         23    2    1    2    0    0 -0.51191415733E+02 -0.51214525835E+02  0.11900641411E+03  0.16577346316E+03  0.89860034420E+02 0.  0.
        -24    2    1    2    0    0  0.12572547086E+03 -0.18976973513E+03  0.11065329498E+03  0.26724063009E+03  0.85755211440E+02 0.  0.
         11    1    4    4    0    0  0.13264762927E+03 -0.19302433050E+03  0.11176783736E+03  0.25951076121E+03  0.00000000000E+00 0. -1.
        -12    1    4    4    0    0 -0.69221584165E+01  0.32545953730E+01 -0.11145423780E+01  0.77298688797E+01  0.00000000000E+00 0.  1.
        -11    1    3    3    0    0 -0.40006581531E+02 -0.74731091047E+02  0.10851614679E+03  0.13769900744E+03  0.00000000000E+00 0. -1.
         11    1    3    3    0    0 -0.11184834202E+02  0.23516565213E+02  0.10490267324E+02  0.28074455721E+02  0.00000000000E+00 0.  1.
          2    1    1    2  501    0 -0.74534055124E+02  0.24098426096E+03  0.11549677641E+03  0.27743151365E+03  0.00000000000E+00 0. -1.
<scales pt_clust_5="13000.00000" pt_clust_6="13000.00000" pt_clust_7="13000.00000" pt_clust_8="13000.00000" pt_clust_9="237.27328"></scales>
<clustering>
<clus scale="   85.755">  5  6 -1 -1</clus>
<clus scale="   89.860">  7  8 -1 -1</clus>
<clus scale="  115.405">  1  7  2 -1</clus>
<clus scale="  237.273">  2  9  1 -1</clus>
<clus scale="  237.273">  2  5  1 -1</clus>
</clustering>
</event>
<event>
 9    1  0.6345107E-005  0.1445532E+03  0.7546771E-02  0.1211018E+00
         -4   -1    0    0    0  501 -0.00000000000E+00  0.00000000000E+00  0.12545339376E+03  0.12545339376E+03  0.00000000000E+00 0.  1.
         21   -1    0    0  501  502  0.00000000000E+00 -0.00000000000E+00 -0.28104368166E+03  0.28104368166E+03  0.00000000000E+00 0. -1.
        -24    2    1    2    0    0 -0.12571927334E+03  0.72246640963E+02 -0.35699432200E+02  0.16704658881E+03  0.74867887331E+02 0.  0.
         23    2    1    2    0    0  0.50149732829E+02 -0.43454748135E+02 -0.10888191591E+03  0.15783599463E+03  0.93024828686E+02 0.  0.
         13    1    3    3    0    0 -0.10484711917E+03  0.82984419246E+02 -0.46012072234E+02  0.14140877988E+03  0.00000000000E+00 0. -1.
        -14    1    3    3    0    0 -0.20872154166E+02 -0.10737778283E+02  0.10312640034E+02  0.25637808925E+02  0.00000000000E+00 0.  1.
        -11    1    4    4    0    0  0.15486198270E+02 -0.67059030731E+02 -0.48003865832E+02  0.83911304806E+02  0.00000000000E+00 0.  1.
         11    1    4    4    0    0  0.34663534559E+02  0.23604282597E+02 -0.60878050077E+02  0.73924689828E+02  0.00000000000E+00 0. -1.
         -3    1    1    2    0  502  0.75569540512E+02 -0.28791892828E+02 -0.11008939791E+02  0.81614491980E+02  0.00000000000E+00 0.  1.
<scales pt_clust_5="13000.00000" pt_clust_6="13000.00000" pt_clust_7="13000.00000" pt_clust_8="13000.00000" pt_clust_9="80.86863"></scales>
<clustering>
<clus scale="   74.868">  5  6 -1 -1</clus>
<clus scale="   80.869">  2  9  1 -1</clus>
<clus scale="   93.025">  7  8 -1 -1</clus>
<clus scale="  133.593">  1  5  2 -1</clus>
<clus scale="   80.869">  2  5  1 -1</clus>
</clustering>
</event>
<event>
 9    1  0.6345107E-005  0.9630894E+02  0.7546771E-02  0.1295100E+00
          1   -1    0    0  502    0 -0.00000000000E+00  0.00000000000E+00  0.15416853682E+03  0.15416853682E+03  0.00000000000E+00 0. -1.
         21   -1    0    0  501  502  0.00000000000E+00 -0.00000000000E+00 -0.21587069156E+03  0.21587069156E+03  0.00000000000E+00 0. -1.
        -24    2    1    2    0    0  0.28565673618E+02 -0.80387584238E+01  0.87818438693E+02  0.12307937559E+03  0.80968112094E+02 0.  0.
         23    2    1    2    0    0 -0.54922164349E+00 -0.68116862197E+02 -0.92135192166E+02  0.14757331238E+03  0.92998818979E+02 0.  0.
         11    1    3    3    0    0  0.29656958429E+02 -0.10621367764E+02  0.10296470185E+03  0.10767580259E+03  0.00000000000E+00 0. -1.
        -12    1    3    3    0    0 -0.10912848112E+01  0.25826093405E+01 -0.15146263159E+02  0.15403573002E+02  0.00000000000E+00 0.  1.
        -13    1    4    4    0    0  0.22506822184E+02 -0.50128522511E+01 -0.74680024005E+02  0.78158759701E+02  0.00000000000E+00 0.  1.
         13    1    4    4    0    0 -0.23056043827E+02 -0.63104009946E+02 -0.17455168161E+02  0.69414552680E+02  0.00000000000E+00 0. -1.
          2    1    1    2  501    0 -0.28016451975E+02  0.76155620621E+02 -0.57385401267E+02  0.99386540396E+02  0.00000000000E+00 0. -1.
<scales pt_clust_5="13000.00000" pt_clust_6="13000.00000" pt_clust_7="13000.00000" pt_clust_8="13000.00000" pt_clust_9="81.14555"></scales>
<clustering>
<clus scale="   80.968">  5  6 -1 -1</clus>
<clus scale="   81.146">  2  9  1 -1</clus>
<clus scale="   84.749">  1  5  2 -1</clus>
<clus scale="   92.999">  7  8 -1 -1</clus>
<clus scale="   81.146">  2  5  1 -1</clus>
</clustering>
</event>
<event>
 9    1  0.6345107E-005  0.1207899E+03  0.7546771E-02  0.1247353E+00
         21   -1    0    0  501  502  0.00000000000E+00  0.00000000000E+00  0.36869031347E+02  0.36869031347E+02  0.00000000000E+00 0.  1.
         -4   -1    0    0    0  501 -0.00000000000E+00 -0.00000000000E+00 -0.67342974945E+03  0.67342974945E+03  0.00000000000E+00 0.  1.
        -24    2    1    2    0    0 -0.56724968421E+01  0.72207664937E+02 -0.49955764945E+03  0.51112635876E+03  0.80288139847E+02 0.  0.
         23    2    1    2    0    0  0.25903899915E+02 -0.69031908568E+02 -0.12855771833E+03  0.17702024289E+03  0.96812514796E+02 0.  0.
         13    1    3    3    0    0 -0.36386778530E+02  0.11583126036E+02 -0.22910880822E+03  0.23226926715E+03  0.00000000000E+00 0. -1.
        -14    1    3    3    0    0  0.30714281688E+02  0.60624538901E+02 -0.27044884123E+03  0.27885709161E+03  0.00000000000E+00 0.  1.
        -11    1    4    4    0    0  0.60117167980E+02 -0.25873218151E+02 -0.57509138481E+02  0.87125187588E+02  0.00000000000E+00 0.  1.
         11    1    4    4    0    0 -0.34213268065E+02 -0.43158690417E+02 -0.71048579845E+02  0.89895055304E+02  0.00000000000E+00 0. -1.
         -3    1    1    2    0  502 -0.20231403073E+02 -0.31757563689E+01 -0.84453503327E+01  0.22152179149E+02  0.00000000000E+00 0.  1.
<scales pt_clust_5="13000.00000" pt_clust_6="13000.00000" pt_clust_7="13000.00000" pt_clust_8="13000.00000" pt_clust_9="20.47914"></scales>
<clustering>
<clus scale="   20.479">  1  9  2 -1</clus>
<clus scale="   80.288">  5  6 -1 -1</clus>
<clus scale="   96.813">  7  8 -1 -1</clus>
<clus scale="  107.999">  2  5  1 -1</clus>
<clus scale="   20.479">  1  5  2 -1</clus>
</clustering>
</event>
<event>
 9    1  0.6345107E-005  0.1099069E+03  0.7546771E-02  0.1264411E+00
         21   -1    0    0  501  502  0.00000000000E+00  0.00000000000E+00  0.70437466323E+03  0.70437466323E+03  0.00000000000E+00 0.  1.
         -2   -1    0    0    0  501 -0.00000000000E+00 -0.00000000000E+00 -0.28349885296E+02  0.28349885296E+02  0.00000000000E+00 0.  1.
         23    2    1    2    0    0 -0.52151792471E+02 -0.51388596194E+01  0.16100343418E+03  0.19129213384E+03  0.89018859323E+02 0.  0.
        -24    2    1    2    0    0  0.91387464278E+02  0.21333569443E+02  0.41362666597E+03  0.43151159204E+03  0.79425722846E+02 0.  0.
         11    1    4    4    0    0  0.99613425668E+02  0.20199117012E+01  0.30455807622E+03  0.32044115904E+03  0.00000000000E+00 0. -1.
        -12    1    4    4    0    0 -0.82259613901E+01  0.19313657742E+02  0.10906858975E+03  0.11107043300E+03  0.00000000000E+00 0.  1.
        -13    1    3    3    0    0 -0.43729458849E+02 -0.34056742069E+02  0.14881171894E+03  0.15879878760E+03  0.00000000000E+00 0.  1.
         13    1    3    3    0    0 -0.84223336218E+01  0.28917882450E+02  0.12191715242E+02  0.32493346235E+02  0.00000000000E+00 0. -1.
         -1    1    1    2    0  502 -0.39235671807E+02 -0.16194709824E+02  0.10139467779E+03  0.10992082265E+03  0.00000000000E+00 0.  1.
<scales pt_clust_5="13000.00000" pt_clust_6="13000.00000" pt_clust_7="13000.00000" pt_clust_8="13000.00000" pt_clust_9="42.44654"></scales>
<clustering>
<clus scale="   42.447">  1  9  2 -1</clus>
<clus scale="   79.426">  5  6 -1 -1</clus>
<clus scale="   89.019">  7  8 -1 -1</clus>
<clus scale="  102.292">  1  5  2 -1</clus>
<clus scale="   42.447">  1  5  2 -1</clus>
</clustering>
</event>
<event>
 9    1  0.6345107E-005  0.2192650E+03  0.7546771E-02  0.1134432E+00
         -4   -1    0    0    0  501 -0.00000000000E+00  0.00000000000E+00  0.58174057365E+03  0.58174057365E+03  0.00000000000E+00 0.  1.
         21   -1    0    0  501  502  0.00000000000E+00 -0.00000000000E+00 -0.70213203927E+02  0.70213203927E+02  0.00000000000E+00 0.  1.
        -24    2    1    2    0    0  0.79099321458E+02  0.35606304094E+02  0.35524518972E+03  0.37430828887E+03  0.79893921876E+02 0.  0.
         23    2    1    2    0    0  0.93841353679E+01  0.16743582066E+02  0.14784812637E+03  0.17449043079E+03  0.90661085524E+02 0.  0.
         13    1    3    3    0    0  0.29318844865E+02  0.22527062674E+02  0.38389084876E+02  0.53299015512E+02  0.00000000000E+00 0. -1.
        -14    1    3    3    0    0  0.49780476593E+02  0.13079241420E+02  0.31685610485E+03  0.32100927336E+03  0.00000000000E+00 0.  1.
        -13    1    4    4    0    0  0.12094329044E+02 -0.32881182615E+02  0.28346351595E+02  0.45066180379E+02  0.00000000000E+00 0. -1.
         13    1    4    4    0    0 -0.27101936758E+01  0.49624764681E+02  0.11950177478E+03  0.12942425041E+03  0.00000000000E+00 0.  1.
         -3    1    1    2    0  502 -0.88483456826E+02 -0.52349886160E+02  0.84340536295E+01  0.10315505791E+03  0.00000000000E+00 0.  1.
<scales pt_clust_5="13000.00000" pt_clust_6="13000.00000" pt_clust_7="13000.00000" pt_clust_8="13000.00000" pt_clust_9="102.80969"></scales>
<clustering>
<clus scale="   79.894">  5  6 -1 -1</clus>
<clus scale="   90.661">  7  8 -1 -1</clus>
<clus scale="   91.504">  5  7 -1 -1</clus>
<clus scale="  102.810">  2  9  1 -1</clus>
<clus scale="  102.810">  2  5  1 -1</clus>
</clustering>
</event>
<event>
 9    1  0.6345107E-005  0.1557812E+03  0.7546771E-02  0.1206856E+00
          3   -1    0    0  502    0 -0.00000000000E+00  0.00000000000E+00  0.31317213021E+03  0.31317213021E+03  0.00000000000E+00 0. -1.
         21   -1    0    0  501  502  0.00000000000E+00 -0.00000000000E+00 -0.19947084566E+03  0.19947084566E+03  0.00000000000E+00 0. -1.
        -24    2    1    2    0    0 -0.83357427821E+02  0.17666510510E+02  0.13287089247E+03  0.17682860921E+03  0.79706440164E+02 0.  0.
         23    2    1    2    0    0  0.42569565478E+02  0.11508350882E+03  0.75881042287E+02  0.16752638893E+03  0.85151491487E+02 0.  0.
         13    1    3    3    0    0 -0.27136006417E+02  0.34907148206E+02  0.10028300607E+03  0.10959723147E+03  0.00000000000E+00 0. -1.
        -14    1    3    3    0    0 -0.56221421404E+02 -0.17240637696E+02  0.32587886402E+02  0.67231377741E+02  0.00000000000E+00 0.  1.
        -13    1    4    4    0    0  0.43334787496E+02  0.12097996072E+02  0.33795810294E+02  0.56270970400E+02  0.00000000000E+00 0.  1.
         13    1    4    4    0    0 -0.76522201830E+00  0.10298551275E+03  0.42085231994E+02  0.11125541853E+03  0.00000000000E+00 0. -1.
          4    1    1    2  501    0  0.40787862342E+02 -0.13275001933E+03 -0.95050650199E+02  0.16828797773E+03  0.00000000000E+00 0. -1.
<scales pt_clust_5="13000.00000" pt_clust_6="13000.00000" pt_clust_7="13000.00000" pt_clust_8="13000.00000" pt_clust_9="130.44919"></scales>
<clustering>
<clus scale="   79.706">  5  6 -1 -1</clus>
<clus scale="   85.151">  7  8 -1 -1</clus>
<clus scale="  116.678">  1  5  2 -1</clus>
<clus scale="  130.449">  2  9  1 -1</clus>
<clus scale="  130.449">  2  5  1 -1</clus>
</clustering>
</event>
<event>
 9    1  0.6345107E-005  0.2690575E+03  0.7546771E-02  0.1134093E+00
         21   -1    0    0  501  502  0.00000000000E+00  0.00000000000E+00  0.17955585848E+03  0.17955585848E+03  0.00000000000E+00 0. -1.
          1   -1    0    0  502    0 -0.00000000000E+00 -0.00000000000E+00 -0.81516587326E+03  0.81516587326E+03  0.00000000000E+00 0. -1.
        -24    2    1    2    0    0 -0.86217655416E+02  0.21747847360E+02 -0.38895258864E+03  0.40694205038E+03  0.80070363996E+02 0.  0.
         23    2    1    2    0    0 -0.17375967610E+03  0.10584871390E+03 -0.18909049783E+03  0.29251192731E+03  0.91714971377E+02 0.  0.
         13    1    3    3    0    0 -0.10147360161E+03  0.21280478023E+02 -0.35226418691E+03  0.36720540294E+03  0.00000000000E+00 0. -1.
        -14    1    3    3    0    0  0.15255946198E+02  0.46736933739E+00 -0.36688401725E+02  0.39736647439E+02  0.00000000000E+00 0.  1.
        -11    1    4    4    0    0 -0.52847289832E+02  0.10717561885E+02 -0.10287825391E+03  0.11615350750E+03  0.00000000000E+00 0.  1.
         11    1    4    4    0    0 -0.12091238627E+03  0.95131152019E+02 -0.86212243913E+02  0.17635841981E+03  0.00000000000E+00 0. -1.
          2    1    1    2  501    0  0.25997733152E+03 -0.12759656126E+03 -0.57566928317E+02  0.29526775405E+03  0.00000000000E+00 0. -1.
<scales pt_clust_5="13000.00000" pt_clust_6="13000.00000" pt_clust_7="13000.00000" pt_clust_8="13000.00000" pt_clust_9="252.94332"></scales>
<clustering>
<clus scale="   80.070">  5  6 -1 -1</clus>
<clus scale="   91.715">  7  8 -1 -1</clus>
<clus scale="  119.657">  2  5  1 -1</clus>
<clus scale="  252.943">  1  9  2 -1</clus>
<clus scale="  252.943">  1  5  2 -1</clus>
</clustering>
</event>
<event>
 9    1  0.6345107E-005  0.2511987E+03  0.7546771E-02  0.1147682E+00
          1   -1    0    0  502    0 -0.00000000000E+00  0.00000000000E+00  0.10104658610E+03  0.10104658610E+03  0.00000000000E+00 0. -1.
         21   -1    0    0  501  502  0.00000000000E+00 -0.00000000000E+00 -0.13058561224E+04  0.13058561224E+04  0.00000000000E+00 0. -1.
        -24    2    1    2    0    0 -0.34371700566E+02 -0.56670542584E+02 -0.27399160319E+02  0.10947926447E+03  0.82716571296E+02 0.  0.
         23    2    1    2    0    0  0.23780988602E+03 -0.28968653489E+02 -0.93342318018E+03  0.96840837002E+03  0.95620149913E+02 0.  0.
         13    1    3    3    0    0  0.56658001009E+01 -0.23466211639E+02  0.25622891154E+02  0.35203649393E+02  0.00000000000E+00 0. -1.
        -14    1    3    3    0    0 -0.40037500667E+02 -0.33204330945E+02 -0.53022051473E+02  0.74275615081E+02  0.00000000000E+00 0.  1.
        -11    1    4    4    0    0  0.19565189063E+03  0.88180600651E+01 -0.62970390628E+03  0.65945767876E+03  0.00000000000E+00 0. -1.
         11    1    4    4    0    0  0.42157995383E+02 -0.37786713554E+02 -0.30371927390E+03  0.30895069127E+03  0.00000000000E+00 0.  1.
          2    1    1    2  501    0 -0.20343818545E+03  0.85639196073E+02 -0.24398719579E+03  0.32901507399E+03  0.00000000000E+00 0. -1.
<scales pt_clust_5="13000.00000" pt_clust_6="13000.00000" pt_clust_7="13000.00000" pt_clust_8="13000.00000" pt_clust_9="232.28782"></scales>
<clustering>
<clus scale="   82.717">  5  6 -1 -1</clus>
<clus scale="   95.620">  7  8 -1 -1</clus>
<clus scale="  105.995">  1  5  2 -1</clus>
<clus scale="  232.288">  2  9  1 -1</clus>
<clus scale="  232.288">  2  5  1 -1</clus>
</clustering>
</event>
<event>
 9    1  0.6345107E-005  0.1603450E+03  0.7546771E-02  0.1190294E+00
         -2   -1    0    0    0  501 -0.00000000000E+00  0.00000000000E+00  0.36991486356E+03  0.36991486356E+03  0.00000000000E+00 0.  1.
         21   -1    0    0  501  502  0.00000000000E+00 -0.00000000000E+00 -0.13365695121E+03  0.13365695121E+03  0.00000000000E+00 0.  1.
        -24    2    1    2    0    0 -0.12912045969E+03 -0.42298532888E+02  0.23225747314E+03  0.28043600461E+03  0.78990884645E+02 0.  0.
         23    2    1    2    0    0  0.11091056309E+03  0.22261574362E+02 -0.57028555374E+02  0.15637041329E+03  0.91666347832E+02 0.  0.
         11    1    3    3    0    0 -0.54159582099E+02 -0.52573860619E+02  0.77554737224E+02  0.10822203297E+03  0.00000000000E+00 0. -1.
        -12    1    3    3    0    0 -0.74960877588E+02  0.10275327730E+02  0.15470273592E+03  0.17221397164E+03  0.00000000000E+00 0.  1.
        -11    1    4    4    0    0  0.64867580130E+02 -0.30677095999E+02 -0.11342661045E+02  0.72646700754E+02  0.00000000000E+00 0.  1.
         11    1    4    4    0    0  0.46042982963E+02  0.52938670361E+02 -0.45685894330E+02  0.83723712533E+02  0.00000000000E+00 0. -1.
         -1    1    1    2    0  502  0.18209896594E+02  0.20036958526E+02  0.61028994578E+02  0.66765396877E+02  0.00000000000E+00 0.  1.
<scales pt_clust_5="13000.00000" pt_clust_6="13000.00000" pt_clust_7="13000.00000" pt_clust_8="13000.00000" pt_clust_9="27.07546"></scales>
<clustering>
<clus scale="   27.075">  2  9  1 -1</clus>
<clus scale="   78.991">  5  6 -1 -1</clus>
<clus scale="   91.666">  7  8 -1 -1</clus>
<clus scale="  153.451">  1  5  2 -1</clus>
<clus scale="   27.075">  2  5  1 -1</clus>
</clustering>
</event>
<event>
 9    1  0.6345107E-005  0.1298482E+03  0.7546771E-02  0.1232200E+00
         21   -1    0    0  501  502  0.00000000000E+00  0.00000000000E+00  0.25475747209E+02  0.25475747209E+02  0.00000000000E+00 0.  1.
          1   -1    0    0  502    0 -0.00000000000E+00 -0.00000000000E+00 -0.10999947927E+04  0.10999947927E+04  0.00000000000E+00 0. -1.
        -24    2    1    2    0    0 -0.81668556472E+02  0.17092553824E+02 -0.69427849972E+03  0.70339304349E+03  0.76008091389E+02 0.  0.
         23    2    1    2    0    0  0.11162089900E+03 -0.25766352467E+02 -0.34374630801E+03  0.37407534025E+03  0.92993042206E+02 0.  0.
         11    1    3    3    0    0 -0.82880003462E+02 -0.22240817066E+01 -0.40126094220E+03  0.40973697081E+03  0.00000000000E+00 0. -1.
        -12    1    3    3    0    0  0.12114469899E+01  0.19316635531E+02 -0.29301755752E+03  0.29365607269E+03  0.00000000000E+00 0.  1.
        -13    1    4    4    0    0  0.79058899017E+02 -0.26162254719E+02 -0.32703954604E+03  0.33747538838E+03  0.00000000000E+00 0. -1.
         13    1    4    4    0    0  0.32561999986E+02  0.39590225169E+00 -0.16706761973E+02  0.36599951876E+02  0.00000000000E+00 0.  1.
          2    1    1    2  501    0 -0.29952342531E+02  0.86737986426E+01 -0.36494237747E+02  0.48002156147E+02  0.00000000000E+00 0. -1.
<scales pt_clust_5="13000.00000" pt_clust_6="13000.00000" pt_clust_7="13000.00000" pt_clust_8="13000.00000" pt_clust_9="31.18297"></scales>
<clustering>
<clus scale="   31.183">  1  9  2 -1</clus>
<clus scale="   76.008">  5  6 -1 -1</clus>
<clus scale="   92.993">  7  8 -1 -1</clus>
<clus scale="  118.280">  2  5  1 -1</clus>
<clus scale="   31.183">  1  5  2 -1</clus>
</clustering>
</event>
<event>
 9    1  0.6345107E-005  0.1027210E+03  0.7546771E-02  0.1283108E+00
         21   -1    0    0  501  502  0.00000000000E+00  0.00000000000E+00  0.11379695630E+03  0.11379695630E+03  0.00000000000E+00 0.  1.
          1   -1    0    0  502    0 -0.00000000000E+00 -0.00000000000E+00 -0.15576762245E+03  0.15576762245E+03  0.00000000000E+00 0. -1.
        -24    2    1    2    0    0  0.21018248893E+02  0.40284069227E+02 -0.52131703788E+02  0.10076027029E+03  0.73282634424E+02 0.  0.
         23    2    1    2    0    0  0.22824123066E+02 -0.65363638845E+02  0.23217481625E+02  0.11663526476E+03  0.90947169587E+02 0.  0.
         11    1    3    3    0    0  0.41671571672E+02  0.48434063596E+02 -0.36235866652E+02  0.73453498446E+02  0.00000000000E+00 0. -1.
        -12    1    3    3    0    0 -0.20653322778E+02 -0.81499943694E+01 -0.15895837136E+02  0.27306771839E+02  0.00000000000E+00 0.  1.
        -13    1    4    4    0    0  0.26947542153E+02 -0.86419011009E+02  0.27800834720E+02  0.94695838890E+02  0.00000000000E+00 0.  1.
         13    1    4    4    0    0 -0.41234190870E+01  0.21055372164E+02 -0.45833530953E+01  0.21939425871E+02  0.00000000000E+00 0. -1.
          2    1    1    2  501    0 -0.43842371959E+02  0.25079569619E+02 -0.13056443996E+02  0.52169043705E+02  0.00000000000E+00 0. -1.
<scales pt_clust_5="13000.00000" pt_clust_6="13000.00000" pt_clust_7="13000.00000" pt_clust_8="13000.00000" pt_clust_9="50.50882"></scales>
<clustering>
<clus scale="   50.509">  1  9  2 -1</clus>
<clus scale="   73.283">  5  6 -1 -1</clus>
<clus scale="   87.468">  2  5  1 -1</clus>
<clus scale="   90.947">  7  8 -1 -1</clus>
<clus scale="   50.509">  1  5  2 -1</clus>
</clustering>
</event>
<event>
 9    1  0.6345107E-005  0.1080692E+03  0.7546771E-02  0.1267893E+00
         21   -1    0    0  501  502  0.00000000000E+00  0.00000000000E+00  0.19716853978E+03  0.19716853978E+03  0.00000000000E+00 0. -1.
          1   -1    0    0  502    0 -0.00000000000E+00 -0.00000000000E+00 -0.80479273815E+02  0.80479273815E+02  0.00000000000E+00 0. -1.
        -24    2    1    2    0    0  0.70884030368E+01 -0.50648222926E+02  0.44802755577E+02  0.10574908509E+03  0.80994408127E+02 0.  0.
         23    2    1    2    0    0 -0.41566866629E+02  0.61992290511E+02  0.68075696562E+02  0.13540250098E+03  0.90159238711E+02 0.  0.
         13    1    3    3    0    0 -0.24188431365E+02 -0.66043204745E+01 -0.11620542484E+02  0.27635742589E+02  0.00000000000E+00 0. -1.
        -14    1    3    3    0    0  0.31276834402E+02 -0.44043902451E+02  0.56423298060E+02  0.78113342505E+02  0.00000000000E+00 0.  1.
        -13    1    4    4    0    0 -0.34482796228E+02 -0.56358956288E+01  0.56492745091E+02  0.66424820685E+02  0.00000000000E+00 0.  1.
         13    1    4    4    0    0 -0.70840704016E+01  0.67628186140E+02  0.11582951472E+02  0.68977680295E+02  0.00000000000E+00 0. -1.
          2    1    1    2  501    0  0.34478463593E+02 -0.11344067586E+02  0.38108138236E+01  0.36496227519E+02  0.00000000000E+00 0. -1.
<scales pt_clust_5="13000.00000" pt_clust_6="13000.00000" pt_clust_7="13000.00000" pt_clust_8="13000.00000" pt_clust_9="36.29674"></scales>
<clustering>
<clus scale="   36.297">  1  9  2 -1</clus>
<clus scale="   80.994">  5  6 -1 -1</clus>
<clus scale="   90.159">  7  8 -1 -1</clus>
<clus scale="  100.550">  2  5  1 -1</clus>
<clus scale="   36.297">  1  5  2 -1</clus>
</clustering>
</event>
<event>
 9    1  0.6345107E-005  0.1055215E+03  0.7546771E-02  0.1272581E+00
         21   -1    0    0  501  502  0.00000000000E+00  0.00000000000E+00  0.23790410293E+03  0.23790410293E+03  0.00000000000E+00 0.  1.
         -2   -1    0    0    0  501 -0.00000000000E+00 -0.00000000000E+00 -0.17196793410E+03  0.17196793410E+03  0.00000000000E+00 0.  1.
         23    2    1    2    0    0 -0.62486914832E+02 -0.12874714694E+02 -0.12113478546E+03  0.16359473415E+03  0.89550142333E+02 0.  0.
        -24    2    1    2    0    0  0.29073324910E+02 -0.25455806323E+02  0.56893041923E+02  0.10652042219E+03  0.81342029888E+02 0.  0.
         13    1    4    4    0    0  0.55475270516E+02 -0.22631186950E+02  0.52389616814E+02  0.79588618605E+02  0.00000000000E+00 0. -1.
        -14    1    4    4    0    0 -0.26401945606E+02 -0.28246193728E+01  0.45034251093E+01  0.26931803580E+02  0.00000000000E+00 0.  1.
        -11    1    3    3    0    0 -0.56324099316E+02 -0.33042116090E+02 -0.12603291414E+03  0.14194534528E+03  0.00000000000E+00 0.  1.
         11    1    3    3    0    0 -0.61628155158E+01  0.20167401397E+02  0.48981286827E+01  0.21649388877E+02  0.00000000000E+00 0. -1.
         -1    1    1    2    0  502  0.33413589922E+02  0.38330521017E+02  0.13017791236E+03  0.13975688069E+03  0.00000000000E+00 0.  1.
<scales pt_clust_5="13000.00000" pt_clust_6="13000.00000" pt_clust_7="13000.00000" pt_clust_8="13000.00000" pt_clust_9="50.84975"></scales>
<clustering>
<clus scale="   50.850">  1  9  2 -1</clus>
<clus scale="   81.342">  5  6 -1 -1</clus>
<clus scale="   89.550">  7  8 -1 -1</clus>
<clus scale="   98.651">  1  5  2 -1</clus>
<clus scale="   50.850">  1  5  2 -1</clus>
</clustering>
</event>
<event>
 9    1  0.6345107E-005  0.1909294E+03  0.7546771E-02  0.1179427E+00
         21   -1    0    0  501  502  0.00000000000E+00  0.00000000000E+00  0.43187095868E+03  0.43187095868E+03  0.00000000000E+00 0. -1.
          3   -1    0    0  502    0 -0.00000000000E+00 -0.00000000000E+00 -0.20921619842E+03  0.20921619842E+03  0.00000000000E+00 0. -1.
        -24    2    1    2    0    0 -0.56518534779E+02  0.68234761098E+02  0.10229350811E+03  0.15451429186E+03  0.74567936746E+02 0.  0.
         23    2    1    2    0    0  0.17838258443E+03  0.56259092631E+00  0.23264915682E+03  0.30715019171E+03  0.91623944254E+02 0.  0.
         13    1    3    3    0    0 -0.75074328227E+01  0.60825107342E+02  0.33870057075E+02  0.70023110449E+02  0.00000000000E+00 0. -1.
        -14    1    3    3    0    0 -0.49011101956E+02  0.74096537556E+01  0.68423451040E+02  0.84491181409E+02  0.00000000000E+00 0.  1.
        -11    1    4    4    0    0  0.93829717416E+02 -0.20314745560E+02  0.18362718358E+03  0.20720918731E+03  0.00000000000E+00 0. -1.
         11    1    4    4    0    0  0.84552867017E+02  0.20877336487E+02  0.49021973242E+02  0.99941004398E+02  0.00000000000E+00 0.  1.
          4    1    1    2  501    0 -0.12186404965E+03 -0.68797352024E+02 -0.11228790467E+03  0.17942267354E+03  0.00000000000E+00 0. -1.
<scales pt_clust_5="13000.00000" pt_clust_6="13000.00000" pt_clust_7="13000.00000" pt_clust_8="13000.00000" pt_clust_9="167.50861"></scales>
<clustering>
<clus scale="   74.568">  5  6 -1 -1</clus>
<clus scale="   91.624">  7  8 -1 -1</clus>
<clus scale="  115.805">  2  5  1 -1</clus>
<clus scale="  167.509">  1  9  2 -1</clus>
<clus scale="  167.509">  1  5  2 -1</clus>
</clustering>
</event>
<event>
 9    1  0.6345107E-005  0.9565579E+02  0.7546771E-02  0.1297606E+00
         -2   -1    0    0    0  501 -0.00000000000E+00  0.00000000000E+00  0.25553115754E+03  0.25553115754E+03  0.00000000000E+00 0.  1.
         21   -1    0    0  501  502  0.00000000000E+00 -0.00000000000E+00 -0.17241356377E+03  0.17241356377E+03  0.00000000000E+00 0.  1.
         23    2    1    2    0    0 -0.25185138905E+02  0.67512130818E+01  0.21941734401E+03  0.23969504118E+03  0.92897103355E+02 0.  0.
        -24    2    1    2    0    0  0.34925483980E+01  0.73478254039E+01 -0.41380891761E+02  0.89868070756E+02  0.79358071461E+02 0.  0.
         11    1    4    4    0    0  0.34246719614E+02  0.22903030808E+02 -0.81605697603E+01  0.41999780039E+02  0.00000000000E+00 0. -1.
        -12    1    4    4    0    0 -0.30754171216E+02 -0.15555205404E+02 -0.33220322001E+02  0.47868290717E+02  0.00000000000E+00 0.  1.
        -13    1    3    3    0    0 -0.36093315615E+02 -0.26721184081E+02  0.18532364381E+03  0.19068718381E+03  0.00000000000E+00 0.  1.
         13    1    3    3    0    0  0.10908176710E+02  0.33472397163E+02  0.34093700196E+02  0.49007857371E+02  0.00000000000E+00 0. -1.
         -1    1    1    2    0  502  0.21692590507E+02 -0.14099038486E+02 -0.94918858474E+02  0.98381609374E+02  0.00000000000E+00 0.  1.
<scales pt_clust_5="13000.00000" pt_clust_6="13000.00000" pt_clust_7="13000.00000" pt_clust_8="13000.00000" pt_clust_9="25.87183"></scales>
<clustering>
<clus scale="   25.872">  2  9  1 -1</clus>
<clus scale="   79.358">  5  6 -1 -1</clus>
<clus scale="   82.570">  2  5  1 -1</clus>
<clus scale="   92.897">  7  8 -1 -1</clus>
<clus scale="   25.872">  2  5  1 -1</clus>
</clustering>
</event>
<event>
 9    1  0.6345107E-005  0.3433707E+03  0.7546771E-02  0.1065369E+00
          1   -1    0    0  502    0 -0.00000000000E+00  0.00000000000E+00  0.87166582184E+03  0.87166582184E+03  0.00000000000E+00 0. -1.
         21   -1    0    0  501  502  0.00000000000E+00 -0.00000000000E+00 -0.10660661052E+03  0.10660661052E+03  0.00000000000E+00 0. -1.
        -24    2    1    2    0    0  0.84583486112E+02  0.17080151866E+03  0.31197860018E+03  0.37381337179E+03  0.77963228877E+02 0.  0.
         23    2    1    2    0    0  0.85136997390E+02  0.33940520335E+02  0.10238743969E+03  0.16433402657E+03  0.90123344567E+02 0.  0.
         11    1    3    3    0    0  0.83974340981E+02  0.16932349788E+03  0.31671018137E+03  0.36881902860E+03  0.00000000000E+00 0. -1.
        -12    1    3    3    0    0  0.60914513088E+00  0.14780207815E+01 -0.47315811927E+01  0.49943431805E+01  0.00000000000E+00 0.  1.
        -13    1    4    4    0    0  0.54063046888E+02  0.62047404606E+02  0.86845621727E+02  0.11964470515E+03  0.00000000000E+00 0.  1.
         13    1    4    4    0    0  0.31073950502E+02 -0.28106884270E+02  0.15541817966E+02  0.44689321418E+02  0.00000000000E+00 0. -1.
          2    1    1    2  501    0 -0.16972048350E+03 -0.20474203900E+03  0.35069317146E+03  0.44012503401E+03  0.00000000000E+00 0. -1.
<scales pt_clust_5="13000.00000" pt_clust_6="13000.00000" pt_clust_7="13000.00000" pt_clust_8="13000.00000" pt_clust_9="265.94062"></scales>
<clustering>
<clus scale="   77.963">  5  6 -1 -1</clus>
<clus scale="   90.123">  7  8 -1 -1</clus>
<clus scale="  124.971">  5  7 -1 -1</clus>
<clus scale="  265.941">  2  9  1 -1</clus>
<clus scale="  265.941">  2  5  1 -1</clus>
</clustering>
</event>
<event>
 9    1  0.6345107E-005  0.1172119E+03  0.7546771E-02  0.1250094E+00
          1   -1    0    0  502    0 -0.00000000000E+00  0.00000000000E+00  0.18230091506E+03  0.18230091506E+03  0.00000000000E+00 0. -1.
         21   -1    0    0  501  502  0.00000000000E+00 -0.00000000000E+00 -0.21409402181E+03  0.21409402181E+03  0.00000000000E+00 0. -1.
        -24    2    1    2    0    0  0.26966249031E+02 -0.57456869623E+02  0.66322209614E+02  0.12695209039E+03  0.87691090263E+02 0.  0.
         23    2    1    2    0    0 -0.31384782204E+01  0.10988265782E+03 -0.13743917816E+03  0.19971055814E+03  0.94396667345E+02 0.  0.
         11    1    3    3    0    0  0.36617603883E+02 -0.76211347669E+02  0.40915954109E+02  0.93931537453E+02  0.00000000000E+00 0. -1.
        -12    1    3    3    0    0 -0.96513548518E+01  0.18754478046E+02  0.25406255505E+02  0.33020552933E+02  0.00000000000E+00 0.  1.
        -11    1    4    4    0    0 -0.29199586268E+02  0.11170006692E+03 -0.93387276230E+02  0.14849479502E+03  0.00000000000E+00 0. -1.
         11    1    4    4    0    0  0.26061108047E+02 -0.18174090953E+01 -0.44051901931E+02  0.51215763122E+02  0.00000000000E+00 0.  1.
          2    1    1    2  501    0 -0.23827770810E+02 -0.52425788197E+02  0.39323861793E+02  0.69732288333E+02  0.00000000000E+00 0. -1.
<scales pt_clust_5="13000.00000" pt_clust_6="13000.00000" pt_clust_7="13000.00000" pt_clust_8="13000.00000" pt_clust_9="57.58671"></scales>
<clustering>
<clus scale="   57.587">  2  9  1 -1</clus>
<clus scale="   87.691">  5  6 -1 -1</clus>
<clus scale="   94.397">  7  8 -1 -1</clus>
<clus scale="  111.882">  1  5  2 -1</clus>
<clus scale="   57.587">  2  5  1 -1</clus>
</clustering>
</event>
<event>
 9    1  0.6345107E-005  0.9547612E+02  0.7546771E-02  0.1293805E+00
          3   -1    0    0  502    0 -0.00000000000E+00  0.00000000000E+00  0.39836991179E+02  0.39836991179E+02  0.00000000000E+00 0. -1.
         21   -1    0    0  501  502  0.00000000000E+00 -0.00000000000E+00 -0.35846147456E+03  0.35846147456E+03  0.00000000000E+00 0.  1.
         23    2    1    2    0    0 -0.28993397938E+02 -0.19307053624E+02 -0.84521238430E+02  0.12931523467E+03  0.91461525951E+02 0.  0.
        -24    2    1    2    0    0  0.11500542888E+02  0.23046262158E+01 -0.22842541220E+03  0.24393686805E+03  0.84790641377E+02 0.  0.
         11    1    4    4    0    0 -0.36002215935E+02  0.90049288740E+01 -0.86571473197E+02  0.94190595432E+02  0.00000000000E+00 0. -1.
        -12    1    4    4    0    0  0.47502758824E+02 -0.67003026582E+01 -0.14185393900E+03  0.14974627261E+03  0.00000000000E+00 0.  1.
        -11    1    3    3    0    0  0.14649538264E+02  0.25291497968E+02 -0.50227913162E+02  0.58112925424E+02  0.00000000000E+00 0.  1.
         11    1    3    3    0    0 -0.43642936202E+02 -0.44598551592E+02 -0.34293325269E+02  0.71202309249E+02  0.00000000000E+00 0. -1.
          4    1    1    2  501    0  0.17492855049E+02  0.17002427409E+02 -0.56778327486E+01  0.25046363015E+02  0.00000000000E+00 0. -1.
<scales pt_clust_5="13000.00000" pt_clust_6="13000.00000" pt_clust_7="13000.00000" pt_clust_8="13000.00000" pt_clust_9="24.39433"></scales>
<clustering>
<clus scale="   24.394">  2  9  1 -1</clus>
<clus scale="   84.791">  5  6 -1 -1</clus>
<clus scale="   89.106">  2  5  1 -1</clus>
<clus scale="   91.462">  7  8 -1 -1</clus>
<clus scale="   24.394">  2  5  1 -1</clus>
</clustering>
</event>
<event>
 9    1  0.6345107E-005  0.1053674E+03  0.7546771E-02  0.1274040E+00
         -4   -1    0    0    0  501 -0.00000000000E+00  0.00000000000E+00  0.23197049426E+03  0.23197049426E+03  0.00000000000E+00 0.  1.
         21   -1    0    0  501  502  0.00000000000E+00 -0.00000000000E+00 -0.11602026424E+03  0.11602026424E+03  0.00000000000E+00 0. -1.
         23    2    1    2    0    0 -0.83018472391E+01 -0.10933661281E+02  0.16329627626E+03  0.18963182417E+03  0.95425831309E+02 0.  0.
        -24    2    1    2    0    0  0.24273746358E+02 -0.95983150626E+01 -0.66002162277E+02  0.12634777565E+03  0.10452814249E+03 0.  0.
         11    1    4    4    0    0  0.26658715989E+02 -0.51531854509E+02 -0.60774529938E+02  0.84022393780E+02  0.00000000000E+00 0. -1.
        -12    1    4    4    0    0 -0.23849696309E+01  0.41933539446E+02 -0.52276323382E+01  0.42325381870E+02  0.00000000000E+00 0.  1.
        -13    1    3    3    0    0 -0.49473976568E+02 -0.58341755359E+01  0.11865935072E+03  0.12869247637E+03  0.00000000000E+00 0. -1.
         13    1    3    3    0    0  0.41172129329E+02 -0.50994857446E+01  0.44636925544E+02  0.60939347800E+02  0.00000000000E+00 0.  1.
         -3    1    1    2    0  502 -0.15971899119E+02  0.20531976343E+02  0.18656116035E+02  0.32011158672E+02  0.00000000000E+00 0.  1.
<scales pt_clust_5="13000.00000" pt_clust_6="13000.00000" pt_clust_7="13000.00000" pt_clust_8="13000.00000" pt_clust_9="26.01277"></scales>
<clustering>
<clus scale="   26.013">  2  9  1 -1</clus>
<clus scale="   95.426">  7  8 -1 -1</clus>
<clus scale="   96.344">  1  7  2 -1</clus>
<clus scale="  104.528">  5  6 -1 -1</clus>
<clus scale="   26.013">  2  5  1 -1</clus>
</clustering>
</event>
<event>
 9    1  0.6345107E-005  0.1980214E+03  0.7546771E-02  0.1170240E+00
         21   -1    0    0  501  502  0.00000000000E+00  0.00000000000E+00  0.27249617591E+03  0.27249617591E+03  0.00000000000E+00 0. -1.
          1   -1    0    0  502    0 -0.00000000000E+00 -0.00000000000E+00 -0.58254350966E+03  0.58254350966E+03  0.00000000000E+00 0. -1.
        -24    2    1    2    0    0  0.69790287675E+02  0.69846184737E+02 -0.41849677465E+03  0.43759010602E+03  0.81218081193E+02 0.  0.
         23    2    1    2    0    0 -0.16832790364E+02  0.14910444992E+03  0.70929328800E+02  0.18908225319E+03  0.90585037242E+02 0.  0.
         13    1    3    3    0    0  0.68356373802E+02  0.86979522826E+02 -0.36541042716E+03  0.38178896200E+03  0.00000000000E+00 0. -1.
        -14    1    3    3    0    0  0.14339138724E+01 -0.17133338088E+02 -0.53086347490E+02  0.55801144011E+02  0.00000000000E+00 0.  1.
        -11    1    4    4    0    0 -0.28977004340E+02  0.10043056786E+02 -0.35364780512E+01  0.30871288394E+02  0.00000000000E+00 0.  1.
         11    1    4    4    0    0  0.12144213976E+02  0.13906139313E+03  0.74465806852E+02  0.15821096480E+03  0.00000000000E+00 0. -1.
          2    1    1    2  501    0 -0.52957497311E+02 -0.21895063465E+03  0.37520112100E+02  0.22836732636E+03  0.00000000000E+00 0. -1.
<scales pt_clust_5="13000.00000" pt_clust_6="13000.00000" pt_clust_7="13000.00000" pt_clust_8="13000.00000" pt_clust_9="176.08763"></scales>
<clustering>
<clus scale="   81.218">  5  6 -1 -1</clus>
<clus scale="   90.585">  7  8 -1 -1</clus>
<clus scale="  127.850">  2  5  1 -1</clus>
<clus scale="  176.088">  1  9  2 -1</clus>
<clus scale="  176.088">  1  5  2 -1</clus>
</clustering>
</event>
<event>
 9    1  0.6345107E-005  0.1293326E+03  0.7546771E-02  0.1245823E+00
          1   -1    0    0  502    0 -0.00000000000E+00  0.00000000000E+00  0.70237037060E+03  0.70237037060E+03  0.00000000000E+00 0. -1.
         21   -1    0    0  501  502  0.00000000000E+00 -0.00000000000E+00 -0.55538132034E+02  0.55538132034E+02  0.00000000000E+00 0. -1.
        -24    2    1    2    0    0  0.26604977764E+02  0.32636993840E+02  0.36876587163E+02  0.97934274659E+02  0.80363183508E+02 0.  0.
         23    2    1    2    0    0 -0.25581831702E+02  0.79762762024E+02  0.20049110708E+03  0.23536150442E+03  0.90453443416E+02 0.  0.
         11    1    3    3    0    0  0.49582293928E+02  0.41814929226E+02  0.33379810641E+02  0.72945897319E+02  0.00000000000E+00 0. -1.
        -12    1    3    3    0    0 -0.22977316164E+02 -0.91779353857E+01  0.34967765216E+01  0.24988377340E+02  0.00000000000E+00 0.  1.
        -13    1    4    4    0    0  0.25384989940E+02  0.73703455690E+01  0.16453348515E+02  0.31135709168E+02  0.00000000000E+00 0.  1.
         13    1    4    4    0    0 -0.50966821642E+02  0.72392416455E+02  0.18403775856E+03  0.20422579525E+03  0.00000000000E+00 0. -1.
          2    1    1    2  501    0 -0.10231460617E+01 -0.11239975586E+03  0.40946454432E+03  0.42461272355E+03  0.00000000000E+00 0. -1.
<scales pt_clust_5="13000.00000" pt_clust_6="13000.00000" pt_clust_7="13000.00000" pt_clust_8="13000.00000" pt_clust_9="92.43973"></scales>
<clustering>
<clus scale="   80.363">  5  6 -1 -1</clus>
<clus scale="   90.453">  7  8 -1 -1</clus>
<clus scale="   90.726">  1  5  2 -1</clus>
<clus scale="   92.440">  2  9  1 -1</clus>
<clus scale="   92.440">  2  5  1 -1</clus>
</clustering>
</event>
<event>
 9    1  0.6345107E-005  0.1301458E+03  0.7546771E-02  0.1229449E+00
         21   -1    0    0  501  502  0.00000000000E+00  0.00000000000E+00  0.81368084809E+02  0.81368084809E+02  0.00000000000E+00 0.  1.
         -4   -1    0    0    0  501 -0.00000000000E+00 -0.00000000000E+00 -0.35931958582E+03  0.35931958582E+03  0.00000000000E+00 0.  1.
         23    2    1    2    0    0  0.68395919229E+02 -0.19281803862E+02 -0.87633499298E+02  0.14398267552E+03  0.89451612187E+02 0.  0.
        -24    2    1    2    0    0 -0.12986097793E+03 -0.19453523141E+02 -0.11735459846E+03  0.19373880059E+03  0.80748423651E+02 0.  0.
         11    1    4    4    0    0 -0.73369147126E+02 -0.33968264504E+02 -0.10761798931E+03  0.13460500127E+03  0.00000000000E+00 0. -1.
        -12    1    4    4    0    0 -0.56491830808E+02  0.14514741363E+02 -0.97366091556E+01  0.59133799326E+02  0.00000000000E+00 0.  1.
        -11    1    3    3    0    0  0.21891407323E+02 -0.35936705811E+02 -0.84606534988E+02  0.94493101874E+02  0.00000000000E+00 0. -1.
         11    1    3    3    0    0  0.46504511907E+02  0.16654901949E+02 -0.30269643102E+01  0.49489573644E+02  0.00000000000E+00 0.  1.
         -3    1    1    2    0  502  0.61465058705E+02  0.38735327003E+02 -0.72963403247E+02  0.10296619452E+03  0.00000000000E+00 0.  1.
<scales pt_clust_5="13000.00000" pt_clust_6="13000.00000" pt_clust_7="13000.00000" pt_clust_8="13000.00000" pt_clust_9="72.65249"></scales>
<clustering>
<clus scale="   72.652">  1  9  2 -1</clus>
<clus scale="   80.748">  5  6 -1 -1</clus>
<clus scale="   89.452">  7  8 -1 -1</clus>
<clus scale="  124.325">  1  5  2 -1</clus>
<clus scale="   72.652">  1  5  2 -1</clus>
</clustering>
</event>
<event>
 9    1  0.6345107E-005  0.9954455E+02  0.7546771E-02  0.1286072E+00
          1   -1    0    0  502    0 -0.00000000000E+00  0.00000000000E+00  0.35475099187E+03  0.35475099187E+03  0.00000000000E+00 0. -1.
         21   -1    0    0  501  502  0.00000000000E+00 -0.00000000000E+00 -0.63263609592E+02  0.63263609592E+02  0.00000000000E+00 0. -1.
         23    2    1    2    0    0  0.31236207394E+02  0.29415514516E+02  0.19044531728E+03  0.21542115087E+03  0.91081722749E+02 0.  0.
        -24    2    1    2    0    0 -0.53375496959E+02  0.23971912590E+02  0.18825676741E+02  0.10209519184E+03  0.81519481247E+02 0.  0.
         11    1    4    4    0    0 -0.73873523874E+02  0.17805686992E+02  0.24692567141E+02  0.79900330980E+02  0.00000000000E+00 0. -1.
        -12    1    4    4    0    0  0.20498026914E+02  0.61662255987E+01 -0.58668904005E+01  0.22194860858E+02  0.00000000000E+00 0.  1.
        -11    1    3    3    0    0  0.16452888469E+02 -0.12873643614E+02  0.11777618485E+01  0.20924037896E+02  0.00000000000E+00 0.  1.
         11    1    3    3    0    0  0.14783318925E+02  0.42289158130E+02  0.18926755543E+03  0.19449711297E+03  0.00000000000E+00 0. -1.
          2    1    1    2  501    0  0.22139289565E+02 -0.53387427107E+02  0.82216388255E+02  0.10049825876E+03  0.00000000000E+00 0. -1.
<scales pt_clust_5="13000.00000" pt_clust_6="13000.00000" pt_clust_7="13000.00000" pt_clust_8="13000.00000" pt_clust_9="57.79592"></scales>
<clustering>
<clus scale="   57.796">  2  9  1 -1</clus>
<clus scale="   81.519">  5  6 -1 -1</clus>
<clus scale="   90.877">  2  5  1 -1</clus>
<clus scale="   91.082">  7  8 -1 -1</clus>
<clus scale="   57.796">  2  5  1 -1</clus>
</clustering>
</event>
<event>
 9    1  0.6345107E-005  0.1917745E+03  0.7546771E-02  0.1176174E+00
         21   -1    0    0  501  502  0.00000000000E+00  0.00000000000E+00  0.35584128289E+03  0.35584128289E+03  0.00000000000E+00 0.  1.
          1   -1    0    0  502    0 -0.00000000000E+00 -0.00000000000E+00 -0.30858122819E+03  0.30858122819E+03  0.00000000000E+00 0. -1.
        -24    2    1    2    0    0 -0.44801808826E+02  0.82209525696E+02  0.16100477007E+03  0.20260229131E+03  0.79746750824E+02 0.  0.
         23    2    1    2    0    0 -0.66296868367E+02 -0.16913213846E+03  0.82818434314E+02  0.21987905233E+03  0.92124641532E+02 0.  0.
         11    1    3    3    0    0  0.10360384970E+02  0.27652670492E+02  0.72879376236E+01  0.30415814914E+02  0.00000000000E+00 0. -1.
        -12    1    3    3    0    0 -0.55162193795E+02  0.54556855203E+02  0.15371683245E+03  0.17218647639E+03  0.00000000000E+00 0.  1.
        -11    1    4    4    0    0  0.12464453975E+02 -0.92632426824E+02  0.31055957899E+02  0.98491632300E+02  0.00000000000E+00 0.  1.
         11    1    4    4    0    0 -0.78761322342E+02 -0.76499711634E+02  0.51762476416E+02  0.12138742003E+03  0.00000000000E+00 0. -1.
          2    1    1    2  501    0  0.11109867719E+03  0.86922612762E+02 -0.19656314969E+03  0.24194116743E+03  0.00000000000E+00 0. -1.
<scales pt_clust_5="13000.00000" pt_clust_6="13000.00000" pt_clust_7="13000.00000" pt_clust_8="13000.00000" pt_clust_9="168.19795"></scales>
<clustering>
<clus scale="   79.747">  5  6 -1 -1</clus>
<clus scale="   92.125">  7  8 -1 -1</clus>
<clus scale="  122.984">  2  5  1 -1</clus>
<clus scale="  168.198">  1  9  2 -1</clus>
<clus scale="  168.198">  1  5  2 -1</clus>
</clustering>
</event>
<event>
 9    1  0.6345107E-005  0.1408719E+03  0.7546771E-02  0.1214246E+00
          1   -1    0    0  502    0 -0.00000000000E+00  0.00000000000E+00  0.46155695421E+03  0.46155695421E+03  0.00000000000E+00 0. -1.
         21   -1    0    0  501  502  0.00000000000E+00 -0.00000000000E+00 -0.11441305890E+03  0.11441305890E+03  0.00000000000E+00 0. -1.
        -24    2    1    2    0    0  0.11289827933E+03 -0.34269138502E+02  0.25407444809E+03  0.29159658857E+03  0.80958939994E+02 0.  0.
         23    2    1    2    0    0 -0.99419919760E+02 -0.33152263912E+02  0.14317609623E+03  0.19929705910E+03  0.90755331452E+02 0.  0.
         11    1    3    3    0    0  0.75166269960E+02 -0.33023919461E+01  0.21879375010E+03  0.23136892405E+03  0.00000000000E+00 0. -1.
        -12    1    3    3    0    0  0.37732009367E+02 -0.30966746556E+02  0.35280697990E+02  0.60227664522E+02  0.00000000000E+00 0.  1.
        -13    1    4    4    0    0 -0.55826345343E+02  0.25212026110E+02  0.90982001242E+02  0.10968113623E+03  0.00000000000E+00 0.  1.
         13    1    4    4    0    0 -0.43593574417E+02 -0.58364290022E+02  0.52194094992E+02  0.89615922872E+02  0.00000000000E+00 0. -1.
          2    1    1    2  501    0 -0.13478359568E+02  0.67421402414E+02 -0.50106649011E+02  0.85076365433E+02  0.00000000000E+00 0. -1.
<scales pt_clust_5="13000.00000" pt_clust_6="13000.00000" pt_clust_7="13000.00000" pt_clust_8="13000.00000" pt_clust_9="68.75545"></scales>
<clustering>
<clus scale="   68.755">  2  9  1 -1</clus>
<clus scale="   80.959">  5  6 -1 -1</clus>
<clus scale="   90.755">  7  8 -1 -1</clus>
<clus scale="  134.769">  1  5  2 -1</clus>
<clus scale="   68.755">  2  5  1 -1</clus>
</clustering>
</event>
<event>
 9    1  0.6345107E-005  0.1433285E+03  0.7546771E-02  0.1220132E+00
          1   -1    0    0  502    0 -0.00000000000E+00  0.00000000000E+00  0.33335986411E+03  0.33335986411E+03  0.00000000000E+00 0. -1.
         21   -1    0    0  501  502  0.00000000000E+00 -0.00000000000E+00 -0.16697492821E+03  0.16697492821E+03  0.00000000000E+00 0. -1.
         23    2    1    2    0    0  0.38620864589E+02  0.55753117993E+02  0.16205298992E+03  0.19756926563E+03  0.90401669411E+02 0.  0.
        -24    2    1    2    0    0 -0.13364782794E+03  0.16811064218E+02  0.64728771891E+02  0.16881232262E+03  0.78507531897E+02 0.  0.
         11    1    4    4    0    0 -0.10519217247E+03  0.44319836381E+02  0.59989538139E+02  0.12895109822E+03  0.00000000000E+00 0. -1.
        -12    1    4    4    0    0 -0.28455655462E+02 -0.27508772162E+02  0.47392337518E+01  0.39861224394E+02  0.00000000000E+00 0.  1.
        -11    1    3    3    0    0  0.26752905274E+02  0.80857793998E+02  0.12531234934E+03  0.15151529852E+03  0.00000000000E+00 0. -1.
         11    1    3    3    0    0  0.11867959315E+02 -0.25104676006E+02  0.36740640585E+02  0.46053967107E+02  0.00000000000E+00 0.  1.
          2    1    1    2  501    0  0.95026963347E+02 -0.72564182211E+02 -0.60396825910E+02  0.13395320408E+03  0.00000000000E+00 0. -1.
<scales pt_clust_5="13000.00000" pt_clust_6="13000.00000" pt_clust_7="13000.00000" pt_clust_8="13000.00000" pt_clust_9="119.91510"></scales>
<clustering>
<clus scale="   78.508">  5  6 -1 -1</clus>
<clus scale="   90.402">  7  8 -1 -1</clus>
<clus scale="  113.015">  1  7  2 -1</clus>
<clus scale="  119.915">  2  9  1 -1</clus>
<clus scale="  119.915">  2  5  1 -1</clus>
</clustering>
</event>
<event>
 9    1  0.6345107E-005  0.1911757E+03  0.7546771E-02  0.1163482E+00
          3   -1    0    0  502    0 -0.00000000000E+00  0.00000000000E+00  0.12444646023E+04  0.12444646023E+04  0.00000000000E+00 0. -1.
         21   -1    0    0  501  502  0.00000000000E+00 -0.00000000000E+00 -0.95508338303E+02  0.95508338303E+02  0.00000000000E+00 0. -1.
         23    2    1    2    0    0  0.21444357904E+02 -0.13337529787E+03  0.51472464969E+02  0.17377435675E+03  0.96432784080E+02 0.  0.
        -24    2    1    2    0    0 -0.18044740865E+03  0.41367978624E+02  0.69020260807E+03  0.71940412837E+03  0.83006522546E+02 0.  0.
         11    1    4    4    0    0 -0.17117296019E+03  0.11946241312E+02  0.56676686354E+03  0.59217191134E+03  0.00000000000E+00 0. -1.
        -12    1    4    4    0    0 -0.92744484579E+01  0.29421737312E+02  0.12343574453E+03  0.12723221703E+03  0.00000000000E+00 0.  1.
        -13    1    3    3    0    0  0.20733005951E+02 -0.74429926962E+02 -0.21276431030E+02  0.80139616175E+02  0.00000000000E+00 0. -1.
         13    1    3    3    0    0  0.71135195374E+00 -0.58945370909E+02  0.72748895999E+02  0.93634740574E+02  0.00000000000E+00 0.  1.
          4    1    1    2  501    0  0.15900305075E+03  0.92007319248E+02  0.40728119095E+03  0.44679445547E+03  0.00000000000E+00 0. -1.
<scales pt_clust_5="13000.00000" pt_clust_6="13000.00000" pt_clust_7="13000.00000" pt_clust_8="13000.00000" pt_clust_9="172.21513"></scales>
<clustering>
<clus scale="   83.007">  5  6 -1 -1</clus>
<clus scale="   96.433">  7  8 -1 -1</clus>
<clus scale="  165.976">  1  7  2 -1</clus>
<clus scale="  172.215">  2  9  1 -1</clus>
<clus scale="  172.215">  2  5  1 -1</clus>
</clustering>
</event>
<event>
 9    1  0.6345107E-005  0.1017090E+03  0.7546771E-02  0.1282816E+00
          1   -1    0    0  502    0 -0.00000000000E+00  0.00000000000E+00  0.24033411381E+03  0.24033411381E+03  0.00000000000E+00 0. -1.
         21   -1    0    0  501  502  0.00000000000E+00 -0.00000000000E+00 -0.70660535486E+02  0.70660535486E+02  0.00000000000E+00 0.  1.
         23    2    1    2    0    0  0.36172005993E+02  0.21720938132E+02  0.12211823255E+03  0.15789208441E+03  0.90757007595E+02 0.  0.
        -24    2    1    2    0    0 -0.17601464088E+02 -0.61810138518E+02  0.29403336843E+02  0.10533746840E+03  0.78109674621E+02 0.  0.
         11    1    4    4    0    0  0.20094211153E+02 -0.12501931821E+02  0.35828704789E+02  0.42939162870E+02  0.00000000000E+00 0. -1.
        -12    1    4    4    0    0 -0.37695675241E+02 -0.49308206696E+02 -0.64253679465E+01  0.62398305527E+02  0.00000000000E+00 0.  1.
        -11    1    3    3    0    0  0.63555855980E+02  0.29072284707E+02  0.99650351216E+02  0.12171580450E+03  0.00000000000E+00 0. -1.
         11    1    3    3    0    0 -0.27383849987E+02 -0.73513465750E+01  0.22467881335E+02  0.36176279912E+02  0.00000000000E+00 0.  1.
          2    1    1    2  501    0 -0.18570541905E+02  0.40089200386E+02  0.18152008931E+02  0.47765096488E+02  0.00000000000E+00 0. -1.
<scales pt_clust_5="13000.00000" pt_clust_6="13000.00000" pt_clust_7="13000.00000" pt_clust_8="13000.00000" pt_clust_9="44.18155"></scales>
<clustering>
<clus scale="   44.182">  2  9  1 -1</clus>
<clus scale="   78.110">  5  6 -1 -1</clus>
<clus scale="   90.604">  2  5  1 -1</clus>
<clus scale="   90.757">  7  8 -1 -1</clus>
<clus scale="   44.182">  2  5  1 -1</clus>
</clustering>
</event>
<event>
 9    1  0.6345107E-005  0.9389786E+02  0.7546771E-02  0.1299684E+00
         21   -1    0    0  501  502  0.00000000000E+00  0.00000000000E+00  0.21257087892E+03  0.21257087892E+03  0.00000000000E+00 0.  1.
          1   -1    0    0  502    0 -0.00000000000E+00 -0.00000000000E+00 -0.10776226603E+03  0.10776226603E+03  0.00000000000E+00 0. -1.
        -24    2    1    2    0    0  0.19840614306E+02 -0.22682793196E+02 -0.16981766236E+02  0.88809012353E+02  0.81795484028E+02 0.  0.
         23    2    1    2    0    0 -0.44181634768E+01 -0.44673453905E+02  0.12599541909E+03  0.16229698204E+03  0.91925116783E+02 0.  0.
         11    1    3    3    0    0 -0.18206535922E+02 -0.39887788754E+02 -0.17071175565E+02  0.47052509785E+02  0.00000000000E+00 0. -1.
        -12    1    3    3    0    0  0.38047150228E+02  0.17204995558E+02  0.89409328844E-01  0.41756502568E+02  0.00000000000E+00 0.  1.
        -11    1    4    4    0    0 -0.22571342675E+02 -0.11199233338E+02  0.12134611906E+03  0.12393453493E+03  0.00000000000E+00 0.  1.
         11    1    4    4    0    0  0.18153179198E+02 -0.33474220568E+02  0.46493000311E+01  0.38362447112E+02  0.00000000000E+00 0. -1.
          2    1    1    2  501    0 -0.15422450830E+02  0.67356247102E+02 -0.42050399543E+01  0.69227150557E+02  0.00000000000E+00 0. -1.
<scales pt_clust_5="13000.00000" pt_clust_6="13000.00000" pt_clust_7="13000.00000" pt_clust_8="13000.00000" pt_clust_9="69.09935"></scales>
<clustering>
<clus scale="   69.099">  1  9  2 -1</clus>
<clus scale="   81.795">  5  6 -1 -1</clus>
<clus scale="   84.006">  2  5  1 -1</clus>
<clus scale="   91.925">  7  8 -1 -1</clus>
<clus scale="   69.099">  1  5  2 -1</clus>
</clustering>
</event>
<event>
 9    1  0.6345107E-005  0.1005758E+03  0.7546771E-02  0.1284234E+00
         21   -1    0    0  501  502  0.00000000000E+00  0.00000000000E+00  0.81862285672E+02  0.81862285672E+02  0.00000000000E+00 0. -1.
          1   -1    0    0  502    0 -0.00000000000E+00 -0.00000000000E+00 -0.44356027624E+03  0.44356027624E+03  0.00000000000E+00 0. -1.
         23    2    1    2    0    0  0.52750565205E+02 -0.19795400553E+02 -0.26000670213E+03  0.28100747109E+03  0.90483333524E+02 0.  0.
        -24    2    1    2    0    0  0.34752059251E+02  0.19172221832E+02  0.22909676416E+02  0.92157092405E+02  0.79954966668E+02 0.  0.
         13    1    4    4    0    0  0.57013704394E+02 -0.26890999985E+01  0.82019224449E+01  0.57663379014E+02  0.00000000000E+00 0. -1.
        -14    1    4    4    0    0 -0.22261645143E+02  0.21861321831E+02  0.14707753971E+02  0.34493713391E+02  0.00000000000E+00 0.  1.
        -11    1    3    3    0    0  0.20611920514E+02  0.16433854113E+02 -0.13176613737E+02  0.29471104116E+02  0.00000000000E+00 0.  1.
         11    1    3    3    0    0  0.32138644692E+02 -0.36229254666E+02 -0.24683008839E+03  0.25153636698E+03  0.00000000000E+00 0. -1.
          2    1    1    2  501    0 -0.87502624456E+02  0.62317872122E+00 -0.12460096485E+03  0.15225799841E+03  0.00000000000E+00 0. -1.
<scales pt_clust_5="13000.00000" pt_clust_6="13000.00000" pt_clust_7="13000.00000" pt_clust_8="13000.00000" pt_clust_9="87.50489"></scales>
<clustering>
<clus scale="   79.955">  5  6 -1 -1</clus>
<clus scale="   87.505">  1  9  2 -1</clus>
<clus scale="   90.483">  7  8 -1 -1</clus>
<clus scale="   91.220">  1  5  2 -1</clus>
<clus scale="   87.505">  1  5  2 -1</clus>
</clustering>
</event>
<event>
 9    1  0.6345107E-005  0.1286714E+03  0.7546771E-02  0.1231945E+00
         21   -1    0    0  501  502  0.00000000000E+00  0.00000000000E+00  0.33775440101E+03  0.33775440101E+03  0.00000000000E+00 0.  1.
         -2   -1    0    0    0  501 -0.00000000000E+00 -0.00000000000E+00 -0.13607474674E+03  0.13607474674E+03  0.00000000000E+00 0.  1.
         23    2    1    2    0    0  0.52488158701E+02 -0.89847739692E+02  0.14153193146E+02  0.13860225201E+03  0.90457991655E+02 0.  0.
        -24    2    1    2    0    0 -0.54292744766E+02  0.25875239134E+02  0.23487374126E+03  0.25561846468E+03  0.80980831190E+02 0.  0.
         11    1    4    4    0    0 -0.33536899769E+02  0.24512802525E+02  0.34027413866E+02  0.53697914561E+02  0.00000000000E+00 0. -1.
        -12    1    4    4    0    0 -0.20755844996E+02  0.13624366092E+01  0.20084632739E+03  0.20192055012E+03  0.00000000000E+00 0.  1.
        -11    1    3    3    0    0  0.30667601212E+02 -0.69437863465E+02 -0.33006851339E+02  0.82774216287E+02  0.00000000000E+00 0.  1.
         11    1    3    3    0    0  0.21820557489E+02 -0.20409876227E+02  0.47160044485E+02  0.55828035722E+02  0.00000000000E+00 0. -1.
         -1    1    1    2    0  502  0.18045860643E+01  0.63972500558E+02 -0.47347280140E+02  0.79608431056E+02  0.00000000000E+00 0.  1.
<scales pt_clust_5="13000.00000" pt_clust_6="13000.00000" pt_clust_7="13000.00000" pt_clust_8="13000.00000" pt_clust_9="63.99798"></scales>
<clustering>
<clus scale="   63.998">  1  9  2 -1</clus>
<clus scale="   80.981">  5  6 -1 -1</clus>
<clus scale="   90.458">  7  8 -1 -1</clus>
<clus scale="  122.195">  1  5  2 -1</clus>
<clus scale="   63.998">  1  5  2 -1</clus>
</clustering>
</event>
<event>
 9    1  0.6345107E-005  0.1306639E+03  0.7546771E-02  0.1227344E+00
          3   -1    0    0  502    0 -0.00000000000E+00  0.00000000000E+00  0.21867620303E+03  0.21867620303E+03  0.00000000000E+00 0. -1.
         21   -1    0    0  501  502  0.00000000000E+00 -0.00000000000E+00 -0.15357295244E+03  0.15357295244E+03  0.00000000000E+00 0. -1.
        -24    2    1    2    0    0  0.17860847674E+02 -0.75718193545E+02  0.19038441487E+02  0.11327651917E+03  0.80105260928E+02 0.  0.
         23    2    1    2    0    0 -0.46977702038E+02  0.14318185888E+03 -0.58937306891E+01  0.16897915206E+03  0.76231676940E+02 0.  0.
         13    1    3    3    0    0  0.22747622270E+02 -0.52926545530E+02 -0.25505985532E+02  0.63001816153E+02  0.00000000000E+00 0. -1.
        -14    1    3    3    0    0 -0.48867745957E+01 -0.22791648015E+02  0.44544427019E+02  0.50274703019E+02  0.00000000000E+00 0.  1.
        -11    1    4    4    0    0 -0.35496411985E+02  0.12342349232E+03 -0.33907195674E+02  0.13282714947E+03  0.00000000000E+00 0. -1.
         11    1    4    4    0    0 -0.11481290053E+02  0.19758366566E+02  0.28013464985E+02  0.36152002588E+02  0.00000000000E+00 0.  1.
          4    1    1    2  501    0  0.29116854364E+02 -0.67463665336E+02  0.51958539786E+02  0.89993484239E+02  0.00000000000E+00 0. -1.
<scales pt_clust_5="13000.00000" pt_clust_6="13000.00000" pt_clust_7="13000.00000" pt_clust_8="13000.00000" pt_clust_9="73.47886"></scales>
<clustering>
<clus scale="   73.479">  2  9  1 -1</clus>
<clus scale="   76.232">  7  8 -1 -1</clus>
<clus scale="   80.105">  5  6 -1 -1</clus>
<clus scale="  128.326">  2  7  1 -1</clus>
<clus scale="   73.479">  2  5  1 -1</clus>
</clustering>
</event>
<event>
 9    1  0.6345107E-005  0.1763190E+03  0.7546771E-02  0.1179109E+00
         21   -1    0    0  501  502  0.00000000000E+00  0.00000000000E+00  0.13049534656E+03  0.13049534656E+03  0.00000000000E+00 0. -1.
          1   -1    0    0  502    0 -0.00000000000E+00 -0.00000000000E+00 -0.97027234389E+03  0.97027234389E+03  0.00000000000E+00 0. -1.
         23    2    1    2    0    0 -0.11166666405E+03  0.28400240800E+02 -0.13856165339E+03  0.20281225664E+03  0.93045484111E+02 0.  0.
        -24    2    1    2    0    0  0.24518557748E+03  0.35991117085E+02 -0.70288702472E+03  0.74971123753E+03  0.81273871837E+02 0.  0.
         13    1    4    4    0    0  0.13633209236E+03 -0.20574568309E+02 -0.35549548094E+03  0.38129619620E+03  0.00000000000E+00 0. -1.
        -14    1    4    4    0    0  0.10885348513E+03  0.56565685394E+02 -0.34739154378E+03  0.36841504133E+03  0.00000000000E+00 0.  1.
        -13    1    3    3    0    0 -0.49030901467E+02 -0.28947143722E+02 -0.85337100106E+02  0.10258843542E+03  0.00000000000E+00 0.  1.
         13    1    3    3    0    0 -0.62635762581E+02  0.57347384522E+02 -0.53224553287E+02  0.10022382121E+03  0.00000000000E+00 0. -1.
          2    1    1    2  501    0 -0.13351891344E+03 -0.64391357885E+02  0.16716807876E+01  0.14824419628E+03  0.00000000000E+00 0. -1.
<scales pt_clust_5="13000.00000" pt_clust_6="13000.00000" pt_clust_7="13000.00000" pt_clust_8="13000.00000" pt_clust_9="156.47025"></scales>
<clustering>
<clus scale="   81.274">  5  6 -1 -1</clus>
<clus scale="   93.045">  7  8 -1 -1</clus>
<clus scale="  148.100">  2  7  1 -1</clus>
<clus scale="  156.470">  1  9  2 -1</clus>
<clus scale="  156.470">  1  5  2 -1</clus>
</clustering>
</event>
<event>
 9    1  0.6345107E-005  0.1341843E+03  0.7546771E-02  0.1224803E+00
          3   -1    0    0  502    0 -0.00000000000E+00  0.00000000000E+00  0.17374299864E+03  0.17374299864E+03  0.00000000000E+00 0. -1.
         21   -1    0    0  501  502  0.00000000000E+00 -0.00000000000E+00 -0.44214400128E+03  0.44214400128E+03  0.00000000000E+00 0. -1.
        -24    2    1    2    0    0 -0.40802378712E+02  0.85035903595E+02  0.12146071560E+03  0.17319021587E+03  0.79663080714E+02 0.  0.
         23    2    1    2    0    0  0.13885549032E+02 -0.12683732769E+03 -0.31973494082E+03  0.35673377056E+03  0.93530928081E+02 0.  0.
         13    1    3    3    0    0 -0.59662759142E+02  0.78678033244E+02  0.11642739942E+03  0.15266046338E+03  0.00000000000E+00 0. -1.
        -14    1    3    3    0    0  0.18860380431E+02  0.63578703506E+01  0.50333161817E+01  0.20529752487E+02  0.00000000000E+00 0.  1.
        -11    1    4    4    0    0 -0.32079039522E+02 -0.65139557448E+02 -0.97562568029E+02  0.12161694537E+03  0.00000000000E+00 0. -1.
         11    1    4    4    0    0  0.45964588554E+02 -0.61697770240E+02 -0.22217237279E+03  0.23511682518E+03  0.00000000000E+00 0.  1.
          4    1    1    2  501    0  0.26916829680E+02  0.41801424094E+02 -0.70126777433E+02  0.85963013496E+02  0.00000000000E+00 0. -1.
<scales pt_clust_5="13000.00000" pt_clust_6="13000.00000" pt_clust_7="13000.00000" pt_clust_8="13000.00000" pt_clust_9="49.71795"></scales>
<clustering>
<clus scale="   49.718">  2  9  1 -1</clus>
<clus scale="   79.663">  5  6 -1 -1</clus>
<clus scale="   93.531">  7  8 -1 -1</clus>
<clus scale="  124.914">  1  5  2 -1</clus>
<clus scale="   49.718">  2  5  1 -1</clus>
</clustering>
</event>
<event>
 9    1  0.6345107E-005  0.1386528E+03  0.7546771E-02  0.1218415E+00
          1   -1    0    0  502    0 -0.00000000000E+00  0.00000000000E+00  0.65548754287E+03  0.65548754287E+03  0.00000000000E+00 0. -1.
         21   -1    0    0  501  502  0.00000000000E+00 -0.00000000000E+00 -0.54901397763E+02  0.54901397763E+02  0.00000000000E+00 0. -1.
         23    2    1    2    0    0 -0.16444101410E+02  0.10897641863E+03  0.29858206379E+03  0.33230160893E+03  0.95534507846E+02 0.  0.
        -24    2    1    2    0    0 -0.18861411211E+01 -0.80100958440E+02  0.51744155506E+02  0.12550106830E+03  0.81568005034E+02 0.  0.
         11    1    4    4    0    0  0.25444528137E+02 -0.55749820407E+01 -0.67370384262E+01  0.26905243423E+02  0.00000000000E+00 0. -1.
        -12    1    4    4    0    0 -0.27330669258E+02 -0.74525976400E+02  0.58481193932E+02  0.98595824882E+02  0.00000000000E+00 0.  1.
        -13    1    3    3    0    0 -0.17769173339E+02  0.79733371380E+02  0.29073737761E+03  0.30199565688E+03  0.00000000000E+00 0. -1.
         13    1    3    3    0    0  0.13250719286E+01  0.29243047251E+02  0.78446861739E+01  0.30305952044E+02  0.00000000000E+00 0.  1.
          2    1    1    2  501    0  0.18330242531E+02 -0.28875460191E+02  0.25025992581E+03  0.25258626340E+03  0.00000000000E+00 0. -1.
<scales pt_clust_5="13000.00000" pt_clust_6="13000.00000" pt_clust_7="13000.00000" pt_clust_8="13000.00000" pt_clust_9="34.20221"></scales>
<clustering>
<clus scale="   34.202">  2  9  1 -1</clus>
<clus scale="   81.568">  5  6 -1 -1</clus>
<clus scale="   95.535">  7  8 -1 -1</clus>
<clus scale="  129.426">  2  5  1 -1</clus>
<clus scale="   34.202">  2  5  1 -1</clus>
</clustering>
</event>
<event>
 9    1  0.6345107E-005  0.9876853E+02  0.7546771E-02  0.1288793E+00
          1   -1    0    0  502    0 -0.00000000000E+00  0.00000000000E+00  0.31686408511E+03  0.31686408511E+03  0.00000000000E+00 0. -1.
         21   -1    0    0  501  502  0.00000000000E+00 -0.00000000000E+00 -0.99656850445E+02  0.99656850445E+02  0.00000000000E+00 0.  1.
         23    2    1    2    0    0  0.24338425625E+02  0.21538237195E+02  0.25907790129E+03  0.27698470173E+03  0.92427871509E+02 0.  0.
        -24    2    1    2    0    0 -0.46196076286E+02 -0.18769103626E+02 -0.36238432817E+01  0.95397311227E+02  0.81247510940E+02 0.  0.
         13    1    4    4    0    0 -0.30929569145E+02  0.10865406744E+02  0.32555759013E+02  0.46201436732E+02  0.00000000000E+00 0. -1.
        -14    1    4    4    0    0 -0.15266507141E+02 -0.29634510370E+02 -0.36179602294E+02  0.49195874495E+02  0.00000000000E+00 0.  1.
        -13    1    3    3    0    0  0.45943001148E+02 -0.55631399626E+01  0.64737683606E+02  0.79578109800E+02  0.00000000000E+00 0.  1.
         13    1    3    3    0    0 -0.21604575523E+02  0.27101377158E+02  0.19434021768E+03  0.19740659193E+03  0.00000000000E+00 0. -1.
          2    1    1    2  501    0  0.21857650661E+02 -0.27691335693E+01 -0.38246823339E+02  0.44138922604E+02  0.00000000000E+00 0. -1.
<scales pt_clust_5="13000.00000" pt_clust_6="13000.00000" pt_clust_7="13000.00000" pt_clust_8="13000.00000" pt_clust_9="22.03236"></scales>
<clustering>
<clus scale="   22.032">  2  9  1 -1</clus>
<clus scale="   81.248">  5  6 -1 -1</clus>
<clus scale="   88.394">  2  5  1 -1</clus>
<clus scale="   92.428">  7  8 -1 -1</clus>
<clus scale="   22.032">  2  5  1 -1</clus>
</clustering>
</event>
<event>
 9    1  0.6345107E-005  0.2583568E+03  0.7546771E-02  0.1108574E+00
          3   -1    0    0  502    0 -0.00000000000E+00  0.00000000000E+00  0.23731096846E+03  0.23731096846E+03  0.00000000000E+00 0. -1.
         21   -1    0    0  501  502  0.00000000000E+00 -0.00000000000E+00 -0.43770607268E+03  0.43770607268E+03  0.00000000000E+00 0. -1.
         23    2    1    2    0    0 -0.14949385134E+01  0.26088113085E+03 -0.18066837822E+02  0.27629486834E+03  0.89169750310E+02 0.  0.
        -24    2    1    2    0    0  0.15821315903E+02 -0.20741908082E+03 -0.23381447486E+03  0.32312941160E+03  0.80438913859E+02 0.  0.
         13    1    4    4    0    0  0.12242121224E+02 -0.18752983464E+03 -0.16068463502E+03  0.24725869114E+03  0.00000000000E+00 0. -1.
        -14    1    4    4    0    0  0.35791946794E+01 -0.19889246176E+02 -0.73129839842E+02  0.75870720461E+02  0.00000000000E+00 0.  1.
        -13    1    3    3    0    0  0.35153168901E+02  0.18399303411E+03 -0.31855816216E+02  0.19001046001E+03  0.00000000000E+00 0. -1.
         13    1    3    3    0    0 -0.36648107414E+02  0.76888096739E+02  0.13788978395E+02  0.86284408339E+02  0.00000000000E+00 0.  1.
          4    1    1    2  501    0 -0.14326377390E+02 -0.53462050034E+02  0.51486208463E+02  0.75592761193E+02  0.00000000000E+00 0. -1.
<scales pt_clust_5="13000.00000" pt_clust_6="13000.00000" pt_clust_7="13000.00000" pt_clust_8="13000.00000" pt_clust_9="55.34834"></scales>
<clustering>
<clus scale="   55.348">  2  9  1 -1</clus>
<clus scale="   80.439">  5  6 -1 -1</clus>
<clus scale="   89.170">  7  8 -1 -1</clus>
<clus scale="  255.475">  2  5  1 -1</clus>
<clus scale="   55.348">  2  5  1 -1</clus>
</clustering>
</event>
<event>
 9    1  0.6345107E-005  0.9641023E+02  0.7546771E-02  0.1294000E+00
         21   -1    0    0  501  502  0.00000000000E+00  0.00000000000E+00  0.11078150219E+03  0.11078150219E+03  0.00000000000E+00 0. -1.
          1   -1    0    0  502    0 -0.00000000000E+00 -0.00000000000E+00 -0.11523512849E+03  0.11523512849E+03  0.00000000000E+00 0. -1.
        -24    2    1    2    0    0 -0.47767089694E+02  0.85726069592E+01 -0.19077400131E+02  0.95200499421E+02  0.79649252642E+02 0.  0.
         23    2    1    2    0    0  0.97592210065E+01 -0.65311315991E+01  0.16027873682E+02  0.92727587045E+02  0.90573807416E+02 0.  0.
         11    1    3    3    0    0 -0.28867281191E+02 -0.35236175137E+02 -0.87551515739E+01  0.46384918246E+02  0.00000000000E+00 0. -1.
        -12    1    3    3    0    0 -0.18899808503E+02  0.43808782096E+02 -0.10322248557E+02  0.48815581175E+02  0.00000000000E+00 0.  1.
        -13    1    4    4    0    0 -0.32405087587E+02 -0.76682191799E+01  0.33350817808E+02  0.47129272596E+02  0.00000000000E+00 0. -1.
         13    1    4    4    0    0  0.42164308594E+02  0.11370875808E+01 -0.17322944126E+02  0.45598314449E+02  0.00000000000E+00 0.  1.
          2    1    1    2  501    0  0.38007868687E+02 -0.20414753601E+01 -0.14040998583E+01  0.38088544212E+02  0.00000000000E+00 0. -1.
<scales pt_clust_5="13000.00000" pt_clust_6="13000.00000" pt_clust_7="13000.00000" pt_clust_8="13000.00000" pt_clust_9="38.06267"></scales>
<clustering>
<clus scale="   38.063">  1  9  2 -1</clus>
<clus scale="   79.649">  5  6 -1 -1</clus>
<clus scale="   86.228">  2  5  1 -1</clus>
<clus scale="   90.574">  7  8 -1 -1</clus>
<clus scale="   38.063">  1  5  2 -1</clus>
</clustering>
</event>
<event>
 9    1  0.6345107E-005  0.1010730E+03  0.7546771E-02  0.1284518E+00
          1   -1    0    0  502    0 -0.00000000000E+00  0.00000000000E+00  0.20571161938E+03  0.20571161938E+03  0.00000000000E+00 0. -1.
         21   -1    0    0  501  502  0.00000000000E+00 -0.00000000000E+00 -0.77575698685E+02  0.77575698685E+02  0.00000000000E+00 0. -1.
         23    2    1    2    0    0 -0.15980000660E+02 -0.35520342466E+02  0.12400653996E+03  0.15879521243E+03  0.91220844040E+02 0.  0.
        -24    2    1    2    0    0  0.50486323960E+01  0.58751156981E+02 -0.28245374283E+01  0.97892809913E+02  0.78088648889E+02 0.  0.
         11    1    4    4    0    0 -0.32938646437E+02  0.48259690079E+02 -0.24864467111E+01  0.58481916289E+02  0.00000000000E+00 0. -1.
        -12    1    4    4    0    0  0.37987278833E+02  0.10491466902E+02 -0.33809071720E+00  0.39410893624E+02  0.00000000000E+00 0.  1.
        -13    1    3    3    0    0 -0.46829711885E+02  0.19965728942E+01  0.82586471200E+02  0.94960694205E+02  0.00000000000E+00 0. -1.
         13    1    3    3    0    0  0.30849711225E+02 -0.37516915360E+02  0.41420068764E+02  0.63834518227E+02  0.00000000000E+00 0.  1.
          2    1    1    2  501    0  0.10931368264E+02 -0.23230814515E+02  0.69539181626E+01  0.26599295723E+02  0.00000000000E+00 0. -1.
<scales pt_clust_5="13000.00000" pt_clust_6="13000.00000" pt_clust_7="13000.00000" pt_clust_8="13000.00000" pt_clust_9="25.67422"></scales>
<clustering>
<clus scale="   25.674">  2  9  1 -1</clus>
<clus scale="   78.089">  5  6 -1 -1</clus>
<clus scale="   89.400">  2  5  1 -1</clus>
<clus scale="   91.221">  7  8 -1 -1</clus>
<clus scale="   25.674">  2  5  1 -1</clus>
</clustering>
</event>
<event>
 9    1  0.6345107E-005  0.1348072E+03  0.7546771E-02  0.1224455E+00
         21   -1    0    0  501  502  0.00000000000E+00  0.00000000000E+00  0.27093895871E+03  0.27093895871E+03  0.00000000000E+00 0. -1.
          3   -1    0    0  502    0 -0.00000000000E+00 -0.00000000000E+00 -0.13882511869E+03  0.13882511869E+03  0.00000000000E+00 0. -1.
        -24    2    1    2    0    0  0.20331797972E+02 -0.77147719189E+02 -0.47927170834E+02  0.13229428724E+03  0.94019211587E+02 0.  0.
         23    2    1    2    0    0  0.16230629045E+02  0.92637404052E+02  0.18874107485E+03  0.23681966691E+03  0.10777401982E+03 0.  0.
         13    1    3    3    0    0  0.83113166631E+01 -0.42166763348E+02 -0.75010401490E+02  0.86450414964E+02  0.00000000000E+00 0. -1.
        -14    1    3    3    0    0  0.12020481309E+02 -0.34980955841E+02  0.27083230656E+02  0.45843872276E+02  0.00000000000E+00 0.  1.
        -13    1    4    4    0    0 -0.20093959299E+01  0.43237522358E+02  0.25878500139E+01  0.43361480364E+02  0.00000000000E+00 0.  1.
         13    1    4    4    0    0  0.18240024975E+02  0.49399881695E+02  0.18615322484E+03  0.19345818654E+03  0.00000000000E+00 0. -1.
          4    1    1    2  501    0 -0.36562427017E+02 -0.15489684863E+02 -0.87000640034E+01  0.40650123249E+02  0.00000000000E+00 0. -1.
<scales pt_clust_5="13000.00000" pt_clust_6="13000.00000" pt_clust_7="13000.00000" pt_clust_8="13000.00000" pt_clust_9="39.70822"></scales>
<clustering>
<clus scale="   39.708">  1  9  2 -1</clus>
<clus scale="   94.019">  5  6 -1 -1</clus>
<clus scale="  107.774">  7  8 -1 -1</clus>
<clus scale="  124.086">  2  5  1 -1</clus>
<clus scale="   39.708">  1  5  2 -1</clus>
</clustering>
</event>
<event>
 9    1  0.6345107E-005  0.1034957E+03  0.7546771E-02  0.1278390E+00
         21   -1    0    0  501  502  0.00000000000E+00  0.00000000000E+00  0.27682517376E+02  0.27682517376E+02  0.00000000000E+00 0. -1.
          1   -1    0    0  502    0 -0.00000000000E+00 -0.00000000000E+00 -0.70936639571E+03  0.70936639571E+03  0.00000000000E+00 0. -1.
         23    2    1    2    0    0  0.10142259167E+02  0.33144732098E+02 -0.25019435187E+03  0.26872032318E+03  0.91716736190E+02 0.  0.
        -24    2    1    2    0    0 -0.16865514575E+02 -0.70596693169E+02 -0.15399461634E+03  0.18823703934E+03  0.80315020073E+02 0.  0.
         11    1    4    4    0    0 -0.41966604629E+02 -0.58838884552E+02 -0.13913757497E+03  0.15678799383E+03  0.00000000000E+00 0. -1.
        -12    1    4    4    0    0  0.25101090054E+02 -0.11757808617E+02 -0.14857041366E+02  0.31449045510E+02  0.00000000000E+00 0.  1.
        -11    1    3    3    0    0  0.12057011223E+02  0.61203474493E+02 -0.11701384774E+03  0.13260270499E+03  0.00000000000E+00 0. -1.
         11    1    3    3    0    0 -0.19147520568E+01 -0.28058742395E+02 -0.13318050414E+03  0.13611761819E+03  0.00000000000E+00 0.  1.
          2    1    1    2  501    0  0.67232554084E+01  0.37451961071E+02 -0.27749491012E+03  0.28009155056E+03  0.00000000000E+00 0. -1.
<scales pt_clust_5="13000.00000" pt_clust_6="13000.00000" pt_clust_7="13000.00000" pt_clust_8="13000.00000" pt_clust_9="38.05066"></scales>
<clustering>
<clus scale="   38.051">  1  9  2 -1</clus>
<clus scale="   80.315">  5  6 -1 -1</clus>
<clus scale="   91.717">  7  8 -1 -1</clus>
<clus scale="   93.541">  1  5  2 -1</clus>
<clus scale="   38.051">  1  5  2 -1</clus>
</clustering>
</event>
<event>
 9    1  0.6345107E-005  0.1169138E+03  0.7546771E-02  0.1253361E+00
         21   -1    0    0  501  502  0.00000000000E+00  0.00000000000E+00  0.64638152396E+03  0.64638152396E+03  0.00000000000E+00 0.  1.
         -4   -1    0    0    0  501 -0.00000000000E+00 -0.00000000000E+00 -0.15595677850E+03  0.15595677850E+03  0.00000000000E+00 0.  1.
        -24    2    1    2    0    0  0.22778864259E+01 -0.72984637886E+02 -0.12089881663E+03  0.16216283307E+03  0.79676310373E+02 0.  0.
         23    2    1    2    0    0 -0.51323607918E+02  0.68809673851E+01  0.32852735533E+03  0.34564385376E+03  0.94116895413E+02 0.  0.
         11    1    3    3    0    0 -0.98097200848E+01 -0.18772218254E+02  0.73363464608E+01  0.22415368962E+02  0.00000000000E+00 0. -1.
        -12    1    3    3    0    0  0.12087606511E+02 -0.54212419632E+02 -0.12823516309E+03  0.13974746411E+03  0.00000000000E+00 0.  1.
        -13    1    4    4    0    0  0.17352876234E+02  0.24441126358E+02  0.50534596936E+02  0.58755735539E+02  0.00000000000E+00 0. -1.
         13    1    4    4    0    0 -0.68676484152E+02 -0.17560158973E+02  0.27799275840E+03  0.28688811823E+03  0.00000000000E+00 0.  1.
         -3    1    1    2    0  502  0.49045721492E+02  0.66103670501E+02  0.28279620675E+03  0.29453161563E+03  0.00000000000E+00 0.  1.
<scales pt_clust_5="13000.00000" pt_clust_6="13000.00000" pt_clust_7="13000.00000" pt_clust_8="13000.00000" pt_clust_9="82.31147"></scales>
<clustering>
<clus scale="   79.676">  5  6 -1 -1</clus>
<clus scale="   82.311">  1  9  2 -1</clus>
<clus scale="   94.117">  7  8 -1 -1</clus>
<clus scale="  105.637">  2  5  1 -1</clus>
<clus scale="   82.311">  1  5  2 -1</clus>
</clustering>
</event>
<event>
 9    1  0.6345107E-005  0.1259039E+03  0.7546771E-02  0.1252173E+00
          1   -1    0    0  502    0 -0.00000000000E+00  0.00000000000E+00  0.56535260350E+03  0.56535260350E+03  0.00000000000E+00 0. -1.
         21   -1    0    0  501  502  0.00000000000E+00 -0.00000000000E+00 -0.70898014386E+02  0.70898014386E+02  0.00000000000E+00 0. -1.
        -24    2    1    2    0    0  0.13388796700E+02  0.31801399180E+02  0.35849298374E+03  0.36880607344E+03  0.79436210547E+02 0.  0.
         23    2    1    2    0    0 -0.66443834186E+02  0.39604823022E+02  0.13126411548E+03  0.17836170669E+03  0.92732439268E+02 0.  0.
         11    1    3    3    0    0 -0.15004220860E+02  0.50262433961E+02  0.23219922518E+03  0.23805024488E+03  0.00000000000E+00 0. -1.
        -12    1    3    3    0    0  0.28393017561E+02 -0.18461034781E+02  0.12629375856E+03  0.13075582856E+03  0.00000000000E+00 0.  1.
        -11    1    4    4    0    0  0.12099518517E+01 -0.21665648306E+02  0.45085066407E+01  0.22162827711E+02  0.00000000000E+00 0.  1.
         11    1    4    4    0    0 -0.67653786037E+02  0.61270471328E+02  0.12675560884E+03  0.15619887898E+03  0.00000000000E+00 0. -1.
          2    1    1    2  501    0  0.53055037485E+02 -0.71406222202E+02  0.46974898917E+01  0.89082837758E+02  0.00000000000E+00 0. -1.
<scales pt_clust_5="13000.00000" pt_clust_6="13000.00000" pt_clust_7="13000.00000" pt_clust_8="13000.00000" pt_clust_9="85.16160"></scales>
<clustering>
<clus scale="   79.436">  5  6 -1 -1</clus>
<clus scale="   86.607">  1  5  2 -1</clus>
<clus scale="   85.162">  2  9  1 -1</clus>
<clus scale="   92.732">  7  8 -1 -1</clus>
<clus scale="   85.162">  2  5  1 -1</clus>
</clustering>
</event>
<event>
 9    1  0.6345107E-005  0.1039239E+03  0.7546771E-02  0.1276987E+00
         -4   -1    0    0    0  501 -0.00000000000E+00  0.00000000000E+00  0.23494083020E+03  0.23494083020E+03  0.00000000000E+00 0.  1.
         21   -1    0    0  501  502  0.00000000000E+00 -0.00000000000E+00 -0.12334919595E+03  0.12334919595E+03  0.00000000000E+00 0. -1.
         23    2    1    2    0    0  0.28565562135E+02  0.37709484864E+02  0.18367957807E+03  0.21095150429E+03  0.92327423732E+02 0.  0.
        -24    2    1    2    0    0 -0.10752305543E+02 -0.54344191215E+02 -0.72925906623E+02  0.12295148130E+03  0.82036429131E+02 0.  0.
         13    1    4    4    0    0 -0.24725540481E+02 -0.57213133169E+02 -0.84207697715E+02  0.10476464725E+03  0.00000000000E+00 0. -1.
        -14    1    4    4    0    0  0.13973234938E+02  0.28689419538E+01  0.11281791093E+02  0.18186834052E+02  0.00000000000E+00 0.  1.
        -13    1    3    3    0    0  0.26234140696E+02 -0.11339653843E+02  0.14675779432E+03  0.14951477546E+03  0.00000000000E+00 0.  1.
         13    1    3    3    0    0  0.23314214386E+01  0.49049138707E+02  0.36921783751E+02  0.61436728829E+02  0.00000000000E+00 0. -1.
         -3    1    1    2    0  502 -0.17813256592E+02  0.16634706351E+02  0.83796279867E+00  0.24387040564E+02  0.00000000000E+00 0.  1.
<scales pt_clust_5="13000.00000" pt_clust_6="13000.00000" pt_clust_7="13000.00000" pt_clust_8="13000.00000" pt_clust_9="24.37264"></scales>
<clustering>
<clus scale="   24.373">  2  9  1 -1</clus>
<clus scale="   82.036">  5  6 -1 -1</clus>
<clus scale="   92.327">  7  8 -1 -1</clus>
<clus scale="   94.899">  2  5  1 -1</clus>
<clus scale="   24.373">  2  5  1 -1</clus>
</clustering>
</event>
<event>
 9    1  0.6345107E-005  0.1248480E+03  0.7546771E-02  0.1237855E+00
         21   -1    0    0  501  502  0.00000000000E+00  0.00000000000E+00  0.14502330936E+03  0.14502330936E+03  0.00000000000E+00 0. -1.
          1   -1    0    0  502    0 -0.00000000000E+00 -0.00000000000E+00 -0.18365526228E+03  0.18365526228E+03  0.00000000000E+00 0. -1.
         23    2    1    2    0    0 -0.10341236113E+03  0.19703135974E+02 -0.84138485065E+02  0.16282249862E+03  0.91375879671E+02 0.  0.
        -24    2    1    2    0    0  0.58875282456E+02 -0.19626648113E+01  0.24429087338E+01  0.10141422826E+03  0.82515010474E+02 0.  0.
         13    1    4    4    0    0  0.72363068900E+02 -0.13803617863E+02 -0.16315110373E+02  0.75452875579E+02  0.00000000000E+00 0. -1.
        -14    1    4    4    0    0 -0.13487786443E+02  0.11840953051E+02  0.18758019107E+02  0.25961352683E+02  0.00000000000E+00 0.  1.
        -11    1    3    3    0    0 -0.96728344038E+02  0.28680475809E+00 -0.24550734687E+02  0.99795758282E+02  0.00000000000E+00 0.  1.
         11    1    3    3    0    0 -0.66840170914E+01  0.19416331216E+02 -0.59587750377E+02  0.63026740336E+02  0.00000000000E+00 0. -1.
          2    1    1    2  501    0  0.44537078673E+02 -0.17740471163E+02  0.43063623416E+02  0.64441844756E+02  0.00000000000E+00 0. -1.
<scales pt_clust_5="13000.00000" pt_clust_6="13000.00000" pt_clust_7="13000.00000" pt_clust_8="13000.00000" pt_clust_9="47.94033"></scales>
<clustering>
<clus scale="   47.940">  1  9  2 -1</clus>
<clus scale="   82.515">  5  6 -1 -1</clus>
<clus scale="   91.376">  7  8 -1 -1</clus>
<clus scale="  118.517">  1  5  2 -1</clus>
<clus scale="   47.940">  1  5  2 -1</clus>
</clustering>
</event>
<event>
 9    1  0.6345107E-005  0.9727344E+02  0.7546771E-02  0.1290931E+00
         21   -1    0    0  501  502  0.00000000000E+00  0.00000000000E+00  0.30037947626E+03  0.30037947626E+03  0.00000000000E+00 0. -1.
          1   -1    0    0  502    0 -0.00000000000E+00 -0.00000000000E+00 -0.91002400256E+02  0.91002400256E+02  0.00000000000E+00 0. -1.
        -24    2    1    2    0    0 -0.43481696250E+02 -0.20593296062E+02 -0.31311650536E+02  0.10033799571E+03  0.82295517330E+02 0.  0.
         23    2    1    2    0    0 -0.15456838839E+02 -0.29349947618E+01  0.97813273500E+02  0.13470857939E+03  0.91276704735E+02 0.  0.
         13    1    3    3    0    0 -0.21348222621E+02  0.31460286310E+02 -0.64986483854E+01  0.38571085733E+02  0.00000000000E+00 0. -1.
        -14    1    3    3    0    0 -0.22133473628E+02 -0.52053582371E+02 -0.24813002151E+02  0.61766909978E+02  0.00000000000E+00 0.  1.
        -11    1    4    4    0    0  0.26464433323E+02  0.29471165930E+02  0.40241737031E+02  0.56465150772E+02  0.00000000000E+00 0.  1.
         11    1    4    4    0    0 -0.41921272162E+02 -0.32406160692E+02  0.57571536470E+02  0.78243428618E+02  0.00000000000E+00 0. -1.
          2    1    1    2  501    0  0.58938535089E+02  0.23528290823E+02  0.14287545304E+03  0.15633530142E+03  0.00000000000E+00 0. -1.
<scales pt_clust_5="13000.00000" pt_clust_6="13000.00000" pt_clust_7="13000.00000" pt_clust_8="13000.00000" pt_clust_9="63.46126"></scales>
<clustering>
<clus scale="   63.461">  1  9  2 -1</clus>
<clus scale="   82.296">  5  6 -1 -1</clus>
<clus scale="   88.900">  2  5  1 -1</clus>
<clus scale="   91.277">  7  8 -1 -1</clus>
<clus scale="   63.461">  1  5  2 -1</clus>
</clustering>
</event>
<event>
 9    1  0.6345107E-005  0.1314269E+03  0.7546771E-02  0.1227521E+00
          3   -1    0    0  502    0 -0.00000000000E+00  0.00000000000E+00  0.24451986587E+03  0.24451986587E+03  0.00000000000E+00 0. -1.
         21   -1    0    0  501  502  0.00000000000E+00 -0.00000000000E+00 -0.18169396665E+03  0.18169396665E+03  0.00000000000E+00 0. -1.
         23    2    1    2    0    0 -0.81106704062E+02  0.58054030991E+02  0.19432225850E+03  0.23631243874E+03  0.90187918231E+02 0.  0.
        -24    2    1    2    0    0  0.57369345863E+02 -0.41070523596E+02 -0.10399644795E+03  0.14979968781E+03  0.81527023310E+02 0.  0.
         11    1    4    4    0    0 -0.83127818480E+00 -0.46800633387E+02 -0.30471323201E+02  0.55852411286E+02  0.00000000000E+00 0. -1.
        -12    1    4    4    0    0  0.58200624048E+02  0.57301097911E+01 -0.73525124745E+02  0.93947276526E+02  0.00000000000E+00 0.  1.
        -13    1    3    3    0    0 -0.80966051605E+02  0.78482927074E+02  0.17506554747E+03  0.20823788624E+03  0.00000000000E+00 0. -1.
         13    1    3    3    0    0 -0.14065245669E+00 -0.20428896082E+02  0.19256711038E+02  0.28074552503E+02  0.00000000000E+00 0.  1.
          4    1    1    2  501    0  0.23737358199E+02 -0.16983507396E+02 -0.27499911344E+02  0.40101705969E+02  0.00000000000E+00 0. -1.
<scales pt_clust_5="13000.00000" pt_clust_6="13000.00000" pt_clust_7="13000.00000" pt_clust_8="13000.00000" pt_clust_9="29.18736"></scales>
<clustering>
<clus scale="   29.187">  2  9  1 -1</clus>
<clus scale="   81.527">  5  6 -1 -1</clus>
<clus scale="   90.188">  7  8 -1 -1</clus>
<clus scale="  125.642">  2  5  1 -1</clus>
<clus scale="   29.187">  2  5  1 -1</clus>
</clustering>
</event>
<event>
 9    1  0.6345107E-005  0.1159156E+03  0.7546771E-02  0.1251053E+00
         21   -1    0    0  501  502  0.00000000000E+00  0.00000000000E+00  0.72773881184E+02  0.72773881184E+02  0.00000000000E+00 0. -1.
          3   -1    0    0  502    0 -0.00000000000E+00 -0.00000000000E+00 -0.57691430604E+03  0.57691430604E+03  0.00000000000E+00 0. -1.
        -24    2    1    2    0    0 -0.45318915866E+02 -0.47062260639E+02 -0.34460231028E+03  0.36164013815E+03  0.88114566112E+02 0.  0.
         23    2    1    2    0    0  0.10779741309E+03  0.49936589323E+02 -0.43079326232E+02  0.15585699883E+03  0.91222971420E+02 0.  0.
         11    1    3    3    0    0 -0.34491476627E+02 -0.71281444012E+02 -0.29434096341E+03  0.30480700281E+03  0.00000000000E+00 0. -1.
        -12    1    3    3    0    0 -0.10827439239E+02  0.24219183374E+02 -0.50261346867E+02  0.56833135341E+02  0.00000000000E+00 0.  1.
        -11    1    4    4    0    0  0.91471552109E+02  0.29955175462E+02 -0.69658216683E+02  0.11881340216E+03  0.00000000000E+00 0. -1.
         11    1    4    4    0    0  0.16325860981E+02  0.19981413860E+02  0.26578890451E+02  0.37043596670E+02  0.00000000000E+00 0.  1.
          4    1    1    2  501    0 -0.62478497223E+02 -0.28743286838E+01 -0.11645878834E+03  0.13219105024E+03  0.00000000000E+00 0. -1.
<scales pt_clust_5="13000.00000" pt_clust_6="13000.00000" pt_clust_7="13000.00000" pt_clust_8="13000.00000" pt_clust_9="62.54461"></scales>
<clustering>
<clus scale="   62.545">  1  9  2 -1</clus>
<clus scale="   88.115">  5  6 -1 -1</clus>
<clus scale="   91.223">  7  8 -1 -1</clus>
<clus scale="  113.486">  2  5  1 -1</clus>
<clus scale="   62.545">  1  5  2 -1</clus>
</clustering>
</event>
<event>
 9    1  0.6345107E-005  0.1083376E+03  0.7546771E-02  0.1268559E+00
         21   -1    0    0  501  502  0.00000000000E+00  0.00000000000E+00  0.62426130820E+03  0.62426130820E+03  0.00000000000E+00 0.  1.
         -4   -1    0    0    0  501 -0.00000000000E+00 -0.00000000000E+00 -0.30398940756E+02  0.30398940756E+02  0.00000000000E+00 0.  1.
        -24    2    1    2    0    0  0.17304040291E+02  0.67498671511E+02  0.12873745577E+03  0.16703403560E+03  0.80445857963E+02 0.  0.
         23    2    1    2    0    0  0.37816104469E+01 -0.36393319396E+02  0.24506152542E+03  0.26437738006E+03  0.92203435809E+02 0.  0.
         13    1    3    3    0    0 -0.23697260133E+02 -0.68636255774E+00  0.48778758764E+02  0.54234661776E+02  0.00000000000E+00 0. -1.
        -14    1    3    3    0    0  0.41001300425E+02  0.68185034069E+02  0.79958697008E+02  0.11279937382E+03  0.00000000000E+00 0.  1.
        -13    1    4    4    0    0 -0.38313048207E+02 -0.23183861713E+02  0.64617114561E+02  0.78617762630E+02  0.00000000000E+00 0. -1.
         13    1    4    4    0    0  0.42094658654E+02 -0.13209457684E+02  0.18044441086E+03  0.18575961743E+03  0.00000000000E+00 0.  1.
         -3    1    1    2    0  502 -0.21085650738E+02 -0.31105352115E+02  0.22006338625E+03  0.22324883329E+03  0.00000000000E+00 0.  1.
<scales pt_clust_5="13000.00000" pt_clust_6="13000.00000" pt_clust_7="13000.00000" pt_clust_8="13000.00000" pt_clust_9="37.57855"></scales>
<clustering>
<clus scale="   37.579">  1  9  2 -1</clus>
<clus scale="   80.446">  5  6 -1 -1</clus>
<clus scale="   92.203">  7  8 -1 -1</clus>
<clus scale="   98.525">  2  5  1 -1</clus>
<clus scale="   37.579">  1  5  2 -1</clus>
</clustering>
</event>
<event>
 9    1  0.6345107E-005  0.2347205E+03  0.7546771E-02  0.1123361E+00
          3   -1    0    0  502    0 -0.00000000000E+00  0.00000000000E+00  0.35443209916E+03  0.35443209916E+03  0.00000000000E+00 0. -1.
         21   -1    0    0  501  502  0.00000000000E+00 -0.00000000000E+00 -0.10130628256E+03  0.10130628256E+03  0.00000000000E+00 0. -1.
        -24    2    1    2    0    0 -0.83445977827E+02  0.16929485210E+02  0.80473269275E+02  0.14093067280E+03  0.78330509910E+02 0.  0.
         23    2    1    2    0    0 -0.31260429475E+02  0.69807455684E+02  0.87187673484E+02  0.14752022746E+03  0.91160472699E+02 0.  0.
         11    1    3    3    0    0 -0.63291960978E+02  0.45662617361E+02  0.41169636221E+02  0.88237667100E+02  0.00000000000E+00 0. -1.
        -12    1    3    3    0    0 -0.20154016849E+02 -0.28733132151E+02  0.39303633053E+02  0.52693005699E+02  0.00000000000E+00 0.  1.
        -13    1    4    4    0    0 -0.53898055436E+02  0.25927179123E+02  0.76318516385E+02  0.96962544007E+02  0.00000000000E+00 0.  1.
         13    1    4    4    0    0  0.22637625961E+02  0.43880276561E+02  0.10869157098E+02  0.50557683455E+02  0.00000000000E+00 0. -1.
          4    1    1    2  501    0  0.11470640730E+03 -0.86736940894E+02  0.85464873846E+02  0.16728748146E+03  0.00000000000E+00 0. -1.
<scales pt_clust_5="13000.00000" pt_clust_6="13000.00000" pt_clust_7="13000.00000" pt_clust_8="13000.00000" pt_clust_9="143.80840"></scales>
<clustering>
<clus scale="   78.331">  5  6 -1 -1</clus>
<clus scale="   91.160">  7  8 -1 -1</clus>
<clus scale="  114.963">  5  7 -1 -1</clus>
<clus scale="  143.808">  2  9  1 -1</clus>
<clus scale="  143.808">  2  5  1 -1</clus>
</clustering>
</event>
<event>
 9    1  0.6345107E-005  0.1229335E+03  0.7546771E-02  0.1241665E+00
         21   -1    0    0  501  502  0.00000000000E+00  0.00000000000E+00  0.45723774797E+02  0.45723774797E+02  0.00000000000E+00 0.  1.
         -4   -1    0    0    0  501 -0.00000000000E+00 -0.00000000000E+00 -0.57652279724E+03  0.57652279724E+03  0.00000000000E+00 0.  1.
         23    2    1    2    0    0 -0.36901537816E+02 -0.86764149316E+02 -0.40034541509E+03  0.42118370074E+03  0.90716686921E+02 0.  0.
        -24    2    1    2    0    0  0.22029428772E+02  0.45311015452E+02 -0.43670299617E+02  0.10374440216E+03  0.79482212203E+02 0.  0.
         11    1    4    4    0    0  0.48576548146E+02  0.45963301851E+02 -0.36726578034E+02  0.76296446057E+02  0.00000000000E+00 0. -1.
        -12    1    4    4    0    0 -0.26547119374E+02 -0.65228639902E+00 -0.69437215835E+01  0.27447956099E+02  0.00000000000E+00 0.  1.
        -13    1    3    3    0    0 -0.43648068652E+02 -0.15474179826E+02 -0.75757957892E+02  0.88791172547E+02  0.00000000000E+00 0. -1.
         13    1    3    3    0    0  0.67465308368E+01 -0.71289969490E+02 -0.32458745720E+03  0.33239252819E+03  0.00000000000E+00 0.  1.
         -3    1    1    2    0  502  0.14872109043E+02  0.41453133864E+02 -0.86783307738E+02  0.97318469144E+02  0.00000000000E+00 0.  1.
<scales pt_clust_5="13000.00000" pt_clust_6="13000.00000" pt_clust_7="13000.00000" pt_clust_8="13000.00000" pt_clust_9="44.04025"></scales>
<clustering>
<clus scale="   44.040">  1  9  2 -1</clus>
<clus scale="   79.482">  5  6 -1 -1</clus>
<clus scale="   90.717">  7  8 -1 -1</clus>
<clus scale="  114.894">  1  5  2 -1</clus>
<clus scale="   44.040">  1  5  2 -1</clus>
</clustering>
</event>
<event>
 9    1  0.6345107E-005  0.9813782E+02  0.7546771E-02  0.1289954E+00
         21   -1    0    0  501  502  0.00000000000E+00  0.00000000000E+00  0.61497097011E+02  0.61497097011E+02  0.00000000000E+00 0.  1.
          1   -1    0    0  502    0 -0.00000000000E+00 -0.00000000000E+00 -0.32351583404E+03  0.32351583404E+03  0.00000000000E+00 0. -1.
         23    2    1    2    0    0  0.97034571977E+01 -0.34732343396E+02 -0.23801107708E+03  0.25757597098E+03  0.91627590006E+02 0.  0.
        -24    2    1    2    0    0  0.23481258754E+02  0.36216436650E+02 -0.21347939342E+02  0.94112764369E+02  0.80860856456E+02 0.  0.
         11    1    4    4    0    0 -0.19868185655E+02 -0.32320113134E+01  0.15036957408E+02  0.25125699721E+02  0.00000000000E+00 0. -1.
        -12    1    4    4    0    0  0.43349444409E+02  0.39448447963E+02 -0.36384896750E+02  0.68987064648E+02  0.00000000000E+00 0.  1.
        -11    1    3    3    0    0 -0.34772774430E+02 -0.38300661119E+02 -0.10091239845E+03  0.11339928856E+03  0.00000000000E+00 0. -1.
         11    1    3    3    0    0  0.44476231628E+02  0.35683177224E+01 -0.13709867863E+03  0.14417668242E+03  0.00000000000E+00 0.  1.
          2    1    1    2  501    0 -0.33184715952E+02 -0.14840932534E+01 -0.26597206011E+01  0.33324195703E+02  0.00000000000E+00 0. -1.
<scales pt_clust_5="13000.00000" pt_clust_6="13000.00000" pt_clust_7="13000.00000" pt_clust_8="13000.00000" pt_clust_9="33.21789"></scales>
<clustering>
<clus scale="   33.218">  1  9  2 -1</clus>
<clus scale="   80.861">  5  6 -1 -1</clus>
<clus scale="   88.170">  1  5  2 -1</clus>
<clus scale="   91.628">  7  8 -1 -1</clus>
<clus scale="   33.218">  1  5  2 -1</clus>
</clustering>
</event>
<event>
 9    1  0.6345107E-005  0.2732617E+03  0.7546771E-02  0.1131054E+00
          1   -1    0    0  502    0 -0.00000000000E+00  0.00000000000E+00  0.29288667364E+03  0.29288667364E+03  0.00000000000E+00 0. -1.
         21   -1    0    0  501  502  0.00000000000E+00 -0.00000000000E+00 -0.41194491127E+03  0.41194491127E+03  0.00000000000E+00 0. -1.
        -24    2    1    2    0    0  0.36626324910E+02 -0.85228000511E+02 -0.96128714977E+02  0.15612760943E+03  0.80807183069E+02 0.  0.
         23    2    1    2    0    0  0.23533630217E+03  0.38291061296E+02  0.57174247577E+02  0.26133076728E+03  0.90418443048E+02 0.  0.
         11    1    3    3    0    0 -0.12007164641E+02 -0.62622661091E+02 -0.75109879701E+02  0.98525447035E+02  0.00000000000E+00 0. -1.
        -12    1    3    3    0    0  0.48633489550E+02 -0.22605339420E+02 -0.21018835276E+02  0.57602162394E+02  0.00000000000E+00 0.  1.
        -13    1    4    4    0    0  0.76026374976E+02  0.49951765632E+02 -0.19900214117E+01  0.90989827821E+02  0.00000000000E+00 0.  1.
         13    1    4    4    0    0  0.15930992720E+03 -0.11660704336E+02  0.59164268989E+02  0.17034093945E+03  0.00000000000E+00 0. -1.
          2    1    1    2  501    0 -0.27196262708E+03  0.46936939215E+02 -0.80103770228E+02  0.28737320821E+03  0.00000000000E+00 0. -1.
<scales pt_clust_5="13000.00000" pt_clust_6="13000.00000" pt_clust_7="13000.00000" pt_clust_8="13000.00000" pt_clust_9="257.86910"></scales>
<clustering>
<clus scale="   80.807">  5  6 -1 -1</clus>
<clus scale="   90.418">  7  8 -1 -1</clus>
<clus scale="  123.025">  1  5  2 -1</clus>
<clus scale="  257.869">  2  9  1 -1</clus>
<clus scale="  257.869">  2  5  1 -1</clus>
</clustering>
</event>
<event>
 9    1  0.6345107E-005  0.1892002E+03  0.7546771E-02  0.1180489E+00
          1   -1    0    0  502    0 -0.00000000000E+00  0.00000000000E+00  0.77097755130E+03  0.77097755130E+03  0.00000000000E+00 0. -1.
         21   -1    0    0  501  502  0.00000000000E+00 -0.00000000000E+00 -0.82368675572E+02  0.82368675572E+02  0.00000000000E+00 0. -1.
         23    2    1    2    0    0  0.66600166492E+02 -0.35302991970E+02  0.10027803960E+03  0.15348671465E+03  0.88434172857E+02 0.  0.
        -24    2    1    2    0    0 -0.52265359641E+00 -0.15566211244E+03  0.23251835411E+03  0.29066954268E+03  0.78695817112E+02 0.  0.
         13    1    4    4    0    0  0.34554607134E+02 -0.11587473475E+03  0.15160393306E+03  0.19391938415E+03  0.00000000000E+00 0. -1.
        -14    1    4    4    0    0 -0.35077260730E+02 -0.39787377684E+02  0.80914421043E+02  0.96750158532E+02  0.00000000000E+00 0.  1.
        -11    1    3    3    0    0  0.68793366947E+02 -0.13438105751E+02  0.10920788040E+03  0.12976698796E+03  0.00000000000E+00 0.  1.
         11    1    3    3    0    0 -0.21932004551E+01 -0.21864886219E+02 -0.89298407998E+01  0.23719726691E+02  0.00000000000E+00 0. -1.
          2    1    1    2  501    0 -0.66077512895E+02  0.19096510441E+03  0.35581248202E+03  0.40918996954E+03  0.00000000000E+00 0. -1.
<scales pt_clust_5="13000.00000" pt_clust_6="13000.00000" pt_clust_7="13000.00000" pt_clust_8="13000.00000" pt_clust_9="172.05734"></scales>
<clustering>
<clus scale="   78.696">  5  6 -1 -1</clus>
<clus scale="   88.434">  7  8 -1 -1</clus>
<clus scale="  116.200">  1  7  2 -1</clus>
<clus scale="  172.057">  2  9  1 -1</clus>
<clus scale="  172.057">  2  5  1 -1</clus>
</clustering>
</event>
<event>
 9    1  0.6345107E-005  0.1164917E+03  0.7546771E-02  0.1253459E+00
         21   -1    0    0  501  502  0.00000000000E+00  0.00000000000E+00  0.22064933268E+02  0.22064933268E+02  0.00000000000E+00 0.  1.
         -2   -1    0    0    0  501 -0.00000000000E+00 -0.00000000000E+00 -0.90504868084E+03  0.90504868084E+03  0.00000000000E+00 0.  1.
         23    2    1    2    0    0  0.56541450339E+02 -0.19485161653E+02 -0.45248779114E+03  0.46614757555E+03  0.94719342937E+02 0.  0.
        -24    2    1    2    0    0 -0.76038648511E+02  0.38134401117E+02 -0.22981803483E+03  0.25848255013E+03  0.82224029167E+02 0.  0.
         13    1    4    4    0    0  0.15446625640E+02  0.17158832436E+02 -0.31291800994E+02  0.38887023333E+02  0.00000000000E+00 0. -1.
        -14    1    4    4    0    0 -0.91485274151E+02  0.20975568681E+02 -0.19852623383E+03  0.21959552679E+03  0.00000000000E+00 0.  1.
        -11    1    3    3    0    0  0.70027004049E+02 -0.38935634873E+02 -0.40761803400E+03  0.41541813466E+03  0.00000000000E+00 0.  1.
         11    1    3    3    0    0 -0.13485553710E+02  0.19450473220E+02 -0.44869757143E+02  0.50729440894E+02  0.00000000000E+00 0. -1.
         -1    1    1    2    0  502  0.19497198172E+02 -0.18649239464E+02 -0.20067792160E+03  0.20248348843E+03  0.00000000000E+00 0.  1.
<scales pt_clust_5="13000.00000" pt_clust_6="13000.00000" pt_clust_7="13000.00000" pt_clust_8="13000.00000" pt_clust_9="26.98028"></scales>
<clustering>
<clus scale="   26.980">  1  9  2 -1</clus>
<clus scale="   82.224">  5  6 -1 -1</clus>
<clus scale="   94.719">  7  8 -1 -1</clus>
<clus scale="  106.580">  1  5  2 -1</clus>
<clus scale="   26.980">  1  5  2 -1</clus>
</clustering>
</event>
<event>
 9    1  0.6345107E-005  0.1014064E+03  0.7546771E-02  0.1282495E+00
          1   -1    0    0  502    0 -0.00000000000E+00  0.00000000000E+00  0.12905516424E+03  0.12905516424E+03  0.00000000000E+00 0. -1.
         21   -1    0    0  501  502  0.00000000000E+00 -0.00000000000E+00 -0.29678016552E+03  0.29678016552E+03  0.00000000000E+00 0. -1.
         23    2    1    2    0    0  0.46663375438E+02 -0.36608559231E+01  0.80741686268E+02  0.13005480362E+03  0.90576815855E+02 0.  0.
        -24    2    1    2    0    0 -0.36812177891E+02 -0.52930303501E+02 -0.16887422441E+03  0.19762470305E+03  0.79876568011E+02 0.  0.
         13    1    4    4    0    0  0.24554617676E+01 -0.36415590531E+02 -0.14343932308E+03  0.14801001295E+03  0.00000000000E+00 0. -1.
        -14    1    4    4    0    0 -0.39267639659E+02 -0.16514712970E+02 -0.25434901327E+02  0.49614690107E+02  0.00000000000E+00 0.  1.
        -13    1    3    3    0    0 -0.63801681766E+01 -0.38021507294E+02  0.26654244060E+02  0.46869929478E+02  0.00000000000E+00 0.  1.
         13    1    3    3    0    0  0.53043543615E+02  0.34360651371E+02  0.54087442208E+02  0.83184874145E+02  0.00000000000E+00 0. -1.
          2    1    1    2  501    0 -0.98511975467E+01  0.56591159424E+02 -0.79592463133E+02  0.98155823086E+02  0.00000000000E+00 0. -1.
<scales pt_clust_5="13000.00000" pt_clust_6="13000.00000" pt_clust_7="13000.00000" pt_clust_8="13000.00000" pt_clust_9="57.44219"></scales>
<clustering>
<clus scale="   57.442">  2  9  1 -1</clus>
<clus scale="   79.877">  5  6 -1 -1</clus>
<clus scale="   90.577">  7  8 -1 -1</clus>
<clus scale="   91.975">  2  5  1 -1</clus>
<clus scale="   57.442">  2  5  1 -1</clus>
</clustering>
</event>
<event>
 9    1  0.6345107E-005  0.9345630E+02  0.7546771E-02  0.1296599E+00
         -4   -1    0    0    0  501 -0.00000000000E+00  0.00000000000E+00  0.18456616983E+03  0.18456616983E+03  0.00000000000E+00 0.  1.
         21   -1    0    0  501  502  0.00000000000E+00 -0.00000000000E+00 -0.13627820721E+03  0.13627820721E+03  0.00000000000E+00 0.  1.
         23    2    1    2    0    0  0.46296581447E+02  0.28036233169E+01  0.11891565397E+03  0.14816797122E+03  0.75243479309E+02 0.  0.
        -24    2    1    2    0    0 -0.59937969420E+02 -0.22082112175E+02 -0.37490056861E+01  0.10175034437E+03  0.79113195360E+02 0.  0.
         13    1    4    4    0    0 -0.68066784409E+02 -0.17281534688E+02  0.22590293071E+02  0.73770318706E+02  0.00000000000E+00 0. -1.
        -14    1    4    4    0    0  0.81288149890E+01 -0.48005774874E+01 -0.26339298757E+02  0.27980025667E+02  0.00000000000E+00 0.  1.
        -11    1    3    3    0    0 -0.66587515526E+01 -0.24059126338E+02  0.16954790902E+02  0.30176902872E+02  0.00000000000E+00 0.  1.
         11    1    3    3    0    0  0.52955333000E+02  0.26862749655E+02  0.10196086306E+03  0.11799106834E+03  0.00000000000E+00 0. -1.
         -3    1    1    2    0  502  0.13641387973E+02  0.19278488858E+02 -0.66878685660E+02  0.70926061459E+02  0.00000000000E+00 0.  1.
<scales pt_clust_5="13000.00000" pt_clust_6="13000.00000" pt_clust_7="13000.00000" pt_clust_8="13000.00000" pt_clust_9="23.61668"></scales>
<clustering>
<clus scale="   23.617">  2  9  1 -1</clus>
<clus scale="   75.243">  7  8 -1 -1</clus>
<clus scale="   79.113">  5  6 -1 -1</clus>
<clus scale="   90.204">  1  7  2 -1</clus>
<clus scale="   23.617">  2  5  1 -1</clus>
</clustering>
</event>
<event>
 9    1  0.6345107E-005  0.9916024E+02  0.7546771E-02  0.1289367E+00
          3   -1    0    0  502    0 -0.00000000000E+00  0.00000000000E+00  0.14251949526E+03  0.14251949526E+03  0.00000000000E+00 0. -1.
         21   -1    0    0  501  502  0.00000000000E+00 -0.00000000000E+00 -0.21704369690E+03  0.21704369690E+03  0.00000000000E+00 0.  1.
        -24    2    1    2    0    0 -0.25075273256E+02 -0.17771522970E+02  0.10394274718E+03  0.13548208410E+03  0.81281634240E+02 0.  0.
         23    2    1    2    0    0 -0.56604719175E+01  0.33750861112E+02 -0.12806153003E+03  0.16291958812E+03  0.94719982847E+02 0.  0.
         11    1    3    3    0    0 -0.45733349907E+01 -0.36634220372E+02  0.10091835571E+03  0.10745927608E+03  0.00000000000E+00 0. -1.
        -12    1    3    3    0    0 -0.20501938265E+02  0.18862697401E+02  0.30243914626E+01  0.28022808025E+02  0.00000000000E+00 0.  1.
        -13    1    4    4    0    0 -0.48172103234E+02  0.99955533983E+01 -0.83467034714E+02  0.96887607575E+02  0.00000000000E+00 0.  1.
         13    1    4    4    0    0  0.42511631317E+02  0.23755307714E+02 -0.44594495315E+02  0.66031980541E+02  0.00000000000E+00 0. -1.
          4    1    1    2  501    0  0.30735745173E+02 -0.15979338142E+02 -0.50405418788E+02  0.61161519945E+02  0.00000000000E+00 0. -1.
<scales pt_clust_5="13000.00000" pt_clust_6="13000.00000" pt_clust_7="13000.00000" pt_clust_8="13000.00000" pt_clust_9="34.64138"></scales>
<clustering>
<clus scale="   34.641">  2  9  1 -1</clus>
<clus scale="   81.282">  5  6 -1 -1</clus>
<clus scale="   86.415">  1  5  2 -1</clus>
<clus scale="   94.720">  7  8 -1 -1</clus>
<clus scale="   34.641">  2  5  1 -1</clus>
</clustering>
</event>
<event>
 9    1  0.6345107E-005  0.1742654E+03  0.7546771E-02  0.1175567E+00
          1   -1    0    0  502    0 -0.00000000000E+00  0.00000000000E+00  0.39413777595E+03  0.39413777595E+03  0.00000000000E+00 0. -1.
         21   -1    0    0  501  502  0.00000000000E+00 -0.00000000000E+00 -0.85915124075E+02  0.85915124075E+02  0.00000000000E+00 0. -1.
         23    2    1    2    0    0  0.13930911307E+03  0.17764072328E+02  0.16059771715E+03  0.23442349623E+03  0.97160473345E+02 0.  0.
        -24    2    1    2    0    0 -0.14442923834E+03 -0.41506054324E+02  0.13676530336E+03  0.21902434816E+03  0.81757932042E+02 0.  0.
         11    1    4    4    0    0 -0.37447094009E+02 -0.30618561920E+02  0.89133176281E+02  0.10141254507E+03  0.00000000000E+00 0. -1.
        -12    1    4    4    0    0 -0.10698214433E+03 -0.10887492404E+02  0.47632127080E+02  0.11761180309E+03  0.00000000000E+00 0.  1.
        -11    1    3    3    0    0  0.39632347580E+02 -0.27744902974E+02  0.95278446518E+02  0.10685731134E+03  0.00000000000E+00 0.  1.
         11    1    3    3    0    0  0.99676765493E+02  0.45508975302E+02  0.65319270635E+02  0.12756618489E+03  0.00000000000E+00 0. -1.
          2    1    1    2  501    0  0.51201252667E+01  0.23741981996E+02  0.10859631365E+02  0.26605055632E+02  0.00000000000E+00 0. -1.
<scales pt_clust_5="13000.00000" pt_clust_6="13000.00000" pt_clust_7="13000.00000" pt_clust_8="13000.00000" pt_clust_9="24.28780"></scales>
<clustering>
<clus scale="   24.288">  2  9  1 -1</clus>
<clus scale="   81.758">  5  6 -1 -1</clus>
<clus scale="   97.160">  7  8 -1 -1</clus>
<clus scale="  166.170">  2  5  1 -1</clus>
<clus scale="   24.288">  2  5  1 -1</clus>
</clustering>
</event>
<event>
 9    1  0.6345107E-005  0.1008250E+03  0.7546771E-02  0.1283974E+00
          1   -1    0    0  502    0 -0.00000000000E+00  0.00000000000E+00  0.39217456702E+03  0.39217456702E+03  0.00000000000E+00 0. -1.
         21   -1    0    0  501  502  0.00000000000E+00 -0.00000000000E+00 -0.85883037679E+02  0.85883037679E+02  0.00000000000E+00 0. -1.
         23    2    1    2    0    0 -0.40994842039E+02  0.21049704785E+02  0.31242711907E+03  0.32880759286E+03  0.91542674464E+02 0.  0.
        -24    2    1    2    0    0  0.19279485801E+02 -0.25871298201E+02  0.41846022725E+02  0.96362966238E+02  0.80583552918E+02 0.  0.
         11    1    4    4    0    0 -0.88707314051E+01 -0.49347855418E+02  0.24861768179E+02  0.55964347821E+02  0.00000000000E+00 0. -1.
        -12    1    4    4    0    0  0.28150217206E+02  0.23476557217E+02  0.16984254546E+02  0.40398618417E+02  0.00000000000E+00 0.  1.
        -11    1    3    3    0    0 -0.78962671661E+01 -0.33550225022E+02  0.15773315707E+03  0.16145500139E+03  0.00000000000E+00 0. -1.
         11    1    3    3    0    0 -0.33098574873E+02  0.54599929806E+02  0.15469396199E+03  0.16735259147E+03  0.00000000000E+00 0.  1.
          2    1    1    2  501    0  0.21715356238E+02  0.48215934168E+01 -0.47981612449E+02  0.52887045605E+02  0.00000000000E+00 0. -1.
<scales pt_clust_5="13000.00000" pt_clust_6="13000.00000" pt_clust_7="13000.00000" pt_clust_8="13000.00000" pt_clust_9="22.24420"></scales>
<clustering>
<clus scale="   22.244">  2  9  1 -1</clus>
<clus scale="   80.584">  5  6 -1 -1</clus>
<clus scale="   90.991">  2  5  1 -1</clus>
<clus scale="   91.543">  7  8 -1 -1</clus>
<clus scale="   22.244">  2  5  1 -1</clus>
</clustering>
</event>
<event>
 9    1  0.6345107E-005  0.1055761E+03  0.7546771E-02  0.1272622E+00
         21   -1    0    0  501  502  0.00000000000E+00  0.00000000000E+00  0.51789581140E+02  0.51789581140E+02  0.00000000000E+00 0.  1.
          1   -1    0    0  502    0 -0.00000000000E+00 -0.00000000000E+00 -0.44450044837E+03  0.44450044837E+03  0.00000000000E+00 0. -1.
        -24    2    1    2    0    0  0.48201424588E+02  0.61721533025E+02 -0.17151803073E+03  0.20521616825E+03  0.81008122267E+02 0.  0.
         23    2    1    2    0    0 -0.14490607019E+02 -0.92959540365E+01 -0.40240001906E+02  0.99687370357E+02  0.89565180746E+02 0.  0.
         11    1    3    3    0    0 -0.54072748813E+01  0.41222556193E+02 -0.26626333703E+02  0.49371038142E+02  0.00000000000E+00 0. -1.
        -12    1    3    3    0    0  0.53608699470E+02  0.20498976831E+02 -0.14489169703E+03  0.15584513011E+03  0.00000000000E+00 0.  1.
        -11    1    4    4    0    0 -0.29788103557E+02  0.56489177559E+01  0.19625576977E+02  0.36116542706E+02  0.00000000000E+00 0.  1.
         11    1    4    4    0    0  0.15297496538E+02 -0.14944871792E+02 -0.59865578883E+02  0.63570827651E+02  0.00000000000E+00 0. -1.
          2    1    1    2  501    0 -0.33710817569E+02 -0.52425578988E+02 -0.18095283459E+03  0.19138649090E+03  0.00000000000E+00 0. -1.
<scales pt_clust_5="13000.00000" pt_clust_6="13000.00000" pt_clust_7="13000.00000" pt_clust_8="13000.00000" pt_clust_9="62.32868"></scales>
<clustering>
<clus scale="   62.329">  1  9  2 -1</clus>
<clus scale="   81.008">  5  6 -1 -1</clus>
<clus scale="   89.565">  7  8 -1 -1</clus>
<clus scale="   98.421">  2  5  1 -1</clus>
<clus scale="   62.329">  1  5  2 -1</clus>
</clustering>
</event>
<event>
 9    1  0.6345107E-005  0.1160646E+03  0.7546771E-02  0.1261942E+00
         21   -1    0    0  501  502  0.00000000000E+00  0.00000000000E+00  0.35356463672E+03  0.35356463672E+03  0.00000000000E+00 0. -1.
         -2   -1    0    0    0  501 -0.00000000000E+00 -0.00000000000E+00 -0.92476872553E+02  0.92476872553E+02  0.00000000000E+00 0.  1.
        -24    2    1    2    0    0 -0.15920445753E+02  0.46373127047E+02  0.36151380304E+02  0.10028243417E+03  0.79660007530E+02 0.  0.
         23    2    1    2    0    0  0.48029799792E+01 -0.24542743886E+02  0.27158340151E+03  0.29307029140E+03  0.10727178954E+03 0.  0.
         13    1    3    3    0    0  0.29286502186E+02  0.72730614850E+00  0.11149912250E+02  0.31345633312E+02  0.00000000000E+00 0. -1.
        -14    1    3    3    0    0 -0.45206947939E+02  0.45645820899E+02  0.25001468054E+02  0.68936800857E+02  0.00000000000E+00 0.  1.
        -11    1    4    4    0    0 -0.17912205426E+00 -0.66175165117E+02  0.13772206200E+03  0.15279578177E+03  0.00000000000E+00 0.  1.
         11    1    4    4    0    0  0.49821020334E+01  0.41632421231E+02  0.13386133950E+03  0.14027450963E+03  0.00000000000E+00 0. -1.
         -1    1    1    2    0  502  0.11117465774E+02 -0.21830383161E+02 -0.46647017641E+02  0.52688783712E+02  0.00000000000E+00 0.  1.
<scales pt_clust_5="13000.00000" pt_clust_6="13000.00000" pt_clust_7="13000.00000" pt_clust_8="13000.00000" pt_clust_9="24.49825"></scales>
<clustering>
<clus scale="   24.498">  1  9  2 -1</clus>
<clus scale="   79.660">  5  6 -1 -1</clus>
<clus scale="   91.156">  2  5  1 -1</clus>
<clus scale="  107.272">  7  8 -1 -1</clus>
<clus scale="   24.498">  1  5  2 -1</clus>
</clustering>
</event>
<event>
 9    1  0.6345107E-005  0.9620665E+02  0.7546771E-02  0.1293974E+00
          1   -1    0    0  502    0 -0.00000000000E+00  0.00000000000E+00  0.16249770744E+03  0.16249770744E+03  0.00000000000E+00 0. -1.
         21   -1    0    0  501  502  0.00000000000E+00 -0.00000000000E+00 -0.21430387746E+03  0.21430387746E+03  0.00000000000E+00 0.  1.
         23    2    1    2    0    0 -0.19078968022E+02 -0.20618750044E+02  0.32879706712E+02  0.10064934601E+03  0.90884959508E+02 0.  0.
        -24    2    1    2    0    0  0.26888399979E+01  0.59604670797E+02 -0.16048120915E+03  0.18935667028E+03  0.80881292327E+02 0.  0.
         13    1    4    4    0    0  0.83833105515E+01  0.38855777444E+02 -0.15304733607E+02  0.42594438690E+02  0.00000000000E+00 0. -1.
        -14    1    4    4    0    0 -0.56944705537E+01  0.20748893353E+02 -0.14517647555E+03  0.14676223159E+03  0.00000000000E+00 0.  1.
        -13    1    3    3    0    0 -0.36620256710E+02 -0.36216264562E+02  0.49855251049E+02  0.71681288196E+02  0.00000000000E+00 0. -1.
         13    1    3    3    0    0  0.17541288688E+02  0.15597514518E+02 -0.16975544337E+02  0.28968057814E+02  0.00000000000E+00 0.  1.
          2    1    1    2  501    0  0.16390128024E+02 -0.38985920753E+02  0.75795332421E+02  0.86795568610E+02  0.00000000000E+00 0. -1.
<scales pt_clust_5="13000.00000" pt_clust_6="13000.00000" pt_clust_7="13000.00000" pt_clust_8="13000.00000" pt_clust_9="42.29114"></scales>
<clustering>
<clus scale="   42.291">  2  9  1 -1</clus>
<clus scale="   80.881">  5  6 -1 -1</clus>
<clus scale="   86.818">  2  5  1 -1</clus>
<clus scale="   90.885">  7  8 -1 -1</clus>
<clus scale="   42.291">  2  5  1 -1</clus>
</clustering>
</event>
<event>
 9    1  0.9352242E-005  0.9078866E+02  0.7546771E-02  0.1310033E+00
         21   -1    0    0  501  502  0.00000000000E+00  0.00000000000E+00  0.19357686485E+03  0.19357686485E+03  0.00000000000E+00 0.  1.
          1   -1    0    0  502    0 -0.00000000000E+00 -0.00000000000E+00 -0.26541088568E+03  0.26541088568E+03  0.00000000000E+00 0. -1.
         23    2    1    2    0    0  0.28766600432E+01 -0.76897386475E+01 -0.23419770918E+03  0.25122228964E+03  0.90535432678E+02 0.  0.
        -24    2    1    2    0    0  0.15077658065E+02 -0.13048887630E+01  0.48017334484E+02  0.91669166802E+02  0.76606352372E+02 0.  0.
         11    1    4    4    0    0  0.37267453991E+02  0.16780055205E+02  0.47999971069E+02  0.63043085285E+02  0.00000000000E+00 0. -1.
        -12    1    4    4    0    0 -0.22189795925E+02 -0.18084943968E+02  0.17363415109E-01  0.28626081517E+02  0.00000000000E+00 0.  1.
        -11    1    3    3    0    0 -0.38963358140E+02 -0.23176632770E+02 -0.99837572747E+02  0.10964871416E+03  0.00000000000E+00 0.  1.
         11    1    3    3    0    0  0.41840018184E+02  0.15486894122E+02 -0.13436013644E+03  0.14157357548E+03  0.00000000000E+00 0. -1.
          2    1    1    2  501    0 -0.17954318109E+02  0.89946274105E+01  0.11434635387E+03  0.11609629410E+03  0.00000000000E+00 0. -1.
<scales pt_clust_5="13000.00000" pt_clust_6="13000.00000" pt_clust_7="13000.00000" pt_clust_8="13000.00000" pt_clust_9="20.08136"></scales>
<clustering>
<clus scale="   20.081">  1  9  2 -1</clus>
<clus scale="   76.606">  5  6 -1 -1</clus>
<clus scale="   76.905">  1  5  2 -1</clus>
<clus scale="   90.535">  7  8 -1 -1</clus>
<clus scale="   20.081">  1  5  2 -1</clus>
</clustering>
</event>
<event>
 9    1  0.6345107E-005  0.1132869E+03  0.7546771E-02  0.1258766E+00
         -2   -1    0    0    0  501 -0.00000000000E+00  0.00000000000E+00  0.21116858113E+03  0.21116858113E+03  0.00000000000E+00 0.  1.
         21   -1    0    0  501  502  0.00000000000E+00 -0.00000000000E+00 -0.55237474379E+03  0.55237474379E+03  0.00000000000E+00 0. -1.
        -24    2    1    2    0    0  0.32984308135E+01 -0.80086126792E+02  0.15692792016E+03  0.19348997821E+03  0.79920786976E+02 0.  0.
         23    2    1    2    0    0 -0.29519847697E+02  0.13976299533E+02 -0.37501206732E+02  0.10396245589E+03  0.91296732534E+02 0.  0.
         13    1    3    3    0    0 -0.28262912651E+02 -0.12913224054E+01  0.40693273222E+02  0.49562104784E+02  0.00000000000E+00 0. -1.
        -14    1    3    3    0    0  0.31561343465E+02 -0.78794804387E+02  0.11623464694E+03  0.14392787343E+03  0.00000000000E+00 0.  1.
        -11    1    4    4    0    0 -0.28391502753E+02 -0.19455368875E+02  0.18241628648E+02  0.38953123397E+02  0.00000000000E+00 0.  1.
         11    1    4    4    0    0 -0.11283449435E+01  0.33431668408E+02 -0.55742835380E+02  0.65009332492E+02  0.00000000000E+00 0. -1.
         -1    1    1    2    0  502  0.26221416883E+02  0.66109827259E+02 -0.46063287609E+03  0.46609089081E+03  0.00000000000E+00 0.  1.
<scales pt_clust_5="13000.00000" pt_clust_6="13000.00000" pt_clust_7="13000.00000" pt_clust_8="13000.00000" pt_clust_9="71.12012"></scales>
<clustering>
<clus scale="   71.120">  2  9  1 -1</clus>
<clus scale="   79.921">  5  6 -1 -1</clus>
<clus scale="   91.297">  7  8 -1 -1</clus>
<clus scale="  104.337">  1  5  2 -1</clus>
<clus scale="   71.120">  2  5  1 -1</clus>
</clustering>
</event>
<event>
 9    1  0.6345107E-005  0.9517293E+02  0.7546771E-02  0.1293788E+00
         -2   -1    0    0    0  501 -0.00000000000E+00  0.00000000000E+00  0.21420559252E+03  0.21420559252E+03  0.00000000000E+00 0.  1.
         21   -1    0    0  501  502  0.00000000000E+00 -0.00000000000E+00 -0.12141229856E+03  0.12141229856E+03  0.00000000000E+00 0. -1.
        -24    2    1    2    0    0 -0.13578704224E+02 -0.20457457561E+02  0.79703519611E+02  0.11975840200E+03  0.85944953508E+02 0.  0.
         23    2    1    2    0    0  0.65041484258E+02 -0.18060624653E+02 -0.51511997312E+02  0.12472525135E+03  0.91358204995E+02 0.  0.
         13    1    3    3    0    0  0.35256173960E+02 -0.89918280154E+01  0.19118675126E+02  0.41102001313E+02  0.00000000000E+00 0. -1.
        -14    1    3    3    0    0 -0.48834878184E+02 -0.11465629546E+02  0.60584844485E+02  0.78656400689E+02  0.00000000000E+00 0.  1.
        -13    1    4    4    0    0 -0.17454672831E+02 -0.23291268664E+02 -0.39932402392E+01  0.29378474556E+02  0.00000000000E+00 0.  1.
         13    1    4    4    0    0  0.82496157089E+02  0.52306440118E+01 -0.47518757073E+02  0.95346776794E+02  0.00000000000E+00 0. -1.
         -1    1    1    2    0  502 -0.51462780034E+02  0.38518082214E+02  0.64601771659E+02  0.91134237736E+02  0.00000000000E+00 0.  1.
<scales pt_clust_5="13000.00000" pt_clust_6="13000.00000" pt_clust_7="13000.00000" pt_clust_8="13000.00000" pt_clust_9="64.28114"></scales>
<clustering>
<clus scale="   64.281">  2  9  1 -1</clus>
<clus scale="   85.945">  5  6 -1 -1</clus>
<clus scale="   89.989">  1  5  2 -1</clus>
<clus scale="   91.358">  7  8 -1 -1</clus>
<clus scale="   64.281">  2  5  1 -1</clus>
</clustering>
</event>
<event>
 9    1  0.6345107E-005  0.1053344E+03  0.7546771E-02  0.1277216E+00
         21   -1    0    0  501  502  0.00000000000E+00  0.00000000000E+00  0.57151321603E+02  0.57151321603E+02  0.00000000000E+00 0.  1.
          1   -1    0    0  502    0 -0.00000000000E+00 -0.00000000000E+00 -0.26990717332E+03  0.26990717332E+03  0.00000000000E+00 0. -1.
         23    2    1    2    0    0  0.33004626741E+02  0.42386556494E+02 -0.12276503072E+03  0.16512924700E+03  0.96490879828E+02 0.  0.
        -24    2    1    2    0    0 -0.39109972351E+02 -0.26840542810E+01 -0.81342738085E+02  0.12083967181E+03  0.80304365762E+02 0.  0.
         13    1    4    4    0    0 -0.35595142870E+02 -0.24521718274E+01 -0.97750230708E+02  0.10405832473E+03  0.00000000000E+00 0. -1.
        -14    1    4    4    0    0 -0.35148294804E+01 -0.23188245356E+00  0.16407492623E+02  0.16781347083E+02  0.00000000000E+00 0.  1.
        -13    1    3    3    0    0  0.11632895823E+02 -0.24671866406E+02 -0.75691420746E+02  0.80456301380E+02  0.00000000000E+00 0. -1.
         13    1    3    3    0    0  0.21371730917E+02  0.67058422900E+02 -0.47073609970E+02  0.84672945619E+02  0.00000000000E+00 0.  1.
          2    1    1    2  501    0  0.61053456101E+01 -0.39702502213E+02 -0.86480829201E+01  0.41089576113E+02  0.00000000000E+00 0. -1.
<scales pt_clust_5="13000.00000" pt_clust_6="13000.00000" pt_clust_7="13000.00000" pt_clust_8="13000.00000" pt_clust_9="40.16919"></scales>
<clustering>
<clus scale="   40.169">  1  9  2 -1</clus>
<clus scale="   80.304">  5  6 -1 -1</clus>
<clus scale="   90.739">  1  5  2 -1</clus>
<clus scale="   96.491">  7  8 -1 -1</clus>
<clus scale="   40.169">  1  5  2 -1</clus>
</clustering>
</event>
<event>
 9    1  0.6345107E-005  0.9842422E+02  0.7546771E-02  0.1288867E+00
         21   -1    0    0  501  502  0.00000000000E+00  0.00000000000E+00  0.35596080819E+02  0.35596080819E+02  0.00000000000E+00 0.  1.
          1   -1    0    0  502    0 -0.00000000000E+00 -0.00000000000E+00 -0.41518349778E+03  0.41518349778E+03  0.00000000000E+00 0. -1.
         23    2    1    2    0    0 -0.15387079479E+02  0.24301738987E+02 -0.27689135535E+03  0.29347293038E+03  0.92898877627E+02 0.  0.
        -24    2    1    2    0    0  0.38988190135E+02 -0.24124419020E+02 -0.75169081993E+02  0.12104677407E+03  0.83065420374E+02 0.  0.
         11    1    4    4    0    0 -0.31251916204E+01 -0.24344090621E+02 -0.75019641092E+02  0.78932554249E+02  0.00000000000E+00 0. -1.
        -12    1    4    4    0    0  0.42113381756E+02  0.21967160044E+00 -0.14944090181E+00  0.42114219820E+02  0.00000000000E+00 0.  1.
        -13    1    3    3    0    0 -0.33938203167E+02  0.39394494599E+02 -0.25746133563E+03  0.26265960325E+03  0.00000000000E+00 0. -1.
         13    1    3    3    0    0  0.18551123688E+02 -0.15092755612E+02 -0.19430019725E+02  0.30813327126E+02  0.00000000000E+00 0.  1.
          2    1    1    2  501    0 -0.23601110656E+02 -0.17731996692E+00 -0.27526979616E+02  0.36259874149E+02  0.00000000000E+00 0. -1.
<scales pt_clust_5="13000.00000" pt_clust_6="13000.00000" pt_clust_7="13000.00000" pt_clust_8="13000.00000" pt_clust_9="23.60178"></scales>
<clustering>
<clus scale="   23.602">  1  9  2 -1</clus>
<clus scale="   83.065">  5  6 -1 -1</clus>
<clus scale="   89.202">  1  5  2 -1</clus>
<clus scale="   92.899">  7  8 -1 -1</clus>
<clus scale="   23.602">  1  5  2 -1</clus>
</clustering>
</event>
<event>
 9    1  0.6345107E-005  0.1078680E+03  0.7546771E-02  0.1269425E+00
         21   -1    0    0  501  502  0.00000000000E+00  0.00000000000E+00  0.36121151642E+02  0.36121151642E+02  0.00000000000E+00 0.  1.
          1   -1    0    0  502    0 -0.00000000000E+00 -0.00000000000E+00 -0.65241327424E+03  0.65241327424E+03  0.00000000000E+00 0. -1.
        -24    2    1    2    0    0 -0.38431371870E+02 -0.41827466038E+02 -0.14341868122E+03  0.17332929136E+03  0.79041874090E+02 0.  0.
         23    2    1    2    0    0 -0.16779485215E+02  0.74282615954E+02 -0.18075935635E+03  0.21615294148E+03  0.90822304772E+02 0.  0.
         13    1    3    3    0    0  0.20016546813E+02 -0.32016623107E+02 -0.49167015161E+02  0.61992916381E+02  0.00000000000E+00 0. -1.
        -14    1    3    3    0    0 -0.58447918684E+02 -0.98108429305E+01 -0.94251666063E+02  0.11133637498E+03  0.00000000000E+00 0.  1.
        -11    1    4    4    0    0 -0.36073805026E+02  0.84219160113E+02 -0.16692557686E+03  0.19041621399E+03  0.00000000000E+00 0. -1.
         11    1    4    4    0    0  0.19294319811E+02 -0.99365441593E+01 -0.13833779484E+02  0.25736727484E+02  0.00000000000E+00 0.  1.
          2    1    1    2  501    0  0.55210857086E+02 -0.32455149916E+02 -0.29211408503E+03  0.29905219305E+03  0.00000000000E+00 0. -1.
<scales pt_clust_5="13000.00000" pt_clust_6="13000.00000" pt_clust_7="13000.00000" pt_clust_8="13000.00000" pt_clust_9="64.04358"></scales>
<clustering>
<clus scale="   64.044">  1  9  2 -1</clus>
<clus scale="   79.042">  5  6 -1 -1</clus>
<clus scale="   90.822">  7  8 -1 -1</clus>
<clus scale="   98.155">  2  5  1 -1</clus>
<clus scale="   64.044">  1  5  2 -1</clus>
</clustering>
</event>
<event>
 9    1  0.6345107E-005  0.1159811E+03  0.7546771E-02  0.1253725E+00
          1   -1    0    0  502    0 -0.00000000000E+00  0.00000000000E+00  0.57455006185E+03  0.57455006185E+03  0.00000000000E+00 0. -1.
         21   -1    0    0  501  502  0.00000000000E+00 -0.00000000000E+00 -0.47061790699E+02  0.47061790699E+02  0.00000000000E+00 0. -1.
         23    2    1    2    0    0  0.16442333154E+02  0.49407042065E+02  0.13186758173E+03  0.16873084506E+03  0.91485697441E+02 0.  0.
        -24    2    1    2    0    0 -0.43832899237E+02 -0.89089896486E+02  0.12757607833E+03  0.18053401269E+03  0.80365050017E+02 0.  0.
         11    1    4    4    0    0  0.74933076866E+01 -0.69162663902E+02  0.90529883398E+02  0.11417216616E+03  0.00000000000E+00 0. -1.
        -12    1    4    4    0    0 -0.51326206923E+02 -0.19927232583E+02  0.37046194936E+02  0.66361846530E+02  0.00000000000E+00 0.  1.
        -13    1    3    3    0    0  0.50787654220E+02  0.49466953339E+02  0.87123522363E+02  0.11232485675E+03  0.00000000000E+00 0. -1.
         13    1    3    3    0    0 -0.34345321067E+02 -0.59911273800E-01  0.44744059368E+02  0.56405988310E+02  0.00000000000E+00 0.  1.
          2    1    1    2  501    0  0.27390566083E+02  0.39682854421E+02  0.26804461109E+03  0.27234699480E+03  0.00000000000E+00 0. -1.
<scales pt_clust_5="13000.00000" pt_clust_6="13000.00000" pt_clust_7="13000.00000" pt_clust_8="13000.00000" pt_clust_9="48.21799"></scales>
<clustering>
<clus scale="   48.218">  2  9  1 -1</clus>
<clus scale="   80.365">  5  6 -1 -1</clus>
<clus scale="   91.486">  7  8 -1 -1</clus>
<clus scale="  107.427">  2  5  1 -1</clus>
<clus scale="   48.218">  2  5  1 -1</clus>
</clustering>
</event>
<event>
 9    1  0.6345107E-005  0.1676089E+03  0.7546771E-02  0.1181841E+00
         -2   -1    0    0    0  501 -0.00000000000E+00  0.00000000000E+00  0.17421747197E+04  0.17421747197E+04  0.00000000000E+00 0.  1.
         21   -1    0    0  501  502  0.00000000000E+00 -0.00000000000E+00 -0.29272476081E+02  0.29272476081E+02  0.00000000000E+00 0. -1.
        -24    2    1    2    0    0 -0.42162289440E+02  0.13825638591E+03  0.14266335639E+04  0.14361697278E+04  0.80047950764E+02 0.  0.
         23    2    1    2    0    0  0.37236407689E+02 -0.11885236193E+03  0.24463599531E+03  0.28908157135E+03  0.90603259872E+02 0.  0.
         13    1    3    3    0    0 -0.25102121278E+02  0.61307150133E+02  0.32290755975E+03  0.32963309193E+03  0.00000000000E+00 0. -1.
        -14    1    3    3    0    0 -0.17060168162E+02  0.76949235773E+02  0.11037260042E+04  0.11065366358E+04  0.00000000000E+00 0.  1.
        -13    1    4    4    0    0  0.23098010102E+02 -0.36995157601E+02  0.17082636229E+02  0.46839899841E+02  0.00000000000E+00 0. -1.
         13    1    4    4    0    0  0.14138397587E+02 -0.81857204330E+02  0.22755335908E+03  0.24224167151E+03  0.00000000000E+00 0.  1.
         -1    1    1    2    0  502  0.49258817518E+01 -0.19404023975E+02  0.41632684433E+02  0.46195896686E+02  0.00000000000E+00 0.  1.
<scales pt_clust_5="13000.00000" pt_clust_6="13000.00000" pt_clust_7="13000.00000" pt_clust_8="13000.00000" pt_clust_9="20.01950"></scales>
<clustering>
<clus scale="   20.020">  2  9  1 -1</clus>
<clus scale="   80.048">  5  6 -1 -1</clus>
<clus scale="   90.603">  7  8 -1 -1</clus>
<clus scale="  162.146">  1  5  2 -1</clus>
<clus scale="   20.020">  2  5  1 -1</clus>
</clustering>
</event>
<event>
 9    1  0.6345107E-005  0.2706765E+03  0.7546771E-02  0.1133621E+00
         21   -1    0    0  501  502  0.00000000000E+00  0.00000000000E+00  0.22454471451E+03  0.22454471451E+03  0.00000000000E+00 0. -1.
          3   -1    0    0  502    0 -0.00000000000E+00 -0.00000000000E+00 -0.63568263562E+03  0.63568263562E+03  0.00000000000E+00 0. -1.
        -24    2    1    2    0    0  0.47106964507E+02 -0.76405485021E+02 -0.71408011454E+02  0.13867839325E+03  0.77946958937E+02 0.  0.
         23    2    1    2    0    0  0.24320601989E+03 -0.12778559848E+01  0.10785742508E+02  0.25983740972E+03  0.90820406421E+02 0.  0.
         13    1    3    3    0    0  0.66159628189E+02 -0.55125516746E+02 -0.68366329949E+02  0.10995396341E+03  0.00000000000E+00 0. -1.
        -14    1    3    3    0    0 -0.19052663682E+02 -0.21279968275E+02 -0.30416815050E+01  0.28724429839E+02  0.00000000000E+00 0.  1.
        -11    1    4    4    0    0  0.21702439355E+03 -0.19831917238E+02 -0.15325426214E+02  0.21846684193E+03  0.00000000000E+00 0.  1.
         11    1    4    4    0    0  0.26181626339E+02  0.18554061253E+02  0.26111168722E+02  0.41370567784E+02  0.00000000000E+00 0. -1.
          4    1    1    2  501    0 -0.29031298439E+03  0.77683341006E+02 -0.35051565216E+03  0.46171154717E+03  0.00000000000E+00 0. -1.
<scales pt_clust_5="13000.00000" pt_clust_6="13000.00000" pt_clust_7="13000.00000" pt_clust_8="13000.00000" pt_clust_9="254.98530"></scales>
<clustering>
<clus scale="   77.947">  5  6 -1 -1</clus>
<clus scale="   90.820">  7  8 -1 -1</clus>
<clus scale="  118.881">  2  5  1 -1</clus>
<clus scale="  254.985">  1  9  2 -1</clus>
<clus scale="  254.985">  1  5  2 -1</clus>
</clustering>
</event>
<event>
 9    1  0.6345107E-005  0.1345239E+03  0.7546771E-02  0.1224702E+00
          3   -1    0    0  502    0 -0.00000000000E+00  0.00000000000E+00  0.30863491011E+02  0.30863491011E+02  0.00000000000E+00 0. -1.
         21   -1    0    0  501  502  0.00000000000E+00 -0.00000000000E+00 -0.13741007331E+04  0.13741007331E+04  0.00000000000E+00 0.  1.
         23    2    1    2    0    0  0.33342341352E+02  0.94623632614E+02 -0.26182184328E+03  0.29537205174E+03  0.92890407214E+02 0.  0.
        -24    2    1    2    0    0  0.22314752890E+02 -0.96011520248E+02 -0.10160170928E+04  0.10237051722E+04  0.77235914338E+02 0.  0.
         11    1    4    4    0    0  0.37783261546E+02 -0.77598120458E+02 -0.52068524131E+03  0.52778988591E+03  0.00000000000E+00 0. -1.
        -12    1    4    4    0    0 -0.15468508656E+02 -0.18413399790E+02 -0.49533185153E+03  0.49591528631E+03  0.00000000000E+00 0.  1.
        -13    1    3    3    0    0 -0.32109796842E+02  0.23281323553E+02 -0.68236869015E+02  0.78926100706E+02  0.00000000000E+00 0. -1.
         13    1    3    3    0    0  0.65452138194E+02  0.71342309061E+02 -0.19358497427E+03  0.21644595103E+03  0.00000000000E+00 0.  1.
          4    1    1    2  501    0 -0.55657094241E+02  0.13878876338E+01 -0.65398305942E+02  0.85887000131E+02  0.00000000000E+00 0. -1.
<scales pt_clust_5="13000.00000" pt_clust_6="13000.00000" pt_clust_7="13000.00000" pt_clust_8="13000.00000" pt_clust_9="55.67442"></scales>
<clustering>
<clus scale="   55.674">  2  9  1 -1</clus>
<clus scale="   77.236">  5  6 -1 -1</clus>
<clus scale="   92.890">  7  8 -1 -1</clus>
<clus scale="  124.231">  2  5  1 -1</clus>
<clus scale="   55.674">  2  5  1 -1</clus>
</clustering>
</event>
<event>
 9    1  0.6345107E-005  0.2227241E+03  0.7546771E-02  0.1168217E+00
         21   -1    0    0  501  502  0.00000000000E+00  0.00000000000E+00  0.34170381785E+02  0.34170381785E+02  0.00000000000E+00 0.  1.
          1   -1    0    0  502    0 -0.00000000000E+00 -0.00000000000E+00 -0.24038955879E+04  0.24038955879E+04  0.00000000000E+00 0. -1.
        -24    2    1    2    0    0  0.15705108137E+01 -0.35456700622E+02 -0.83372125251E+03  0.83901653392E+03  0.87166353505E+02 0.  0.
         23    2    1    2    0    0  0.13197253684E+03  0.16173837601E+03 -0.56061464107E+03  0.60649459187E+03  0.99854200909E+02 0.  0.
         11    1    3    3    0    0 -0.27063612479E+02  0.12110494902E+02 -0.14153973052E+03  0.14461188929E+03  0.00000000000E+00 0. -1.
        -12    1    3    3    0    0  0.28634123293E+02 -0.47567195524E+02 -0.69218152199E+03  0.69440464463E+03  0.00000000000E+00 0.  1.
        -13    1    4    4    0    0 -0.19491252007E+01  0.36550807266E+02 -0.18433122050E+03  0.18793019835E+03  0.00000000000E+00 0. -1.
         13    1    4    4    0    0  0.13392166205E+03  0.12518756874E+03 -0.37628342056E+03  0.41856439352E+03  0.00000000000E+00 0.  1.
          2    1    1    2  501    0 -0.13354304766E+03 -0.12628167538E+03 -0.97538931255E+03  0.99255484390E+03  0.00000000000E+00 0. -1.
<scales pt_clust_5="13000.00000" pt_clust_6="13000.00000" pt_clust_7="13000.00000" pt_clust_8="13000.00000" pt_clust_9="199.08587"></scales>
<clustering>
<clus scale="   87.166">  5  6 -1 -1</clus>
<clus scale="   94.115">  2  5  1 -1</clus>
<clus scale="   99.854">  7  8 -1 -1</clus>
<clus scale="  199.086">  1  9  2 -1</clus>
<clus scale="  199.086">  1  5  2 -1</clus>
</clustering>
</event>
<event>
 9    1  0.6345107E-005  0.2821215E+03  0.7546771E-02  0.1095223E+00
         21   -1    0    0  501  502  0.00000000000E+00  0.00000000000E+00  0.40183809914E+03  0.40183809914E+03  0.00000000000E+00 0. -1.
          3   -1    0    0  502    0 -0.00000000000E+00 -0.00000000000E+00 -0.45596904556E+03  0.45596904556E+03  0.00000000000E+00 0. -1.
         23    2    1    2    0    0  0.21420023910E+03 -0.26782918150E+03 -0.22766177699E+03  0.42172248173E+03  0.91682899143E+02 0.  0.
        -24    2    1    2    0    0 -0.14076016621E+03  0.88670887602E+02  0.40990363910E+02  0.20144000847E+03  0.10593354701E+03 0.  0.
         11    1    4    4    0    0 -0.12532476835E+03  0.21222138064E+02  0.35794954982E+02  0.13205285120E+03  0.00000000000E+00 0. -1.
        -12    1    4    4    0    0 -0.15435397856E+02  0.67448749538E+02  0.51954089282E+01  0.69387157278E+02  0.00000000000E+00 0.  1.
        -11    1    3    3    0    0  0.21891704877E+03 -0.23811363702E+03 -0.21824023372E+03  0.39019428236E+03  0.00000000000E+00 0. -1.
         11    1    3    3    0    0 -0.47168096683E+01 -0.29715544484E+02 -0.94215432752E+01  0.31528199363E+02  0.00000000000E+00 0.  1.
          4    1    1    2  501    0 -0.73440072891E+02  0.17915829390E+03  0.13254046666E+03  0.23464465449E+03  0.00000000000E+00 0. -1.
<scales pt_clust_5="13000.00000" pt_clust_6="13000.00000" pt_clust_7="13000.00000" pt_clust_8="13000.00000" pt_clust_9="193.62629"></scales>
<clustering>
<clus scale="   91.683">  7  8 -1 -1</clus>
<clus scale="  105.934">  5  6 -1 -1</clus>
<clus scale="  193.626">  1  9  2 -1</clus>
<clus scale="  277.086">  2  7  1 -1</clus>
<clus scale="  193.626">  1  5  2 -1</clus>
</clustering>
</event>
<event>
 9    1  0.6345107E-005  0.8649627E+02  0.7546771E-02  0.1317632E+00
         21   -1    0    0  501  502  0.00000000000E+00  0.00000000000E+00  0.24683238379E+03  0.24683238379E+03  0.00000000000E+00 0. -1.
         -4   -1    0    0    0  501 -0.00000000000E+00 -0.00000000000E+00 -0.10647643654E+03  0.10647643654E+03  0.00000000000E+00 0.  1.
        -24    2    1    2    0    0 -0.36577337991E+02  0.15080599156E+02  0.94369818475E+02  0.13067634642E+03  0.81273112095E+02 0.  0.
         23    2    1    2    0    0  0.16974453132E+02  0.40850692310E+02  0.10793070201E+03  0.13690200900E+03  0.71667374106E+02 0.  0.
         13    1    3    3    0    0 -0.24982039461E+02 -0.12694046059E+02  0.96516402152E+02  0.10050202478E+03  0.00000000000E+00 0. -1.
        -14    1    3    3    0    0 -0.11595298530E+02  0.27774645215E+02 -0.21465836779E+01  0.30174321638E+02  0.00000000000E+00 0.  1.
        -11    1    4    4    0    0  0.43090265775E+02  0.15074487222E+02  0.45292194636E+02  0.64307029666E+02  0.00000000000E+00 0.  1.
         11    1    4    4    0    0 -0.26115812643E+02  0.25776205088E+02  0.62638507377E+02  0.72594979339E+02  0.00000000000E+00 0. -1.
         -3    1    1    2    0  502  0.19602884859E+02 -0.55931291467E+02 -0.61944573236E+02  0.85730464908E+02  0.00000000000E+00 0.  1.
<scales pt_clust_5="13000.00000" pt_clust_6="13000.00000" pt_clust_7="13000.00000" pt_clust_8="13000.00000" pt_clust_9="59.26707"></scales>
<clustering>
<clus scale="   59.267">  1  9  2 -1</clus>
<clus scale="   71.667">  7  8 -1 -1</clus>
<clus scale="   77.540">  1  7  2 -1</clus>
<clus scale="   81.273">  5  6 -1 -1</clus>
<clus scale="   59.267">  1  5  2 -1</clus>
</clustering>
</event>
<event>
 9    1  0.6345107E-005  0.9244050E+02  0.7546771E-02  0.1302488E+00
          1   -1    0    0  502    0 -0.00000000000E+00  0.00000000000E+00  0.19939310732E+03  0.19939310732E+03  0.00000000000E+00 0. -1.
         21   -1    0    0  501  502  0.00000000000E+00 -0.00000000000E+00 -0.10640015046E+03  0.10640015046E+03  0.00000000000E+00 0. -1.
         23    2    1    2    0    0  0.10523074166E+02 -0.22251334315E+02  0.61564953962E+02  0.11245821642E+03  0.90833638677E+02 0.  0.
        -24    2    1    2    0    0 -0.31342737719E+02 -0.38588384089E+02 -0.33989351318E+02  0.10160522091E+03  0.81834676755E+02 0.  0.
         13    1    4    4    0    0 -0.30339877102E+02  0.11873784169E+02  0.10596342640E+02  0.34260434475E+02  0.00000000000E+00 0. -1.
        -14    1    4    4    0    0 -0.10028606175E+01 -0.50462168258E+02 -0.44585693958E+02  0.67344786439E+02  0.00000000000E+00 0.  1.
        -13    1    3    3    0    0  0.35246242055E+02 -0.33193627724E+02  0.36621557911E+01  0.48554360108E+02  0.00000000000E+00 0. -1.
         13    1    3    3    0    0 -0.24723167889E+02  0.10942293409E+02  0.57902798171E+02  0.63903856312E+02  0.00000000000E+00 0.  1.
          2    1    1    2  501    0  0.20819663553E+02  0.60839718404E+02  0.65417354223E+02  0.91729820448E+02  0.00000000000E+00 0. -1.
<scales pt_clust_5="13000.00000" pt_clust_6="13000.00000" pt_clust_7="13000.00000" pt_clust_8="13000.00000" pt_clust_9="64.30345"></scales>
<clustering>
<clus scale="   64.303">  2  9  1 -1</clus>
<clus scale="   81.835">  5  6 -1 -1</clus>
<clus scale="   83.615">  2  5  1 -1</clus>
<clus scale="   90.834">  7  8 -1 -1</clus>
<clus scale="   64.303">  2  5  1 -1</clus>
</clustering>
</event>
<event>
 9    1  0.6345107E-005  0.1028798E+03  0.7546771E-02  0.1279820E+00
         -2   -1    0    0    0  501 -0.00000000000E+00  0.00000000000E+00  0.55249049923E+03  0.55249049923E+03  0.00000000000E+00 0.  1.
         21   -1    0    0  501  502  0.00000000000E+00 -0.00000000000E+00 -0.52767217178E+02  0.52767217178E+02  0.00000000000E+00 0.  1.
         23    2    1    2    0    0 -0.12252411791E+02 -0.49178595175E+02  0.43868284593E+03  0.45097339390E+03  0.91464238194E+02 0.  0.
        -24    2    1    2    0    0 -0.45792590993E+01  0.37884157164E+02  0.85150826379E+02  0.12278542740E+03  0.79808639699E+02 0.  0.
         13    1    4    4    0    0  0.19472544395E+02  0.46329294799E+02  0.83225135646E+02  0.97221431511E+02  0.00000000000E+00 0. -1.
        -14    1    4    4    0    0 -0.24051803494E+02 -0.84451376345E+01  0.19256907329E+01  0.25563995888E+02  0.00000000000E+00 0.  1.
        -11    1    3    3    0    0 -0.47691301449E+02 -0.21629484362E+02  0.31656594035E+03  0.32086802492E+03  0.00000000000E+00 0.  1.
         11    1    3    3    0    0  0.35438889658E+02 -0.27549110813E+02  0.12211690558E+03  0.13010536898E+03  0.00000000000E+00 0. -1.
         -1    1    1    2    0  502  0.16831670890E+02  0.11294438011E+02 -0.24110390259E+02  0.31498895113E+02  0.00000000000E+00 0.  1.
<scales pt_clust_5="13000.00000" pt_clust_6="13000.00000" pt_clust_7="13000.00000" pt_clust_8="13000.00000" pt_clust_9="20.26992"></scales>
<clustering>
<clus scale="   20.270">  2  9  1 -1</clus>
<clus scale="   79.809">  5  6 -1 -1</clus>
<clus scale="   91.464">  7  8 -1 -1</clus>
<clus scale="   92.671">  2  5  1 -1</clus>
<clus scale="   20.270">  2  5  1 -1</clus>
</clustering>
</event>
<event>
 9    1  0.6345107E-005  0.8409188E+02  0.7546771E-02  0.1318438E+00
         21   -1    0    0  501  502  0.00000000000E+00  0.00000000000E+00  0.45310797157E+02  0.45310797157E+02  0.00000000000E+00 0. -1.
         -2   -1    0    0    0  501 -0.00000000000E+00 -0.00000000000E+00 -0.26379857726E+03  0.26379857726E+03  0.00000000000E+00 0.  1.
         23    2    1    2    0    0  0.16778448020E+02 -0.14670425261E+02 -0.16774825548E+03  0.18833650890E+03  0.82670585302E+02 0.  0.
        -24    2    1    2    0    0 -0.74558228034E+00 -0.66056697414E+01 -0.31221706393E+02  0.87747568680E+02  0.81735243889E+02 0.  0.
         13    1    4    4    0    0 -0.77267882350E+01 -0.42530600748E+02 -0.26858563747E+02  0.50891430546E+02  0.00000000000E+00 0. -1.
        -14    1    4    4    0    0  0.69812059546E+01  0.35924931007E+02 -0.43631426458E+01  0.36856138135E+02  0.00000000000E+00 0.  1.
        -13    1    3    3    0    0  0.39312587662E+02  0.19268497696E+02 -0.71760136875E+02  0.84061119409E+02  0.00000000000E+00 0.  1.
         13    1    3    3    0    0 -0.22534139641E+02 -0.33938922957E+02 -0.95988118601E+02  0.10427538949E+03  0.00000000000E+00 0. -1.
         -1    1    1    2    0  502 -0.16032865740E+02  0.21276095002E+02 -0.19517818230E+02  0.33025296832E+02  0.00000000000E+00 0.  1.
<scales pt_clust_5="13000.00000" pt_clust_6="13000.00000" pt_clust_7="13000.00000" pt_clust_8="13000.00000" pt_clust_9="26.64066"></scales>
<clustering>
<clus scale="   26.641">  1  9  2 -1</clus>
<clus scale="   81.735">  5  6 -1 -1</clus>
<clus scale="   82.671">  7  8 -1 -1</clus>
<clus scale="   83.173">  1  5  2 -1</clus>
<clus scale="   26.641">  1  5  2 -1</clus>
</clustering>
</event>
<event>
 9    1  0.6345107E-005  0.9879067E+02  0.7546771E-02  0.1289026E+00
         21   -1    0    0  501  502  0.00000000000E+00  0.00000000000E+00  0.12517994678E+03  0.12517994678E+03  0.00000000000E+00 0. -1.
          3   -1    0    0  502    0 -0.00000000000E+00 -0.00000000000E+00 -0.20682295775E+03  0.20682295775E+03  0.00000000000E+00 0. -1.
        -24    2    1    2    0    0  0.10373475458E+01  0.31222160903E+02 -0.12099341763E+03  0.14918966546E+03  0.81499998456E+02 0.  0.
         23    2    1    2    0    0  0.26888245789E+02 -0.35731236628E+02 -0.30304958065E+02  0.10763318613E+03  0.93095720852E+02 0.  0.
         11    1    3    3    0    0 -0.11682498182E+02  0.55618386480E+02 -0.62061935634E+02  0.84152061966E+02  0.00000000000E+00 0. -1.
        -12    1    3    3    0    0  0.12719845727E+02 -0.24396225578E+02 -0.58931481994E+02  0.65037603491E+02  0.00000000000E+00 0.  1.
        -13    1    4    4    0    0  0.31144472291E+02 -0.65851348775E+02 -0.20551875443E+02  0.75688558408E+02  0.00000000000E+00 0.  1.
         13    1    4    4    0    0 -0.42562265014E+01  0.30120112147E+02 -0.97530826212E+01  0.31944627723E+02  0.00000000000E+00 0. -1.
          4    1    1    2  501    0 -0.27925593335E+02  0.45090757249E+01  0.69655364719E+02  0.75180052947E+02  0.00000000000E+00 0. -1.
<scales pt_clust_5="13000.00000" pt_clust_6="13000.00000" pt_clust_7="13000.00000" pt_clust_8="13000.00000" pt_clust_9="28.28729"></scales>
<clustering>
<clus scale="   28.287">  1  9  2 -1</clus>
<clus scale="   81.500">  5  6 -1 -1</clus>
<clus scale="   87.949">  2  5  1 -1</clus>
<clus scale="   93.096">  7  8 -1 -1</clus>
<clus scale="   28.287">  1  5  2 -1</clus>
</clustering>
</event>
<event>
 9    1  0.6345107E-005  0.1216264E+03  0.7546771E-02  0.1241698E+00
         21   -1    0    0  501  502  0.00000000000E+00  0.00000000000E+00  0.15387877911E+03  0.15387877911E+03  0.00000000000E+00 0. -1.
          1   -1    0    0  502    0 -0.00000000000E+00 -0.00000000000E+00 -0.13389831921E+03  0.13389831921E+03  0.00000000000E+00 0. -1.
         23    2    1    2    0    0  0.63943789824E+02  0.59573318855E+02 -0.22541471647E+02  0.12821232636E+03  0.91063132556E+02 0.  0.
        -24    2    1    2    0    0 -0.66878757583E+02 -0.33170094508E+02  0.64436225868E+01  0.11476088072E+03  0.86922471702E+02 0.  0.
         13    1    4    4    0    0 -0.73502735427E+02 -0.33529384043E+02 -0.23463140026E+02  0.84127228942E+02  0.00000000000E+00 0. -1.
        -14    1    4    4    0    0  0.66239778436E+01  0.35928953513E+00  0.29906762613E+02  0.30633651781E+02  0.00000000000E+00 0.  1.
        -13    1    3    3    0    0  0.41788751575E+02  0.30929079484E+02 -0.57750510706E+02  0.77704756629E+02  0.00000000000E+00 0.  1.
         13    1    3    3    0    0  0.22155038249E+02  0.28644239372E+02  0.35209039059E+02  0.50507569734E+02  0.00000000000E+00 0. -1.
          2    1    1    2  501    0  0.29349677594E+01 -0.26403224348E+02  0.36078308968E+02  0.44803891234E+02  0.00000000000E+00 0. -1.
<scales pt_clust_5="13000.00000" pt_clust_6="13000.00000" pt_clust_7="13000.00000" pt_clust_8="13000.00000" pt_clust_9="26.56585"></scales>
<clustering>
<clus scale="   26.566">  1  9  2 -1</clus>
<clus scale="   86.922">  5  6 -1 -1</clus>
<clus scale="   91.063">  7  8 -1 -1</clus>
<clus scale="  118.558">  1  5  2 -1</clus>
<clus scale="   26.566">  1  5  2 -1</clus>
</clustering>
</event>
<event>
 9    1  0.6345107E-005  0.1054571E+03  0.7546771E-02  0.1273580E+00
         21   -1    0    0  501  502  0.00000000000E+00  0.00000000000E+00  0.99489324005E+02  0.99489324005E+02  0.00000000000E+00 0. -1.
          1   -1    0    0  502    0 -0.00000000000E+00 -0.00000000000E+00 -0.42828624743E+03  0.42828624743E+03  0.00000000000E+00 0. -1.
        -24    2    1    2    0    0 -0.20421367082E+02  0.61323092781E+02 -0.26390709927E+03  0.28369959993E+03  0.81614655622E+02 0.  0.
         23    2    1    2    0    0  0.68234391432E+02  0.17439183094E+02 -0.92396785625E+02  0.14791873399E+03  0.91557242155E+02 0.  0.
         11    1    3    3    0    0  0.19828925393E+02  0.52199385664E+02 -0.19980185163E+03  0.20745780791E+03  0.00000000000E+00 0. -1.
        -12    1    3    3    0    0 -0.40250292474E+02  0.91237071169E+01 -0.64105247639E+02  0.76241792022E+02  0.00000000000E+00 0.  1.
        -11    1    4    4    0    0  0.61630731050E+02 -0.28781905470E+02 -0.46128248950E+02  0.82186132914E+02  0.00000000000E+00 0.  1.
         11    1    4    4    0    0  0.66036603824E+01  0.46221088564E+02 -0.46268536675E+02  0.65732601078E+02  0.00000000000E+00 0. -1.
          2    1    1    2  501    0 -0.47813024350E+02 -0.78762275874E+02  0.27506961464E+02  0.96157237520E+02  0.00000000000E+00 0. -1.
<scales pt_clust_5="13000.00000" pt_clust_6="13000.00000" pt_clust_7="13000.00000" pt_clust_8="13000.00000" pt_clust_9="92.13892"></scales>
<clustering>
<clus scale="   81.615">  5  6 -1 -1</clus>
<clus scale="   91.557">  7  8 -1 -1</clus>
<clus scale="   92.139">  1  9  2 -1</clus>
<clus scale="   96.951">  2  5  1 -1</clus>
<clus scale="   92.139">  1  5  2 -1</clus>
</clustering>
</event>
<event>
 9    1  0.6345107E-005  0.1177290E+03  0.7546771E-02  0.1255588E+00
          3   -1    0    0  502    0 -0.00000000000E+00  0.00000000000E+00  0.55885823186E+03  0.55885823186E+03  0.00000000000E+00 0. -1.
         21   -1    0    0  501  502  0.00000000000E+00 -0.00000000000E+00 -0.90422306638E+02  0.90422306638E+02  0.00000000000E+00 0. -1.
         23    2    1    2    0    0 -0.97501065373E+00  0.39467732936E+02  0.36618850365E+03  0.37933185698E+03  0.90774362695E+02 0.  0.
        -24    2    1    2    0    0  0.64818594039E+02  0.44065219845E+02 -0.12902634462E+02  0.11402147817E+03  0.81799913053E+02 0.  0.
         13    1    4    4    0    0  0.69015522330E+02  0.62752878411E+02 -0.53493339130E+01  0.93432764300E+02  0.00000000000E+00 0. -1.
        -14    1    4    4    0    0 -0.41969282903E+01 -0.18687658566E+02 -0.75533005488E+01  0.20588713873E+02  0.00000000000E+00 0.  1.
        -11    1    3    3    0    0  0.28065955060E+02 -0.18076831782E+02  0.15361869174E+03  0.15720423700E+03  0.00000000000E+00 0.  1.
         11    1    3    3    0    0 -0.29040965714E+02  0.57544564718E+02  0.21256981191E+03  0.22212761997E+03  0.00000000000E+00 0. -1.
          4    1    1    2  501    0 -0.63843583386E+02 -0.83532952781E+02  0.11515005604E+03  0.15592720335E+03  0.00000000000E+00 0. -1.
<scales pt_clust_5="13000.00000" pt_clust_6="13000.00000" pt_clust_7="13000.00000" pt_clust_8="13000.00000" pt_clust_9="84.66935"></scales>
<clustering>
<clus scale="   81.800">  5  6 -1 -1</clus>
<clus scale="   90.774">  7  8 -1 -1</clus>
<clus scale="   98.988">  1  7  2 -1</clus>
<clus scale="   84.669">  2  9  1 -1</clus>
<clus scale="   84.669">  2  5  1 -1</clus>
</clustering>
</event>
<event>
 9    1  0.6345107E-005  0.4512529E+03  0.7546771E-02  0.1027349E+00
          1   -1    0    0  502    0 -0.00000000000E+00  0.00000000000E+00  0.71875993389E+03  0.71875993389E+03  0.00000000000E+00 0. -1.
         21   -1    0    0  501  502  0.00000000000E+00 -0.00000000000E+00 -0.27170493906E+03  0.27170493906E+03  0.00000000000E+00 0. -1.
        -24    2    1    2    0    0 -0.18668901239E+03  0.12153512629E+02  0.15622440682E+03  0.25808004922E+03  0.84845455405E+02 0.  0.
         23    2    1    2    0    0 -0.16625655820E+03  0.15254515263E+03  0.23455100673E+03  0.33885767423E+03  0.94334945197E+02 0.  0.
         11    1    3    3    0    0 -0.12236900456E+03  0.33413521672E+01  0.14888029271E+03  0.19274511529E+03  0.00000000000E+00 0. -1.
        -12    1    3    3    0    0 -0.64320007831E+02  0.88121604619E+01  0.73441141078E+01  0.65334933928E+02  0.00000000000E+00 0.  1.
        -13    1    4    4    0    0 -0.43178520512E+02  0.39330542187E+02  0.12765587688E+03  0.14038268798E+03  0.00000000000E+00 0.  1.
         13    1    4    4    0    0 -0.12307803769E+03  0.11321461045E+03  0.10689512986E+03  0.19847498625E+03  0.00000000000E+00 0. -1.
          2    1    1    2  501    0  0.35294557059E+03 -0.16469866526E+03  0.56279581279E+02  0.39352714951E+03  0.00000000000E+00 0. -1.
<scales pt_clust_5="13000.00000" pt_clust_6="13000.00000" pt_clust_7="13000.00000" pt_clust_8="13000.00000" pt_clust_9="389.48200"></scales>
<clustering>
<clus scale="   84.845">  5  6 -1 -1</clus>
<clus scale="   94.335">  7  8 -1 -1</clus>
<clus scale="  158.881">  5  7 -1 -1</clus>
<clus scale="  389.482">  2  9  1 -1</clus>
<clus scale="  389.482">  2  5  1 -1</clus>
</clustering>
</event>
<event>
 9    1  0.6345107E-005  0.9623497E+02  0.7546771E-02  0.1292063E+00
          3   -1    0    0  502    0 -0.00000000000E+00  0.00000000000E+00  0.76553170541E+02  0.76553170541E+02  0.00000000000E+00 0. -1.
         21   -1    0    0  501  502  0.00000000000E+00 -0.00000000000E+00 -0.21023619919E+03  0.21023619919E+03  0.00000000000E+00 0. -1.
        -24    2    1    2    0    0 -0.72877768490E+01  0.29928130042E+02 -0.99585542658E+01  0.89897852866E+02  0.83866837830E+02 0.  0.
         23    2    1    2    0    0 -0.18358377442E+02 -0.39596106928E+02 -0.13405405596E+03  0.16760166772E+03  0.90636346997E+02 0.  0.
         11    1    3    3    0    0 -0.14608374618E+02  0.54592539368E+02 -0.23047030929E+02  0.61032086628E+02  0.00000000000E+00 0. -1.
        -12    1    3    3    0    0  0.73205977691E+01 -0.24664409326E+02  0.13088476663E+02  0.28865766237E+02  0.00000000000E+00 0.  1.
        -11    1    4    4    0    0 -0.28373970488E+02 -0.18485898276E+02 -0.24649333077E+01  0.33954182843E+02  0.00000000000E+00 0.  1.
         11    1    4    4    0    0  0.10015593046E+02 -0.21110208652E+02 -0.13158912265E+03  0.13364748488E+03  0.00000000000E+00 0. -1.
          4    1    1    2  501    0  0.25646154291E+02  0.96679768861E+01  0.10329581582E+02  0.29289849140E+02  0.00000000000E+00 0. -1.
<scales pt_clust_5="13000.00000" pt_clust_6="13000.00000" pt_clust_7="13000.00000" pt_clust_8="13000.00000" pt_clust_9="27.40795"></scales>
<clustering>
<clus scale="   27.408">  2  9  1 -1</clus>
<clus scale="   83.867">  5  6 -1 -1</clus>
<clus scale="   89.888">  1  5  2 -1</clus>
<clus scale="   90.636">  7  8 -1 -1</clus>
<clus scale="   27.408">  2  5  1 -1</clus>
</clustering>
</event>
<event>
 9    1  0.6345107E-005  0.1497602E+03  0.7546771E-02  0.1202990E+00
         21   -1    0    0  501  502  0.00000000000E+00  0.00000000000E+00  0.12011394660E+03  0.12011394660E+03  0.00000000000E+00 0. -1.
          1   -1    0    0  502    0 -0.00000000000E+00 -0.00000000000E+00 -0.82175038473E+03  0.82175038473E+03  0.00000000000E+00 0. -1.
         23    2    1    2    0    0  0.15039721786E+02  0.11538550743E+03 -0.63772036449E+03  0.65475454518E+03  0.92066511735E+02 0.  0.
        -24    2    1    2    0    0 -0.44552420097E+02 -0.11940567249E+03 -0.13989245000E+03  0.20550359242E+03  0.80119886243E+02 0.  0.
         11    1    4    4    0    0 -0.52785229873E+02 -0.45114982720E+02 -0.97105484696E+02  0.11937804370E+03  0.00000000000E+00 0. -1.
        -12    1    4    4    0    0  0.82328097753E+01 -0.74290689773E+02 -0.42786965307E+02  0.86125548729E+02  0.00000000000E+00 0.  1.
        -13    1    3    3    0    0  0.51206382856E+02  0.91703583204E+02 -0.46337124917E+03  0.47512583110E+03  0.00000000000E+00 0. -1.
         13    1    3    3    0    0 -0.36166661070E+02  0.23681924229E+02 -0.17434911532E+03  0.17962871408E+03  0.00000000000E+00 0.  1.
          2    1    1    2  501    0  0.29512698312E+02  0.40201650597E+01  0.75976376363E+02  0.81606193723E+02  0.00000000000E+00 0. -1.
<scales pt_clust_5="13000.00000" pt_clust_6="13000.00000" pt_clust_7="13000.00000" pt_clust_8="13000.00000" pt_clust_9="29.78525"></scales>
<clustering>
<clus scale="   29.785">  1  9  2 -1</clus>
<clus scale="   80.120">  5  6 -1 -1</clus>
<clus scale="   92.067">  7  8 -1 -1</clus>
<clus scale="  142.727">  1  5  2 -1</clus>
<clus scale="   29.785">  1  5  2 -1</clus>
</clustering>
</event>
<event>
 9    1  0.6345107E-005  0.1545288E+03  0.7546771E-02  0.1197082E+00
          3   -1    0    0  502    0 -0.00000000000E+00  0.00000000000E+00  0.58407236722E+02  0.58407236722E+02  0.00000000000E+00 0. -1.
         21   -1    0    0  501  502  0.00000000000E+00 -0.00000000000E+00 -0.96003629362E+03  0.96003629362E+03  0.00000000000E+00 0. -1.
         23    2    1    2    0    0 -0.12930730149E+03 -0.13320556884E+02 -0.10226532046E+03  0.18800044517E+03  0.89376485502E+02 0.  0.
        -24    2    1    2    0    0  0.11261236081E+03 -0.58634471846E+02 -0.59130600441E+03  0.60966204645E+03  0.76977106540E+02 0.  0.
         13    1    4    4    0    0  0.11325543852E+03 -0.27989733305E+02 -0.43456752875E+03  0.44995461612E+03  0.00000000000E+00 0. -1.
        -14    1    4    4    0    0 -0.64307770851E+00 -0.30644738542E+02 -0.15673847566E+03  0.15970743033E+03  0.00000000000E+00 0.  1.
        -11    1    3    3    0    0 -0.47172796969E+02  0.14783833618E+02 -0.86704101348E+02  0.99806992245E+02  0.00000000000E+00 0.  1.
         11    1    3    3    0    0 -0.82134504518E+02 -0.28104390502E+02 -0.15561219109E+02  0.88193452921E+02  0.00000000000E+00 0. -1.
          4    1    1    2  501    0  0.16694940674E+02  0.71955028730E+02 -0.20805773203E+03  0.22078103873E+03  0.00000000000E+00 0. -1.
<scales pt_clust_5="13000.00000" pt_clust_6="13000.00000" pt_clust_7="13000.00000" pt_clust_8="13000.00000" pt_clust_9="73.86641"></scales>
<clustering>
<clus scale="   73.866">  2  9  1 -1</clus>
<clus scale="   76.977">  5  6 -1 -1</clus>
<clus scale="   89.376">  7  8 -1 -1</clus>
<clus scale="  147.704">  2  5  1 -1</clus>
<clus scale="   73.866">  2  5  1 -1</clus>
</clustering>
</event>
<event>
 9    1  0.2674023E-004  0.9131722E+02  0.7546771E-02  0.1305471E+00
         21   -1    0    0  501  502  0.00000000000E+00  0.00000000000E+00  0.65553775352E+03  0.65553775352E+03  0.00000000000E+00 0. -1.
          1   -1    0    0  502    0 -0.00000000000E+00 -0.00000000000E+00 -0.11178812563E+03  0.11178812563E+03  0.00000000000E+00 0. -1.
         23    2    1    2    0    0 -0.41348770281E+01 -0.22044931821E+01 -0.87529863711E+02  0.12648821290E+03  0.91191194555E+02 0.  0.
        -24    2    1    2    0    0  0.16136098689E+02 -0.19191790296E+02  0.49272783061E+03  0.50013090368E+03  0.81984798985E+02 0.  0.
         13    1    4    4    0    0  0.28441395391E+02  0.13407637290E+02  0.80345228297E+02  0.86278812112E+02  0.00000000000E+00 0. -1.
        -14    1    4    4    0    0 -0.12305296702E+02 -0.32599427586E+02  0.41238260232E+03  0.41385209157E+03  0.00000000000E+00 0.  1.
        -11    1    3    3    0    0 -0.41503423453E+02  0.18287260126E+02 -0.28088155938E+02  0.53347001276E+02  0.00000000000E+00 0.  1.
         11    1    3    3    0    0  0.37368546424E+02 -0.20491753308E+02 -0.59441707773E+02  0.73141211628E+02  0.00000000000E+00 0. -1.
          2    1    1    2  501    0 -0.12001221661E+02  0.21396283478E+02  0.13855166098E+03  0.14070676256E+03  0.00000000000E+00 0. -1.
<scales pt_clust_5="13000.00000" pt_clust_6="13000.00000" pt_clust_7="13000.00000" pt_clust_8="13000.00000" pt_clust_9="24.53223"></scales>
<clustering>
<clus scale="   24.532">  1  9  2 -1</clus>
<clus scale="   81.985">  5  6 -1 -1</clus>
<clus scale="   82.125">  1  5  2 -1</clus>
<clus scale="   91.191">  7  8 -1 -1</clus>
<clus scale="   24.532">  1  5  2 -1</clus>
</clustering>
</event>
<event>
 9    1  0.6345107E-005  0.1036794E+03  0.7546771E-02  0.1279736E+00
         21   -1    0    0  501  502  0.00000000000E+00  0.00000000000E+00  0.69909152228E+03  0.69909152228E+03  0.00000000000E+00 0. -1.
          1   -1    0    0  502    0 -0.00000000000E+00 -0.00000000000E+00 -0.61923744714E+02  0.61923744714E+02  0.00000000000E+00 0. -1.
        -24    2    1    2    0    0  0.21193162286E+02 -0.42917678610E+02 -0.13191827776E+02  0.94021270025E+02  0.79842956058E+02 0.  0.
         23    2    1    2    0    0 -0.13830576021E+01  0.38398388223E+01  0.31693007540E+03  0.33069833948E+03  0.94340139021E+02 0.  0.
         11    1    3    3    0    0  0.19485814834E+02 -0.65471345244E+02 -0.18537038629E+02  0.70780052479E+02  0.00000000000E+00 0. -1.
        -12    1    3    3    0    0  0.17073474520E+01  0.22553666634E+02  0.53452108535E+01  0.23241217546E+02  0.00000000000E+00 0.  1.
        -11    1    4    4    0    0  0.39060372915E+02 -0.21296345390E+02  0.11692437603E+03  0.12510218531E+03  0.00000000000E+00 0. -1.
         11    1    4    4    0    0 -0.40443430517E+02  0.25136184213E+02  0.20000569937E+03  0.20559615417E+03  0.00000000000E+00 0.  1.
          2    1    1    2  501    0 -0.19810104684E+02  0.39077839787E+02  0.33342952994E+03  0.33629565749E+03  0.00000000000E+00 0. -1.
<scales pt_clust_5="13000.00000" pt_clust_6="13000.00000" pt_clust_7="13000.00000" pt_clust_8="13000.00000" pt_clust_9="43.81230"></scales>
<clustering>
<clus scale="   43.812">  1  9  2 -1</clus>
<clus scale="   79.843">  5  6 -1 -1</clus>
<clus scale="   90.688">  2  5  1 -1</clus>
<clus scale="   94.340">  7  8 -1 -1</clus>
<clus scale="   43.812">  1  5  2 -1</clus>
</clustering>
</event>
<event>
 9    1  0.6345107E-005  0.2435682E+03  0.7546771E-02  0.1154248E+00
          1   -1    0    0  502    0 -0.00000000000E+00  0.00000000000E+00  0.12237034095E+04  0.12237034095E+04  0.00000000000E+00 0. -1.
         21   -1    0    0  501  502  0.00000000000E+00 -0.00000000000E+00 -0.86594635470E+02  0.86594635470E+02  0.00000000000E+00 0. -1.
        -24    2    1    2    0    0  0.52856133107E+02  0.22764466365E+02  0.69037373966E+02  0.12114248993E+03  0.81224085880E+02 0.  0.
         23    2    1    2    0    0  0.13870104979E+03 -0.17204092219E+03  0.29856741370E+03  0.38223920274E+03  0.90156793779E+02 0.  0.
         11    1    3    3    0    0  0.46591794054E+02  0.18055150308E+02  0.87680526821E+02  0.10091906911E+03  0.00000000000E+00 0. -1.
        -12    1    3    3    0    0  0.62643390531E+01  0.47093160571E+01 -0.18643152855E+02  0.20223420825E+02  0.00000000000E+00 0.  1.
        -11    1    4    4    0    0  0.47356569879E+02 -0.12950013970E+03  0.17493565813E+03  0.22274518037E+03  0.00000000000E+00 0. -1.
         11    1    4    4    0    0  0.91344479912E+02 -0.42540782489E+02  0.12363175557E+03  0.15949402237E+03  0.00000000000E+00 0.  1.
          2    1    1    2  501    0 -0.19155718290E+03  0.14927645582E+03  0.76950398639E+03  0.80691635233E+03  0.00000000000E+00 0. -1.
<scales pt_clust_5="13000.00000" pt_clust_6="13000.00000" pt_clust_7="13000.00000" pt_clust_8="13000.00000" pt_clust_9="226.26816"></scales>
<clustering>
<clus scale="   81.224">  5  6 -1 -1</clus>
<clus scale="   90.157">  7  8 -1 -1</clus>
<clus scale="   99.546">  1  5  2 -1</clus>
<clus scale="  226.268">  2  9  1 -1</clus>
<clus scale="  226.268">  2  5  1 -1</clus>
</clustering>
</event>
<event>
 9    1  0.6345107E-005  0.2546599E+03  0.7546771E-02  0.1135065E+00
         21   -1    0    0  501  502  0.00000000000E+00  0.00000000000E+00  0.20558118893E+03  0.20558118893E+03  0.00000000000E+00 0.  1.
          1   -1    0    0  502    0 -0.00000000000E+00 -0.00000000000E+00 -0.56244100898E+03  0.56244100898E+03  0.00000000000E+00 0. -1.
        -24    2    1    2    0    0 -0.10011961987E+03 -0.50339806300E+02 -0.14826232170E+03  0.20242317488E+03  0.80220890737E+02 0.  0.
         23    2    1    2    0    0  0.15584577868E+03 -0.18974591815E+03 -0.31205363371E+02  0.26193056993E+03  0.85687972158E+02 0.  0.
         13    1    3    3    0    0 -0.79813847997E+02 -0.36615221935E+02 -0.49787346608E+02  0.10094406714E+03  0.00000000000E+00 0. -1.
        -14    1    3    3    0    0 -0.20305771876E+02 -0.13724584365E+02 -0.98474975089E+02  0.10147910773E+03  0.00000000000E+00 0.  1.
        -11    1    4    4    0    0  0.49839540805E+02 -0.18181266845E+02  0.14798865228E+02  0.55077624348E+02  0.00000000000E+00 0. -1.
         11    1    4    4    0    0  0.10600623787E+03 -0.17156465131E+03 -0.46004228600E+02  0.20685294558E+03  0.00000000000E+00 0.  1.
          2    1    1    2  501    0 -0.55726158802E+02  0.24008572445E+03 -0.17739213499E+03  0.30366845311E+03  0.00000000000E+00 0. -1.
<scales pt_clust_5="13000.00000" pt_clust_6="13000.00000" pt_clust_7="13000.00000" pt_clust_8="13000.00000" pt_clust_9="239.81093"></scales>
<clustering>
<clus scale="   80.221">  5  6 -1 -1</clus>
<clus scale="   85.688">  7  8 -1 -1</clus>
<clus scale="  137.817">  2  5  1 -1</clus>
<clus scale="  239.811">  1  9  2 -1</clus>
<clus scale="  239.811">  1  5  2 -1</clus>
</clustering>
</event>
<event>
 9    1  0.6345107E-005  0.9689642E+02  0.7546771E-02  0.1292459E+00
         -2   -1    0    0    0  501 -0.00000000000E+00  0.00000000000E+00  0.41684427993E+03  0.41684427993E+03  0.00000000000E+00 0.  1.
         21   -1    0    0  501  502  0.00000000000E+00 -0.00000000000E+00 -0.51189797371E+02  0.51189797371E+02  0.00000000000E+00 0.  1.
        -24    2    1    2    0    0  0.42410517226E+02 -0.91976705073E+01  0.11433587439E+03  0.14584252978E+03  0.79461325229E+02 0.  0.
         23    2    1    2    0    0  0.17906894487E+02  0.65491829916E+02  0.10357071350E+03  0.15296784079E+03  0.89791040562E+02 0.  0.
         11    1    3    3    0    0  0.50219093356E+02 -0.70690304615E+01  0.25730273917E+02  0.56868053642E+02  0.00000000000E+00 0. -1.
        -12    1    3    3    0    0 -0.78085761297E+01 -0.21286400458E+01  0.88605600473E+02  0.88974476142E+02  0.00000000000E+00 0.  1.
        -11    1    4    4    0    0  0.88327837631E+01  0.39069962350E+02 -0.54496584936E+01  0.40424977486E+02  0.00000000000E+00 0.  1.
         11    1    4    4    0    0  0.90741107241E+01  0.26421867566E+02  0.10902037199E+03  0.11254286330E+03  0.00000000000E+00 0. -1.
         -1    1    1    2    0  502 -0.60317411714E+02 -0.56294159409E+02  0.14774789467E+03  0.16922370673E+03  0.00000000000E+00 0.  1.
<scales pt_clust_5="13000.00000" pt_clust_6="13000.00000" pt_clust_7="13000.00000" pt_clust_8="13000.00000" pt_clust_9="82.50594"></scales>
<clustering>
<clus scale="   79.461">  5  6 -1 -1</clus>
<clus scale="   82.506">  2  9  1 -1</clus>
<clus scale="   87.410">  1  5  2 -1</clus>
<clus scale="   89.791">  7  8 -1 -1</clus>
<clus scale="   82.506">  2  5  1 -1</clus>
</clustering>
</event>
<event>
 9    1  0.6345107E-005  0.1802353E+03  0.7546771E-02  0.1168882E+00
         -2   -1    0    0    0  501 -0.00000000000E+00  0.00000000000E+00  0.57199668859E+03  0.57199668859E+03  0.00000000000E+00 0.  1.
         21   -1    0    0  501  502  0.00000000000E+00 -0.00000000000E+00 -0.93820835193E+02  0.93820835193E+02  0.00000000000E+00 0.  1.
         23    2    1    2    0    0  0.29146130640E+02  0.13128053101E+03  0.22548875339E+03  0.27817359246E+03  0.91930924513E+02 0.  0.
        -24    2    1    2    0    0 -0.53010623013E+01 -0.20023328760E+03  0.15587577260E+03  0.26641892137E+03  0.80995768133E+02 0.  0.
         13    1    4    4    0    0  0.19500733044E+02 -0.77718748659E+01  0.23522809476E+02  0.31527816192E+02  0.00000000000E+00 0. -1.
        -14    1    4    4    0    0 -0.24801795346E+02 -0.19246141273E+03  0.13235296312E+03  0.23489110518E+03  0.00000000000E+00 0.  1.
        -11    1    3    3    0    0  0.42842598338E+02  0.29036092931E+02  0.38098778415E+02  0.64265852844E+02  0.00000000000E+00 0.  1.
         11    1    3    3    0    0 -0.13696467697E+02  0.10224443808E+03  0.18738997498E+03  0.21390773962E+03  0.00000000000E+00 0. -1.
         -1    1    1    2    0  502 -0.23845068339E+02  0.68952756584E+02  0.96811327401E+02  0.12122500995E+03  0.00000000000E+00 0.  1.
<scales pt_clust_5="13000.00000" pt_clust_6="13000.00000" pt_clust_7="13000.00000" pt_clust_8="13000.00000" pt_clust_9="72.95941"></scales>
<clustering>
<clus scale="   72.959">  2  9  1 -1</clus>
<clus scale="   80.996">  5  6 -1 -1</clus>
<clus scale="   91.931">  7  8 -1 -1</clus>
<clus scale="  174.911">  2  5  1 -1</clus>
<clus scale="   72.959">  2  5  1 -1</clus>
</clustering>
</event>
<event>
 9    1  0.6345107E-005  0.1508720E+03  0.7546771E-02  0.1200551E+00
         21   -1    0    0  501  502  0.00000000000E+00  0.00000000000E+00  0.13856775044E+03  0.13856775044E+03  0.00000000000E+00 0. -1.
          1   -1    0    0  502    0 -0.00000000000E+00 -0.00000000000E+00 -0.38176592509E+03  0.38176592509E+03  0.00000000000E+00 0. -1.
         23    2    1    2    0    0 -0.12799483468E+03  0.62706827246E+02 -0.27087755610E+03  0.31937555988E+03  0.91166188698E+02 0.  0.
        -24    2    1    2    0    0  0.38186359552E+02 -0.56379603550E+02  0.19445277709E+02  0.11055127725E+03  0.84891744735E+02 0.  0.
         13    1    4    4    0    0  0.31875830129E+02 -0.78646975044E+02  0.96088156656E+01  0.85403422463E+02  0.00000000000E+00 0. -1.
        -14    1    4    4    0    0  0.63105294232E+01  0.22267371494E+02  0.98364620431E+01  0.25147854787E+02  0.00000000000E+00 0.  1.
        -13    1    3    3    0    0 -0.46582834070E+02  0.47504376097E+02 -0.19861456927E+03  0.20946210470E+03  0.00000000000E+00 0. -1.
         13    1    3    3    0    0 -0.81412000610E+02  0.15202451149E+02 -0.72262986828E+02  0.10991345518E+03  0.00000000000E+00 0.  1.
          2    1    1    2  501    0  0.89808475128E+02 -0.63272236959E+01  0.82341037365E+01  0.90406838396E+02  0.00000000000E+00 0. -1.
<scales pt_clust_5="13000.00000" pt_clust_6="13000.00000" pt_clust_7="13000.00000" pt_clust_8="13000.00000" pt_clust_9="90.03108"></scales>
<clustering>
<clus scale="   84.892">  5  6 -1 -1</clus>
<clus scale="   90.031">  1  9  2 -1</clus>
<clus scale="   91.166">  7  8 -1 -1</clus>
<clus scale="  147.166">  1  5  2 -1</clus>
<clus scale="   90.031">  1  5  2 -1</clus>
</clustering>
</event>
<event>
 9    1  0.6345107E-005  0.1056456E+03  0.7546771E-02  0.1273149E+00
          1   -1    0    0  502    0 -0.00000000000E+00  0.00000000000E+00  0.43423255990E+03  0.43423255990E+03  0.00000000000E+00 0. -1.
         21   -1    0    0  501  502  0.00000000000E+00 -0.00000000000E+00 -0.81892225261E+02  0.81892225261E+02  0.00000000000E+00 0. -1.
        -24    2    1    2    0    0  0.51719724015E+02 -0.64393271622E+01  0.34460897463E+03  0.35761117514E+03  0.80087529653E+02 0.  0.
         23    2    1    2    0    0 -0.75486171060E+02  0.57154745956E+01  0.34564453822E+02  0.12266137312E+03  0.90112609086E+02 0.  0.
         11    1    3    3    0    0  0.71858465145E+02  0.40941041294E+01  0.28072384330E+03  0.28980385936E+03  0.00000000000E+00 0. -1.
        -12    1    3    3    0    0 -0.20138741130E+02 -0.10533431292E+02  0.63885131327E+02  0.67807315783E+02  0.00000000000E+00 0.  1.
        -13    1    4    4    0    0 -0.77670081177E+02  0.37199417038E+02  0.26081999702E+02  0.89981713956E+02  0.00000000000E+00 0. -1.
         13    1    4    4    0    0  0.21839101173E+01 -0.31483942442E+02  0.84824541199E+01  0.32679659163E+02  0.00000000000E+00 0.  1.
          2    1    1    2  501    0  0.23766447044E+02  0.72385256654E+00 -0.26833093808E+02  0.35852236903E+02  0.00000000000E+00 0. -1.
<scales pt_clust_5="13000.00000" pt_clust_6="13000.00000" pt_clust_7="13000.00000" pt_clust_8="13000.00000" pt_clust_9="23.77747"></scales>
<clustering>
<clus scale="   23.777">  2  9  1 -1</clus>
<clus scale="   80.088">  5  6 -1 -1</clus>
<clus scale="   90.113">  7  8 -1 -1</clus>
<clus scale="   97.235">  1  5  2 -1</clus>
<clus scale="   23.777">  2  5  1 -1</clus>
</clustering>
</event>
<event>
 9    1  0.6345107E-005  0.1216149E+03  0.7546771E-02  0.1255022E+00
          1   -1    0    0  502    0 -0.00000000000E+00  0.00000000000E+00  0.37512253111E+03  0.37512253111E+03  0.00000000000E+00 0. -1.
         21   -1    0    0  501  502  0.00000000000E+00 -0.00000000000E+00 -0.78619835782E+02  0.78619835782E+02  0.00000000000E+00 0.  1.
        -24    2    1    2    0    0 -0.19752084890E+02 -0.32994968601E+02  0.11684204428E+02  0.91558389513E+02  0.82265455974E+02 0.  0.
         23    2    1    2    0    0  0.54629383637E+02 -0.53135596409E+02  0.22329968615E+03  0.25074133054E+03  0.84856961076E+02 0.  0.
         11    1    3    3    0    0 -0.47825450338E+02 -0.13532236127E+02  0.24066849341E+02  0.55223259157E+02  0.00000000000E+00 0. -1.
        -12    1    3    3    0    0  0.28073365449E+02 -0.19462732474E+02 -0.12382644914E+02  0.36335130357E+02  0.00000000000E+00 0.  1.
        -13    1    4    4    0    0  0.21143256919E+02 -0.71596111248E+02  0.13000062059E+03  0.14991064609E+03  0.00000000000E+00 0.  1.
         13    1    4    4    0    0  0.33486126718E+02  0.18460514840E+02  0.93299065563E+02  0.10083068445E+03  0.00000000000E+00 0. -1.
          2    1    1    2  501    0 -0.34877298747E+02  0.86130565010E+02  0.61518804747E+02  0.11144264684E+03  0.00000000000E+00 0. -1.
<scales pt_clust_5="13000.00000" pt_clust_6="13000.00000" pt_clust_7="13000.00000" pt_clust_8="13000.00000" pt_clust_9="87.11764"></scales>
<clustering>
<clus scale="   82.265">  5  6 -1 -1</clus>
<clus scale="   84.857">  7  8 -1 -1</clus>
<clus scale="   90.810">  1  5  2 -1</clus>
<clus scale="   87.118">  2  9  1 -1</clus>
<clus scale="   87.118">  2  5  1 -1</clus>
</clustering>
</event>
<event>
 9    1  0.6345107E-005  0.1426801E+03  0.7546771E-02  0.1227644E+00
          1   -1    0    0  502    0 -0.00000000000E+00  0.00000000000E+00  0.82662749191E+03  0.82662749191E+03  0.00000000000E+00 0. -1.
         21   -1    0    0  501  502  0.00000000000E+00 -0.00000000000E+00 -0.80366254511E+02  0.80366254511E+02  0.00000000000E+00 0. -1.
        -24    2    1    2    0    0  0.40208984004E+02 -0.36620684356E+02  0.52257079996E+03  0.53167058624E+03  0.81458789473E+02 0.  0.
         23    2    1    2    0    0 -0.49358109144E+02 -0.92330206810E+02  0.29555777210E+02  0.14208443028E+03  0.91396670260E+02 0.  0.
         13    1    3    3    0    0  0.54655124282E+02 -0.52938290706E+02  0.41394367248E+03  0.42087885338E+03  0.00000000000E+00 0. -1.
        -14    1    3    3    0    0 -0.14446140278E+02  0.16317606350E+02  0.10862712749E+03  0.11079173287E+03  0.00000000000E+00 0.  1.
        -11    1    4    4    0    0 -0.45395156072E+02 -0.25057753104E+02  0.49623143267E+02  0.71770937942E+02  0.00000000000E+00 0.  1.
         11    1    4    4    0    0 -0.39629530716E+01 -0.67272453706E+02 -0.20067366057E+02  0.70313492341E+02  0.00000000000E+00 0. -1.
          2    1    1    2  501    0  0.91491251401E+01  0.12895089117E+03  0.19413466023E+03  0.23323872990E+03  0.00000000000E+00 0. -1.
<scales pt_clust_5="13000.00000" pt_clust_6="13000.00000" pt_clust_7="13000.00000" pt_clust_8="13000.00000" pt_clust_9="109.56407"></scales>
<clustering>
<clus scale="   81.459">  5  6 -1 -1</clus>
<clus scale="   91.397">  7  8 -1 -1</clus>
<clus scale="   97.946">  1  5  2 -1</clus>
<clus scale="  109.564">  2  9  1 -1</clus>
<clus scale="  109.564">  2  5  1 -1</clus>
</clustering>
</event>
<event>
 9    1  0.7391214E-005  0.1236180E+03  0.7546771E-02  0.1239963E+00
         21   -1    0    0  501  502  0.00000000000E+00  0.00000000000E+00  0.77664514446E+02  0.77664514446E+02  0.00000000000E+00 0.  1.
          1   -1    0    0  502    0 -0.00000000000E+00 -0.00000000000E+00 -0.87159485866E+03  0.87159485866E+03  0.00000000000E+00 0. -1.
        -24    2    1    2    0    0  0.38938852394E+02 -0.80620678919E+02 -0.51662836720E+03  0.53038203993E+03  0.79901879768E+02 0.  0.
         23    2    1    2    0    0 -0.27671124601E+02  0.35583114408E+02  0.32798418130E+02  0.10532096029E+03  0.89358375531E+02 0.  0.
         13    1    3    3    0    0  0.38242573385E+02 -0.96657497195E+02 -0.44831310570E+03  0.46020626563E+03  0.00000000000E+00 0. -1.
        -14    1    3    3    0    0  0.69627900892E+00  0.16036818276E+02 -0.68315261499E+02  0.70175774299E+02  0.00000000000E+00 0.  1.
        -11    1    4    4    0    0 -0.41590723040E+02  0.55985548842E+01 -0.17223246616E+02  0.45362675007E+02  0.00000000000E+00 0. -1.
         11    1    4    4    0    0  0.13919598438E+02  0.29984559523E+02  0.50021664746E+02  0.59958285286E+02  0.00000000000E+00 0.  1.
          2    1    1    2  501    0 -0.11267727793E+02  0.45037564512E+02 -0.31010039514E+03  0.31355637288E+03  0.00000000000E+00 0. -1.
<scales pt_clust_5="13000.00000" pt_clust_6="13000.00000" pt_clust_7="13000.00000" pt_clust_8="13000.00000" pt_clust_9="46.42570"></scales>
<clustering>
<clus scale="   46.426">  1  9  2 -1</clus>
<clus scale="   79.902">  5  6 -1 -1</clus>
<clus scale="   89.358">  7  8 -1 -1</clus>
<clus scale="  116.965">  2  5  1 -1</clus>
<clus scale="   46.426">  1  5  2 -1</clus>
</clustering>
</event>
<event>
 9    1  0.6345107E-005  0.1765128E+03  0.7546771E-02  0.1204525E+00
         21   -1    0    0  501  502  0.00000000000E+00  0.00000000000E+00  0.30719750078E+03  0.30719750078E+03  0.00000000000E+00 0. -1.
         -2   -1    0    0    0  501 -0.00000000000E+00 -0.00000000000E+00 -0.15600228449E+03  0.15600228449E+03  0.00000000000E+00 0.  1.
        -24    2    1    2    0    0 -0.20000948954E+02  0.19601635437E+01  0.44177102783E+02  0.95200595135E+02  0.81900285125E+02 0.  0.
         23    2    1    2    0    0  0.14924067442E+03 -0.17925886516E+02  0.14456183667E+03  0.23247302256E+03  0.10272032557E+03 0.  0.
         11    1    3    3    0    0  0.46781083743E+01 -0.34408603008E+02  0.36865719550E+02  0.50645018875E+02  0.00000000000E+00 0. -1.
        -12    1    3    3    0    0 -0.24679057328E+02  0.36368766551E+02  0.73113832329E+01  0.44555576260E+02  0.00000000000E+00 0.  1.
        -13    1    4    4    0    0  0.13363340990E+03 -0.45987330015E+02  0.14187210936E+03  0.20025088808E+03  0.00000000000E+00 0. -1.
         13    1    4    4    0    0  0.15607264519E+02  0.28061443499E+02  0.26897273132E+01  0.32222134473E+02  0.00000000000E+00 0.  1.
         -1    1    1    2    0  502 -0.12923972547E+03  0.15965722972E+02 -0.37543723162E+02  0.13552616757E+03  0.00000000000E+00 0.  1.
<scales pt_clust_5="13000.00000" pt_clust_6="13000.00000" pt_clust_7="13000.00000" pt_clust_8="13000.00000" pt_clust_9="143.54558"></scales>
<clustering>
<clus scale="   81.900">  5  6 -1 -1</clus>
<clus scale="   84.330">  2  5  1 -1</clus>
<clus scale="  102.720">  7  8 -1 -1</clus>
<clus scale="  143.546">  1  9  2 -1</clus>
<clus scale="  143.546">  1  5  2 -1</clus>
</clustering>
</event>
<event>
 9    1  0.6345107E-005  0.9380105E+02  0.7546771E-02  0.1300426E+00
         21   -1    0    0  501  502  0.00000000000E+00  0.00000000000E+00  0.13569734928E+03  0.13569734928E+03  0.00000000000E+00 0. -1.
          1   -1    0    0  502    0 -0.00000000000E+00 -0.00000000000E+00 -0.10009229545E+03  0.10009229545E+03  0.00000000000E+00 0. -1.
        -24    2    1    2    0    0 -0.30238744720E+02 -0.15950163083E+00 -0.25620316718E+02  0.89977147501E+02  0.80777963088E+02 0.  0.
         23    2    1    2    0    0 -0.71864794326E+01  0.10096223663E+02  0.51346106873E+02  0.10585019376E+03  0.91729284365E+02 0.  0.
         11    1    3    3    0    0 -0.12028556005E+02  0.30173180359E+02  0.15281234258E+02  0.35897396744E+02  0.00000000000E+00 0. -1.
        -12    1    3    3    0    0 -0.18210188715E+02 -0.30332681990E+02 -0.40901550976E+02  0.54079750757E+02  0.00000000000E+00 0.  1.
        -13    1    4    4    0    0 -0.48511731391E+02  0.80062586328E+00  0.37385146053E+02  0.61250944725E+02  0.00000000000E+00 0. -1.
         13    1    4    4    0    0  0.41325251958E+02  0.92955977999E+01  0.13960960820E+02  0.44599249040E+02  0.00000000000E+00 0.  1.
          2    1    1    2  501    0  0.37425224153E+02 -0.99367220323E+01  0.98792636646E+01  0.39962303464E+02  0.00000000000E+00 0. -1.
<scales pt_clust_5="13000.00000" pt_clust_6="13000.00000" pt_clust_7="13000.00000" pt_clust_8="13000.00000" pt_clust_9="38.72190"></scales>
<clustering>
<clus scale="   38.722">  1  9  2 -1</clus>
<clus scale="   80.778">  5  6 -1 -1</clus>
<clus scale="   83.123">  2  5  1 -1</clus>
<clus scale="   91.729">  7  8 -1 -1</clus>
<clus scale="   38.722">  1  5  2 -1</clus>
</clustering>
</event>
<event>
 9    1  0.6345107E-005  0.1038724E+03  0.7546771E-02  0.1277029E+00
          1   -1    0    0  502    0 -0.00000000000E+00  0.00000000000E+00  0.42611973276E+03  0.42611973276E+03  0.00000000000E+00 0. -1.
         21   -1    0    0  501  502  0.00000000000E+00 -0.00000000000E+00 -0.37607992823E+02  0.37607992823E+02  0.00000000000E+00 0.  1.
         23    2    1    2    0    0  0.30722773810E+02  0.38921900343E+02  0.28346583653E+03  0.30164439869E+03  0.90430413178E+02 0.  0.
        -24    2    1    2    0    0 -0.51122903519E+02 -0.27287254169E+02  0.92973314054E+02  0.13567731058E+03  0.80038428118E+02 0.  0.
         13    1    4    4    0    0 -0.13337479877E+02 -0.51882537214E+02  0.46628140835E+02  0.71020205258E+02  0.00000000000E+00 0. -1.
        -14    1    4    4    0    0 -0.37785423642E+02  0.24595283044E+02  0.46345173220E+02  0.64657105322E+02  0.00000000000E+00 0.  1.
        -13    1    3    3    0    0 -0.25156765216E+02 -0.78989849557E+00  0.30447966022E+02  0.39503992338E+02  0.00000000000E+00 0.  1.
         13    1    3    3    0    0  0.55879539026E+02  0.39711798839E+02  0.25301787051E+03  0.26214040636E+03  0.00000000000E+00 0. -1.
          2    1    1    2  501    0  0.20400129708E+02 -0.11634646174E+02  0.12072589357E+02  0.26406016312E+02  0.00000000000E+00 0. -1.
<scales pt_clust_5="13000.00000" pt_clust_6="13000.00000" pt_clust_7="13000.00000" pt_clust_8="13000.00000" pt_clust_9="23.48468"></scales>
<clustering>
<clus scale="   23.485">  2  9  1 -1</clus>
<clus scale="   80.038">  5  6 -1 -1</clus>
<clus scale="   90.430">  7  8 -1 -1</clus>
<clus scale="   94.963">  2  5  1 -1</clus>
<clus scale="   23.485">  2  5  1 -1</clus>
</clustering>
</event>
<event>
 9    1  0.6345107E-005  0.1955310E+03  0.7546771E-02  0.1167440E+00
          3   -1    0    0  502    0 -0.00000000000E+00  0.00000000000E+00  0.48679615185E+03  0.48679615185E+03  0.00000000000E+00 0. -1.
         21   -1    0    0  501  502  0.00000000000E+00 -0.00000000000E+00 -0.18856229508E+03  0.18856229508E+03  0.00000000000E+00 0.  1.
        -24    2    1    2    0    0  0.11103861030E+03  0.33292462102E+02  0.19675925015E+03  0.24241511565E+03  0.81319891596E+02 0.  0.
         23    2    1    2    0    0  0.95177751137E+02  0.97947541176E+02 -0.57235124562E+00  0.16806088982E+03  0.97936765143E+02 0.  0.
         11    1    3    3    0    0  0.98633014745E+02 -0.73771566469E+01  0.14300360044E+03  0.17387617369E+03  0.00000000000E+00 0. -1.
        -12    1    3    3    0    0  0.12405595552E+02  0.40669618749E+02  0.53755649710E+02  0.68538941967E+02  0.00000000000E+00 0.  1.
        -13    1    4    4    0    0  0.71854392804E+02  0.12919147823E+02  0.23445586971E+02  0.76678899928E+02  0.00000000000E+00 0.  1.
         13    1    4    4    0    0  0.23323358333E+02  0.85028393354E+02 -0.24017938216E+02  0.91381989891E+02  0.00000000000E+00 0. -1.
          4    1    1    2  501    0 -0.20621636143E+03 -0.13124000328E+03  0.10204695787E+03  0.26488244146E+03  0.00000000000E+00 0. -1.
<scales pt_clust_5="13000.00000" pt_clust_6="13000.00000" pt_clust_7="13000.00000" pt_clust_8="13000.00000" pt_clust_9="169.23585"></scales>
<clustering>
<clus scale="   81.320">  5  6 -1 -1</clus>
<clus scale="   97.937">  7  8 -1 -1</clus>
<clus scale="  141.601">  1  5  2 -1</clus>
<clus scale="  169.236">  2  9  1 -1</clus>
<clus scale="  169.236">  2  5  1 -1</clus>
</clustering>
</event>
<event>
 9    1  0.6345107E-005  0.9520637E+02  0.7546771E-02  0.1297531E+00
         21   -1    0    0  501  502  0.00000000000E+00  0.00000000000E+00  0.32704100416E+02  0.32704100416E+02  0.00000000000E+00 0. -1.
          1   -1    0    0  502    0 -0.00000000000E+00 -0.00000000000E+00 -0.50176161635E+03  0.50176161635E+03  0.00000000000E+00 0. -1.
        -24    2    1    2    0    0  0.11261664715E+02  0.17534946956E+02 -0.32526779958E+03  0.33554617262E+03  0.79735770277E+02 0.  0.
         23    2    1    2    0    0 -0.12996940271E+02 -0.40884914378E+02 -0.14342637453E+03  0.17550236718E+03  0.91593991590E+02 0.  0.
         11    1    3    3    0    0  0.44478935971E+02  0.17215951916E+02 -0.22205686479E+03  0.22712114817E+03  0.00000000000E+00 0. -1.
        -12    1    3    3    0    0 -0.33217271256E+02  0.31899503957E+00 -0.10321093479E+03  0.10842502445E+03  0.00000000000E+00 0.  1.
        -11    1    4    4    0    0  0.54245523873E+01 -0.62943237659E+02 -0.12833407738E+03  0.14304164551E+03  0.00000000000E+00 0.  1.
         11    1    4    4    0    0 -0.18421492658E+02  0.22058323281E+02 -0.15092297154E+02  0.32460721667E+02  0.00000000000E+00 0. -1.
          2    1    1    2  501    0  0.17352755561E+01  0.23349967422E+02 -0.36334183091E+00  0.23417176968E+02  0.00000000000E+00 0. -1.
<scales pt_clust_5="13000.00000" pt_clust_6="13000.00000" pt_clust_7="13000.00000" pt_clust_8="13000.00000" pt_clust_9="23.41436"></scales>
<clustering>
<clus scale="   23.414">  1  9  2 -1</clus>
<clus scale="   79.736">  5  6 -1 -1</clus>
<clus scale="   83.861">  2  5  1 -1</clus>
<clus scale="   91.594">  7  8 -1 -1</clus>
<clus scale="   23.414">  1  5  2 -1</clus>
</clustering>
</event>
<event>
 9    1  0.6345107E-005  0.9813941E+02  0.7546771E-02  0.1290844E+00
          1   -1    0    0  502    0 -0.00000000000E+00  0.00000000000E+00  0.13694566244E+03  0.13694566244E+03  0.00000000000E+00 0. -1.
         21   -1    0    0  501  502  0.00000000000E+00 -0.00000000000E+00 -0.21367463132E+03  0.21367463132E+03  0.00000000000E+00 0.  1.
         23    2    1    2    0    0  0.10017814011E+01  0.40000950434E+02  0.93811657564E+02  0.13579035354E+03  0.89651064789E+02 0.  0.
        -24    2    1    2    0    0  0.35563455367E+02 -0.38131258946E+02 -0.13409248523E+03  0.16316777529E+03  0.76968669166E+02 0.  0.
         11    1    4    4    0    0  0.51196605008E+01  0.23383434913E+02 -0.28366982650E+02  0.37117134273E+02  0.00000000000E+00 0. -1.
        -12    1    4    4    0    0  0.30443794866E+02 -0.61514693859E+02 -0.10572550258E+03  0.12605064102E+03  0.00000000000E+00 0.  1.
        -11    1    3    3    0    0  0.40870847961E+02  0.40319819889E+02  0.64201040717E+02  0.86127160165E+02  0.00000000000E+00 0. -1.
         11    1    3    3    0    0 -0.39869066560E+02 -0.31886945503E+00  0.29610616847E+02  0.49663193375E+02  0.00000000000E+00 0.  1.
          2    1    1    2  501    0 -0.36565236768E+02 -0.18696914880E+01 -0.36448141224E+02  0.51662164926E+02  0.00000000000E+00 0. -1.
<scales pt_clust_5="13000.00000" pt_clust_6="13000.00000" pt_clust_7="13000.00000" pt_clust_8="13000.00000" pt_clust_9="36.61301"></scales>
<clustering>
<clus scale="   36.613">  2  9  1 -1</clus>
<clus scale="   76.969">  5  6 -1 -1</clus>
<clus scale="   86.708">  2  5  1 -1</clus>
<clus scale="   89.651">  7  8 -1 -1</clus>
<clus scale="   36.613">  2  5  1 -1</clus>
</clustering>
</event>
<event>
 9    1  0.6345107E-005  0.1013810E+03  0.7546771E-02  0.1284826E+00
          3   -1    0    0  502    0 -0.00000000000E+00  0.00000000000E+00  0.73131673774E+02  0.73131673774E+02  0.00000000000E+00 0. -1.
         21   -1    0    0  501  502  0.00000000000E+00 -0.00000000000E+00 -0.22103761569E+03  0.22103761569E+03  0.00000000000E+00 0.  1.
        -24    2    1    2    0    0 -0.24781870351E+02 -0.13068932072E+02 -0.25789353398E+02  0.89187412639E+02  0.80649648114E+02 0.  0.
         23    2    1    2    0    0  0.40858497856E+02  0.38575194869E+02 -0.13308301255E+03  0.17289932939E+03  0.95003301874E+02 0.  0.
         13    1    3    3    0    0 -0.52705759969E+02 -0.20363934313E+02 -0.17815759247E+02  0.59245153660E+02  0.00000000000E+00 0. -1.
        -14    1    3    3    0    0  0.27923889618E+02  0.72950022417E+01 -0.79735941508E+01  0.29942258979E+02  0.00000000000E+00 0.  1.
        -13    1    4    4    0    0  0.83893254275E+01 -0.25196081055E+02 -0.78579991360E+02  0.82945996430E+02  0.00000000000E+00 0. -1.
         13    1    4    4    0    0  0.32469172429E+02  0.63771275924E+02 -0.54503021187E+02  0.89953332955E+02  0.00000000000E+00 0.  1.
          4    1    1    2  501    0 -0.16076627506E+02 -0.25506262797E+02  0.10966424034E+02  0.32082547435E+02  0.00000000000E+00 0. -1.
<scales pt_clust_5="13000.00000" pt_clust_6="13000.00000" pt_clust_7="13000.00000" pt_clust_8="13000.00000" pt_clust_9="30.15010"></scales>
<clustering>
<clus scale="   30.150">  2  9  1 -1</clus>
<clus scale="   80.650">  5  6 -1 -1</clus>
<clus scale="   88.073">  1  5  2 -1</clus>
<clus scale="   95.003">  7  8 -1 -1</clus>
<clus scale="   30.150">  2  5  1 -1</clus>
</clustering>
</event>
<event>
 9    1  0.6345107E-005  0.9696920E+02  0.7546771E-02  0.1290037E+00
         21   -1    0    0  501  502  0.00000000000E+00  0.00000000000E+00  0.42302739397E+02  0.42302739397E+02  0.00000000000E+00 0.  1.
          1   -1    0    0  502    0 -0.00000000000E+00 -0.00000000000E+00 -0.41394934996E+03  0.41394934996E+03  0.00000000000E+00 0. -1.
         23    2    1    2    0    0  0.21571080945E+02 -0.36703738022E+02 -0.30452750783E+03  0.31855931633E+03  0.83249979419E+02 0.  0.
        -24    2    1    2    0    0 -0.37283992161E+00  0.18280247117E+02 -0.44296150756E+02  0.10150330527E+03  0.89478855411E+02 0.  0.
         13    1    4    4    0    0 -0.42388867332E+02 -0.53828815656E+01 -0.25421744483E+02  0.49719780573E+02  0.00000000000E+00 0. -1.
        -14    1    4    4    0    0  0.42016027410E+02  0.23663128682E+02 -0.18874406272E+02  0.51783524701E+02  0.00000000000E+00 0.  1.
        -11    1    3    3    0    0 -0.79624452904E+01  0.24334264035E+02 -0.89936796081E+02  0.93510342907E+02  0.00000000000E+00 0.  1.
         11    1    3    3    0    0  0.29533526235E+02 -0.61038002057E+02 -0.21459071175E+03  0.22504897342E+03  0.00000000000E+00 0. -1.
          2    1    1    2  501    0 -0.21198241023E+02  0.18423490905E+02 -0.22822951973E+02  0.36189467755E+02  0.00000000000E+00 0. -1.
<scales pt_clust_5="13000.00000" pt_clust_6="13000.00000" pt_clust_7="13000.00000" pt_clust_8="13000.00000" pt_clust_9="28.08541"></scales>
<clustering>
<clus scale="   28.085">  1  9  2 -1</clus>
<clus scale="   83.250">  7  8 -1 -1</clus>
<clus scale="   89.479">  5  6 -1 -1</clus>
<clus scale="   91.253">  2  7  1 -1</clus>
<clus scale="   28.085">  1  5  2 -1</clus>
</clustering>
</event>
<event>
 9    1  0.6345107E-005  0.1801242E+03  0.7546771E-02  0.1169287E+00
         21   -1    0    0  501  502  0.00000000000E+00  0.00000000000E+00  0.36828040953E+03  0.36828040953E+03  0.00000000000E+00 0.  1.
         -4   -1    0    0    0  501 -0.00000000000E+00 -0.00000000000E+00 -0.18471656272E+03  0.18471656272E+03  0.00000000000E+00 0.  1.
         23    2    1    2    0    0  0.48473212539E+02 -0.14009890362E+03 -0.53904124372E+02  0.18298716109E+03  0.92743147299E+02 0.  0.
        -24    2    1    2    0    0 -0.12443102898E+03  0.14102684611E+03  0.19808306063E+03  0.28444333329E+03  0.79369129045E+02 0.  0.
         11    1    4    4    0    0 -0.10544253872E+03  0.74287642129E+02  0.95045024106E+02  0.16021965969E+03  0.00000000000E+00 0. -1.
        -12    1    4    4    0    0 -0.18988490264E+02  0.66739203983E+02  0.10303803653E+03  0.12422367360E+03  0.00000000000E+00 0.  1.
        -11    1    3    3    0    0  0.69565351206E+02 -0.12744063465E+03 -0.60849413391E+02  0.15742650526E+03  0.00000000000E+00 0.  1.
         11    1    3    3    0    0 -0.21092138668E+02 -0.12658268963E+02  0.69452890189E+01  0.25560655826E+02  0.00000000000E+00 0. -1.
         -3    1    1    2    0  502  0.75957816444E+02 -0.92794249384E+00  0.39384910552E+02  0.85566477872E+02  0.00000000000E+00 0.  1.
<scales pt_clust_5="13000.00000" pt_clust_6="13000.00000" pt_clust_7="13000.00000" pt_clust_8="13000.00000" pt_clust_9="75.96348"></scales>
<clustering>
<clus scale="   75.963">  1  9  2 -1</clus>
<clus scale="   79.369">  5  6 -1 -1</clus>
<clus scale="   92.743">  7  8 -1 -1</clus>
<clus scale="  173.617">  1  5  2 -1</clus>
<clus scale="   75.963">  1  5  2 -1</clus>
</clustering>
</event>
<event>
 9    1  0.6345107E-005  0.1014449E+03  0.7546771E-02  0.1281488E+00
          1   -1    0    0  502    0 -0.00000000000E+00  0.00000000000E+00  0.97649534950E+02  0.97649534950E+02  0.00000000000E+00 0. -1.
         21   -1    0    0  501  502  0.00000000000E+00 -0.00000000000E+00 -0.30891946560E+03  0.30891946560E+03  0.00000000000E+00 0. -1.
         23    2    1    2    0    0  0.23072269387E+02  0.34860867686E+02 -0.26473878049E+02  0.10397811940E+03  0.91449294059E+02 0.  0.
        -24    2    1    2    0    0 -0.60018670456E+02 -0.17074995024E+02 -0.22341100963E+03  0.24626603117E+03  0.82708419325E+02 0.  0.
         13    1    4    4    0    0 -0.19819788736E+02  0.25816234288E+02 -0.14301205821E+03  0.14666884731E+03  0.00000000000E+00 0. -1.
        -14    1    4    4    0    0 -0.40198881720E+02 -0.42891229313E+02 -0.80398951420E+02  0.99597183860E+02  0.00000000000E+00 0.  1.
        -11    1    3    3    0    0  0.24152863259E+02  0.57484111341E+02 -0.43171767857E+02  0.75839207539E+02  0.00000000000E+00 0. -1.
         11    1    3    3    0    0 -0.10805938719E+01 -0.22623243654E+02  0.16697889808E+02  0.28138911859E+02  0.00000000000E+00 0.  1.
          2    1    1    2  501    0  0.36946401069E+02 -0.17785872662E+02  0.38614957032E+02  0.56324849977E+02  0.00000000000E+00 0. -1.
<scales pt_clust_5="13000.00000" pt_clust_6="13000.00000" pt_clust_7="13000.00000" pt_clust_8="13000.00000" pt_clust_9="41.00458"></scales>
<clustering>
<clus scale="   41.005">  2  9  1 -1</clus>
<clus scale="   82.708">  5  6 -1 -1</clus>
<clus scale="   91.449">  7  8 -1 -1</clus>
<clus scale="   93.642">  2  5  1 -1</clus>
<clus scale="   41.005">  2  5  1 -1</clus>
</clustering>
</event>
<event>
 9    1  0.6345107E-005  0.1872048E+03  0.7546771E-02  0.1193513E+00
          1   -1    0    0  502    0 -0.00000000000E+00  0.00000000000E+00  0.20543961329E+04  0.20543961329E+04  0.00000000000E+00 0. -1.
         21   -1    0    0  501  502  0.00000000000E+00 -0.00000000000E+00 -0.24477223905E+02  0.24477223905E+02  0.00000000000E+00 0. -1.
        -24    2    1    2    0    0 -0.99245919389E+01  0.41585498624E+02  0.33350294936E+03  0.34538790508E+03  0.78998332381E+02 0.  0.
         23    2    1    2    0    0  0.13901615537E+03  0.72795804313E+02  0.77821122659E+03  0.79922229501E+03  0.92297578938E+02 0.  0.
         11    1    3    3    0    0 -0.27428508953E+02  0.19549493673E+02  0.48788094235E+02  0.59285613308E+02  0.00000000000E+00 0. -1.
        -12    1    3    3    0    0  0.17503917014E+02  0.22036004951E+02  0.28471485513E+03  0.28610229177E+03  0.00000000000E+00 0.  1.
        -11    1    4    4    0    0  0.19532807148E+02  0.22196591054E+02  0.40263194322E+02  0.49953418567E+02  0.00000000000E+00 0.  1.
         11    1    4    4    0    0  0.11948334822E+03  0.50599213260E+02  0.73794803227E+03  0.74926887645E+03  0.00000000000E+00 0. -1.
          2    1    1    2  501    0 -0.12909156343E+03 -0.11438130294E+03  0.91820473308E+03  0.93426315675E+03  0.00000000000E+00 0. -1.
<scales pt_clust_5="13000.00000" pt_clust_6="13000.00000" pt_clust_7="13000.00000" pt_clust_8="13000.00000" pt_clust_9="162.87056"></scales>
<clustering>
<clus scale="   78.998">  5  6 -1 -1</clus>
<clus scale="   89.825">  1  5  2 -1</clus>
<clus scale="   92.298">  7  8 -1 -1</clus>
<clus scale="  162.871">  2  9  1 -1</clus>
<clus scale="  162.871">  2  5  1 -1</clus>
</clustering>
</event>
<event>
 9    1  0.6345107E-005  0.1306714E+03  0.7546771E-02  0.1229645E+00
         -2   -1    0    0    0  501 -0.00000000000E+00  0.00000000000E+00  0.44225012017E+03  0.44225012017E+03  0.00000000000E+00 0.  1.
         21   -1    0    0  501  502  0.00000000000E+00 -0.00000000000E+00 -0.69485234214E+02  0.69485234214E+02  0.00000000000E+00 0. -1.
         23    2    1    2    0    0  0.51466734433E+02  0.81641115112E+02  0.17836225666E+03  0.22223344417E+03  0.90887362573E+02 0.  0.
        -24    2    1    2    0    0  0.16051301177E+02 -0.10443676965E+03  0.77864309842E+02  0.15290210458E+03  0.78431624453E+02 0.  0.
         13    1    4    4    0    0  0.40577175170E+02 -0.66330921977E+02  0.74130810584E+02  0.10743218993E+03  0.00000000000E+00 0. -1.
        -14    1    4    4    0    0 -0.24525873993E+02 -0.38105847671E+02  0.37334992580E+01  0.45469914653E+02  0.00000000000E+00 0.  1.
        -13    1    3    3    0    0 -0.45564182980E+01  0.74867959277E+02  0.11591534377E+03  0.13806643037E+03  0.00000000000E+00 0. -1.
         13    1    3    3    0    0  0.56023152731E+02  0.67731558349E+01  0.62446912895E+02  0.84167013800E+02  0.00000000000E+00 0.  1.
         -1    1    1    2    0  502 -0.67518035610E+02  0.22795654536E+02  0.11653831946E+03  0.13659980564E+03  0.00000000000E+00 0.  1.
<scales pt_clust_5="13000.00000" pt_clust_6="13000.00000" pt_clust_7="13000.00000" pt_clust_8="13000.00000" pt_clust_9="71.26242"></scales>
<clustering>
<clus scale="   71.262">  2  9  1 -1</clus>
<clus scale="   78.432">  5  6 -1 -1</clus>
<clus scale="   90.887">  7  8 -1 -1</clus>
<clus scale="  122.336">  2  5  1 -1</clus>
<clus scale="   71.262">  2  5  1 -1</clus>
</clustering>
</event>
<event>
 9    1  0.6345107E-005  0.8934227E+02  0.7546771E-02  0.1308235E+00
          1   -1    0    0  502    0 -0.00000000000E+00  0.00000000000E+00  0.26512140007E+03  0.26512140007E+03  0.00000000000E+00 0. -1.
         21   -1    0    0  501  502  0.00000000000E+00 -0.00000000000E+00 -0.83914904914E+02  0.83914904914E+02  0.00000000000E+00 0. -1.
         23    2    1    2    0    0 -0.10033889881E+02 -0.74393559846E+01  0.18780414219E+03  0.20803734005E+03  0.88617808980E+02 0.  0.
        -24    2    1    2    0    0  0.17363791687E+02 -0.39505993175E+02 -0.14756396064E+01  0.93209549486E+02  0.82605192601E+02 0.  0.
         13    1    4    4    0    0 -0.28401538377E+02 -0.16417721713E+01 -0.15187493480E+02  0.32249073727E+02  0.00000000000E+00 0. -1.
        -14    1    4    4    0    0  0.45765330064E+02 -0.37864221003E+02  0.13711853873E+02  0.60960475758E+02  0.00000000000E+00 0.  1.
        -13    1    3    3    0    0 -0.25378629879E+02 -0.33492082261E+02  0.16472354763E+03  0.16999894580E+03  0.00000000000E+00 0. -1.
         13    1    3    3    0    0  0.15344739999E+02  0.26052726276E+02  0.23080594557E+02  0.38038394250E+02  0.00000000000E+00 0.  1.
          2    1    1    2  501    0 -0.73299018062E+01  0.46945349159E+02 -0.51220074327E+01  0.47789415442E+02  0.00000000000E+00 0. -1.
<scales pt_clust_5="13000.00000" pt_clust_6="13000.00000" pt_clust_7="13000.00000" pt_clust_8="13000.00000" pt_clust_9="47.51414"></scales>
<clustering>
<clus scale="   47.514">  2  9  1 -1</clus>
<clus scale="   82.605">  5  6 -1 -1</clus>
<clus scale="   83.382">  2  5  1 -1</clus>
<clus scale="   88.618">  7  8 -1 -1</clus>
<clus scale="   47.514">  2  5  1 -1</clus>
</clustering>
</event>
<event>
 9    1  0.6345107E-005  0.1201087E+03  0.7546771E-02  0.1246917E+00
         -2   -1    0    0    0  501 -0.00000000000E+00  0.00000000000E+00  0.28251349532E+03  0.28251349532E+03  0.00000000000E+00 0.  1.
         21   -1    0    0  501  502  0.00000000000E+00 -0.00000000000E+00 -0.13970656984E+03  0.13970656984E+03  0.00000000000E+00 0. -1.
        -24    2    1    2    0    0 -0.15541647774E+02 -0.70082541965E+02  0.19384210163E+03  0.22161504574E+03  0.79908464062E+02 0.  0.
         23    2    1    2    0    0 -0.25044937224E+01  0.10528054872E+03 -0.53588691820E+01  0.14018244151E+03  0.92369545851E+02 0.  0.
         11    1    3    3    0    0  0.17579620589E+02 -0.33303469559E+02  0.23877106551E+02  0.44590137497E+02  0.00000000000E+00 0. -1.
        -12    1    3    3    0    0 -0.33121268363E+02 -0.36779072406E+02  0.16996499508E+03  0.17702490824E+03  0.00000000000E+00 0.  1.
        -11    1    4    4    0    0 -0.42409257402E+02  0.74853902612E+02  0.12461794511E+02  0.86930709028E+02  0.00000000000E+00 0. -1.
         11    1    4    4    0    0  0.39904763679E+02  0.30426646104E+02 -0.17820663693E+02  0.53251732478E+02  0.00000000000E+00 0.  1.
         -1    1    1    2    0  502  0.18046141496E+02 -0.35198006751E+02 -0.45676306980E+02  0.60422577912E+02  0.00000000000E+00 0.  1.
<scales pt_clust_5="13000.00000" pt_clust_6="13000.00000" pt_clust_7="13000.00000" pt_clust_8="13000.00000" pt_clust_9="39.55456"></scales>
<clustering>
<clus scale="   39.555">  2  9  1 -1</clus>
<clus scale="   79.908">  5  6 -1 -1</clus>
<clus scale="   92.370">  7  8 -1 -1</clus>
<clus scale="  110.812">  1  5  2 -1</clus>
<clus scale="   39.555">  2  5  1 -1</clus>
</clustering>
</event>
<event>
 9    1  0.6345107E-005  0.1098335E+03  0.7546771E-02  0.1267755E+00
         21   -1    0    0  501  502  0.00000000000E+00  0.00000000000E+00  0.24508143543E+03  0.24508143543E+03  0.00000000000E+00 0. -1.
          1   -1    0    0  502    0 -0.00000000000E+00 -0.00000000000E+00 -0.18462934257E+03  0.18462934257E+03  0.00000000000E+00 0. -1.
        -24    2    1    2    0    0  0.50693843991E+02  0.32906447948E+02 -0.99926482140E+02  0.14221550520E+03  0.81161862666E+02 0.  0.
         23    2    1    2    0    0  0.43980779276E+02 -0.20433083831E+02  0.15835957161E+03  0.19198116140E+03  0.97093730743E+02 0.  0.
         13    1    3    3    0    0  0.32643379553E+02 -0.30226062833E+01 -0.96435948649E+02  0.10185587155E+03  0.00000000000E+00 0. -1.
        -14    1    3    3    0    0  0.18050464437E+02  0.35929054231E+02 -0.34905334912E+01  0.40359633651E+02  0.00000000000E+00 0.  1.
        -11    1    4    4    0    0  0.72177428301E+02 -0.98436166595E+01  0.80856952861E+02  0.10883163497E+03  0.00000000000E+00 0. -1.
         11    1    4    4    0    0 -0.28196649025E+02 -0.10589467171E+02  0.77502618750E+02  0.83149526422E+02  0.00000000000E+00 0.  1.
          2    1    1    2  501    0 -0.94674623267E+02 -0.12473364117E+02  0.20190033860E+01  0.95514111406E+02  0.00000000000E+00 0. -1.
<scales pt_clust_5="13000.00000" pt_clust_6="13000.00000" pt_clust_7="13000.00000" pt_clust_8="13000.00000" pt_clust_9="95.49282"></scales>
<clustering>
<clus scale="   81.162">  5  6 -1 -1</clus>
<clus scale="   95.493">  1  9  2 -1</clus>
<clus scale="   96.039">  2  5  1 -1</clus>
<clus scale="   97.094">  7  8 -1 -1</clus>
<clus scale="   95.493">  1  5  2 -1</clus>
</clustering>
</event>
<event>
 9    1  0.6345107E-005  0.1178285E+03  0.7546771E-02  0.1253068E+00
         21   -1    0    0  501  502  0.00000000000E+00  0.00000000000E+00  0.72006797909E+02  0.72006797909E+02  0.00000000000E+00 0.  1.
          1   -1    0    0  502    0 -0.00000000000E+00 -0.00000000000E+00 -0.61396042363E+03  0.61396042363E+03  0.00000000000E+00 0. -1.
        -24    2    1    2    0    0 -0.55169613788E+02  0.33569597620E+02 -0.36136820538E+02  0.10990904953E+03  0.81262077263E+02 0.  0.
         23    2    1    2    0    0  0.12169118563E+02  0.70816366239E+02 -0.89683026751E+02  0.14488211331E+03  0.88231152637E+02 0.  0.
         13    1    3    3    0    0 -0.35094411604E+02 -0.21848986696E+02 -0.11317210804E+01  0.41355492236E+02  0.00000000000E+00 0. -1.
        -14    1    3    3    0    0 -0.20075202184E+02  0.55418584315E+02 -0.35005099458E+02  0.68553557298E+02  0.00000000000E+00 0.  1.
        -11    1    4    4    0    0 -0.24929384891E+02  0.30113455275E+02 -0.79894324697E+02  0.88946037227E+02  0.00000000000E+00 0. -1.
         11    1    4    4    0    0  0.37098503454E+02  0.40702910965E+02 -0.97887020545E+01  0.55936076082E+02  0.00000000000E+00 0.  1.
          2    1    1    2  501    0  0.43000495225E+02 -0.10438596386E+03 -0.41613377843E+03  0.43117605870E+03  0.00000000000E+00 0. -1.
<scales pt_clust_5="13000.00000" pt_clust_6="13000.00000" pt_clust_7="13000.00000" pt_clust_8="13000.00000" pt_clust_9="78.09502"></scales>
<clustering>
<clus scale="   81.262">  5  6 -1 -1</clus>
<clus scale="   88.231">  7  8 -1 -1</clus>
<clus scale="  103.799">  2  5  1 -1</clus>
<clus scale="   78.095">  1  9  2 -1</clus>
<clus scale="   78.095">  1  5  2 -1</clus>
</clustering>
</event>
<event>
 9    1  0.6345107E-005  0.8569969E+02  0.7546771E-02  0.1318398E+00
         21   -1    0    0  501  502  0.00000000000E+00  0.00000000000E+00  0.31333529761E+03  0.31333529761E+03  0.00000000000E+00 0. -1.
          3   -1    0    0  502    0 -0.00000000000E+00 -0.00000000000E+00 -0.59871597615E+02  0.59871597615E+02  0.00000000000E+00 0. -1.
        -24    2    1    2    0    0 -0.29981325674E+02  0.24847736361E+02  0.71006170405E+02  0.11194270861E+03  0.77285211295E+02 0.  0.
         23    2    1    2    0    0  0.45044704622E+02  0.13128990712E+02  0.19998196318E+03  0.21680923236E+03  0.69369026441E+02 0.  0.
         13    1    3    3    0    0 -0.29812371956E+02  0.19527193337E+02 -0.47909500781E+01  0.35958893252E+02  0.00000000000E+00 0. -1.
        -14    1    3    3    0    0 -0.16895371782E+00  0.53205430239E+01  0.75797120483E+02  0.75983815362E+02  0.00000000000E+00 0.  1.
        -11    1    4    4    0    0  0.11336164120E+02 -0.26722739285E+02  0.47786434984E+02  0.55912045038E+02  0.00000000000E+00 0.  1.
         11    1    4    4    0    0  0.33708540502E+02  0.39851729997E+02  0.15219552820E+03  0.16089718733E+03  0.00000000000E+00 0. -1.
          4    1    1    2  501    0 -0.15063378949E+02 -0.37976727073E+02 -0.17524433589E+02  0.44454954248E+02  0.00000000000E+00 0. -1.
<scales pt_clust_5="13000.00000" pt_clust_6="13000.00000" pt_clust_7="13000.00000" pt_clust_8="13000.00000" pt_clust_9="40.85510"></scales>
<clustering>
<clus scale="   40.855">  1  9  2 -1</clus>
<clus scale="   69.369">  7  8 -1 -1</clus>
<clus scale="   77.285">  5  6 -1 -1</clus>
<clus scale="   78.635">  1  7  2 -1</clus>
<clus scale="   40.855">  1  5  2 -1</clus>
</clustering>
</event>
<event>
 9    1  0.6345107E-005  0.9221428E+02  0.7546771E-02  0.1305360E+00
         21   -1    0    0  501  502  0.00000000000E+00  0.00000000000E+00  0.17461924814E+03  0.17461924814E+03  0.00000000000E+00 0. -1.
          1   -1    0    0  502    0 -0.00000000000E+00 -0.00000000000E+00 -0.20764693275E+03  0.20764693275E+03  0.00000000000E+00 0. -1.
         23    2    1    2    0    0 -0.11605452353E+02  0.99190354926E+01 -0.10206283911E+03  0.13720571726E+03  0.90418537539E+02 0.  0.
        -24    2    1    2    0    0 -0.80331191325E+01 -0.26982767768E+02 -0.67044071646E+02  0.10651660691E+03  0.77834948737E+02 0.  0.
         11    1    4    4    0    0 -0.39938955621E+02 -0.30502674989E+02 -0.46040740596E+02  0.68156314104E+02  0.00000000000E+00 0. -1.
        -12    1    4    4    0    0  0.31905836488E+02  0.35199072209E+01 -0.21003331050E+02  0.38360292804E+02  0.00000000000E+00 0.  1.
        -13    1    3    3    0    0 -0.13945501561E+01  0.28579382544E+02  0.41242135861E+01  0.28909081868E+02  0.00000000000E+00 0.  1.
         13    1    3    3    0    0 -0.10210902197E+02 -0.18660347051E+02 -0.10618705270E+03  0.10829663539E+03  0.00000000000E+00 0. -1.
          2    1    1    2  501    0  0.19638571485E+02  0.17063732276E+02  0.13607922615E+03  0.13854385673E+03  0.00000000000E+00 0. -1.
<scales pt_clust_5="13000.00000" pt_clust_6="13000.00000" pt_clust_7="13000.00000" pt_clust_8="13000.00000" pt_clust_9="26.01623"></scales>
<clustering>
<clus scale="   26.016">  1  9  2 -1</clus>
<clus scale="   77.835">  5  6 -1 -1</clus>
<clus scale="   79.914">  1  5  2 -1</clus>
<clus scale="   90.419">  7  8 -1 -1</clus>
<clus scale="   26.016">  1  5  2 -1</clus>
</clustering>
</event>
<event>
 9    1  0.6345107E-005  0.9546605E+02  0.7546771E-02  0.1298732E+00
          1   -1    0    0  502    0 -0.00000000000E+00  0.00000000000E+00  0.14741524790E+03  0.14741524790E+03  0.00000000000E+00 0. -1.
         21   -1    0    0  501  502  0.00000000000E+00 -0.00000000000E+00 -0.21900352865E+03  0.21900352865E+03  0.00000000000E+00 0.  1.
        -24    2    1    2    0    0  0.91463343122E+01 -0.18485489609E+02  0.10531936281E+03  0.13308131043E+03  0.78696240353E+02 0.  0.
         23    2    1    2    0    0  0.13247894399E+02  0.27392829127E+02 -0.62183486393E+02  0.11610916572E+03  0.93213081649E+02 0.  0.
         13    1    3    3    0    0  0.35442880997E+02 -0.27942214131E+02  0.91233783237E+02  0.10178687709E+03  0.00000000000E+00 0. -1.
        -14    1    3    3    0    0 -0.26296546685E+02  0.94567245221E+01  0.14085579575E+02  0.31294433343E+02  0.00000000000E+00 0.  1.
        -13    1    4    4    0    0 -0.24751240071E+02  0.30272712253E+02 -0.67122844941E+02  0.77682284372E+02  0.00000000000E+00 0.  1.
         13    1    4    4    0    0  0.37999134470E+02 -0.28798831259E+01  0.49393585476E+01  0.38426881349E+02  0.00000000000E+00 0. -1.
          2    1    1    2  501    0 -0.22394228711E+02 -0.89073395187E+01 -0.11472415717E+03  0.11722830040E+03  0.00000000000E+00 0. -1.
<scales pt_clust_5="13000.00000" pt_clust_6="13000.00000" pt_clust_7="13000.00000" pt_clust_8="13000.00000" pt_clust_9="24.10067"></scales>
<clustering>
<clus scale="   24.101">  2  9  1 -1</clus>
<clus scale="   78.696">  5  6 -1 -1</clus>
<clus scale="   81.352">  1  5  2 -1</clus>
<clus scale="   93.213">  7  8 -1 -1</clus>
<clus scale="   24.101">  2  5  1 -1</clus>
</clustering>
</event>
<event>
 9    1  0.6345107E-005  0.1798554E+03  0.7546771E-02  0.1168656E+00
          1   -1    0    0  502    0 -0.00000000000E+00  0.00000000000E+00  0.41107878943E+03  0.41107878943E+03  0.00000000000E+00 0. -1.
         21   -1    0    0  501  502  0.00000000000E+00 -0.00000000000E+00 -0.10163766385E+03  0.10163766385E+03  0.00000000000E+00 0. -1.
         23    2    1    2    0    0 -0.12206434581E+03  0.11158762917E+03  0.22166888683E+03  0.29119870186E+03  0.91148697596E+02 0.  0.
        -24    2    1    2    0    0  0.11416007128E+03 -0.77721067329E+02  0.49220040418E+02  0.16959768245E+03  0.85250661761E+02 0.  0.
         11    1    4    4    0    0  0.88116184514E+02 -0.34586484535E+02 -0.59913026487E+01  0.94850316780E+02  0.00000000000E+00 0. -1.
        -12    1    4    4    0    0  0.26043886766E+02 -0.43134582794E+02  0.55211343067E+02  0.74747365666E+02  0.00000000000E+00 0.  1.
        -13    1    3    3    0    0 -0.29068933291E+02  0.29935289567E+02  0.54671997092E+01  0.42083425678E+02  0.00000000000E+00 0.  1.
         13    1    3    3    0    0 -0.92995412521E+02  0.81652339601E+02  0.21620168712E+03  0.24911527618E+03  0.00000000000E+00 0. -1.
          2    1    1    2  501    0  0.79042745322E+01 -0.33866561839E+02  0.38552198327E+02  0.51920068976E+02  0.00000000000E+00 0. -1.
<scales pt_clust_5="13000.00000" pt_clust_6="13000.00000" pt_clust_7="13000.00000" pt_clust_8="13000.00000" pt_clust_9="34.77676"></scales>
<clustering>
<clus scale="   34.777">  2  9  1 -1</clus>
<clus scale="   85.251">  5  6 -1 -1</clus>
<clus scale="   91.149">  7  8 -1 -1</clus>
<clus scale="  176.939">  2  5  1 -1</clus>
<clus scale="   34.777">  2  5  1 -1</clus>
</clustering>
</event>
<event>
 9    1  0.6345107E-005  0.3749660E+03  0.7546771E-02  0.1101619E+00
          1   -1    0    0  502    0 -0.00000000000E+00  0.00000000000E+00  0.25476921458E+03  0.25476921458E+03  0.00000000000E+00 0. -1.
         21   -1    0    0  501  502  0.00000000000E+00 -0.00000000000E+00 -0.71890559473E+03  0.71890559473E+03  0.00000000000E+00 0. -1.
         23    2    1    2    0    0  0.36187443298E+02  0.25421492962E+00 -0.71347914462E+02  0.12278038159E+03  0.93139151421E+02 0.  0.
        -24    2    1    2    0    0 -0.37505605493E+03  0.96336740833E+02 -0.14934538812E+03  0.42261148306E+03  0.79678156892E+02 0.  0.
         11    1    4    4    0    0 -0.34739470369E+03  0.67381983170E+02 -0.12281272519E+03  0.37457492879E+03  0.00000000000E+00 0. -1.
        -12    1    4    4    0    0 -0.27661351234E+02  0.28954757663E+02 -0.26532662934E+02  0.48036554266E+02  0.00000000000E+00 0.  1.
        -11    1    3    3    0    0  0.39123486914E+02  0.21763337895E+02  0.34440969805E+01  0.44901580247E+02  0.00000000000E+00 0.  1.
         11    1    3    3    0    0 -0.29360436165E+01 -0.21509122966E+02 -0.74792011442E+02  0.77878801342E+02  0.00000000000E+00 0. -1.
          2    1    1    2  501    0  0.33886861163E+03 -0.96590955763E+02 -0.24344307757E+03  0.42828294467E+03  0.00000000000E+00 0. -1.
<scales pt_clust_5="13000.00000" pt_clust_6="13000.00000" pt_clust_7="13000.00000" pt_clust_8="13000.00000" pt_clust_9="366.40264"></scales>
<clustering>
<clus scale="   79.678">  5  6 -1 -1</clus>
<clus scale="   93.139">  7  8 -1 -1</clus>
<clus scale="   99.923">  1  7  2 -1</clus>
<clus scale="  366.403">  2  9  1 -1</clus>
<clus scale="  366.403">  2  5  1 -1</clus>
</clustering>
</event>
<event>
 9    1  0.6345107E-005  0.1018824E+03  0.7546771E-02  0.1281103E+00
         -2   -1    0    0    0  501 -0.00000000000E+00  0.00000000000E+00  0.18560967285E+03  0.18560967285E+03  0.00000000000E+00 0.  1.
         21   -1    0    0  501  502  0.00000000000E+00 -0.00000000000E+00 -0.10797737421E+03  0.10797737421E+03  0.00000000000E+00 0.  1.
         23    2    1    2    0    0 -0.36084253201E+02  0.23989747499E+02  0.74909276876E+02  0.12537371138E+03  0.90717068012E+02 0.  0.
        -24    2    1    2    0    0  0.58955191883E+02 -0.94612483688E+01 -0.47539994616E+02  0.11111230295E+03  0.80750621719E+02 0.  0.
         11    1    4    4    0    0  0.49529456080E+02 -0.89663278909E+01  0.11244227322E+02  0.51575136486E+02  0.00000000000E+00 0. -1.
        -12    1    4    4    0    0  0.94257358030E+01 -0.49492047787E+00 -0.58784221938E+02  0.59537166464E+02  0.00000000000E+00 0.  1.
        -13    1    3    3    0    0 -0.42257103317E+02 -0.62865427551E+01 -0.17122085829E+01  0.42756462187E+02  0.00000000000E+00 0.  1.
         13    1    3    3    0    0  0.61728501157E+01  0.30276290254E+02  0.76621485459E+02  0.82617249192E+02  0.00000000000E+00 0. -1.
         -1    1    1    2    0  502 -0.22870938683E+02 -0.14528499130E+02  0.50263016382E+02  0.57101032732E+02  0.00000000000E+00 0.  1.
<scales pt_clust_5="13000.00000" pt_clust_6="13000.00000" pt_clust_7="13000.00000" pt_clust_8="13000.00000" pt_clust_9="27.09535"></scales>
<clustering>
<clus scale="   27.095">  2  9  1 -1</clus>
<clus scale="   80.751">  5  6 -1 -1</clus>
<clus scale="   90.717">  7  8 -1 -1</clus>
<clus scale="   93.119">  2  5  1 -1</clus>
<clus scale="   27.095">  2  5  1 -1</clus>
</clustering>
</event>
<event>
 9    1  0.6345107E-005  0.1031120E+03  0.7546771E-02  0.1279300E+00
         -4   -1    0    0    0  501 -0.00000000000E+00  0.00000000000E+00  0.27982491058E+03  0.27982491058E+03  0.00000000000E+00 0.  1.
         21   -1    0    0  501  502  0.00000000000E+00 -0.00000000000E+00 -0.66210083934E+02  0.66210083934E+02  0.00000000000E+00 0.  1.
         23    2    1    2    0    0  0.40953527517E+02 -0.56725274136E+01  0.17278360813E+03  0.19969174898E+03  0.91177027754E+02 0.  0.
        -24    2    1    2    0    0 -0.71045890606E+02 -0.58805956696E+01  0.22089192595E+02  0.10905667282E+03  0.79519340282E+02 0.  0.
         13    1    4    4    0    0 -0.40900867512E+02  0.70202339887E+01  0.50714870911E+02  0.65529861743E+02  0.00000000000E+00 0. -1.
        -14    1    4    4    0    0 -0.30145023094E+02 -0.12900829658E+02 -0.28625678316E+02  0.43526811074E+02  0.00000000000E+00 0.  1.
        -13    1    3    3    0    0 -0.36121467545E+00  0.39003653903E+02  0.60617724435E+02  0.72082758060E+02  0.00000000000E+00 0. -1.
         13    1    3    3    0    0  0.41314742192E+02 -0.44676181316E+02  0.11216588369E+03  0.12760899092E+03  0.00000000000E+00 0.  1.
         -3    1    1    2    0  502  0.30092363089E+02  0.11553123083E+02  0.18742025922E+02  0.37286572716E+02  0.00000000000E+00 0.  1.
<scales pt_clust_5="13000.00000" pt_clust_6="13000.00000" pt_clust_7="13000.00000" pt_clust_8="13000.00000" pt_clust_9="32.23391"></scales>
<clustering>
<clus scale="   32.234">  2  9  1 -1</clus>
<clus scale="   79.519">  5  6 -1 -1</clus>
<clus scale="   91.177">  7  8 -1 -1</clus>
<clus scale="   92.963">  2  5  1 -1</clus>
<clus scale="   32.234">  2  5  1 -1</clus>
</clustering>
</event>
<event>
 9    1  0.6345107E-005  0.1413565E+03  0.7546771E-02  0.1213737E+00
         21   -1    0    0  501  502  0.00000000000E+00  0.00000000000E+00  0.24398606202E+03  0.24398606202E+03  0.00000000000E+00 0.  1.
          1   -1    0    0  502    0 -0.00000000000E+00 -0.00000000000E+00 -0.20085587948E+03  0.20085587948E+03  0.00000000000E+00 0. -1.
        -24    2    1    2    0    0 -0.67542476772E+01 -0.10700283280E+03 -0.97086496824E+02  0.16522890539E+03  0.79872255643E+02 0.  0.
         23    2    1    2    0    0  0.38229748270E+02  0.11428639221E+03  0.17580977560E+03  0.23154406613E+03  0.90447135209E+02 0.  0.
         13    1    3    3    0    0  0.23748691416E+02 -0.15071783069E+02 -0.55471664083E-01  0.28127603274E+02  0.00000000000E+00 0. -1.
        -14    1    3    3    0    0 -0.30502939093E+02 -0.91931049734E+02 -0.97031025160E+02  0.13710130212E+03  0.00000000000E+00 0.  1.
        -13    1    4    4    0    0  0.16241823333E+02  0.90470394563E+02  0.17663491333E+03  0.19911951618E+03  0.00000000000E+00 0.  1.
         13    1    4    4    0    0  0.21987924938E+02  0.23815997646E+02 -0.82513773481E+00  0.32424549946E+02  0.00000000000E+00 0. -1.
          2    1    1    2  501    0 -0.31475500593E+02 -0.72835594052E+01 -0.35593096233E+02  0.48068969977E+02  0.00000000000E+00 0. -1.
<scales pt_clust_5="13000.00000" pt_clust_6="13000.00000" pt_clust_7="13000.00000" pt_clust_8="13000.00000" pt_clust_9="32.30725"></scales>
<clustering>
<clus scale="   32.307">  1  9  2 -1</clus>
<clus scale="   79.872">  5  6 -1 -1</clus>
<clus scale="   90.447">  7  8 -1 -1</clus>
<clus scale="  134.835">  2  5  1 -1</clus>
<clus scale="   32.307">  1  5  2 -1</clus>
</clustering>
</event>
<event>
 9    1  0.6345107E-005  0.9118184E+02  0.7546771E-02  0.1305187E+00
         21   -1    0    0  501  502  0.00000000000E+00  0.00000000000E+00  0.81855911409E+02  0.81855911409E+02  0.00000000000E+00 0. -1.
          1   -1    0    0  502    0 -0.00000000000E+00 -0.00000000000E+00 -0.28077656988E+03  0.28077656988E+03  0.00000000000E+00 0. -1.
         23    2    1    2    0    0 -0.25822045712E+01  0.16639397169E+01 -0.96604289087E+02  0.12956055125E+03  0.86279263406E+02 0.  0.
        -24    2    1    2    0    0 -0.41129825008E+02  0.48806630437E+02 -0.12699623247E+03  0.16188825478E+03  0.77498479296E+02 0.  0.
         13    1    4    4    0    0 -0.55171715856E+02  0.14402100045E+02 -0.10277024724E+03  0.11752898550E+03  0.00000000000E+00 0. -1.
        -14    1    4    4    0    0  0.14041890848E+02  0.34404530393E+02 -0.24225985239E+02  0.44359269279E+02  0.00000000000E+00 0.  1.
        -13    1    3    3    0    0 -0.25336409631E+01  0.28475676668E+02 -0.98613315655E+02  0.10267360675E+03  0.00000000000E+00 0.  1.
         13    1    3    3    0    0 -0.48563608067E-01 -0.26811736952E+02  0.20090265678E+01  0.26886944500E+02  0.00000000000E+00 0. -1.
          2    1    1    2  501    0  0.43712029579E+02 -0.50470570154E+02  0.24679863090E+02  0.71183675262E+02  0.00000000000E+00 0. -1.
<scales pt_clust_5="13000.00000" pt_clust_6="13000.00000" pt_clust_7="13000.00000" pt_clust_8="13000.00000" pt_clust_9="66.76841"></scales>
<clustering>
<clus scale="   66.768">  1  9  2 -1</clus>
<clus scale="   77.498">  5  6 -1 -1</clus>
<clus scale="   82.922">  1  5  2 -1</clus>
<clus scale="   86.279">  7  8 -1 -1</clus>
<clus scale="   66.768">  1  5  2 -1</clus>
</clustering>
</event>
<event>
 9    1  0.6345107E-005  0.1018253E+03  0.7546771E-02  0.1281112E+00
         21   -1    0    0  501  502  0.00000000000E+00  0.00000000000E+00  0.28554476537E+03  0.28554476537E+03  0.00000000000E+00 0.  1.
         -4   -1    0    0    0  501 -0.00000000000E+00 -0.00000000000E+00 -0.13933545197E+03  0.13933545197E+03  0.00000000000E+00 0.  1.
        -24    2    1    2    0    0  0.37907658674E+02 -0.17346721721E+02 -0.81217429908E+02  0.12147333527E+03  0.80134892024E+02 0.  0.
         23    2    1    2    0    0 -0.85289034154E+02  0.59469431473E+01  0.78834859252E+02  0.14702754296E+03  0.89958756532E+02 0.  0.
         11    1    3    3    0    0 -0.76628110313E+01 -0.27631032628E+02 -0.66620896263E+02  0.72529555740E+02  0.00000000000E+00 0. -1.
        -12    1    3    3    0    0  0.45570469706E+02  0.10284310907E+02 -0.14596533645E+02  0.48943779528E+02  0.00000000000E+00 0.  1.
        -13    1    4    4    0    0 -0.65319420438E+02  0.31926331383E+02  0.13515396550E+02  0.73949869952E+02  0.00000000000E+00 0.  1.
         13    1    4    4    0    0 -0.19969613716E+02 -0.25979388236E+02  0.65319462702E+02  0.73077673011E+02  0.00000000000E+00 0. -1.
         -3    1    1    2    0  502  0.47381375480E+02  0.11399778574E+02  0.14859188405E+03  0.15637933911E+03  0.00000000000E+00 0.  1.
<scales pt_clust_5="13000.00000" pt_clust_6="13000.00000" pt_clust_7="13000.00000" pt_clust_8="13000.00000" pt_clust_9="48.73346"></scales>
<clustering>
<clus scale="   48.733">  1  9  2 -1</clus>
<clus scale="   80.135">  5  6 -1 -1</clus>
<clus scale="   89.959">  7  8 -1 -1</clus>
<clus scale="   93.260">  2  5  1 -1</clus>
<clus scale="   48.733">  1  5  2 -1</clus>
</clustering>
</event>
<event>
 9    1  0.6345107E-005  0.1110252E+03  0.7546771E-02  0.1263204E+00
         -4   -1    0    0    0  501 -0.00000000000E+00  0.00000000000E+00  0.40188607517E+03  0.40188607517E+03  0.00000000000E+00 0.  1.
         21   -1    0    0  501  502  0.00000000000E+00 -0.00000000000E+00 -0.58925849490E+02  0.58925849490E+02  0.00000000000E+00 0. -1.
        -24    2    1    2    0    0  0.31498565719E+02 -0.56062801051E+02  0.29749272589E+03  0.31422798222E+03  0.78115975008E+02 0.  0.
         23    2    1    2    0    0 -0.53941545462E+02  0.47227991933E+02  0.35058635180E+02  0.12031446101E+03  0.90034926996E+02 0.  0.
         13    1    3    3    0    0 -0.12169345903E+01 -0.40633673623E+02  0.51603115080E+02  0.65692144491E+02  0.00000000000E+00 0. -1.
        -14    1    3    3    0    0  0.32715500310E+02 -0.15429127429E+02  0.24588961081E+03  0.24853583773E+03  0.00000000000E+00 0.  1.
        -13    1    4    4    0    0 -0.29197285607E+02  0.47612926309E+02  0.62192250089E+02  0.83590359549E+02  0.00000000000E+00 0.  1.
         13    1    4    4    0    0 -0.24744259855E+02 -0.38493437523E+00 -0.27133614909E+02  0.36724101463E+02  0.00000000000E+00 0. -1.
         -3    1    1    2    0  502  0.22442979743E+02  0.88348091180E+01  0.10408864615E+02  0.26269481427E+02  0.00000000000E+00 0.  1.
<scales pt_clust_5="13000.00000" pt_clust_6="13000.00000" pt_clust_7="13000.00000" pt_clust_8="13000.00000" pt_clust_9="24.11931"></scales>
<clustering>
<clus scale="   24.119">  2  9  1 -1</clus>
<clus scale="   78.116">  5  6 -1 -1</clus>
<clus scale="   90.035">  7  8 -1 -1</clus>
<clus scale="  101.599">  1  5  2 -1</clus>
<clus scale="   24.119">  2  5  1 -1</clus>
</clustering>
</event>
<event>
 9    1  0.6345107E-005  0.1145932E+03  0.7546771E-02  0.1256520E+00
         21   -1    0    0  501  502  0.00000000000E+00  0.00000000000E+00  0.59949550333E+02  0.59949550333E+02  0.00000000000E+00 0.  1.
          1   -1    0    0  502    0 -0.00000000000E+00 -0.00000000000E+00 -0.29681459152E+03  0.29681459152E+03  0.00000000000E+00 0. -1.
         23    2    1    2    0    0 -0.15532682027E+02  0.70531540972E+02 -0.12733320839E+03  0.17484158530E+03  0.95602675206E+02 0.  0.
        -24    2    1    2    0    0  0.25692521778E+02 -0.45134396925E+02 -0.39307169679E+02  0.10655850293E+03  0.84335292121E+02 0.  0.
         13    1    4    4    0    0  0.87853174932E+01 -0.66448582100E+02 -0.42191303674E+02  0.79200391238E+02  0.00000000000E+00 0. -1.
        -14    1    4    4    0    0  0.16907204285E+02  0.21314185174E+02  0.28841339955E+01  0.27358111691E+02  0.00000000000E+00 0.  1.
        -13    1    3    3    0    0  0.40041642820E+02  0.32502552780E+02 -0.44732891727E+02  0.68269910643E+02  0.00000000000E+00 0.  1.
         13    1    3    3    0    0 -0.55574324847E+02  0.38028988192E+02 -0.82600316667E+02  0.10657167465E+03  0.00000000000E+00 0. -1.
          2    1    1    2  501    0 -0.10159839752E+02 -0.25397144047E+02 -0.70224663119E+02  0.75364053631E+02  0.00000000000E+00 0. -1.
<scales pt_clust_5="13000.00000" pt_clust_6="13000.00000" pt_clust_7="13000.00000" pt_clust_8="13000.00000" pt_clust_9="27.35394"></scales>
<clustering>
<clus scale="   27.354">  1  9  2 -1</clus>
<clus scale="   84.335">  5  6 -1 -1</clus>
<clus scale="   95.603">  7  8 -1 -1</clus>
<clus scale="  105.376">  1  5  2 -1</clus>
<clus scale="   27.354">  1  5  2 -1</clus>
</clustering>
</event>
<event>
 9    1  0.6345107E-005  0.1912755E+03  0.7546771E-02  0.1157883E+00
         21   -1    0    0  501  502  0.00000000000E+00  0.00000000000E+00  0.13046393867E+03  0.13046393867E+03  0.00000000000E+00 0. -1.
          1   -1    0    0  502    0 -0.00000000000E+00 -0.00000000000E+00 -0.47465000976E+03  0.47465000976E+03  0.00000000000E+00 0. -1.
        -24    2    1    2    0    0 -0.11798298515E+03  0.14062436059E+03 -0.18518538143E+03  0.27240518918E+03  0.78840129491E+02 0.  0.
         23    2    1    2    0    0  0.16408482206E+03 -0.51166723581E+02 -0.10309208079E+03  0.21758351993E+03  0.84692081046E+02 0.  0.
         13    1    3    3    0    0 -0.12922448734E+03  0.12153762044E+03 -0.16037772133E+03  0.23914718232E+03  0.00000000000E+00 0. -1.
        -14    1    3    3    0    0  0.11241502183E+02  0.19086740145E+02 -0.24807660100E+02  0.33258006861E+02  0.00000000000E+00 0.  1.
        -11    1    4    4    0    0  0.44850145823E+02 -0.47937175253E+02 -0.10273763545E+02  0.66445907089E+02  0.00000000000E+00 0. -1.
         11    1    4    4    0    0  0.11923467624E+03 -0.32295483286E+01 -0.92818317242E+02  0.15113761284E+03  0.00000000000E+00 0.  1.
          2    1    1    2  501    0 -0.46101836905E+02 -0.89457637004E+02 -0.55908608861E+02  0.11512523932E+03  0.00000000000E+00 0. -1.
<scales pt_clust_5="13000.00000" pt_clust_6="13000.00000" pt_clust_7="13000.00000" pt_clust_8="13000.00000" pt_clust_9="100.63820"></scales>
<clustering>
<clus scale="   78.840">  5  6 -1 -1</clus>
<clus scale="   84.692">  7  8 -1 -1</clus>
<clus scale="  100.638">  1  9  2 -1</clus>
<clus scale="  188.757">  2  5  1 -1</clus>
<clus scale="  100.638">  1  5  2 -1</clus>
</clustering>
</event>
<event>
 9    1  0.6345107E-005  0.9416340E+02  0.7546771E-02  0.1298606E+00
         21   -1    0    0  501  502  0.00000000000E+00  0.00000000000E+00  0.17332462126E+03  0.17332462126E+03  0.00000000000E+00 0.  1.
         -2   -1    0    0    0  501 -0.00000000000E+00 -0.00000000000E+00 -0.12986426318E+03  0.12986426318E+03  0.00000000000E+00 0.  1.
        -24    2    1    2    0    0  0.10477387688E+02  0.22161939133E+02 -0.83321138449E+02  0.11842916647E+03  0.80511664748E+02 0.  0.
         23    2    1    2    0    0 -0.31719833323E+02 -0.37797867036E+02  0.11904008730E+03  0.15727057184E+03  0.90159102729E+02 0.  0.
         13    1    3    3    0    0  0.35132934802E+02  0.29414152200E+02 -0.19817904920E+02  0.49922588203E+02  0.00000000000E+00 0. -1.
        -14    1    3    3    0    0 -0.24655547114E+02 -0.72522130675E+01 -0.63503233528E+02  0.68506578271E+02  0.00000000000E+00 0.  1.
        -13    1    4    4    0    0 -0.40638783911E+02  0.18224098421E+02  0.65914811710E+02  0.79551184302E+02  0.00000000000E+00 0.  1.
         13    1    4    4    0    0  0.89189505876E+01 -0.56021965457E+02  0.53125275588E+02  0.77719387540E+02  0.00000000000E+00 0. -1.
         -1    1    1    2    0  502  0.21242445635E+02  0.15635927903E+02  0.77414092310E+01  0.27489146128E+02  0.00000000000E+00 0.  1.
<scales pt_clust_5="13000.00000" pt_clust_6="13000.00000" pt_clust_7="13000.00000" pt_clust_8="13000.00000" pt_clust_9="26.37658"></scales>
<clustering>
<clus scale="   26.377">  1  9  2 -1</clus>
<clus scale="   80.512">  5  6 -1 -1</clus>
<clus scale="   84.972">  2  5  1 -1</clus>
<clus scale="   90.159">  7  8 -1 -1</clus>
<clus scale="   26.377">  1  5  2 -1</clus>
</clustering>
</event>
<event>
 9    1  0.6345107E-005  0.1390395E+03  0.7546771E-02  0.1220107E+00
          1   -1    0    0  502    0 -0.00000000000E+00  0.00000000000E+00  0.32648661842E+03  0.32648661842E+03  0.00000000000E+00 0. -1.
         21   -1    0    0  501  502  0.00000000000E+00 -0.00000000000E+00 -0.16383706324E+03  0.16383706324E+03  0.00000000000E+00 0. -1.
         23    2    1    2    0    0  0.10249710730E+03 -0.26330488639E+02  0.23024233138E+03  0.27354113047E+03  0.10302556606E+03 0.  0.
        -24    2    1    2    0    0 -0.71367419126E+02 -0.19332753002E+01  0.28445706510E+02  0.11194320744E+03  0.81394578485E+02 0.  0.
         11    1    4    4    0    0 -0.15892805769E+02 -0.38146859884E+02  0.17132435045E+02  0.44735718668E+02  0.00000000000E+00 0. -1.
        -12    1    4    4    0    0 -0.55474613357E+02  0.36213584584E+02  0.11313271465E+02  0.67207488770E+02  0.00000000000E+00 0.  1.
        -13    1    3    3    0    0 -0.38791571571E+01  0.26568683293E+02  0.26712564449E+02  0.37874845104E+02  0.00000000000E+00 0.  1.
         13    1    3    3    0    0  0.10637626446E+03 -0.52899171932E+02  0.20352976693E+03  0.23566628536E+03  0.00000000000E+00 0. -1.
          2    1    1    2  501    0 -0.31129688177E+02  0.28263763939E+02 -0.96038482705E+02  0.10483934375E+03  0.00000000000E+00 0. -1.
<scales pt_clust_5="13000.00000" pt_clust_6="13000.00000" pt_clust_7="13000.00000" pt_clust_8="13000.00000" pt_clust_9="42.04638"></scales>
<clustering>
<clus scale="   42.046">  2  9  1 -1</clus>
<clus scale="   81.395">  5  6 -1 -1</clus>
<clus scale="  103.026">  7  8 -1 -1</clus>
<clus scale="  123.866">  2  5  1 -1</clus>
<clus scale="   42.046">  2  5  1 -1</clus>
</clustering>
</event>
<event>
 9    1  0.6345107E-005  0.9613153E+02  0.7546771E-02  0.1294558E+00
          1   -1    0    0  502    0 -0.00000000000E+00  0.00000000000E+00  0.44126089880E+03  0.44126089880E+03  0.00000000000E+00 0. -1.
         21   -1    0    0  501  502  0.00000000000E+00 -0.00000000000E+00 -0.38531215020E+02  0.38531215020E+02  0.00000000000E+00 0.  1.
         23    2    1    2    0    0  0.30874336743E+02  0.18829590902E+02  0.28913061645E+03  0.30541314805E+03  0.91503548939E+02 0.  0.
        -24    2    1    2    0    0 -0.14471028255E+02  0.11523080930E+02  0.37957354596E+02  0.91240395169E+02  0.80881746333E+02 0.  0.
         11    1    4    4    0    0 -0.45860348702E+02 -0.48572922662E+01  0.29797826865E+02  0.54906059384E+02  0.00000000000E+00 0. -1.
        -12    1    4    4    0    0  0.31389320447E+02  0.16380373196E+02  0.81595277311E+01  0.36334335785E+02  0.00000000000E+00 0.  1.
        -11    1    3    3    0    0  0.38618379996E+02  0.51335837928E+02  0.17182732399E+03  0.18344311597E+03  0.00000000000E+00 0. -1.
         11    1    3    3    0    0 -0.77440432526E+01 -0.32506247025E+02  0.11730329247E+03  0.12197003208E+03  0.00000000000E+00 0.  1.
          2    1    1    2  501    0 -0.16403308488E+02 -0.30352671832E+02  0.75641712727E+02  0.83138570597E+02  0.00000000000E+00 0. -1.
<scales pt_clust_5="13000.00000" pt_clust_6="13000.00000" pt_clust_7="13000.00000" pt_clust_8="13000.00000" pt_clust_9="34.50151"></scales>
<clustering>
<clus scale="   34.502">  2  9  1 -1</clus>
<clus scale="   80.882">  5  6 -1 -1</clus>
<clus scale="   86.083">  2  5  1 -1</clus>
<clus scale="   91.504">  7  8 -1 -1</clus>
<clus scale="   34.502">  2  5  1 -1</clus>
</clustering>
</event>
<event>
 9    1  0.6345107E-005  0.1495404E+03  0.7546771E-02  0.1203487E+00
         -2   -1    0    0    0  501 -0.00000000000E+00  0.00000000000E+00  0.14673587912E+03  0.14673587912E+03  0.00000000000E+00 0.  1.
         21   -1    0    0  501  502  0.00000000000E+00 -0.00000000000E+00 -0.18414905432E+03  0.18414905432E+03  0.00000000000E+00 0. -1.
        -24    2    1    2    0    0 -0.12278207672E+03  0.77145286514E+01  0.32793610915E+02  0.15108559188E+03  0.81341765651E+02 0.  0.
         23    2    1    2    0    0  0.10207271750E+03 -0.12790006668E+02 -0.74417526632E+02  0.15806530437E+03  0.94150136741E+02 0.  0.
         13    1    3    3    0    0 -0.62253809727E+02  0.37903928151E+02 -0.59645102625E+01  0.73128790346E+02  0.00000000000E+00 0. -1.
        -14    1    3    3    0    0 -0.60528266996E+02 -0.30189399500E+02  0.38758121178E+02  0.77956801531E+02  0.00000000000E+00 0.  1.
        -13    1    4    4    0    0  0.78022310774E+02 -0.21946953576E+02 -0.18518125246E+01  0.81071443550E+02  0.00000000000E+00 0.  1.
         13    1    4    4    0    0  0.24050406722E+02  0.91569469079E+01 -0.72565714107E+02  0.76993860821E+02  0.00000000000E+00 0. -1.
         -1    1    1    2    0  502  0.20709359227E+02  0.50754780166E+01  0.42107405148E+01  0.21734037185E+02  0.00000000000E+00 0.  1.
<scales pt_clust_5="13000.00000" pt_clust_6="13000.00000" pt_clust_7="13000.00000" pt_clust_8="13000.00000" pt_clust_9="21.32225"></scales>
<clustering>
<clus scale="   21.322">  2  9  1 -1</clus>
<clus scale="   81.342">  5  6 -1 -1</clus>
<clus scale="   94.150">  7  8 -1 -1</clus>
<clus scale="  141.826">  1  5  2 -1</clus>
<clus scale="   21.322">  2  5  1 -1</clus>
</clustering>
</event>
<event>
 9    1  0.6345107E-005  0.1101083E+03  0.7546771E-02  0.1264036E+00
         21   -1    0    0  501  502  0.00000000000E+00  0.00000000000E+00  0.34121776735E+03  0.34121776735E+03  0.00000000000E+00 0.  1.
          3   -1    0    0  502    0 -0.00000000000E+00 -0.00000000000E+00 -0.48435077728E+02  0.48435077728E+02  0.00000000000E+00 0. -1.
        -24    2    1    2    0    0  0.72065068227E+02 -0.21688577671E+01  0.57185046927E+02  0.12199235736E+03  0.80087000560E+02 0.  0.
         23    2    1    2    0    0 -0.46283548108E+02 -0.64609724070E+00  0.18106412297E+03  0.20727410246E+03  0.89642359720E+02 0.  0.
         13    1    3    3    0    0  0.84973411220E+02 -0.14721817662E+02  0.34148985719E+02  0.92754330116E+02  0.00000000000E+00 0. -1.
        -14    1    3    3    0    0 -0.12908342993E+02  0.12552959895E+02  0.23036061207E+02  0.29238027240E+02  0.00000000000E+00 0.  1.
        -11    1    4    4    0    0 -0.56024659601E+02  0.33292348570E+02  0.10831607795E+03  0.12641010917E+03  0.00000000000E+00 0. -1.
         11    1    4    4    0    0  0.97411114927E+01 -0.33938445811E+02  0.72748045016E+02  0.80863993290E+02  0.00000000000E+00 0.  1.
          4    1    1    2  501    0 -0.25781520119E+02  0.28149550078E+01  0.54533519729E+02  0.60386385266E+02  0.00000000000E+00 0. -1.
<scales pt_clust_5="13000.00000" pt_clust_6="13000.00000" pt_clust_7="13000.00000" pt_clust_8="13000.00000" pt_clust_9="25.93474"></scales>
<clustering>
<clus scale="   25.935">  1  9  2 -1</clus>
<clus scale="   80.087">  5  6 -1 -1</clus>
<clus scale="   89.642">  7  8 -1 -1</clus>
<clus scale="  102.479">  2  5  1 -1</clus>
<clus scale="   25.935">  1  5  2 -1</clus>
</clustering>
</event>
<event>
 9    1  0.6345107E-005  0.1664001E+03  0.7546771E-02  0.1207174E+00
          1   -1    0    0  502    0 -0.00000000000E+00  0.00000000000E+00  0.48723711779E+03  0.48723711779E+03  0.00000000000E+00 0. -1.
         21   -1    0    0  501  502  0.00000000000E+00 -0.00000000000E+00 -0.10434991219E+03  0.10434991219E+03  0.00000000000E+00 0. -1.
         23    2    1    2    0    0 -0.58689247509E+01  0.28604487389E+02  0.15589301762E+03  0.18260174141E+03  0.90488132079E+02 0.  0.
        -24    2    1    2    0    0 -0.13700306316E+03  0.17072151425E+02  0.20143652437E+03  0.25682762549E+03  0.79513886814E+02 0.  0.
         13    1    4    4    0    0 -0.64470648029E+02 -0.31752301053E+02  0.93035875730E+02  0.11755997300E+03  0.00000000000E+00 0. -1.
        -14    1    4    4    0    0 -0.72532415133E+02  0.48824452478E+02  0.10840064864E+03  0.13926765249E+03  0.00000000000E+00 0.  1.
        -11    1    3    3    0    0 -0.38905027603E+02  0.14545179179E+02  0.13459192774E+03  0.14085506886E+03  0.00000000000E+00 0. -1.
         11    1    3    3    0    0  0.33036102853E+02  0.14059308210E+02  0.21301089875E+02  0.41746672549E+02  0.00000000000E+00 0.  1.
          2    1    1    2  501    0  0.14287198791E+03 -0.45676638814E+02  0.25557663615E+02  0.15215766308E+03  0.00000000000E+00 0. -1.
<scales pt_clust_5="13000.00000" pt_clust_6="13000.00000" pt_clust_7="13000.00000" pt_clust_8="13000.00000" pt_clust_9="146.17293"></scales>
<clustering>
<clus scale="   79.514">  5  6 -1 -1</clus>
<clus scale="   90.488">  7  8 -1 -1</clus>
<clus scale="   95.083">  1  7  2 -1</clus>
<clus scale="  146.173">  2  9  1 -1</clus>
<clus scale="  146.173">  2  5  1 -1</clus>
</clustering>
</event>
<event>
 9    1  0.6345107E-005  0.1995219E+03  0.7546771E-02  0.1189141E+00
          1   -1    0    0  502    0 -0.00000000000E+00  0.00000000000E+00  0.14919958954E+03  0.14919958954E+03  0.00000000000E+00 0. -1.
         21   -1    0    0  501  502  0.00000000000E+00 -0.00000000000E+00 -0.45275179167E+03  0.45275179167E+03  0.00000000000E+00 0. -1.
        -24    2    1    2    0    0 -0.15760537557E+01  0.22428851687E+02  0.38219263162E+02  0.90200563058E+02  0.78548661134E+02 0.  0.
         23    2    1    2    0    0 -0.97127523129E+02 -0.16360019623E+03 -0.19907319705E+03  0.28806679912E+03  0.84578738557E+02 0.  0.
         13    1    3    3    0    0 -0.35112591021E+02  0.31218131410E+02  0.23554887734E+02  0.52557573318E+02  0.00000000000E+00 0. -1.
        -14    1    3    3    0    0  0.33536537266E+02 -0.87892797235E+01  0.14664375429E+02  0.37642989740E+02  0.00000000000E+00 0.  1.
        -11    1    4    4    0    0  0.37586621979E+01 -0.71351688871E+02 -0.71586776746E+02  0.10114275877E+03  0.00000000000E+00 0.  1.
         11    1    4    4    0    0 -0.10088618533E+03 -0.92248507361E+02 -0.12748642030E+03  0.18692404035E+03  0.00000000000E+00 0. -1.
          2    1    1    2  501    0  0.98703576885E+02  0.14117134455E+03 -0.14269826825E+03  0.22368401904E+03  0.00000000000E+00 0. -1.
<scales pt_clust_5="13000.00000" pt_clust_6="13000.00000" pt_clust_7="13000.00000" pt_clust_8="13000.00000" pt_clust_9="180.70817"></scales>
<clustering>
<clus scale="   78.549">  5  6 -1 -1</clus>
<clus scale="   81.703">  1  5  2 -1</clus>
<clus scale="   84.579">  7  8 -1 -1</clus>
<clus scale="  180.708">  2  9  1 -1</clus>
<clus scale="  180.708">  2  5  1 -1</clus>
</clustering>
</event>
<event>
 9    1  0.6345107E-005  0.1816181E+03  0.7546771E-02  0.1167699E+00
         21   -1    0    0  501  502  0.00000000000E+00  0.00000000000E+00  0.63741706742E+02  0.63741706742E+02  0.00000000000E+00 0.  1.
          1   -1    0    0  502    0 -0.00000000000E+00 -0.00000000000E+00 -0.95039812467E+03  0.95039812467E+03  0.00000000000E+00 0. -1.
        -24    2    1    2    0    0 -0.12430694777E+03 -0.72747683362E+02 -0.34372395447E+03  0.38125557861E+03  0.80406570908E+02 0.  0.
         23    2    1    2    0    0  0.18605084843E+03  0.35596403155E+02 -0.23124076313E+03  0.31297138507E+03  0.92718796483E+02 0.  0.
         13    1    3    3    0    0 -0.82085710902E+02 -0.35016067613E+02 -0.11465962048E+03  0.14529630929E+03  0.00000000000E+00 0. -1.
        -14    1    3    3    0    0 -0.42221236869E+02 -0.37731615748E+02 -0.22906433399E+03  0.23595926932E+03  0.00000000000E+00 0.  1.
        -11    1    4    4    0    0  0.15877099540E+03  0.63665522511E+02 -0.19762933156E+03  0.26137880639E+03  0.00000000000E+00 0.  1.
         11    1    4    4    0    0  0.27279853024E+02 -0.28069119356E+02 -0.33611431571E+02  0.51592578678E+02  0.00000000000E+00 0. -1.
          2    1    1    2  501    0 -0.61743900655E+02  0.37151280207E+02 -0.31169170033E+03  0.31991286773E+03  0.00000000000E+00 0. -1.
<scales pt_clust_5="13000.00000" pt_clust_6="13000.00000" pt_clust_7="13000.00000" pt_clust_8="13000.00000" pt_clust_9="72.05923"></scales>
<clustering>
<clus scale="   72.059">  1  9  2 -1</clus>
<clus scale="   80.407">  5  6 -1 -1</clus>
<clus scale="   92.719">  7  8 -1 -1</clus>
<clus scale="  175.652">  2  5  1 -1</clus>
<clus scale="   72.059">  1  5  2 -1</clus>
</clustering>
</event>
<event>
 9    1  0.6345107E-005  0.1890634E+03  0.7546771E-02  0.1175846E+00
         21   -1    0    0  501  502  0.00000000000E+00  0.00000000000E+00  0.28404528992E+03  0.28404528992E+03  0.00000000000E+00 0.  1.
         -2   -1    0    0    0  501 -0.00000000000E+00 -0.00000000000E+00 -0.28307528960E+03  0.28307528960E+03  0.00000000000E+00 0.  1.
        -24    2    1    2    0    0  0.62172442453E+02  0.80561795533E+02  0.10893362616E+03  0.16907574101E+03  0.79777539375E+02 0.  0.
         23    2    1    2    0    0 -0.26162887241E+02  0.13425158257E+03 -0.31219614945E+02  0.16710952573E+03  0.90790666582E+02 0.  0.
         11    1    3    3    0    0 -0.10836987425E+02  0.41831865405E+02  0.19833124095E+02  0.47546798747E+02  0.00000000000E+00 0. -1.
        -12    1    3    3    0    0  0.73009429878E+02  0.38729930128E+02  0.89100502064E+02  0.12152894226E+03  0.00000000000E+00 0.  1.
        -13    1    4    4    0    0 -0.59790833097E+02  0.73955327721E+02 -0.19555647080E+02  0.97091490634E+02  0.00000000000E+00 0.  1.
         13    1    4    4    0    0  0.33627945856E+02  0.60296254854E+02 -0.11663967865E+02  0.70018035092E+02  0.00000000000E+00 0. -1.
         -1    1    1    2    0  502 -0.36009555212E+02 -0.21481337811E+03 -0.76744010892E+02  0.23093531278E+03  0.00000000000E+00 0.  1.
<scales pt_clust_5="13000.00000" pt_clust_6="13000.00000" pt_clust_7="13000.00000" pt_clust_8="13000.00000" pt_clust_9="165.83743"></scales>
<clustering>
<clus scale="   79.778">  5  6 -1 -1</clus>
<clus scale="   90.791">  7  8 -1 -1</clus>
<clus scale="  129.306">  2  5  1 -1</clus>
<clus scale="  165.837">  1  9  2 -1</clus>
<clus scale="  165.837">  1  5  2 -1</clus>
</clustering>
</event>
<event>
 9    1  0.6345107E-005  0.1168172E+03  0.7546771E-02  0.1253921E+00
          3   -1    0    0  502    0 -0.00000000000E+00  0.00000000000E+00  0.89795016241E+02  0.89795016241E+02  0.00000000000E+00 0. -1.
         21   -1    0    0  501  502  0.00000000000E+00 -0.00000000000E+00 -0.24952943440E+03  0.24952943440E+03  0.00000000000E+00 0.  1.
         23    2    1    2    0    0 -0.69471756273E+02  0.34390397267E+02 -0.56916979612E+02  0.13296453112E+03  0.91820474967E+02 0.  0.
        -24    2    1    2    0    0  0.42574356705E+02 -0.53201228086E+02 -0.12896122936E+03  0.16439785025E+03  0.75846608154E+02 0.  0.
         13    1    4    4    0    0  0.52555703541E+02 -0.13977110004E+02 -0.42803583362E+02  0.69206996231E+02  0.00000000000E+00 0. -1.
        -14    1    4    4    0    0 -0.99813468356E+01 -0.39224118082E+02 -0.86157645999E+02  0.95190854015E+02  0.00000000000E+00 0.  1.
        -13    1    3    3    0    0 -0.30219393568E+02 -0.13761097238E+00 -0.72390652695E+02  0.78445122742E+02  0.00000000000E+00 0.  1.
         13    1    3    3    0    0 -0.39252362705E+02  0.34528008240E+02  0.15473673082E+02  0.54519408375E+02  0.00000000000E+00 0. -1.
          4    1    1    2  501    0  0.26897399568E+02  0.18810830819E+02  0.26143790817E+02  0.41962069276E+02  0.00000000000E+00 0. -1.
<scales pt_clust_5="13000.00000" pt_clust_6="13000.00000" pt_clust_7="13000.00000" pt_clust_8="13000.00000" pt_clust_9="32.82253"></scales>
<clustering>
<clus scale="   32.823">  2  9  1 -1</clus>
<clus scale="   75.847">  5  6 -1 -1</clus>
<clus scale="   91.820">  7  8 -1 -1</clus>
<clus scale="  104.728">  2  5  1 -1</clus>
<clus scale="   32.823">  2  5  1 -1</clus>
</clustering>
</event>
<event>
 9    1  0.6345107E-005  0.9207290E+02  0.7546771E-02  0.1303755E+00
         -2   -1    0    0    0  501 -0.00000000000E+00  0.00000000000E+00  0.19046716221E+03  0.19046716221E+03  0.00000000000E+00 0.  1.
         21   -1    0    0  501  502  0.00000000000E+00 -0.00000000000E+00 -0.20013191681E+03  0.20013191681E+03  0.00000000000E+00 0.  1.
        -24    2    1    2    0    0  0.14291250066E+02 -0.65112367235E+01  0.14357885478E+03  0.16605356199E+03  0.81928394834E+02 0.  0.
         23    2    1    2    0    0  0.46352971779E+02  0.98004126643E+01 -0.88331749111E+02  0.13565181688E+03  0.91401703712E+02 0.  0.
         13    1    3    3    0    0 -0.31923824568E+02 -0.79107303012E+01  0.86851706234E+02  0.92870496417E+02  0.00000000000E+00 0. -1.
        -14    1    3    3    0    0  0.46215074633E+02  0.13994935776E+01  0.56727148542E+02  0.73183065578E+02  0.00000000000E+00 0.  1.
        -11    1    4    4    0    0  0.60402049699E+02 -0.11080088615E+02 -0.91593066355E+02  0.11027450193E+03  0.00000000000E+00 0.  1.
         11    1    4    4    0    0 -0.14049077920E+02  0.20880501279E+02  0.32613172437E+01  0.25377314953E+02  0.00000000000E+00 0. -1.
         -1    1    1    2    0  502 -0.60644221845E+02 -0.32891759408E+01 -0.64911860272E+02  0.88893700145E+02  0.00000000000E+00 0.  1.
<scales pt_clust_5="13000.00000" pt_clust_6="13000.00000" pt_clust_7="13000.00000" pt_clust_8="13000.00000" pt_clust_9="60.73335"></scales>
<clustering>
<clus scale="   60.733">  2  9  1 -1</clus>
<clus scale="   81.928">  5  6 -1 -1</clus>
<clus scale="   82.677">  1  5  2 -1</clus>
<clus scale="   91.402">  7  8 -1 -1</clus>
<clus scale="   60.733">  2  5  1 -1</clus>
</clustering>
</event>
<event>
 9    1  0.6345107E-005  0.3364404E+03  0.7546771E-02  0.1068682E+00
          1   -1    0    0  502    0 -0.00000000000E+00  0.00000000000E+00  0.15510346460E+03  0.15510346460E+03  0.00000000000E+00 0. -1.
         21   -1    0    0  501  502  0.00000000000E+00 -0.00000000000E+00 -0.14641574343E+04  0.14641574343E+04  0.00000000000E+00 0. -1.
         23    2    1    2    0    0  0.32590730402E+02 -0.24489900857E+03 -0.59664742316E+03  0.65219556188E+03  0.91286490025E+02 0.  0.
        -24    2    1    2    0    0 -0.15861805107E+03  0.38412007957E+03 -0.63725515685E+03  0.76479540960E+03  0.78166245641E+02 0.  0.
         13    1    4    4    0    0 -0.13681516042E+03  0.24246242797E+03 -0.39350234405E+03  0.48202750116E+03  0.00000000000E+00 0. -1.
        -14    1    4    4    0    0 -0.21802890653E+02  0.14165765160E+03 -0.24375281280E+03  0.28276790844E+03  0.00000000000E+00 0.  1.
        -13    1    3    3    0    0 -0.20702342718E+02 -0.20385741331E+02 -0.10741840818E+03  0.11127838901E+03  0.00000000000E+00 0.  1.
         13    1    3    3    0    0  0.53293073120E+02 -0.22451326724E+03 -0.48922901498E+03  0.54091717287E+03  0.00000000000E+00 0. -1.
          2    1    1    2  501    0  0.12602732067E+03 -0.13922107101E+03 -0.75151389678E+02  0.20226992742E+03  0.00000000000E+00 0. -1.
<scales pt_clust_5="13000.00000" pt_clust_6="13000.00000" pt_clust_7="13000.00000" pt_clust_8="13000.00000" pt_clust_9="187.79091"></scales>
<clustering>
<clus scale="   78.166">  5  6 -1 -1</clus>
<clus scale="   91.286">  7  8 -1 -1</clus>
<clus scale="  187.791">  2  9  1 -1</clus>
<clus scale="  333.120">  2  5  1 -1</clus>
<clus scale="  187.791">  2  5  1 -1</clus>
</clustering>
</event>
<event>
 9    1  0.6345107E-005  0.1583025E+03  0.7546771E-02  0.1192606E+00
          3   -1    0    0  502    0 -0.00000000000E+00  0.00000000000E+00  0.20915357355E+03  0.20915357355E+03  0.00000000000E+00 0. -1.
         21   -1    0    0  501  502  0.00000000000E+00 -0.00000000000E+00 -0.23491197556E+03  0.23491197556E+03  0.00000000000E+00 0.  1.
         23    2    1    2    0    0  0.32447661659E+02  0.12655769893E+03  0.13344488920E+03  0.20877720032E+03  0.93331018490E+02 0.  0.
        -24    2    1    2    0    0 -0.59241909625E+01 -0.11830767374E+03 -0.11984806735E+03  0.18711791120E+03  0.81349565090E+02 0.  0.
         11    1    4    4    0    0 -0.22799370745E+02 -0.32110248562E+02 -0.82998397063E+02  0.91867367896E+02  0.00000000000E+00 0. -1.
        -12    1    4    4    0    0  0.16875179783E+02 -0.86197425174E+02 -0.36849670289E+02  0.95250543304E+02  0.00000000000E+00 0.  1.
        -11    1    3    3    0    0 -0.27666988427E+02  0.54418508142E+02  0.80323949953E+02  0.10088990640E+03  0.00000000000E+00 0.  1.
         11    1    3    3    0    0  0.60114650086E+02  0.72139190785E+02  0.53120939251E+02  0.10788729392E+03  0.00000000000E+00 0. -1.
          4    1    1    2  501    0 -0.26523470697E+02 -0.82500251911E+01 -0.39355223858E+02  0.48170437598E+02  0.00000000000E+00 0. -1.
<scales pt_clust_5="13000.00000" pt_clust_6="13000.00000" pt_clust_7="13000.00000" pt_clust_8="13000.00000" pt_clust_9="27.77692"></scales>
<clustering>
<clus scale="   27.777">  2  9  1 -1</clus>
<clus scale="   81.350">  5  6 -1 -1</clus>
<clus scale="   93.331">  7  8 -1 -1</clus>
<clus scale="  151.548">  2  5  1 -1</clus>
<clus scale="   27.777">  2  5  1 -1</clus>
</clustering>
</event>
<event>
 9    1  0.6345107E-005  0.2847190E+03  0.7546771E-02  0.1139117E+00
         21   -1    0    0  501  502  0.00000000000E+00  0.00000000000E+00  0.13986024956E+03  0.13986024956E+03  0.00000000000E+00 0. -1.
          1   -1    0    0  502    0 -0.00000000000E+00 -0.00000000000E+00 -0.98272457589E+03  0.98272457589E+03  0.00000000000E+00 0. -1.
        -24    2    1    2    0    0  0.26160995866E+02  0.27206467216E+02 -0.29274695882E+03  0.30608925649E+03  0.81026301151E+02 0.  0.
         23    2    1    2    0    0  0.23580451285E+03  0.44050874306E+02 -0.46023611713E+03  0.53051973843E+03  0.10995299698E+03 0.  0.
         11    1    3    3    0    0  0.44393703114E+02  0.38234577787E+02 -0.26330885398E+03  0.26974846876E+03  0.00000000000E+00 0. -1.
        -12    1    3    3    0    0 -0.18232707248E+02 -0.11028110570E+02 -0.29438104843E+02  0.36340787734E+02  0.00000000000E+00 0.  1.
        -13    1    4    4    0    0  0.15961902414E+03  0.15984353029E+02 -0.19163239847E+03  0.24991340211E+03  0.00000000000E+00 0. -1.
         13    1    4    4    0    0  0.76185488711E+02  0.28066521277E+02 -0.26860371866E+03  0.28060633632E+03  0.00000000000E+00 0.  1.
          2    1    1    2  501    0 -0.26196550872E+03 -0.71257341522E+02 -0.89881250373E+02  0.28597583053E+03  0.00000000000E+00 0. -1.
<scales pt_clust_5="13000.00000" pt_clust_6="13000.00000" pt_clust_7="13000.00000" pt_clust_8="13000.00000" pt_clust_9="262.63136"></scales>
<clustering>
<clus scale="   81.026">  5  6 -1 -1</clus>
<clus scale="   89.386">  2  5  1 -1</clus>
<clus scale="  109.953">  7  8 -1 -1</clus>
<clus scale="  262.631">  1  9  2 -1</clus>
<clus scale="  262.631">  1  5  2 -1</clus>
</clustering>
</event>
<event>
 9    1  0.6345107E-005  0.1303279E+03  0.7546771E-02  0.1229258E+00
         21   -1    0    0  501  502  0.00000000000E+00  0.00000000000E+00  0.11608027449E+04  0.11608027449E+04  0.00000000000E+00 0. -1.
          3   -1    0    0  502    0 -0.00000000000E+00 -0.00000000000E+00 -0.34893784375E+02  0.34893784375E+02  0.00000000000E+00 0. -1.
        -24    2    1    2    0    0 -0.22076702580E+02  0.78367256721E+02  0.18067677767E+03  0.21527327518E+03  0.84081373042E+02 0.  0.
         23    2    1    2    0    0  0.10772984713E+03 -0.78651771716E+02  0.46388559471E+03  0.49151520544E+03  0.92766001576E+02 0.  0.
         11    1    3    3    0    0 -0.43210599367E+02  0.12106446922E+02  0.93842065272E+02  0.10401949418E+03  0.00000000000E+00 0. -1.
        -12    1    3    3    0    0  0.21133896787E+02  0.66260809800E+02  0.86834712400E+02  0.11125378100E+03  0.00000000000E+00 0.  1.
        -13    1    4    4    0    0 -0.13612691825E+02 -0.22045619105E+02  0.47183248272E+02  0.53829114965E+02  0.00000000000E+00 0.  1.
         13    1    4    4    0    0  0.12134253896E+03 -0.56606152612E+02  0.41670234643E+03  0.43768609048E+03  0.00000000000E+00 0. -1.
          4    1    1    2  501    0 -0.85653144551E+02  0.28451499514E+00  0.48134658815E+03  0.48890804866E+03  0.00000000000E+00 0. -1.
<scales pt_clust_5="13000.00000" pt_clust_6="13000.00000" pt_clust_7="13000.00000" pt_clust_8="13000.00000" pt_clust_9="85.65362"></scales>
<clustering>
<clus scale="   84.081">  5  6 -1 -1</clus>
<clus scale="   85.654">  1  9  2 -1</clus>
<clus scale="   92.766">  7  8 -1 -1</clus>
<clus scale="  124.296">  2  5  1 -1</clus>
<clus scale="   85.654">  1  5  2 -1</clus>
</clustering>
</event>
<event>
 9    1  0.6345107E-005  0.9848489E+02  0.7546771E-02  0.1287919E+00
         -4   -1    0    0    0  501 -0.00000000000E+00  0.00000000000E+00  0.46111938866E+03  0.46111938866E+03  0.00000000000E+00 0.  1.
         21   -1    0    0  501  502  0.00000000000E+00 -0.00000000000E+00 -0.42399501683E+02  0.42399501683E+02  0.00000000000E+00 0. -1.
        -24    2    1    2    0    0 -0.21168865807E+02 -0.30108657399E+02  0.25732168729E+03  0.27249462869E+03  0.81757077891E+02 0.  0.
         23    2    1    2    0    0  0.51017769639E+01  0.54370938718E+02  0.51780923111E+02  0.11761016657E+03  0.90380640504E+02 0.  0.
         13    1    3    3    0    0  0.17125932415E+02  0.19646744114E+02  0.93114577390E+02  0.96693415690E+02  0.00000000000E+00 0. -1.
        -14    1    3    3    0    0 -0.38294798222E+02 -0.49755401512E+02  0.16420710990E+03  0.17580121300E+03  0.00000000000E+00 0.  1.
        -11    1    4    4    0    0 -0.23270265330E+02  0.59461224035E+02  0.68378010846E+01  0.64217582763E+02  0.00000000000E+00 0. -1.
         11    1    4    4    0    0  0.28372042294E+02 -0.50902853162E+01  0.44943122027E+02  0.53392583811E+02  0.00000000000E+00 0.  1.
         -3    1    1    2    0  502  0.16067088843E+02 -0.24262281320E+02  0.10961727658E+03  0.11341409508E+03  0.00000000000E+00 0.  1.
<scales pt_clust_5="13000.00000" pt_clust_6="13000.00000" pt_clust_7="13000.00000" pt_clust_8="13000.00000" pt_clust_9="29.10001"></scales>
<clustering>
<clus scale="   29.100">  2  9  1 -1</clus>
<clus scale="   81.757">  5  6 -1 -1</clus>
<clus scale="   90.381">  7  8 -1 -1</clus>
<clus scale="   90.636">  1  5  2 -1</clus>
<clus scale="   29.100">  2  5  1 -1</clus>
</clustering>
</event>
<event>
 9    1  0.6345107E-005  0.1464896E+03  0.7546771E-02  0.1222271E+00
         -4   -1    0    0    0  501 -0.00000000000E+00  0.00000000000E+00  0.81292392583E+03  0.81292392583E+03  0.00000000000E+00 0.  1.
         21   -1    0    0  501  502  0.00000000000E+00 -0.00000000000E+00 -0.89147212431E+02  0.89147212431E+02  0.00000000000E+00 0.  1.
         23    2    1    2    0    0 -0.47843581725E+02 -0.81897565280E+01  0.18349637899E+03  0.20955988994E+03  0.88816360777E+02 0.  0.
        -24    2    1    2    0    0 -0.44725481355E+02  0.63694280276E+02  0.56703009525E+03  0.58131172809E+03  0.10169988333E+03 0.  0.
         11    1    4    4    0    0 -0.65225114498E+02  0.66878647565E+02  0.31850931509E+03  0.33192657752E+03  0.00000000000E+00 0. -1.
        -12    1    4    4    0    0  0.20499633143E+02 -0.31843672888E+01  0.24852078016E+03  0.24938515057E+03  0.00000000000E+00 0.  1.
        -13    1    3    3    0    0 -0.73928197289E+02 -0.11139762993E+02  0.12984164418E+03  0.14982765178E+03  0.00000000000E+00 0.  1.
         13    1    3    3    0    0  0.26084615565E+02  0.29500064648E+01  0.53654734816E+02  0.59732238159E+02  0.00000000000E+00 0. -1.
         -3    1    1    2    0  502  0.92569063080E+02 -0.55504523748E+02 -0.26749760846E+02  0.11119952024E+03  0.00000000000E+00 0.  1.
<scales pt_clust_5="13000.00000" pt_clust_6="13000.00000" pt_clust_7="13000.00000" pt_clust_8="13000.00000" pt_clust_9="105.43407"></scales>
<clustering>
<clus scale="   88.816">  7  8 -1 -1</clus>
<clus scale="  101.215">  1  7  2 -1</clus>
<clus scale="  101.700">  5  6 -1 -1</clus>
<clus scale="  105.434">  2  9  1 -1</clus>
<clus scale="  105.434">  2  5  1 -1</clus>
</clustering>
</event>
<event>
 9    1  0.6345107E-005  0.9927116E+02  0.7546771E-02  0.1286564E+00
         21   -1    0    0  501  502  0.00000000000E+00  0.00000000000E+00  0.77128212961E+02  0.77128212961E+02  0.00000000000E+00 0.  1.
          1   -1    0    0  502    0 -0.00000000000E+00 -0.00000000000E+00 -0.39522933738E+03  0.39522933738E+03  0.00000000000E+00 0. -1.
         23    2    1    2    0    0 -0.13495138789E+02  0.35669568628E+02 -0.30445239597E+03  0.31972311825E+03  0.89873099597E+02 0.  0.
        -24    2    1    2    0    0  0.21494537589E+02 -0.54202420982E+02 -0.49894957959E+02  0.11114652843E+03  0.80399790826E+02 0.  0.
         13    1    4    4    0    0  0.21019421938E+02 -0.23125295816E+01 -0.55076430639E+02  0.58996416023E+02  0.00000000000E+00 0. -1.
        -14    1    4    4    0    0  0.47511565146E+00 -0.51889891400E+02  0.51814726805E+01  0.52150112402E+02  0.00000000000E+00 0.  1.
        -13    1    3    3    0    0 -0.49990557103E+02  0.58080539945E+01 -0.14837503658E+03  0.15667782476E+03  0.00000000000E+00 0.  1.
         13    1    3    3    0    0  0.36495418314E+02  0.29861514634E+02 -0.15607735939E+03  0.16304529349E+03  0.00000000000E+00 0. -1.
          2    1    1    2  501    0 -0.79993988005E+01  0.18532852354E+02  0.36246229508E+02  0.41487903672E+02  0.00000000000E+00 0. -1.
<scales pt_clust_5="13000.00000" pt_clust_6="13000.00000" pt_clust_7="13000.00000" pt_clust_8="13000.00000" pt_clust_9="20.18556"></scales>
<clustering>
<clus scale="   20.186">  1  9  2 -1</clus>
<clus scale="   80.400">  5  6 -1 -1</clus>
<clus scale="   89.873">  7  8 -1 -1</clus>
<clus scale="   90.784">  1  5  2 -1</clus>
<clus scale="   20.186">  1  5  2 -1</clus>
</clustering>
</event>
<event>
 9    1  0.6345107E-005  0.1410276E+03  0.7546771E-02  0.1215394E+00
         21   -1    0    0  501  502  0.00000000000E+00  0.00000000000E+00  0.11749131525E+03  0.11749131525E+03  0.00000000000E+00 0.  1.
          1   -1    0    0  502    0 -0.00000000000E+00 -0.00000000000E+00 -0.33091785374E+03  0.33091785374E+03  0.00000000000E+00 0. -1.
        -24    2    1    2    0    0 -0.13062623921E+02 -0.10831098420E+03 -0.10839438531E+03  0.17209362851E+03  0.77233236148E+02 0.  0.
         23    2    1    2    0    0 -0.33043008791E+02  0.99847099573E+02  0.20841620789E+02  0.14199661521E+03  0.93098774700E+02 0.  0.
         11    1    3    3    0    0 -0.29640843799E+02 -0.73168093181E+01 -0.17369011324E+02  0.35125459058E+02  0.00000000000E+00 0. -1.
        -12    1    3    3    0    0  0.16578219877E+02 -0.10099417488E+03 -0.91025373986E+02  0.13696816946E+03  0.00000000000E+00 0.  1.
        -11    1    4    4    0    0 -0.18265836984E+02  0.11508459755E+03  0.27546299351E+02  0.11973681139E+03  0.00000000000E+00 0.  1.
         11    1    4    4    0    0 -0.14777171807E+02 -0.15237497980E+02 -0.67046785623E+01  0.22259803816E+02  0.00000000000E+00 0. -1.
          2    1    1    2  501    0  0.46105632712E+02  0.84638846292E+01 -0.12587377397E+03  0.13431892527E+03  0.00000000000E+00 0. -1.
<scales pt_clust_5="13000.00000" pt_clust_6="13000.00000" pt_clust_7="13000.00000" pt_clust_8="13000.00000" pt_clust_9="46.87610"></scales>
<clustering>
<clus scale="   46.876">  1  9  2 -1</clus>
<clus scale="   77.233">  5  6 -1 -1</clus>
<clus scale="   93.099">  7  8 -1 -1</clus>
<clus scale="  131.097">  2  5  1 -1</clus>
<clus scale="   46.876">  1  5  2 -1</clus>
</clustering>
</event>
<event>
 9    1  0.6345107E-005  0.1814666E+03  0.7546771E-02  0.1191647E+00
         21   -1    0    0  501  502  0.00000000000E+00  0.00000000000E+00  0.21448049552E+03  0.21448049552E+03  0.00000000000E+00 0. -1.
          3   -1    0    0  502    0 -0.00000000000E+00 -0.00000000000E+00 -0.44228335564E+03  0.44228335564E+03  0.00000000000E+00 0. -1.
         23    2    1    2    0    0 -0.34853893891E+02  0.34550821357E+02 -0.20920306403E+03  0.23307443188E+03  0.90273006046E+02 0.  0.
        -24    2    1    2    0    0  0.15739354739E+03 -0.72559646836E+02  0.12716708263E+03  0.22950234343E+03  0.80387981868E+02 0.  0.
         13    1    4    4    0    0  0.39234719964E+02 -0.58428554033E+02  0.32906018626E+02  0.77692118254E+02  0.00000000000E+00 0. -1.
        -14    1    4    4    0    0  0.11815882742E+03 -0.14131092803E+02  0.94261064002E+02  0.15181022518E+03  0.00000000000E+00 0.  1.
        -13    1    3    3    0    0  0.19878741101E+02 -0.84013067829E+01 -0.10881157451E+03  0.11093108243E+03  0.00000000000E+00 0. -1.
         13    1    3    3    0    0 -0.54732634992E+02  0.42952128140E+02 -0.10039148952E+03  0.12214334944E+03  0.00000000000E+00 0.  1.
          4    1    1    2  501    0 -0.12253965350E+03  0.38008825479E+02 -0.14576687872E+03  0.19418707585E+03  0.00000000000E+00 0. -1.
<scales pt_clust_5="13000.00000" pt_clust_6="13000.00000" pt_clust_7="13000.00000" pt_clust_8="13000.00000" pt_clust_9="162.68965"></scales>
<clustering>
<clus scale="   80.388">  5  6 -1 -1</clus>
<clus scale="   90.273">  7  8 -1 -1</clus>
<clus scale="  102.751">  2  7  1 -1</clus>
<clus scale="  162.690">  1  9  2 -1</clus>
<clus scale="  162.690">  1  5  2 -1</clus>
</clustering>
</event>
<event>
 9    1  0.6345107E-005  0.1521892E+03  0.7546771E-02  0.1199796E+00
         21   -1    0    0  501  502  0.00000000000E+00  0.00000000000E+00  0.28547805855E+02  0.28547805855E+02  0.00000000000E+00 0. -1.
          1   -1    0    0  502    0 -0.00000000000E+00 -0.00000000000E+00 -0.16342368835E+04  0.16342368835E+04  0.00000000000E+00 0. -1.
         23    2    1    2    0    0 -0.11639508230E+03  0.66660474684E+02 -0.79280607851E+03  0.80935904532E+03  0.92353408453E+02 0.  0.
        -24    2    1    2    0    0  0.11808959884E+03  0.33889477033E+02 -0.34993769013E+03  0.37968360103E+03  0.81299445943E+02 0.  0.
         11    1    4    4    0    0  0.32340827947E+02  0.49045120117E+02 -0.16813004656E+03  0.17809847140E+03  0.00000000000E+00 0. -1.
        -12    1    4    4    0    0  0.85748770894E+02 -0.15155643084E+02 -0.18180764358E+03  0.20158512963E+03  0.00000000000E+00 0.  1.
        -11    1    3    3    0    0 -0.27256450894E+02  0.67152760372E+02 -0.30660162907E+03  0.31505073606E+03  0.00000000000E+00 0.  1.
         11    1    3    3    0    0 -0.89138631407E+02 -0.49228568732E+00 -0.48620444943E+03  0.49430830926E+03  0.00000000000E+00 0. -1.
          2    1    1    2  501    0 -0.16945165406E+01 -0.10054995172E+03 -0.46294530896E+03  0.47374204295E+03  0.00000000000E+00 0. -1.
<scales pt_clust_5="13000.00000" pt_clust_6="13000.00000" pt_clust_7="13000.00000" pt_clust_8="13000.00000" pt_clust_9="100.56428"></scales>
<clustering>
<clus scale="   81.299">  5  6 -1 -1</clus>
<clus scale="   92.353">  7  8 -1 -1</clus>
<clus scale="  100.564">  1  9  2 -1</clus>
<clus scale="  145.746">  1  5  2 -1</clus>
<clus scale="  100.564">  1  5  2 -1</clus>
</clustering>
</event>
<event>
 9    1  0.6345107E-005  0.9539548E+02  0.7546771E-02  0.1297353E+00
          1   -1    0    0  502    0 -0.00000000000E+00  0.00000000000E+00  0.96476995391E+03  0.96476995391E+03  0.00000000000E+00 0. -1.
         21   -1    0    0  501  502  0.00000000000E+00 -0.00000000000E+00 -0.17649863151E+02  0.17649863151E+02  0.00000000000E+00 0.  1.
         23    2    1    2    0    0 -0.35809385530E+02  0.19369888017E+02  0.45010674285E+03  0.46109884686E+03  0.91425171397E+02 0.  0.
        -24    2    1    2    0    0 -0.11789352430E+02 -0.18365071758E+02  0.14921569098E+03  0.17027986196E+03  0.79079986482E+02 0.  0.
         11    1    4    4    0    0  0.30445848377E+02 -0.21005522190E+01  0.94312049964E+02  0.99126811567E+02  0.00000000000E+00 0. -1.
        -12    1    4    4    0    0 -0.42235200807E+02 -0.16264519539E+02  0.54903641019E+02  0.71153050393E+02  0.00000000000E+00 0.  1.
        -13    1    3    3    0    0 -0.66739462655E+02  0.14249365377E+02  0.28652704773E+03  0.29454193142E+03  0.00000000000E+00 0. -1.
         13    1    3    3    0    0  0.30930077125E+02  0.51205226400E+01  0.16357969512E+03  0.16655691544E+03  0.00000000000E+00 0.  1.
          2    1    1    2  501    0  0.47598737960E+02 -0.10048162590E+01  0.34779765693E+03  0.35104110824E+03  0.00000000000E+00 0. -1.
<scales pt_clust_5="13000.00000" pt_clust_6="13000.00000" pt_clust_7="13000.00000" pt_clust_8="13000.00000" pt_clust_9="47.60937"></scales>
<clustering>
<clus scale="   47.609">  2  9  1 -1</clus>
<clus scale="   79.080">  5  6 -1 -1</clus>
<clus scale="   83.638">  2  5  1 -1</clus>
<clus scale="   91.425">  7  8 -1 -1</clus>
<clus scale="   47.609">  2  5  1 -1</clus>
</clustering>
</event>
<event>
 9    1  0.6345107E-005  0.1339572E+03  0.7546771E-02  0.1225188E+00
          1   -1    0    0  502    0 -0.00000000000E+00  0.00000000000E+00  0.47447387580E+03  0.47447387580E+03  0.00000000000E+00 0. -1.
         21   -1    0    0  501  502  0.00000000000E+00 -0.00000000000E+00 -0.61200433193E+02  0.61200433193E+02  0.00000000000E+00 0. -1.
        -24    2    1    2    0    0  0.10239245502E+03 -0.14100760934E+02  0.30342548953E+03  0.33034753720E+03  0.79871279756E+02 0.  0.
         23    2    1    2    0    0 -0.77112856415E+02  0.26651116651E+02  0.12234383225E+03  0.17446066529E+03  0.93871379026E+02 0.  0.
         11    1    3    3    0    0  0.10151903092E+03 -0.21812440142E+02  0.18888584245E+03  0.21554525665E+03  0.00000000000E+00 0. -1.
        -12    1    3    3    0    0  0.87342409587E+00  0.77116792081E+01  0.11453964708E+03  0.11480228055E+03  0.00000000000E+00 0.  1.
        -13    1    4    4    0    0 -0.48108796375E+02  0.48139119305E+02  0.12040943999E+03  0.13831219879E+03  0.00000000000E+00 0. -1.
         13    1    4    4    0    0 -0.29004060040E+02 -0.21488002654E+02  0.19343922645E+01  0.36148466500E+02  0.00000000000E+00 0.  1.
          2    1    1    2  501    0 -0.25279598603E+02 -0.12550355717E+02 -0.12495879181E+02  0.30866106503E+02  0.00000000000E+00 0. -1.
<scales pt_clust_5="13000.00000" pt_clust_6="13000.00000" pt_clust_7="13000.00000" pt_clust_8="13000.00000" pt_clust_9="28.22356"></scales>
<clustering>
<clus scale="   28.224">  2  9  1 -1</clus>
<clus scale="   79.871">  5  6 -1 -1</clus>
<clus scale="   93.871">  7  8 -1 -1</clus>
<clus scale="  124.548">  1  5  2 -1</clus>
<clus scale="   28.224">  2  5  1 -1</clus>
</clustering>
</event>
<event>
 9    1  0.6345107E-005  0.1016027E+03  0.7546771E-02  0.1287106E+00
         -2   -1    0    0    0  501 -0.00000000000E+00  0.00000000000E+00  0.97093074076E+02  0.97093074076E+02  0.00000000000E+00 0.  1.
         21   -1    0    0  501  502  0.00000000000E+00 -0.00000000000E+00 -0.67676253711E+03  0.67676253711E+03  0.00000000000E+00 0. -1.
         23    2    1    2    0    0 -0.26695051429E+02  0.62550822598E+01  0.39470448653E+02  0.10872995824E+03  0.97532228916E+02 0.  0.
        -24    2    1    2    0    0  0.37495372693E+02 -0.43198769319E+02 -0.61901959857E+03  0.62663542785E+03  0.78833110919E+02 0.  0.
         11    1    4    4    0    0  0.60925127347E+02 -0.22289312504E+02 -0.37011204663E+03  0.37575472273E+03  0.00000000000E+00 0. -1.
        -12    1    4    4    0    0 -0.23429754654E+02 -0.20909456815E+02 -0.24890755194E+03  0.25088070512E+03  0.00000000000E+00 0.  1.
        -11    1    3    3    0    0 -0.62500104094E+02 -0.21928596397E+01  0.35012962493E+02  0.71672722759E+02  0.00000000000E+00 0.  1.
         11    1    3    3    0    0  0.35805052665E+02  0.84479418996E+01  0.44574861596E+01  0.37057235481E+02  0.00000000000E+00 0. -1.
         -1    1    1    2    0  502 -0.10800321263E+02  0.36943687060E+02 -0.12031311911E+00  0.38490225099E+02  0.00000000000E+00 0.  1.
<scales pt_clust_5="13000.00000" pt_clust_6="13000.00000" pt_clust_7="13000.00000" pt_clust_8="13000.00000" pt_clust_9="38.49006"></scales>
<clustering>
<clus scale="   38.490">  2  9  1 -1</clus>
<clus scale="   78.833">  5  6 -1 -1</clus>
<clus scale="   83.817">  2  5  1 -1</clus>
<clus scale="   97.532">  7  8 -1 -1</clus>
<clus scale="   38.490">  2  5  1 -1</clus>
</clustering>
</event>
<event>
 9    1  0.6345107E-005  0.1001662E+03  0.7546771E-02  0.1285029E+00
         -2   -1    0    0    0  501 -0.00000000000E+00  0.00000000000E+00  0.18205968196E+03  0.18205968196E+03  0.00000000000E+00 0.  1.
         21   -1    0    0  501  502  0.00000000000E+00 -0.00000000000E+00 -0.16513937299E+03  0.16513937299E+03  0.00000000000E+00 0.  1.
        -24    2    1    2    0    0  0.33304374850E+02 -0.18857670673E+02  0.10361129449E+03  0.13636367252E+03  0.79968479467E+02 0.  0.
         23    2    1    2    0    0 -0.26318050208E+02  0.70415556705E+02 -0.96714011916E+01  0.11788894241E+03  0.90295494616E+02 0.  0.
         11    1    3    3    0    0  0.51703304202E+02 -0.33863199823E+02  0.89428753025E+02  0.10870809462E+03  0.00000000000E+00 0. -1.
        -12    1    3    3    0    0 -0.18398929353E+02  0.15005529151E+02  0.14182541467E+02  0.27655577898E+02  0.00000000000E+00 0.  1.
        -11    1    4    4    0    0  0.28329069368E+02  0.25918282796E+02 -0.24935275323E+02  0.45782764331E+02  0.00000000000E+00 0.  1.
         11    1    4    4    0    0 -0.54647119576E+02  0.44497273909E+02  0.15263874132E+02  0.72106178076E+02  0.00000000000E+00 0. -1.
         -1    1    1    2    0  502 -0.69863246412E+01 -0.51557886032E+02 -0.77019584333E+02  0.92946440034E+02  0.00000000000E+00 0.  1.
<scales pt_clust_5="13000.00000" pt_clust_6="13000.00000" pt_clust_7="13000.00000" pt_clust_8="13000.00000" pt_clust_9="52.02907"></scales>
<clustering>
<clus scale="   52.029">  2  9  1 -1</clus>
<clus scale="   79.968">  5  6 -1 -1</clus>
<clus scale="   90.295">  7  8 -1 -1</clus>
<clus scale="   90.967">  1  5  2 -1</clus>
<clus scale="   52.029">  2  5  1 -1</clus>
</clustering>
</event>
<event>
 9    1  0.6345107E-005  0.1022289E+03  0.7546771E-02  0.1281033E+00
         21   -1    0    0  501  502  0.00000000000E+00  0.00000000000E+00  0.88818181134E+02  0.88818181134E+02  0.00000000000E+00 0. -1.
         -4   -1    0    0    0  501 -0.00000000000E+00 -0.00000000000E+00 -0.23713419965E+03  0.23713419965E+03  0.00000000000E+00 0.  1.
        -24    2    1    2    0    0  0.42133786830E+02  0.16569777815E+02 -0.17580758978E+03  0.19931091727E+03  0.82260072878E+02 0.  0.
         23    2    1    2    0    0 -0.16819605819E+02 -0.22850610708E+02  0.20162291984E+02  0.99549491322E+02  0.93265929764E+02 0.  0.
         13    1    3    3    0    0 -0.21886473645E+02  0.10366356270E+02 -0.22496840844E+02  0.33054302578E+02  0.00000000000E+00 0. -1.
        -14    1    3    3    0    0  0.64020260476E+02  0.62034215450E+01 -0.15331074894E+03  0.16625661469E+03  0.00000000000E+00 0.  1.
        -13    1    4    4    0    0 -0.27172464339E+02 -0.43655254419E+02 -0.18326710832E+02  0.54589306522E+02  0.00000000000E+00 0.  1.
         13    1    4    4    0    0  0.10352858520E+02  0.20804643711E+02  0.38489002816E+02  0.44960184800E+02  0.00000000000E+00 0. -1.
         -3    1    1    2    0  502 -0.25314181012E+02  0.62808328925E+01  0.73292792838E+01  0.27091972186E+02  0.00000000000E+00 0.  1.
<scales pt_clust_5="13000.00000" pt_clust_6="13000.00000" pt_clust_7="13000.00000" pt_clust_8="13000.00000" pt_clust_9="26.08173"></scales>
<clustering>
<clus scale="   26.082">  1  9  2 -1</clus>
<clus scale="   82.260">  5  6 -1 -1</clus>
<clus scale="   92.298">  2  5  1 -1</clus>
<clus scale="   93.266">  7  8 -1 -1</clus>
<clus scale="   26.082">  1  5  2 -1</clus>
</clustering>
</event>
<event>
 9    1  0.6345107E-005  0.5846392E+03  0.7546771E-02  0.1056904E+00
         21   -1    0    0  501  502  0.00000000000E+00  0.00000000000E+00  0.61573314702E+03  0.61573314702E+03  0.00000000000E+00 0. -1.
          1   -1    0    0  502    0 -0.00000000000E+00 -0.00000000000E+00 -0.97256714260E+03  0.97256714260E+03  0.00000000000E+00 0. -1.
        -24    2    1    2    0    0  0.23377148212E+02 -0.27856212166E+02 -0.91056813179E+02  0.12671065329E+03  0.80260742680E+02 0.  0.
         23    2    1    2    0    0  0.48947888213E+03  0.29497989456E+03 -0.56599606289E+03  0.81004704696E+03  0.96031041006E+02 0.  0.
         11    1    3    3    0    0  0.23055233990E+02 -0.34597778940E+02 -0.10406112766E+03  0.11205921833E+03  0.00000000000E+00 0. -1.
        -12    1    3    3    0    0  0.32191422288E+00  0.67415667741E+01  0.13004314481E+02  0.14651434962E+02  0.00000000000E+00 0.  1.
        -11    1    4    4    0    0  0.49732937345E+02  0.63028466698E+02 -0.56507314964E+02  0.98178558330E+02  0.00000000000E+00 0.  1.
         11    1    4    4    0    0  0.43974594479E+03  0.23195142786E+03 -0.50948874792E+03  0.71186848863E+03  0.00000000000E+00 0. -1.
          2    1    1    2  501    0 -0.51285603035E+03 -0.26712368239E+03  0.30021888049E+03  0.65154258937E+03  0.00000000000E+00 0. -1.
<scales pt_clust_5="13000.00000" pt_clust_6="13000.00000" pt_clust_7="13000.00000" pt_clust_8="13000.00000" pt_clust_9="576.69840"></scales>
<clustering>
<clus scale="   80.261">  5  6 -1 -1</clus>
<clus scale="   88.115">  2  5  1 -1</clus>
<clus scale="   96.031">  7  8 -1 -1</clus>
<clus scale="  576.698">  1  9  2 -1</clus>
<clus scale="  576.698">  1  5  2 -1</clus>
</clustering>
</event>
<event>
 9    1  0.6345107E-005  0.1284330E+03  0.7546771E-02  0.1233691E+00
         21   -1    0    0  501  502  0.00000000000E+00  0.00000000000E+00  0.43340350129E+02  0.43340350129E+02  0.00000000000E+00 0. -1.
         -2   -1    0    0    0  501 -0.00000000000E+00 -0.00000000000E+00 -0.53702859887E+03  0.53702859887E+03  0.00000000000E+00 0.  1.
         23    2    1    2    0    0  0.10145349033E+02 -0.82340236612E+02 -0.34272128147E+03  0.36451190303E+03  0.92348297261E+02 0.  0.
        -24    2    1    2    0    0 -0.11448212497E+02  0.10296515450E+03 -0.14459163736E+03  0.19422999063E+03  0.78010659872E+02 0.  0.
         13    1    4    4    0    0  0.19215854853E+02  0.74957046914E+02 -0.53373657559E+02  0.94002953576E+02  0.00000000000E+00 0. -1.
        -14    1    4    4    0    0 -0.30664067350E+02  0.28008107590E+02 -0.91217979804E+02  0.10022703705E+03  0.00000000000E+00 0.  1.
        -13    1    3    3    0    0  0.37909752028E+02 -0.18593014110E+02 -0.60011944539E+02  0.73377673443E+02  0.00000000000E+00 0. -1.
         13    1    3    3    0    0 -0.27764402995E+02 -0.63747222501E+02 -0.28270933693E+03  0.29113422959E+03  0.00000000000E+00 0.  1.
         -1    1    1    2    0  502  0.13028634644E+01 -0.20624917892E+02 -0.63753299109E+01  0.21627055341E+02  0.00000000000E+00 0.  1.
<scales pt_clust_5="13000.00000" pt_clust_6="13000.00000" pt_clust_7="13000.00000" pt_clust_8="13000.00000" pt_clust_9="20.66603"></scales>
<clustering>
<clus scale="   20.666">  1  9  2 -1</clus>
<clus scale="   78.011">  5  6 -1 -1</clus>
<clus scale="   92.348">  7  8 -1 -1</clus>
<clus scale="  118.543">  1  5  2 -1</clus>
<clus scale="   20.666">  1  5  2 -1</clus>
</clustering>
</event>
<event>
 9    1  0.6345107E-005  0.1133350E+03  0.7546771E-02  0.1257792E+00
          3   -1    0    0  502    0 -0.00000000000E+00  0.00000000000E+00  0.39198111376E+02  0.39198111376E+02  0.00000000000E+00 0. -1.
         21   -1    0    0  501  502  0.00000000000E+00 -0.00000000000E+00 -0.44236478586E+03  0.44236478586E+03  0.00000000000E+00 0. -1.
        -24    2    1    2    0    0 -0.47398898697E+02 -0.58035072722E+02 -0.13820828132E+03  0.17728341033E+03  0.81933834821E+02 0.  0.
         23    2    1    2    0    0  0.97186131661E+01  0.62901514089E+02 -0.18504808012E+03  0.21579703497E+03  0.90964369020E+02 0.  0.
         13    1    3    3    0    0 -0.38110791310E+02 -0.43093663262E+02 -0.25015764441E+02  0.62731847559E+02  0.00000000000E+00 0. -1.
        -14    1    3    3    0    0 -0.92881073870E+01 -0.14941409460E+02 -0.11319251688E+03  0.11455156277E+03  0.00000000000E+00 0.  1.
        -11    1    4    4    0    0  0.26316519947E+02  0.23542222531E+02 -0.11600192084E+02  0.37166650646E+02  0.00000000000E+00 0.  1.
         11    1    4    4    0    0 -0.16597906781E+02  0.39359291558E+02 -0.17344788803E+03  0.17863038433E+03  0.00000000000E+00 0. -1.
          4    1    1    2  501    0  0.37680285531E+02 -0.48664413677E+01 -0.79910313048E+02  0.88482451937E+02  0.00000000000E+00 0. -1.
<scales pt_clust_5="13000.00000" pt_clust_6="13000.00000" pt_clust_7="13000.00000" pt_clust_8="13000.00000" pt_clust_9="37.99324"></scales>
<clustering>
<clus scale="   37.993">  2  9  1 -1</clus>
<clus scale="   81.934">  5  6 -1 -1</clus>
<clus scale="   90.964">  7  8 -1 -1</clus>
<clus scale="  106.224">  1  5  2 -1</clus>
<clus scale="   37.993">  2  5  1 -1</clus>
</clustering>
</event>
<event>
 9    1  0.6345107E-005  0.1563559E+03  0.7546771E-02  0.1210101E+00
         21   -1    0    0  501  502  0.00000000000E+00  0.00000000000E+00  0.28300216690E+03  0.28300216690E+03  0.00000000000E+00 0. -1.
          1   -1    0    0  502    0 -0.00000000000E+00 -0.00000000000E+00 -0.16251429053E+03  0.16251429053E+03  0.00000000000E+00 0. -1.
        -24    2    1    2    0    0 -0.53329644583E+02  0.56393017123E+02  0.39767647239E+02  0.11476162573E+03  0.74595855122E+02 0.  0.
         23    2    1    2    0    0 -0.83225694179E+02 -0.77851377679E+02 -0.36423810131E+02  0.14956281279E+03  0.89749584105E+02 0.  0.
         13    1    3    3    0    0 -0.31368613305E+02 -0.13002904808E+01  0.42653765540E+02  0.52962480784E+02  0.00000000000E+00 0. -1.
        -14    1    3    3    0    0 -0.21961031278E+02  0.57693307604E+02 -0.28861183006E+01  0.61799144945E+02  0.00000000000E+00 0.  1.
        -13    1    4    4    0    0 -0.75515111404E+01 -0.61527439829E+02  0.42100199631E+01  0.62131919659E+02  0.00000000000E+00 0.  1.
         13    1    4    4    0    0 -0.75674183038E+02 -0.16323937849E+02 -0.40633830095E+02  0.87430893130E+02  0.00000000000E+00 0. -1.
          2    1    1    2  501    0  0.13655533876E+03  0.21458360555E+02  0.11714403926E+03  0.18119201891E+03  0.00000000000E+00 0. -1.
<scales pt_clust_5="13000.00000" pt_clust_6="13000.00000" pt_clust_7="13000.00000" pt_clust_8="13000.00000" pt_clust_9="128.03190"></scales>
<clustering>
<clus scale="   74.596">  5  6 -1 -1</clus>
<clus scale="   89.750">  7  8 -1 -1</clus>
<clus scale="  107.651">  2  5  1 -1</clus>
<clus scale="  128.032">  1  9  2 -1</clus>
<clus scale="  128.032">  1  5  2 -1</clus>
</clustering>
</event>
<event>
 9    1  0.6345107E-005  0.1431387E+03  0.7546771E-02  0.1212289E+00
         21   -1    0    0  501  502  0.00000000000E+00  0.00000000000E+00  0.38159561849E+03  0.38159561849E+03  0.00000000000E+00 0. -1.
         -4   -1    0    0    0  501 -0.00000000000E+00 -0.00000000000E+00 -0.18176196957E+03  0.18176196957E+03  0.00000000000E+00 0.  1.
        -24    2    1    2    0    0  0.74840453816E+02 -0.79522474560E+02 -0.12861324879E+03  0.18645259103E+03  0.79361725352E+02 0.  0.
         23    2    1    2    0    0 -0.88377922604E+02  0.50718052076E+02  0.19235859421E+03  0.23714454425E+03  0.94088937132E+02 0.  0.
         11    1    3    3    0    0  0.48633266429E+02  0.17906154783E+01 -0.36596056140E+02  0.60890658006E+02  0.00000000000E+00 0. -1.
        -12    1    3    3    0    0  0.26207187387E+02 -0.81313090039E+02 -0.92017192646E+02  0.12556193302E+03  0.00000000000E+00 0.  1.
        -11    1    4    4    0    0 -0.83322608439E+02  0.67546614384E+01  0.77254854479E+02  0.11382704015E+03  0.00000000000E+00 0. -1.
         11    1    4    4    0    0 -0.50553141643E+01  0.43963390638E+02  0.11510373973E+03  0.12331750410E+03  0.00000000000E+00 0.  1.
         -3    1    1    2    0  502  0.13537468788E+02  0.28804422484E+02  0.13608830349E+03  0.13976045278E+03  0.00000000000E+00 0.  1.
<scales pt_clust_5="13000.00000" pt_clust_6="13000.00000" pt_clust_7="13000.00000" pt_clust_8="13000.00000" pt_clust_9="31.82700"></scales>
<clustering>
<clus scale="   31.827">  1  9  2 -1</clus>
<clus scale="   79.362">  5  6 -1 -1</clus>
<clus scale="   94.089">  7  8 -1 -1</clus>
<clus scale="  133.919">  2  5  1 -1</clus>
<clus scale="   31.827">  1  5  2 -1</clus>
</clustering>
</event>
<event>
 9    1  0.6345107E-005  0.9411388E+02  0.7546771E-02  0.1300173E+00
         21   -1    0    0  501  502  0.00000000000E+00  0.00000000000E+00  0.66550060225E+02  0.66550060225E+02  0.00000000000E+00 0.  1.
         -4   -1    0    0    0  501 -0.00000000000E+00 -0.00000000000E+00 -0.31823374348E+03  0.31823374348E+03  0.00000000000E+00 0.  1.
        -24    2    1    2    0    0 -0.69524252219E+01 -0.18479890453E+00 -0.23327147580E+03  0.24736932353E+03  0.82022133794E+02 0.  0.
         23    2    1    2    0    0  0.35713384993E+02 -0.74610890935E+01  0.34952559009E+01  0.10046059864E+03  0.93536096492E+02 0.  0.
         13    1    3    3    0    0 -0.16905870610E+02 -0.37050020272E+02 -0.15528052690E+03  0.16053209803E+03  0.00000000000E+00 0. -1.
        -14    1    3    3    0    0  0.99534453877E+01  0.36865221367E+02 -0.77990948904E+02  0.86837225499E+02  0.00000000000E+00 0.  1.
        -13    1    4    4    0    0 -0.15531204624E+02 -0.16911787664E+02 -0.30549273691E+02  0.38216292364E+02  0.00000000000E+00 0. -1.
         13    1    4    4    0    0  0.51244589616E+02  0.94506985709E+01  0.34044529591E+02  0.62244306274E+02  0.00000000000E+00 0.  1.
         -3    1    1    2    0  502 -0.28760959771E+02  0.76458879981E+01 -0.21907463349E+02  0.36953881537E+02  0.00000000000E+00 0.  1.
<scales pt_clust_5="13000.00000" pt_clust_6="13000.00000" pt_clust_7="13000.00000" pt_clust_8="13000.00000" pt_clust_9="29.75991"></scales>
<clustering>
<clus scale="   29.760">  1  9  2 -1</clus>
<clus scale="   82.022">  5  6 -1 -1</clus>
<clus scale="   82.680">  2  5  1 -1</clus>
<clus scale="   93.536">  7  8 -1 -1</clus>
<clus scale="   29.760">  1  5  2 -1</clus>
</clustering>
</event>
<event>
 9    1  0.6345107E-005  0.1757145E+03  0.7546771E-02  0.1201689E+00
         21   -1    0    0  501  502  0.00000000000E+00  0.00000000000E+00  0.69330060417E+03  0.69330060417E+03  0.00000000000E+00 0.  1.
          1   -1    0    0  502    0 -0.00000000000E+00 -0.00000000000E+00 -0.71000626503E+02  0.71000626503E+02  0.00000000000E+00 0. -1.
         23    2    1    2    0    0  0.62025257327E+01 -0.12365470338E+02  0.56334978442E+02  0.10692867525E+03  0.89826141033E+02 0.  0.
        -24    2    1    2    0    0  0.10987799419E+03 -0.10103745626E+03  0.32272367345E+03  0.36496658176E+03  0.82269649467E+02 0.  0.
         13    1    4    4    0    0  0.22306416598E+02  0.79726992781E+01  0.18193899750E+02  0.29869016444E+02  0.00000000000E+00 0. -1.
        -14    1    4    4    0    0  0.87571577593E+02 -0.10901015554E+03  0.30452977370E+03  0.33509756531E+03  0.00000000000E+00 0.  1.
        -13    1    3    3    0    0  0.45323707030E+00 -0.49181730340E+02  0.15319922142E+02  0.51514542000E+02  0.00000000000E+00 0. -1.
         13    1    3    3    0    0  0.57492886624E+01  0.36816260002E+02  0.41015056301E+02  0.55414133251E+02  0.00000000000E+00 0.  1.
          2    1    1    2  501    0 -0.11608051992E+03  0.11340292660E+03  0.24324132577E+03  0.29240597366E+03  0.00000000000E+00 0. -1.
<scales pt_clust_5="13000.00000" pt_clust_6="13000.00000" pt_clust_7="13000.00000" pt_clust_8="13000.00000" pt_clust_9="155.26532"></scales>
<clustering>
<clus scale="   82.270">  5  6 -1 -1</clus>
<clus scale="   89.826">  7  8 -1 -1</clus>
<clus scale="   90.885">  2  7  1 -1</clus>
<clus scale="  155.265">  1  9  2 -1</clus>
<clus scale="  155.265">  1  5  2 -1</clus>
</clustering>
</event>
<event>
 9    1  0.6345107E-005  0.2845541E+03  0.7546771E-02  0.1128709E+00
         21   -1    0    0  501  502  0.00000000000E+00  0.00000000000E+00  0.16202072706E+03  0.16202072706E+03  0.00000000000E+00 0. -1.
          1   -1    0    0  502    0 -0.00000000000E+00 -0.00000000000E+00 -0.11542156738E+04  0.11542156738E+04  0.00000000000E+00 0. -1.
         23    2    1    2    0    0  0.65606169913E+02 -0.24530765562E+02 -0.63415657894E+03  0.64457325763E+03  0.91728893214E+02 0.  0.
        -24    2    1    2    0    0  0.19574877171E+03 -0.14352292083E+03 -0.14642813458E+03  0.29572785912E+03  0.84245816732E+02 0.  0.
         11    1    4    4    0    0  0.91558613314E+02 -0.11770426465E+03 -0.93902531458E+02  0.17622417258E+03  0.00000000000E+00 0. -1.
        -12    1    4    4    0    0  0.10419015840E+03 -0.25818656179E+02 -0.52525603120E+02  0.11950368654E+03  0.00000000000E+00 0.  1.
        -13    1    3    3    0    0 -0.82800539809E+01  0.25064927829E+02 -0.15106196102E+03  0.15335098946E+03  0.00000000000E+00 0.  1.
         13    1    3    3    0    0  0.73886223894E+02 -0.49595693391E+02 -0.48309461792E+03  0.49122226817E+03  0.00000000000E+00 0. -1.
          2    1    1    2  501    0 -0.26135494162E+03  0.16805368639E+03 -0.21161023317E+03  0.37593528406E+03  0.00000000000E+00 0. -1.
<scales pt_clust_5="13000.00000" pt_clust_6="13000.00000" pt_clust_7="13000.00000" pt_clust_8="13000.00000" pt_clust_9="271.79722"></scales>
<clustering>
<clus scale="   84.246">  5  6 -1 -1</clus>
<clus scale="   91.729">  7  8 -1 -1</clus>
<clus scale="  115.413">  2  7  1 -1</clus>
<clus scale="  271.797">  1  9  2 -1</clus>
<clus scale="  271.797">  1  5  2 -1</clus>
</clustering>
</event>
<event>
 9    1  0.6345107E-005  0.2888126E+03  0.7546771E-02  0.1124588E+00
         21   -1    0    0  501  502  0.00000000000E+00  0.00000000000E+00  0.65794781180E+03  0.65794781180E+03  0.00000000000E+00 0.  1.
         -2   -1    0    0    0  501 -0.00000000000E+00 -0.00000000000E+00 -0.23494122435E+03  0.23494122435E+03  0.00000000000E+00 0.  1.
        -24    2    1    2    0    0 -0.84830810052E+02 -0.33989571165E+02  0.12182749140E+03  0.17256281932E+03  0.81144511009E+02 0.  0.
         23    2    1    2    0    0  0.29474775482E+03 -0.20131649048E+02  0.37979056186E+03  0.48973134972E+03  0.91183341449E+02 0.  0.
         13    1    3    3    0    0 -0.74229915898E+02  0.47743033896E+01  0.10572471011E+03  0.12926944231E+03  0.00000000000E+00 0. -1.
        -14    1    3    3    0    0 -0.10600894154E+02 -0.38763874555E+02  0.16102781294E+02  0.43293377008E+02  0.00000000000E+00 0.  1.
        -13    1    4    4    0    0  0.21444253502E+03 -0.55090150095E+02  0.27988657260E+03  0.35687115179E+03  0.00000000000E+00 0.  1.
         13    1    4    4    0    0  0.80305219802E+02  0.34958501047E+02  0.99903989264E+02  0.13286019793E+03  0.00000000000E+00 0. -1.
         -1    1    1    2    0  502 -0.20991694477E+03  0.54121220213E+02 -0.78611465816E+02  0.23059486711E+03  0.00000000000E+00 0.  1.
<scales pt_clust_5="13000.00000" pt_clust_6="13000.00000" pt_clust_7="13000.00000" pt_clust_8="13000.00000" pt_clust_9="274.04084"></scales>
<clustering>
<clus scale="   81.145">  5  6 -1 -1</clus>
<clus scale="   91.183">  7  8 -1 -1</clus>
<clus scale="  122.213">  2  5  1 -1</clus>
<clus scale="  274.041">  1  9  2 -1</clus>
<clus scale="  274.041">  1  5  2 -1</clus>
</clustering>
</event>
<event>
 9    1  0.6345107E-005  0.1810971E+03  0.7546771E-02  0.1202730E+00
         21   -1    0    0  501  502  0.00000000000E+00  0.00000000000E+00  0.13992687196E+03  0.13992687196E+03  0.00000000000E+00 0. -1.
         -2   -1    0    0    0  501 -0.00000000000E+00 -0.00000000000E+00 -0.36684338959E+03  0.36684338959E+03  0.00000000000E+00 0.  1.
        -24    2    1    2    0    0  0.80858508698E+01  0.12362422267E+02 -0.41196400730E+01  0.81275876209E+02  0.79815951730E+02 0.  0.
         23    2    1    2    0    0 -0.29030478389E+02  0.14394403260E+03 -0.20116825211E+03  0.26631466712E+03  0.94298372578E+02 0.  0.
         11    1    3    3    0    0  0.36343905700E+02  0.30526261750E+02 -0.27010634743E+00  0.47463723994E+02  0.00000000000E+00 0. -1.
        -12    1    3    3    0    0 -0.28258054830E+02 -0.18163839483E+02 -0.38495337255E+01  0.33812152215E+02  0.00000000000E+00 0.  1.
        -11    1    4    4    0    0  0.24888047572E+02  0.72749025345E+02 -0.53253528931E+02  0.93529535144E+02  0.00000000000E+00 0.  1.
         11    1    4    4    0    0 -0.53918525961E+02  0.71195007255E+02 -0.14791472318E+03  0.17278513198E+03  0.00000000000E+00 0. -1.
         -1    1    1    2    0  502  0.20944627519E+02 -0.15630645487E+03 -0.21628625453E+02  0.15917971822E+03  0.00000000000E+00 0.  1.
<scales pt_clust_5="13000.00000" pt_clust_6="13000.00000" pt_clust_7="13000.00000" pt_clust_8="13000.00000" pt_clust_9="154.60910"></scales>
<clustering>
<clus scale="   79.816">  5  6 -1 -1</clus>
<clus scale="   81.171">  2  5  1 -1</clus>
<clus scale="   94.298">  7  8 -1 -1</clus>
<clus scale="  154.609">  1  9  2 -1</clus>
<clus scale="  154.609">  1  5  2 -1</clus>
</clustering>
</event>
<event>
 9    1  0.6345107E-005  0.1186745E+03  0.7546771E-02  0.1247382E+00
         21   -1    0    0  501  502  0.00000000000E+00  0.00000000000E+00  0.24591821273E+03  0.24591821273E+03  0.00000000000E+00 0.  1.
          1   -1    0    0  502    0 -0.00000000000E+00 -0.00000000000E+00 -0.14139313595E+03  0.14139313595E+03  0.00000000000E+00 0. -1.
         23    2    1    2    0    0 -0.11039876276E+03  0.30266020297E+02  0.50025156218E+02  0.15435716327E+03  0.90662554539E+02 0.  0.
        -24    2    1    2    0    0  0.38653319151E+02  0.25246245351E+02  0.93671165615E+02  0.13414423271E+03  0.84195818869E+02 0.  0.
         13    1    4    4    0    0 -0.33697879340E+01  0.43916390450E+02  0.22628711330E+02  0.49518313757E+02  0.00000000000E+00 0. -1.
        -14    1    4    4    0    0  0.42023107085E+02 -0.18670145100E+02  0.71042454285E+02  0.84625918949E+02  0.00000000000E+00 0.  1.
        -13    1    3    3    0    0 -0.78260525618E+02  0.23617319361E+02  0.76676955696E+02  0.11207962874E+03  0.00000000000E+00 0.  1.
         13    1    3    3    0    0 -0.32138237137E+02  0.66487009356E+01 -0.26651799478E+02  0.42277534529E+02  0.00000000000E+00 0. -1.
          2    1    1    2  501    0  0.71745443605E+02 -0.55512265647E+02 -0.39171245049E+02  0.98809952707E+02  0.00000000000E+00 0. -1.
<scales pt_clust_5="13000.00000" pt_clust_6="13000.00000" pt_clust_7="13000.00000" pt_clust_8="13000.00000" pt_clust_9="90.71399"></scales>
<clustering>
<clus scale="   84.196">  5  6 -1 -1</clus>
<clus scale="   90.663">  7  8 -1 -1</clus>
<clus scale="   90.714">  1  9  2 -1</clus>
<clus scale="  113.811">  1  5  2 -1</clus>
<clus scale="   90.714">  1  5  2 -1</clus>
</clustering>
</event>
<event>
 9    1  0.6345107E-005  0.9355148E+02  0.7546771E-02  0.1300982E+00
         21   -1    0    0  501  502  0.00000000000E+00  0.00000000000E+00  0.32569658435E+03  0.32569658435E+03  0.00000000000E+00 0. -1.
          1   -1    0    0  502    0 -0.00000000000E+00 -0.00000000000E+00 -0.10966988012E+03  0.10966988012E+03  0.00000000000E+00 0. -1.
        -24    2    1    2    0    0  0.79512647758E+01  0.17083004289E+02 -0.65346112040E+02  0.10654554012E+03  0.82016986737E+02 0.  0.
         23    2    1    2    0    0  0.37169007183E+02  0.27507776966E+02  0.14299755231E+03  0.17659776452E+03  0.92737573697E+02 0.  0.
         11    1    3    3    0    0 -0.15340613399E+01  0.47747808339E+02 -0.21963911871E+02  0.52579653575E+02  0.00000000000E+00 0. -1.
        -12    1    3    3    0    0  0.94853261156E+01 -0.30664804050E+02 -0.43382200169E+02  0.53965886544E+02  0.00000000000E+00 0.  1.
        -13    1    4    4    0    0 -0.27731142455E+02  0.48372280699E+01  0.16506220847E+02  0.32632351492E+02  0.00000000000E+00 0.  1.
         13    1    4    4    0    0  0.64900149638E+02  0.22670548896E+02  0.12649133147E+03  0.14396541302E+03  0.00000000000E+00 0. -1.
          2    1    1    2  501    0 -0.45120271958E+02 -0.44590781254E+02  0.13837526396E+03  0.15222315983E+03  0.00000000000E+00 0. -1.
<scales pt_clust_5="13000.00000" pt_clust_6="13000.00000" pt_clust_7="13000.00000" pt_clust_8="13000.00000" pt_clust_9="63.43640"></scales>
<clustering>
<clus scale="   63.436">  1  9  2 -1</clus>
<clus scale="   82.017">  5  6 -1 -1</clus>
<clus scale="   82.936">  2  5  1 -1</clus>
<clus scale="   92.738">  7  8 -1 -1</clus>
<clus scale="   63.436">  1  5  2 -1</clus>
</clustering>
</event>
<event>
 9    1  0.6345107E-005  0.1616729E+03  0.7546771E-02  0.1191752E+00
         21   -1    0    0  501  502  0.00000000000E+00  0.00000000000E+00  0.18968537896E+03  0.18968537896E+03  0.00000000000E+00 0.  1.
         -4   -1    0    0    0  501 -0.00000000000E+00 -0.00000000000E+00 -0.41395573664E+03  0.41395573664E+03  0.00000000000E+00 0.  1.
         23    2    1    2    0    0  0.80245533370E+02  0.73368946014E+02  0.69231519677E+02  0.16064820181E+03  0.95877492477E+02 0.  0.
        -24    2    1    2    0    0 -0.11873710283E+03  0.80776887977E+02 -0.20640767200E+03  0.26180809195E+03  0.72910525504E+02 0.  0.
         11    1    4    4    0    0 -0.61960848200E+02 -0.14149354308E+00 -0.86641055074E+02  0.10651684916E+03  0.00000000000E+00 0. -1.
        -12    1    4    4    0    0 -0.56776254632E+02  0.80918381520E+02 -0.11976661692E+03  0.15529124279E+03  0.00000000000E+00 0.  1.
        -11    1    3    3    0    0  0.75427951232E+02  0.71908462676E+01  0.52613436812E+02  0.92245638543E+02  0.00000000000E+00 0.  1.
         11    1    3    3    0    0  0.48175821382E+01  0.66178099746E+02  0.16618082865E+02  0.68402563269E+02  0.00000000000E+00 0. -1.
         -3    1    1    2    0  502  0.38491569461E+02 -0.15414583399E+03 -0.87094205359E+02  0.18118482183E+03  0.00000000000E+00 0.  1.
<scales pt_clust_5="13000.00000" pt_clust_6="13000.00000" pt_clust_7="13000.00000" pt_clust_8="13000.00000" pt_clust_9="144.29893"></scales>
<clustering>
<clus scale="   72.911">  5  6 -1 -1</clus>
<clus scale="   95.877">  7  8 -1 -1</clus>
<clus scale="  144.965">  2  7  1 -1</clus>
<clus scale="  144.299">  1  9  2 -1</clus>
<clus scale="  144.299">  1  5  2 -1</clus>
</clustering>
</event>
<event>
 9    1  0.6345107E-005  0.9181230E+02  0.7546771E-02  0.1310655E+00
          1   -1    0    0  502    0 -0.00000000000E+00  0.00000000000E+00  0.51233905172E+03  0.51233905172E+03  0.00000000000E+00 0. -1.
         21   -1    0    0  501  502  0.00000000000E+00 -0.00000000000E+00 -0.37277030516E+02  0.37277030516E+02  0.00000000000E+00 0. -1.
        -24    2    1    2    0    0  0.13503444515E+02  0.17192988152E+02  0.32127627321E+03  0.32940074048E+03  0.69343076426E+02 0.  0.
         23    2    1    2    0    0 -0.55924092070E+02 -0.35599671425E+01  0.72084534000E+02  0.12715375478E+03  0.88497004887E+02 0.  0.
         11    1    3    3    0    0  0.17387032897E+02  0.38889354534E+02  0.12869256915E+03  0.13555983242E+03  0.00000000000E+00 0. -1.
        -12    1    3    3    0    0 -0.38835883818E+01 -0.21696366382E+02  0.19258370405E+03  0.19384090807E+03  0.00000000000E+00 0.  1.
        -11    1    4    4    0    0  0.37228683660E+01  0.24770352280E+02  0.52674649747E+02  0.58327084848E+02  0.00000000000E+00 0.  1.
         11    1    4    4    0    0 -0.59646960436E+02 -0.28330319422E+02  0.19409884253E+02  0.68826669937E+02  0.00000000000E+00 0. -1.
          2    1    1    2  501    0  0.42420647555E+02 -0.13633021009E+02  0.81701213998E+02  0.93061586971E+02  0.00000000000E+00 0. -1.
<scales pt_clust_5="13000.00000" pt_clust_6="13000.00000" pt_clust_7="13000.00000" pt_clust_8="13000.00000" pt_clust_9="44.55752"></scales>
<clustering>
<clus scale="   44.558">  2  9  1 -1</clus>
<clus scale="   69.343">  5  6 -1 -1</clus>
<clus scale="   73.527">  1  5  2 -1</clus>
<clus scale="   88.497">  7  8 -1 -1</clus>
<clus scale="   44.558">  2  5  1 -1</clus>
</clustering>
</event>
<event>
 9    1  0.1024839E-004  0.1000325E+03  0.7546771E-02  0.1290999E+00
         21   -1    0    0  501  502  0.00000000000E+00  0.00000000000E+00  0.13967533455E+03  0.13967533455E+03  0.00000000000E+00 0. -1.
          1   -1    0    0  502    0 -0.00000000000E+00 -0.00000000000E+00 -0.24277578780E+03  0.24277578780E+03  0.00000000000E+00 0. -1.
        -24    2    1    2    0    0  0.69087705867E+01 -0.41313005212E+01 -0.12353085819E+03  0.14796391908E+03  0.81047206439E+02 0.  0.
         23    2    1    2    0    0 -0.18749122517E+02  0.22846890623E+02  0.10463622720E+03  0.14741776116E+03  0.99547708438E+02 0.  0.
         13    1    3    3    0    0 -0.13236104165E+02 -0.38800679503E+02 -0.55567602617E+02  0.69053932864E+02  0.00000000000E+00 0. -1.
        -14    1    3    3    0    0  0.20144874751E+02  0.34669378982E+02 -0.67963255569E+02  0.78909986221E+02  0.00000000000E+00 0.  1.
        -11    1    4    4    0    0  0.24021403899E+02 -0.38018536581E+01 -0.66843351926E+01  0.25222257502E+02  0.00000000000E+00 0.  1.
         11    1    4    4    0    0 -0.42770526416E+02  0.26648744281E+02  0.11132056240E+03  0.12219550366E+03  0.00000000000E+00 0. -1.
          2    1    1    2  501    0  0.11840351930E+02 -0.18715590101E+02 -0.84205822263E+02  0.87069442112E+02  0.00000000000E+00 0. -1.
<scales pt_clust_5="13000.00000" pt_clust_6="13000.00000" pt_clust_7="13000.00000" pt_clust_8="13000.00000" pt_clust_9="22.14651"></scales>
<clustering>
<clus scale="   22.147">  1  9  2 -1</clus>
<clus scale="   81.047">  5  6 -1 -1</clus>
<clus scale="   81.642">  2  5  1 -1</clus>
<clus scale="   99.548">  7  8 -1 -1</clus>
<clus scale="   22.147">  1  5  2 -1</clus>
</clustering>
</event>
<event>
 9    1  0.6345107E-005  0.1506669E+03  0.7546771E-02  0.1200943E+00
          3   -1    0    0  502    0 -0.00000000000E+00  0.00000000000E+00  0.35144660292E+03  0.35144660292E+03  0.00000000000E+00 0. -1.
         21   -1    0    0  501  502  0.00000000000E+00 -0.00000000000E+00 -0.10470344543E+03  0.10470344543E+03  0.00000000000E+00 0. -1.
         23    2    1    2    0    0 -0.12632872301E+03 -0.33405165339E+02  0.15571522206E+03  0.22250536942E+03  0.90479598305E+02 0.  0.
        -24    2    1    2    0    0  0.95729127274E+02  0.26938516150E+02 -0.77729127244E+01  0.13001186364E+03  0.83384153491E+02 0.  0.
         11    1    4    4    0    0  0.32945546142E+02 -0.14813004067E+02 -0.34563768197E+02  0.49994881459E+02  0.00000000000E+00 0. -1.
        -12    1    4    4    0    0  0.62783581132E+02  0.41751520217E+02  0.26790855472E+02  0.80016982180E+02  0.00000000000E+00 0.  1.
        -13    1    3    3    0    0 -0.16137074643E+02 -0.24016321783E+02 -0.29688995575E+01  0.29086135092E+02  0.00000000000E+00 0.  1.
         13    1    3    3    0    0 -0.11019164836E+03 -0.93888435559E+01  0.15868412162E+03  0.19341923432E+03  0.00000000000E+00 0. -1.
          4    1    1    2  501    0  0.30599595733E+02  0.64666491884E+01  0.98800848155E+02  0.10363281530E+03  0.00000000000E+00 0. -1.
<scales pt_clust_5="13000.00000" pt_clust_6="13000.00000" pt_clust_7="13000.00000" pt_clust_8="13000.00000" pt_clust_9="31.27545"></scales>
<clustering>
<clus scale="   31.275">  2  9  1 -1</clus>
<clus scale="   83.384">  5  6 -1 -1</clus>
<clus scale="   90.480">  7  8 -1 -1</clus>
<clus scale="  146.516">  2  5  1 -1</clus>
<clus scale="   31.275">  2  5  1 -1</clus>
</clustering>
</event>
<event>
 9    1  0.6345107E-005  0.9529672E+02  0.7546771E-02  0.1298618E+00
         -4   -1    0    0    0  501 -0.00000000000E+00  0.00000000000E+00  0.12751598948E+04  0.12751598948E+04  0.00000000000E+00 0.  1.
         21   -1    0    0  501  502  0.00000000000E+00 -0.00000000000E+00 -0.20408039952E+02  0.20408039952E+02  0.00000000000E+00 0. -1.
        -24    2    1    2    0    0  0.27175754431E+02 -0.10044675164E+02  0.11021873118E+04  0.11052801905E+04  0.77382246858E+02 0.  0.
         23    2    1    2    0    0 -0.59516048678E+01  0.80232171566E+01  0.13022538512E+03  0.15940751119E+03  0.91390973735E+02 0.  0.
         11    1    3    3    0    0  0.16388882557E+02 -0.28935211818E+02  0.19379311085E+03  0.19662556234E+03  0.00000000000E+00 0. -1.
        -12    1    3    3    0    0  0.10786871874E+02  0.18890536654E+02  0.90839420092E+03  0.90865462814E+03  0.00000000000E+00 0.  1.
        -13    1    4    4    0    0  0.20766929885E+02  0.42789114900E+02  0.59221088267E+02  0.75955980846E+02  0.00000000000E+00 0. -1.
         13    1    4    4    0    0 -0.26718534753E+02 -0.34765897743E+02  0.71004296857E+02  0.83451530348E+02  0.00000000000E+00 0.  1.
         -3    1    1    2    0  502 -0.21224149563E+02  0.20214580072E+01  0.22339158001E+02  0.30880233117E+02  0.00000000000E+00 0.  1.
<scales pt_clust_5="13000.00000" pt_clust_6="13000.00000" pt_clust_7="13000.00000" pt_clust_8="13000.00000" pt_clust_9="21.32020"></scales>
<clustering>
<clus scale="   21.320">  2  9  1 -1</clus>
<clus scale="   77.382">  5  6 -1 -1</clus>
<clus scale="   81.958">  1  5  2 -1</clus>
<clus scale="   91.391">  7  8 -1 -1</clus>
<clus scale="   21.320">  2  5  1 -1</clus>
</clustering>
</event>
<event>
 9    1  0.6345107E-005  0.1379893E+03  0.7546771E-02  0.1218173E+00
          1   -1    0    0  502    0 -0.00000000000E+00  0.00000000000E+00  0.99782943192E+02  0.99782943192E+02  0.00000000000E+00 0. -1.
         21   -1    0    0  501  502  0.00000000000E+00 -0.00000000000E+00 -0.37897437096E+03  0.37897437096E+03  0.00000000000E+00 0. -1.
         23    2    1    2    0    0  0.11739579419E+03 -0.87491888078E+02 -0.64899895282E+02  0.18465155871E+03  0.91910819565E+02 0.  0.
        -24    2    1    2    0    0 -0.24238068344E+02  0.57215360870E+02 -0.11499792513E+03  0.15462726088E+03  0.82607418232E+02 0.  0.
         13    1    4    4    0    0 -0.27211455147E+02  0.10525253267E+02 -0.10197090523E+03  0.10606276331E+03  0.00000000000E+00 0. -1.
        -14    1    4    4    0    0  0.29733868025E+01  0.46690107603E+02 -0.13027019902E+02  0.48564497574E+02  0.00000000000E+00 0.  1.
        -13    1    3    3    0    0  0.20194391393E+02  0.10774807526E+02 -0.37210074566E+02  0.43686377398E+02  0.00000000000E+00 0.  1.
         13    1    3    3    0    0  0.97201402795E+02 -0.98266695604E+02 -0.27689820716E+02  0.14096518131E+03  0.00000000000E+00 0. -1.
          2    1    1    2  501    0 -0.93157725843E+02  0.30276527209E+02 -0.99293607356E+02  0.13947849456E+03  0.00000000000E+00 0. -1.
<scales pt_clust_5="13000.00000" pt_clust_6="13000.00000" pt_clust_7="13000.00000" pt_clust_8="13000.00000" pt_clust_9="97.95422"></scales>
<clustering>
<clus scale="   82.607">  5  6 -1 -1</clus>
<clus scale="   91.911">  7  8 -1 -1</clus>
<clus scale="   97.954">  2  9  1 -1</clus>
<clus scale="  131.975">  2  5  1 -1</clus>
<clus scale="   97.954">  2  5  1 -1</clus>
</clustering>
</event>
<event>
 9    1  0.6345107E-005  0.1239058E+03  0.7546771E-02  0.1240127E+00
          1   -1    0    0  502    0 -0.00000000000E+00  0.00000000000E+00  0.91155005723E+03  0.91155005723E+03  0.00000000000E+00 0. -1.
         21   -1    0    0  501  502  0.00000000000E+00 -0.00000000000E+00 -0.28856972365E+02  0.28856972365E+02  0.00000000000E+00 0. -1.
        -24    2    1    2    0    0 -0.47484561683E+02  0.74287989120E+02  0.67049585836E+03  0.68103091318E+03  0.80404724401E+02 0.  0.
         23    2    1    2    0    0  0.20688148763E+02 -0.62120571535E+02  0.12992448187E+03  0.17199821128E+03  0.91739025427E+02 0.  0.
         11    1    3    3    0    0 -0.53960905815E+02  0.87931796583E+02  0.55002778556E+03  0.55961982193E+03  0.00000000000E+00 0. -1.
        -12    1    3    3    0    0  0.64763441320E+01 -0.13643807462E+02  0.12046807279E+03  0.12141109125E+03  0.00000000000E+00 0.  1.
        -11    1    4    4    0    0 -0.28463898668E+02 -0.98266015468E+01  0.77435420337E+02  0.83084294232E+02  0.00000000000E+00 0.  1.
         11    1    4    4    0    0  0.49152047430E+02 -0.52293969988E+02  0.52489061534E+02  0.88913917046E+02  0.00000000000E+00 0. -1.
          2    1    1    2  501    0  0.26796412921E+02 -0.12167417585E+02  0.82272744632E+02  0.87377905133E+02  0.00000000000E+00 0. -1.
<scales pt_clust_5="13000.00000" pt_clust_6="13000.00000" pt_clust_7="13000.00000" pt_clust_8="13000.00000" pt_clust_9="29.42949"></scales>
<clustering>
<clus scale="   29.429">  2  9  1 -1</clus>
<clus scale="   80.405">  5  6 -1 -1</clus>
<clus scale="   91.739">  7  8 -1 -1</clus>
<clus scale="  115.765">  1  5  2 -1</clus>
<clus scale="   29.429">  2  5  1 -1</clus>
</clustering>
</event>
<event>
 9    1  0.6345107E-005  0.1039329E+03  0.7546771E-02  0.1277578E+00
          1   -1    0    0  502    0 -0.00000000000E+00  0.00000000000E+00  0.22752612192E+03  0.22752612192E+03  0.00000000000E+00 0. -1.
         21   -1    0    0  501  502  0.00000000000E+00 -0.00000000000E+00 -0.11033875268E+03  0.11033875268E+03  0.00000000000E+00 0.  1.
         23    2    1    2    0    0 -0.49846607587E+02  0.13504846206E+02  0.17444032183E+03  0.20276611523E+03  0.89541088048E+02 0.  0.
        -24    2    1    2    0    0  0.50721176424E+02 -0.36234794584E+02 -0.48849246850E+02  0.11084927083E+03  0.77561033060E+02 0.  0.
         11    1    4    4    0    0 -0.43633439304E+01 -0.34739776005E+02  0.30586977822E+01  0.35146072885E+02  0.00000000000E+00 0. -1.
        -12    1    4    4    0    0  0.55084520354E+02 -0.14950185792E+01 -0.51907944632E+02  0.75703197945E+02  0.00000000000E+00 0.  1.
        -11    1    3    3    0    0  0.31750174545E+01  0.40652964007E+02  0.95758834830E+02  0.10407929029E+03  0.00000000000E+00 0.  1.
         11    1    3    3    0    0 -0.53021625041E+02 -0.27148117801E+02  0.78681486999E+02  0.98686824949E+02  0.00000000000E+00 0. -1.
          2    1    1    2  501    0 -0.87456883713E+00  0.22729948378E+02 -0.84037057472E+01  0.24249488535E+02  0.00000000000E+00 0. -1.
<scales pt_clust_5="13000.00000" pt_clust_6="13000.00000" pt_clust_7="13000.00000" pt_clust_8="13000.00000" pt_clust_9="22.74677"></scales>
<clustering>
<clus scale="   22.747">  2  9  1 -1</clus>
<clus scale="   77.561">  5  6 -1 -1</clus>
<clus scale="   89.541">  7  8 -1 -1</clus>
<clus scale="   93.809">  2  5  1 -1</clus>
<clus scale="   22.747">  2  5  1 -1</clus>
</clustering>
</event>
<event>
 9    1  0.6345107E-005  0.1395525E+03  0.7546771E-02  0.1215577E+00
         21   -1    0    0  501  502  0.00000000000E+00  0.00000000000E+00  0.67858038771E+02  0.67858038771E+02  0.00000000000E+00 0. -1.
          3   -1    0    0  502    0 -0.00000000000E+00 -0.00000000000E+00 -0.67824135984E+03  0.67824135984E+03  0.00000000000E+00 0. -1.
        -24    2    1    2    0    0  0.10892077672E+03 -0.47097231374E+00 -0.24839156224E+03  0.28235105534E+03  0.78484347764E+02 0.  0.
         23    2    1    2    0    0 -0.97997010119E+02  0.97501479511E+02 -0.11892125096E+03  0.20179888288E+03  0.86432474813E+02 0.  0.
         11    1    3    3    0    0  0.12045715684E+03 -0.42063433357E+01 -0.23609072246E+03  0.26507819448E+03  0.00000000000E+00 0. -1.
        -12    1    3    3    0    0 -0.11536380119E+02  0.37353710220E+01 -0.12300839774E+02  0.17272860854E+02  0.00000000000E+00 0.  1.
        -13    1    4    4    0    0 -0.46277464318E+02  0.23285283483E+02  0.71808945913E+00  0.51810460170E+02  0.00000000000E+00 0. -1.
         13    1    4    4    0    0 -0.51719545801E+02  0.74216196028E+02 -0.11963934042E+03  0.14998842271E+03  0.00000000000E+00 0.  1.
          4    1    1    2  501    0 -0.10923766603E+02 -0.97030507197E+02 -0.24307050788E+03  0.26194946040E+03  0.00000000000E+00 0. -1.
<scales pt_clust_5="13000.00000" pt_clust_6="13000.00000" pt_clust_7="13000.00000" pt_clust_8="13000.00000" pt_clust_9="97.64352"></scales>
<clustering>
<clus scale="   78.484">  5  6 -1 -1</clus>
<clus scale="   86.432">  7  8 -1 -1</clus>
<clus scale="   97.644">  1  9  2 -1</clus>
<clus scale="  134.774">  2  5  1 -1</clus>
<clus scale="   97.644">  1  5  2 -1</clus>
</clustering>
</event>
<event>
 9    1  0.6345107E-005  0.1736009E+03  0.7546771E-02  0.1175627E+00
         21   -1    0    0  501  502  0.00000000000E+00  0.00000000000E+00  0.60381607550E+02  0.60381607550E+02  0.00000000000E+00 0.  1.
         -4   -1    0    0    0  501 -0.00000000000E+00 -0.00000000000E+00 -0.64808284241E+03  0.64808284241E+03  0.00000000000E+00 0.  1.
         23    2    1    2    0    0 -0.28221834608E+02 -0.16431197846E+03 -0.34215661807E+03  0.39174180217E+03  0.92712405118E+02 0.  0.
        -24    2    1    2    0    0  0.34112132159E+02  0.11809153325E+03 -0.14957881351E+03  0.21004340632E+03  0.81456511730E+02 0.  0.
         11    1    4    4    0    0  0.35749527446E+02  0.12221895300E+02 -0.62140109368E+02  0.72724113124E+02  0.00000000000E+00 0. -1.
        -12    1    4    4    0    0 -0.16373952871E+01  0.10586963795E+03 -0.87438704139E+02  0.13731929320E+03  0.00000000000E+00 0.  1.
        -11    1    3    3    0    0  0.72179035953E+01 -0.77933472940E+02 -0.73671840779E+02  0.10748611287E+03  0.00000000000E+00 0. -1.
         11    1    3    3    0    0 -0.35439738204E+02 -0.86378505521E+02 -0.26848477729E+03  0.28425568929E+03  0.00000000000E+00 0.  1.
         -3    1    1    2    0  502 -0.58902975506E+01  0.46220445213E+02 -0.95965803285E+02  0.10667924147E+03  0.00000000000E+00 0.  1.
<scales pt_clust_5="13000.00000" pt_clust_6="13000.00000" pt_clust_7="13000.00000" pt_clust_8="13000.00000" pt_clust_9="46.59428"></scales>
<clustering>
<clus scale="   46.594">  1  9  2 -1</clus>
<clus scale="   81.457">  5  6 -1 -1</clus>
<clus scale="   92.712">  7  8 -1 -1</clus>
<clus scale="  167.860">  1  5  2 -1</clus>
<clus scale="   46.594">  1  5  2 -1</clus>
</clustering>
</event>
<event>
 9    1  0.6345107E-005  0.2050942E+03  0.7546771E-02  0.1146061E+00
          1   -1    0    0  502    0 -0.00000000000E+00  0.00000000000E+00  0.10549235465E+04  0.10549235465E+04  0.00000000000E+00 0. -1.
         21   -1    0    0  501  502  0.00000000000E+00 -0.00000000000E+00 -0.46852591173E+02  0.46852591173E+02  0.00000000000E+00 0. -1.
         23    2    1    2    0    0  0.13293246079E+03  0.13671752808E+03  0.61514974323E+03  0.65079773928E+03  0.93625686818E+02 0.  0.
        -24    2    1    2    0    0 -0.10779539082E+03 -0.13199022807E+03  0.31231625405E+03  0.36641257247E+03  0.87609726261E+02 0.  0.
         13    1    4    4    0    0 -0.96555503860E+02 -0.91696334776E+02  0.15850658625E+03  0.20701575066E+03  0.00000000000E+00 0. -1.
        -14    1    4    4    0    0 -0.11239886959E+02 -0.40293893291E+02  0.15380966779E+03  0.15939682181E+03  0.00000000000E+00 0.  1.
        -13    1    3    3    0    0  0.70826975843E+02  0.86809936780E+02  0.48840799150E+03  0.50109359584E+03  0.00000000000E+00 0.  1.
         13    1    3    3    0    0  0.62105484949E+02  0.49907591300E+02  0.12674175174E+03  0.14970414344E+03  0.00000000000E+00 0. -1.
          2    1    1    2  501    0 -0.25137069973E+02 -0.47273000129E+01  0.80604958002E+02  0.84565825880E+02  0.00000000000E+00 0. -1.
<scales pt_clust_5="13000.00000" pt_clust_6="13000.00000" pt_clust_7="13000.00000" pt_clust_8="13000.00000" pt_clust_9="25.57773"></scales>
<clustering>
<clus scale="   25.578">  2  9  1 -1</clus>
<clus scale="   87.610">  5  6 -1 -1</clus>
<clus scale="   93.626">  7  8 -1 -1</clus>
<clus scale="  202.419">  2  5  1 -1</clus>
<clus scale="   25.578">  2  5  1 -1</clus>
</clustering>
</event>
<event>
 9    1  0.6345107E-005  0.3258371E+03  0.7546771E-02  0.1072994E+00
          1   -1    0    0  502    0 -0.00000000000E+00  0.00000000000E+00  0.36299169836E+03  0.36299169836E+03  0.00000000000E+00 0. -1.
         21   -1    0    0  501  502  0.00000000000E+00 -0.00000000000E+00 -0.25152383701E+03  0.25152383701E+03  0.00000000000E+00 0. -1.
        -24    2    1    2    0    0 -0.71633870653E+02 -0.10153911249E+03  0.37249405899E+02  0.14571871920E+03  0.66368848832E+02 0.  0.
         23    2    1    2    0    0 -0.12717494660E+03 -0.83142986703E+02 -0.23421712444E+02  0.18041161205E+03  0.94411598163E+02 0.  0.
         13    1    3    3    0    0 -0.77013243742E+02 -0.61861593842E+02  0.37546668723E+02  0.10567709703E+03  0.00000000000E+00 0. -1.
        -14    1    3    3    0    0  0.53793730896E+01 -0.39677518643E+02 -0.29726282448E+00  0.40041622166E+02  0.00000000000E+00 0.  1.
        -13    1    4    4    0    0 -0.66228646121E+02  0.68096927613E+01 -0.26637602976E+02  0.71708907221E+02  0.00000000000E+00 0.  1.
         13    1    4    4    0    0 -0.60946300476E+02 -0.89952679464E+02  0.32158905324E+01  0.10870270483E+03  0.00000000000E+00 0. -1.
          2    1    1    2  501    0  0.19880881725E+03  0.18468209919E+03  0.97640167897E+02  0.28838520413E+03  0.00000000000E+00 0. -1.
<scales pt_clust_5="13000.00000" pt_clust_6="13000.00000" pt_clust_7="13000.00000" pt_clust_8="13000.00000" pt_clust_9="271.35309"></scales>
<clustering>
<clus scale="   66.369">  5  6 -1 -1</clus>
<clus scale="   94.412">  7  8 -1 -1</clus>
<clus scale="  119.797">  5  7 -1 -1</clus>
<clus scale="  271.353">  2  9  1 -1</clus>
<clus scale="  271.353">  2  5  1 -1</clus>
</clustering>
</event>
<event>
 9    1  0.6345107E-005  0.1102275E+03  0.7546771E-02  0.1265648E+00
          1   -1    0    0  502    0 -0.00000000000E+00  0.00000000000E+00  0.23078911382E+03  0.23078911382E+03  0.00000000000E+00 0. -1.
         21   -1    0    0  501  502  0.00000000000E+00 -0.00000000000E+00 -0.23718925349E+03  0.23718925349E+03  0.00000000000E+00 0. -1.
         23    2    1    2    0    0 -0.27563766931E+02 -0.56959389413E+02  0.19329130789E+03  0.22354133584E+03  0.92763494089E+02 0.  0.
        -24    2    1    2    0    0  0.41528702453E+02  0.12192010928E+02 -0.10235809792E+03  0.13639574975E+03  0.79078075871E+02 0.  0.
         13    1    4    4    0    0 -0.10384385926E+02 -0.21038551915E+02 -0.10335457684E+02  0.25637430122E+02  0.00000000000E+00 0. -1.
        -14    1    4    4    0    0  0.51913088379E+02  0.33230562843E+02 -0.92022640232E+02  0.11075831963E+03  0.00000000000E+00 0.  1.
        -13    1    3    3    0    0 -0.27543974127E+02  0.13308669548E+02  0.20008095787E+02  0.36552908131E+02  0.00000000000E+00 0.  1.
         13    1    3    3    0    0 -0.19792804026E-01 -0.70268058961E+02  0.17328321210E+03  0.18698842771E+03  0.00000000000E+00 0. -1.
          2    1    1    2  501    0 -0.13964935522E+02  0.44767378485E+02 -0.97333349650E+02  0.10804128172E+03  0.00000000000E+00 0. -1.
<scales pt_clust_5="13000.00000" pt_clust_6="13000.00000" pt_clust_7="13000.00000" pt_clust_8="13000.00000" pt_clust_9="46.89496"></scales>
<clustering>
<clus scale="   46.895">  2  9  1 -1</clus>
<clus scale="   79.078">  5  6 -1 -1</clus>
<clus scale="   92.763">  7  8 -1 -1</clus>
<clus scale="   98.987">  2  5  1 -1</clus>
<clus scale="   46.895">  2  5  1 -1</clus>
</clustering>
</event>
<event>
 9    1  0.6345107E-005  0.1761574E+03  0.7546771E-02  0.1172231E+00
          1   -1    0    0  502    0 -0.00000000000E+00  0.00000000000E+00  0.29255367066E+03  0.29255367066E+03  0.00000000000E+00 0. -1.
         21   -1    0    0  501  502  0.00000000000E+00 -0.00000000000E+00 -0.17358500936E+03  0.17358500936E+03  0.00000000000E+00 0.  1.
         23    2    1    2    0    0  0.12156939499E+03  0.96416689941E+02  0.19095034954E+03  0.26212574190E+03  0.90402282491E+02 0.  0.
        -24    2    1    2    0    0 -0.99206262133E+02 -0.94683730527E+02 -0.80016392340E+02  0.18018712587E+03  0.85193227500E+02 0.  0.
         13    1    4    4    0    0 -0.17573509217E+02 -0.21308993069E+02  0.18051665816E+02  0.32996424815E+02  0.00000000000E+00 0. -1.
        -14    1    4    4    0    0 -0.81632752916E+02 -0.73374737458E+02 -0.98068058155E+02  0.14719070105E+03  0.00000000000E+00 0.  1.
        -13    1    3    3    0    0  0.12380084373E+03  0.56827065781E+02  0.16808582039E+03  0.21635343152E+03  0.00000000000E+00 0. -1.
         13    1    3    3    0    0 -0.22314487361E+01  0.39589624160E+02  0.22864529150E+02  0.45772310384E+02  0.00000000000E+00 0.  1.
          2    1    1    2  501    0 -0.22363132858E+02 -0.17329594140E+01  0.80347040974E+01  0.23825812252E+02  0.00000000000E+00 0. -1.
<scales pt_clust_5="13000.00000" pt_clust_6="13000.00000" pt_clust_7="13000.00000" pt_clust_8="13000.00000" pt_clust_9="22.43019"></scales>
<clustering>
<clus scale="   22.430">  2  9  1 -1</clus>
<clus scale="   85.193">  5  6 -1 -1</clus>
<clus scale="   90.402">  7  8 -1 -1</clus>
<clus scale="  173.542">  2  5  1 -1</clus>
<clus scale="   22.430">  2  5  1 -1</clus>
</clustering>
</event>
<event>
 9    1  0.6345107E-005  0.1136531E+03  0.7546771E-02  0.1257494E+00
         21   -1    0    0  501  502  0.00000000000E+00  0.00000000000E+00  0.65905029829E+03  0.65905029829E+03  0.00000000000E+00 0.  1.
         -2   -1    0    0    0  501 -0.00000000000E+00 -0.00000000000E+00 -0.68214492262E+02  0.68214492262E+02  0.00000000000E+00 0.  1.
        -24    2    1    2    0    0  0.59397645529E+02 -0.29055345941E+02  0.11503512566E+02  0.10449604410E+03  0.80092440397E+02 0.  0.
         23    2    1    2    0    0 -0.97998012129E+02 -0.24655139658E+02  0.22701529531E+03  0.26429689016E+03  0.90030081377E+02 0.  0.
         11    1    3    3    0    0  0.31470021838E+02  0.24028399439E+02  0.19232175129E+02  0.44018210030E+02  0.00000000000E+00 0. -1.
        -12    1    3    3    0    0  0.27927623691E+02 -0.53083745380E+02 -0.77286625630E+01  0.60477834068E+02  0.00000000000E+00 0.  1.
        -11    1    4    4    0    0  0.81754452318E+01 -0.25786669609E+02  0.29326318473E+02  0.39897658947E+02  0.00000000000E+00 0. -1.
         11    1    4    4    0    0 -0.10617345736E+03  0.11315299507E+01  0.19768897684E+03  0.22439923122E+03  0.00000000000E+00 0.  1.
         -1    1    1    2    0  502  0.38600366599E+02  0.53710485599E+02  0.35231699815E+03  0.35847185629E+03  0.00000000000E+00 0.  1.
<scales pt_clust_5="13000.00000" pt_clust_6="13000.00000" pt_clust_7="13000.00000" pt_clust_8="13000.00000" pt_clust_9="66.14231"></scales>
<clustering>
<clus scale="   66.142">  1  9  2 -1</clus>
<clus scale="   80.092">  5  6 -1 -1</clus>
<clus scale="   90.030">  7  8 -1 -1</clus>
<clus scale="  105.955">  2  5  1 -1</clus>
<clus scale="   66.142">  1  5  2 -1</clus>
</clustering>
</event>
<event>
 9    1  0.6345107E-005  0.9593849E+02  0.7546771E-02  0.1294503E+00
          1   -1    0    0  502    0 -0.00000000000E+00  0.00000000000E+00  0.56142975288E+03  0.56142975288E+03  0.00000000000E+00 0. -1.
         21   -1    0    0  501  502  0.00000000000E+00 -0.00000000000E+00 -0.27951851936E+02  0.27951851936E+02  0.00000000000E+00 0.  1.
         23    2    1    2    0    0  0.22667093017E+02 -0.30085030951E+02  0.42342190066E+03  0.43443441371E+03  0.89600489174E+02 0.  0.
        -24    2    1    2    0    0  0.36252876534E+00  0.29308495942E+02  0.95245965441E+02  0.12755552052E+03  0.79620961560E+02 0.  0.
         11    1    4    4    0    0 -0.27642527236E+02  0.98456588752E+01  0.87901044127E+02  0.92669519635E+02  0.00000000000E+00 0. -1.
        -12    1    4    4    0    0  0.28005056001E+02  0.19462837067E+02  0.73449213139E+01  0.34886000881E+02  0.00000000000E+00 0.  1.
        -11    1    3    3    0    0  0.19991725885E+02 -0.61233168537E+02  0.31875690672E+03  0.32520014701E+03  0.00000000000E+00 0. -1.
         11    1    3    3    0    0  0.26753671313E+01  0.31148137586E+02  0.10466499394E+03  0.10923426670E+03  0.00000000000E+00 0.  1.
          2    1    1    2  501    0 -0.23029621782E+02  0.77653500860E+00  0.14810034846E+02  0.27391670599E+02  0.00000000000E+00 0. -1.
<scales pt_clust_5="13000.00000" pt_clust_6="13000.00000" pt_clust_7="13000.00000" pt_clust_8="13000.00000" pt_clust_9="23.04271"></scales>
<clustering>
<clus scale="   23.043">  2  9  1 -1</clus>
<clus scale="   79.621">  5  6 -1 -1</clus>
<clus scale="   86.692">  2  5  1 -1</clus>
<clus scale="   89.600">  7  8 -1 -1</clus>
<clus scale="   23.043">  2  5  1 -1</clus>
</clustering>
</event>
<event>
 9    1  0.6345107E-005  0.1048220E+03  0.7546771E-02  0.1276352E+00
         -4   -1    0    0    0  501 -0.00000000000E+00  0.00000000000E+00  0.88475221183E+03  0.88475221183E+03  0.00000000000E+00 0.  1.
         21   -1    0    0  501  502  0.00000000000E+00 -0.00000000000E+00 -0.20427840998E+02  0.20427840998E+02  0.00000000000E+00 0. -1.
        -24    2    1    2    0    0 -0.41951618256E+02  0.19481787739E+02  0.57755804385E+03  0.58489992691E+03  0.79969695223E+02 0.  0.
         23    2    1    2    0    0  0.61240717757E+02 -0.55220601960E+01  0.18642280119E+03  0.21715027320E+03  0.92843210247E+02 0.  0.
         11    1    3    3    0    0 -0.25011421487E+02 -0.29665810223E+01  0.44756989864E+02  0.51357180116E+02  0.00000000000E+00 0. -1.
        -12    1    3    3    0    0 -0.16940196769E+02  0.22448368762E+02  0.53280105399E+03  0.53354274679E+03  0.00000000000E+00 0.  1.
        -13    1    4    4    0    0  0.48518824009E+02 -0.47248721877E+02  0.11182546167E+03  0.13073427967E+03  0.00000000000E+00 0. -1.
         13    1    4    4    0    0  0.12721893747E+02  0.41726661681E+02  0.74597339512E+02  0.86415993531E+02  0.00000000000E+00 0.  1.
         -3    1    1    2    0  502 -0.19289099500E+02 -0.13959727543E+02  0.10034352579E+03  0.10312985272E+03  0.00000000000E+00 0.  1.
<scales pt_clust_5="13000.00000" pt_clust_6="13000.00000" pt_clust_7="13000.00000" pt_clust_8="13000.00000" pt_clust_9="23.81058"></scales>
<clustering>
<clus scale="   23.811">  2  9  1 -1</clus>
<clus scale="   79.970">  5  6 -1 -1</clus>
<clus scale="   92.843">  7  8 -1 -1</clus>
<clus scale="   93.611">  1  5  2 -1</clus>
<clus scale="   23.811">  2  5  1 -1</clus>
</clustering>
</event>
<event>
 9    1  0.6345107E-005  0.1043180E+03  0.7546771E-02  0.1273164E+00
         21   -1    0    0  501  502  0.00000000000E+00  0.00000000000E+00  0.45382040754E+02  0.45382040754E+02  0.00000000000E+00 0. -1.
          1   -1    0    0  502    0 -0.00000000000E+00 -0.00000000000E+00 -0.68700894608E+03  0.68700894608E+03  0.00000000000E+00 0. -1.
         23    2    1    2    0    0 -0.24477121325E+02  0.30290326924E+02 -0.38179550810E+03  0.39468086802E+03  0.92133295835E+02 0.  0.
        -24    2    1    2    0    0  0.12706652470E+02 -0.10327643056E+03 -0.13103517444E+03  0.18920428638E+03  0.88320806826E+02 0.  0.
         11    1    4    4    0    0 -0.21908178995E+02 -0.30836713772E+02 -0.28262999805E+01  0.37932297515E+02  0.00000000000E+00 0. -1.
        -12    1    4    4    0    0  0.34614831465E+02 -0.72439716792E+02 -0.12820887446E+03  0.15127198887E+03  0.00000000000E+00 0.  1.
        -11    1    3    3    0    0 -0.36580595583E+02 -0.21233740213E+02 -0.23165651295E+03  0.23548620276E+03  0.00000000000E+00 0.  1.
         11    1    3    3    0    0  0.12103474257E+02  0.51524067136E+02 -0.15013899515E+03  0.15919466527E+03  0.00000000000E+00 0. -1.
          2    1    1    2  501    0  0.11770468855E+02  0.72986103641E+02 -0.12879622279E+03  0.14850583243E+03  0.00000000000E+00 0. -1.
<scales pt_clust_5="13000.00000" pt_clust_6="13000.00000" pt_clust_7="13000.00000" pt_clust_8="13000.00000" pt_clust_9="73.92912"></scales>
<clustering>
<clus scale="   73.929">  1  9  2 -1</clus>
<clus scale="   88.321">  5  6 -1 -1</clus>
<clus scale="   92.133">  7  8 -1 -1</clus>
<clus scale="  100.967">  1  5  2 -1</clus>
<clus scale="   73.929">  1  5  2 -1</clus>
</clustering>
</event>
<event>
 9    1  0.6345107E-005  0.1626384E+03  0.7546771E-02  0.1187610E+00
         21   -1    0    0  501  502  0.00000000000E+00  0.00000000000E+00  0.48910412891E+03  0.48910412891E+03  0.00000000000E+00 0.  1.
          1   -1    0    0  502    0 -0.00000000000E+00 -0.00000000000E+00 -0.45543819571E+03  0.45543819571E+03  0.00000000000E+00 0. -1.
         23    2    1    2    0    0  0.13171833387E+03 -0.35983551139E+02 -0.40051282407E+03  0.43311042729E+03  0.92355749964E+02 0.  0.
        -24    2    1    2    0    0 -0.88188452281E+02 -0.54749735901E+02  0.36878274932E+03  0.39141515756E+03  0.80189604514E+02 0.  0.
         11    1    4    4    0    0 -0.22296718307E+02  0.20633581609E+02  0.70149165865E+02  0.76444710796E+02  0.00000000000E+00 0. -1.
        -12    1    4    4    0    0 -0.65891733974E+02 -0.75383317510E+02  0.29863358345E+03  0.31497044676E+03  0.00000000000E+00 0.  1.
        -11    1    3    3    0    0  0.85347906677E+02  0.93547523221E+00 -0.12544315815E+03  0.15172714396E+03  0.00000000000E+00 0. -1.
         11    1    3    3    0    0  0.46370427192E+02 -0.36919026371E+02 -0.27506966592E+03  0.28138328333E+03  0.00000000000E+00 0.  1.
          2    1    1    2  501    0 -0.43529881588E+02  0.90733287040E+02  0.65396007961E+02  0.12001673977E+03  0.00000000000E+00 0. -1.
<scales pt_clust_5="13000.00000" pt_clust_6="13000.00000" pt_clust_7="13000.00000" pt_clust_8="13000.00000" pt_clust_9="100.63488"></scales>
<clustering>
<clus scale="   80.190">  5  6 -1 -1</clus>
<clus scale="   92.356">  7  8 -1 -1</clus>
<clus scale="  100.635">  1  9  2 -1</clus>
<clus scale="  156.051">  1  5  2 -1</clus>
<clus scale="  100.635">  1  5  2 -1</clus>
</clustering>
</event>
<event>
 9    1  0.6345107E-005  0.1164822E+03  0.7546771E-02  0.1252119E+00
          1   -1    0    0  502    0 -0.00000000000E+00  0.00000000000E+00  0.30345303958E+03  0.30345303958E+03  0.00000000000E+00 0. -1.
         21   -1    0    0  501  502  0.00000000000E+00 -0.00000000000E+00 -0.12043412982E+03  0.12043412982E+03  0.00000000000E+00 0. -1.
        -24    2    1    2    0    0  0.92985222481E+02 -0.13693695832E+02  0.21124955776E+03  0.24518010991E+03  0.81566793097E+02 0.  0.
         23    2    1    2    0    0 -0.12124966604E+02 -0.90648070528E+01 -0.82818920339E+01  0.92368868068E+02  0.90742671938E+02 0.  0.
         13    1    3    3    0    0  0.66935010887E+02  0.20483108050E+01  0.20283134633E+03  0.21360020204E+03  0.00000000000E+00 0. -1.
        -14    1    3    3    0    0  0.26050211594E+02 -0.15742006637E+02  0.84182114297E+01  0.31579907865E+02  0.00000000000E+00 0.  1.
        -11    1    4    4    0    0 -0.31370043485E+02 -0.40993446635E+02  0.69735208406E+01  0.52088120413E+02  0.00000000000E+00 0. -1.
         11    1    4    4    0    0  0.19245076880E+02  0.31928639582E+02 -0.15255412874E+02  0.40280747655E+02  0.00000000000E+00 0.  1.
          2    1    1    2  501    0 -0.80860255877E+02  0.22758502885E+02 -0.19948755963E+02  0.86338191425E+02  0.00000000000E+00 0. -1.
<scales pt_clust_5="13000.00000" pt_clust_6="13000.00000" pt_clust_7="13000.00000" pt_clust_8="13000.00000" pt_clust_9="84.00197"></scales>
<clustering>
<clus scale="   81.567">  5  6 -1 -1</clus>
<clus scale="   84.002">  2  9  1 -1</clus>
<clus scale="   90.743">  7  8 -1 -1</clus>
<clus scale="  109.485">  1  5  2 -1</clus>
<clus scale="   84.002">  2  5  1 -1</clus>
</clustering>
</event>
<event>
 9    1  0.6345107E-005  0.2039421E+03  0.7546771E-02  0.1147890E+00
         -4   -1    0    0    0  501 -0.00000000000E+00  0.00000000000E+00  0.63435862995E+03  0.63435862995E+03  0.00000000000E+00 0.  1.
         21   -1    0    0  501  502  0.00000000000E+00 -0.00000000000E+00 -0.40055390312E+03  0.40055390312E+03  0.00000000000E+00 0.  1.
         23    2    1    2    0    0 -0.16681501576E+03 -0.61779954616E+02  0.51048770233E+03  0.54899051043E+03  0.95649746650E+02 0.  0.
        -24    2    1    2    0    0  0.16165079630E+03  0.11672253930E+03 -0.11598194416E+02  0.21515404458E+03  0.80010084754E+02 0.  0.
         11    1    4    4    0    0  0.14339092941E+03  0.97659506300E+02 -0.38235832118E+02  0.17765223518E+03  0.00000000000E+00 0. -1.
        -12    1    4    4    0    0  0.18259866889E+02  0.19063033002E+02  0.26637637702E+02  0.37501809402E+02  0.00000000000E+00 0.  1.
        -11    1    3    3    0    0 -0.40548045982E+02 -0.60036671456E+02  0.14106053759E+03  0.15857686218E+03  0.00000000000E+00 0.  1.
         11    1    3    3    0    0 -0.12626696978E+03 -0.17432831598E+01  0.36942716474E+03  0.39041364825E+03  0.00000000000E+00 0. -1.
         -3    1    1    2    0  502  0.51642194659E+01 -0.54942584686E+02 -0.26508478109E+03  0.27076797805E+03  0.00000000000E+00 0.  1.
<scales pt_clust_5="13000.00000" pt_clust_6="13000.00000" pt_clust_7="13000.00000" pt_clust_8="13000.00000" pt_clust_9="55.18475"></scales>
<clustering>
<clus scale="   55.185">  2  9  1 -1</clus>
<clus scale="   80.010">  5  6 -1 -1</clus>
<clus scale="   95.650">  7  8 -1 -1</clus>
<clus scale="  197.092">  2  5  1 -1</clus>
<clus scale="   55.185">  2  5  1 -1</clus>
</clustering>
</event>
<event>
 9    1  0.6345107E-005  0.1077592E+03  0.7546771E-02  0.1268545E+00
         21   -1    0    0  501  502  0.00000000000E+00  0.00000000000E+00  0.33413442013E+02  0.33413442013E+02  0.00000000000E+00 0. -1.
         -2   -1    0    0    0  501 -0.00000000000E+00 -0.00000000000E+00 -0.80770234252E+03  0.80770234252E+03  0.00000000000E+00 0.  1.
         23    2    1    2    0    0 -0.46293035075E+01  0.52709886085E+02 -0.33192444702E+03  0.34780354387E+03  0.89407516794E+02 0.  0.
        -24    2    1    2    0    0 -0.47295214723E+02 -0.78910956896E+02 -0.14118361481E+03  0.18656715220E+03  0.80066926613E+02 0.  0.
         13    1    4    4    0    0 -0.51836070693E+02 -0.80357441988E+02 -0.14921573681E+03  0.17722762995E+03  0.00000000000E+00 0. -1.
        -14    1    4    4    0    0  0.45408559705E+01  0.14464850921E+01  0.80321219990E+01  0.93395222508E+01  0.00000000000E+00 0.  1.
        -13    1    3    3    0    0 -0.98575797057E+00  0.77711331478E+02 -0.22921116914E+03  0.24202847522E+03  0.00000000000E+00 0.  1.
         13    1    3    3    0    0 -0.36435455370E+01 -0.25001445393E+02 -0.10271327788E+03  0.10577506865E+03  0.00000000000E+00 0. -1.
         -1    1    1    2    0  502  0.51924518230E+02  0.26201070811E+02 -0.30118083868E+03  0.30674508846E+03  0.00000000000E+00 0.  1.
<scales pt_clust_5="13000.00000" pt_clust_6="13000.00000" pt_clust_7="13000.00000" pt_clust_8="13000.00000" pt_clust_9="58.16060"></scales>
<clustering>
<clus scale="   58.161">  1  9  2 -1</clus>
<clus scale="   80.067">  5  6 -1 -1</clus>
<clus scale="   89.408">  7  8 -1 -1</clus>
<clus scale="  100.145">  1  5  2 -1</clus>
<clus scale="   58.161">  1  5  2 -1</clus>
</clustering>
</event>
<event>
 9    1  0.6345107E-005  0.1778682E+03  0.7546771E-02  0.1170287E+00
          1   -1    0    0  502    0 -0.00000000000E+00  0.00000000000E+00  0.34954761146E+03  0.34954761146E+03  0.00000000000E+00 0. -1.
         21   -1    0    0  501  502  0.00000000000E+00 -0.00000000000E+00 -0.14321024298E+03  0.14321024298E+03  0.00000000000E+00 0. -1.
        -24    2    1    2    0    0 -0.41999076249E+02 -0.16479843804E+03  0.19575146644E+03  0.27393927976E+03  0.88326919988E+02 0.  0.
         23    2    1    2    0    0  0.59984833301E+02  0.11105723269E+03  0.30244243011E+02  0.15883478539E+03  0.91552638718E+02 0.  0.
         11    1    3    3    0    0 -0.37513934956E+02 -0.15329185429E+03  0.20485644560E+03  0.25859592265E+03  0.00000000000E+00 0. -1.
        -12    1    3    3    0    0 -0.44851412928E+01 -0.11506583749E+02 -0.91049791556E+01  0.15343357110E+02  0.00000000000E+00 0.  1.
        -13    1    4    4    0    0  0.47207689096E+02  0.24761206504E+02 -0.21416792862E+02  0.57448779568E+02  0.00000000000E+00 0. -1.
         13    1    4    4    0    0  0.12777144205E+02  0.86296026188E+02  0.51661035873E+02  0.10138600583E+03  0.00000000000E+00 0.  1.
          2    1    1    2  501    0 -0.17985757052E+02  0.53741205346E+02 -0.19658340970E+02  0.59983789297E+02  0.00000000000E+00 0. -1.
<scales pt_clust_5="13000.00000" pt_clust_6="13000.00000" pt_clust_7="13000.00000" pt_clust_8="13000.00000" pt_clust_9="56.67102"></scales>
<clustering>
<clus scale="   56.671">  2  9  1 -1</clus>
<clus scale="   88.327">  5  6 -1 -1</clus>
<clus scale="   91.553">  7  8 -1 -1</clus>
<clus scale="  176.230">  1  5  2 -1</clus>
<clus scale="   56.671">  2  5  1 -1</clus>
</clustering>
</event>
<event>
 9    1  0.6345107E-005  0.1589198E+03  0.7546771E-02  0.1201210E+00
         21   -1    0    0  501  502  0.00000000000E+00  0.00000000000E+00  0.19923736592E+03  0.19923736592E+03  0.00000000000E+00 0. -1.
          1   -1    0    0  502    0 -0.00000000000E+00 -0.00000000000E+00 -0.50416771714E+03  0.50416771714E+03  0.00000000000E+00 0. -1.
         23    2    1    2    0    0  0.41042087368E+01 -0.59124357389E+02 -0.36066404994E+03  0.38142863650E+03  0.10907205719E+03 0.  0.
        -24    2    1    2    0    0  0.11427142954E+03  0.99115410869E+02  0.90164326989E+02  0.19237110616E+03  0.77428756550E+02 0.  0.
         11    1    4    4    0    0  0.96540037869E+02  0.10473805823E+03  0.55196609922E+02  0.15276356078E+03  0.00000000000E+00 0. -1.
        -12    1    4    4    0    0  0.17731391675E+02 -0.56226473654E+01  0.34967717067E+02  0.39607545380E+02  0.00000000000E+00 0.  1.
        -13    1    3    3    0    0  0.21572179616E+02  0.23806451957E+02 -0.16654656629E+03  0.16961681766E+03  0.00000000000E+00 0.  1.
         13    1    3    3    0    0 -0.17467970880E+02 -0.82930809346E+02 -0.19411748365E+03  0.21181181885E+03  0.00000000000E+00 0. -1.
          2    1    1    2  501    0 -0.11837563828E+03 -0.39991053480E+02 -0.34430628271E+02  0.12960534040E+03  0.00000000000E+00 0. -1.
<scales pt_clust_5="13000.00000" pt_clust_6="13000.00000" pt_clust_7="13000.00000" pt_clust_8="13000.00000" pt_clust_9="138.78154"></scales>
<clustering>
<clus scale="   77.429">  5  6 -1 -1</clus>
<clus scale="  109.072">  7  8 -1 -1</clus>
<clus scale="  124.134">  2  7  1 -1</clus>
<clus scale="  138.782">  1  9  2 -1</clus>
<clus scale="  138.782">  1  5  2 -1</clus>
</clustering>
</event>
<event>
 9    1  0.6345107E-005  0.1016855E+03  0.7546771E-02  0.1279024E+00
         21   -1    0    0  501  502  0.00000000000E+00  0.00000000000E+00  0.16496715686E+03  0.16496715686E+03  0.00000000000E+00 0.  1.
          1   -1    0    0  502    0 -0.00000000000E+00 -0.00000000000E+00 -0.21170472873E+03  0.21170472873E+03  0.00000000000E+00 0. -1.
         23    2    1    2    0    0 -0.27602381404E+02 -0.19599481969E+01 -0.60872374227E+01  0.95805566484E+02  0.91520048371E+02 0.  0.
        -24    2    1    2    0    0  0.78360189333E+02  0.42902145008E+02  0.76946557982E+02  0.14639830188E+03  0.86780047769E+02 0.  0.
         11    1    4    4    0    0  0.47800146043E+02 -0.14494429917E+02  0.62404555363E+01  0.50337716929E+02  0.00000000000E+00 0. -1.
        -12    1    4    4    0    0  0.30560043291E+02  0.57396574925E+02  0.70706102446E+02  0.96060584956E+02  0.00000000000E+00 0.  1.
        -13    1    3    3    0    0 -0.23144062163E+02 -0.38748389658E+02  0.21121613372E+02  0.49831795732E+02  0.00000000000E+00 0.  1.
         13    1    3    3    0    0 -0.44583192410E+01  0.36788441461E+02 -0.27208850794E+02  0.45973770752E+02  0.00000000000E+00 0. -1.
          2    1    1    2  501    0 -0.50757807930E+02 -0.40942196811E+02 -0.11759689243E+03  0.13446801722E+03  0.00000000000E+00 0. -1.
<scales pt_clust_5="13000.00000" pt_clust_6="13000.00000" pt_clust_7="13000.00000" pt_clust_8="13000.00000" pt_clust_9="65.21214"></scales>
<clustering>
<clus scale="   65.212">  1  9  2 -1</clus>
<clus scale="   86.780">  5  6 -1 -1</clus>
<clus scale="   91.520">  7  8 -1 -1</clus>
<clus scale="   97.441">  1  5  2 -1</clus>
<clus scale="   65.212">  1  5  2 -1</clus>
</clustering>
</event>
<event>
 9    1  0.6345107E-005  0.9929267E+02  0.7546771E-02  0.1286534E+00
         21   -1    0    0  501  502  0.00000000000E+00  0.00000000000E+00  0.65973097911E+02  0.65973097911E+02  0.00000000000E+00 0.  1.
          1   -1    0    0  502    0 -0.00000000000E+00 -0.00000000000E+00 -0.35084362997E+03  0.35084362997E+03  0.00000000000E+00 0. -1.
         23    2    1    2    0    0 -0.30744296330E+02  0.23716427234E+02 -0.27746373342E+03  0.29459240600E+03  0.91054278481E+02 0.  0.
        -24    2    1    2    0    0  0.47208336392E+02 -0.73944069693E+01 -0.18657850064E+02  0.96454977329E+02  0.81683186784E+02 0.  0.
         11    1    4    4    0    0 -0.21901087129E+02 -0.12682976538E+02 -0.57085056361E+01  0.25944219932E+02  0.00000000000E+00 0. -1.
        -12    1    4    4    0    0  0.69109423521E+02  0.52885695690E+01 -0.12949344428E+02  0.70510757397E+02  0.00000000000E+00 0.  1.
        -13    1    3    3    0    0 -0.20330147247E+02 -0.34371954742E+02 -0.11605213046E+03  0.12273077504E+03  0.00000000000E+00 0. -1.
         13    1    3    3    0    0 -0.10414149084E+02  0.58088381976E+02 -0.16141160297E+03  0.17186163095E+03  0.00000000000E+00 0.  1.
          2    1    1    2  501    0 -0.16464040062E+02 -0.16322020264E+02  0.11251051425E+02  0.25769344556E+02  0.00000000000E+00 0. -1.
<scales pt_clust_5="13000.00000" pt_clust_6="13000.00000" pt_clust_7="13000.00000" pt_clust_8="13000.00000" pt_clust_9="23.18346"></scales>
<clustering>
<clus scale="   23.183">  1  9  2 -1</clus>
<clus scale="   81.683">  5  6 -1 -1</clus>
<clus scale="   90.776">  1  5  2 -1</clus>
<clus scale="   91.054">  7  8 -1 -1</clus>
<clus scale="   23.183">  1  5  2 -1</clus>
</clustering>
</event>
<event>
 9    1  0.6345107E-005  0.1146373E+03  0.7546771E-02  0.1254784E+00
          1   -1    0    0  502    0 -0.00000000000E+00  0.00000000000E+00  0.42444955045E+03  0.42444955045E+03  0.00000000000E+00 0. -1.
         21   -1    0    0  501  502  0.00000000000E+00 -0.00000000000E+00 -0.54995573499E+02  0.54995573499E+02  0.00000000000E+00 0. -1.
        -24    2    1    2    0    0 -0.50385156971E+02 -0.72282444112E+02  0.27734297731E+03  0.30214726147E+03  0.81304518833E+02 0.  0.
         23    2    1    2    0    0  0.33338779514E+02  0.29780482447E+02  0.85313704867E+02  0.13100316573E+03  0.88797803127E+02 0.  0.
         13    1    3    3    0    0 -0.56364017236E+02 -0.59747558778E+02  0.27626584668E+03  0.28821778443E+03  0.00000000000E+00 0. -1.
        -14    1    3    3    0    0  0.59788602651E+01 -0.12534885334E+02  0.10771306324E+01  0.13929477047E+02  0.00000000000E+00 0.  1.
        -11    1    4    4    0    0 -0.18978503916E+02 -0.88059070849E+01 -0.32175196893E+01  0.21167901252E+02  0.00000000000E+00 0. -1.
         11    1    4    4    0    0  0.52317283430E+02  0.38586389532E+02  0.88531224556E+02  0.10983526448E+03  0.00000000000E+00 0.  1.
          2    1    1    2  501    0  0.17046377458E+02  0.42501961665E+02  0.67972947703E+01  0.46294696737E+02  0.00000000000E+00 0. -1.
<scales pt_clust_5="13000.00000" pt_clust_6="13000.00000" pt_clust_7="13000.00000" pt_clust_8="13000.00000" pt_clust_9="45.79297"></scales>
<clustering>
<clus scale="   45.793">  2  9  1 -1</clus>
<clus scale="   81.305">  5  6 -1 -1</clus>
<clus scale="   88.798">  7  8 -1 -1</clus>
<clus scale="  108.936">  1  5  2 -1</clus>
<clus scale="   45.793">  2  5  1 -1</clus>
</clustering>
</event>
<event>
 9    1  0.6345107E-005  0.1107542E+03  0.7546771E-02  0.1263648E+00
         21   -1    0    0  501  502  0.00000000000E+00  0.00000000000E+00  0.51334262997E+03  0.51334262997E+03  0.00000000000E+00 0. -1.
         -2   -1    0    0    0  501 -0.00000000000E+00 -0.00000000000E+00 -0.69161769246E+02  0.69161769246E+02  0.00000000000E+00 0.  1.
         23    2    1    2    0    0  0.23646648966E+02 -0.58389398796E+02  0.49830770643E+02  0.12152721295E+03  0.91199078320E+02 0.  0.
        -24    2    1    2    0    0  0.11866520024E+02  0.69769012688E+02  0.40767979478E+03  0.42137463823E+03  0.79657022559E+02 0.  0.
         11    1    4    4    0    0  0.21003706984E+02  0.81677927653E+02  0.26963899788E+03  0.28252013866E+03  0.00000000000E+00 0. -1.
        -12    1    4    4    0    0 -0.91371869605E+01 -0.11908914965E+02  0.13804079690E+03  0.13885449956E+03  0.00000000000E+00 0.  1.
        -13    1    3    3    0    0  0.56282748457E+02 -0.30570607485E+02  0.13806306474E+02  0.65520408380E+02  0.00000000000E+00 0.  1.
         13    1    3    3    0    0 -0.32636099490E+02 -0.27818791311E+02  0.36024464169E+02  0.56006804574E+02  0.00000000000E+00 0. -1.
         -1    1    1    2    0  502 -0.35513168990E+02 -0.11379613892E+02 -0.13329704691E+02  0.39602548039E+02  0.00000000000E+00 0.  1.
<scales pt_clust_5="13000.00000" pt_clust_6="13000.00000" pt_clust_7="13000.00000" pt_clust_8="13000.00000" pt_clust_9="37.29185"></scales>
<clustering>
<clus scale="   37.292">  1  9  2 -1</clus>
<clus scale="   79.657">  5  6 -1 -1</clus>
<clus scale="   91.199">  7  8 -1 -1</clus>
<clus scale="  101.462">  1  5  2 -1</clus>
<clus scale="   37.292">  1  5  2 -1</clus>
</clustering>
</event>
<event>
 9    1  0.1522434E-004  0.1506753E+03  0.7546771E-02  0.1202199E+00
          3   -1    0    0  502    0 -0.00000000000E+00  0.00000000000E+00  0.44362920712E+03  0.44362920712E+03  0.00000000000E+00 0. -1.
         21   -1    0    0  501  502  0.00000000000E+00 -0.00000000000E+00 -0.52728695987E+03  0.52728695987E+03  0.00000000000E+00 0. -1.
         23    2    1    2    0    0  0.11785478146E+03 -0.40135218176E+01  0.41325511607E+03  0.43967405084E+03  0.92884994235E+02 0.  0.
        -24    2    1    2    0    0 -0.14185898490E+03  0.97455985043E+01 -0.41725575836E+03  0.44784958811E+03  0.79043895414E+02 0.  0.
         13    1    4    4    0    0 -0.99896063416E+02 -0.74268599885E+01 -0.17724021158E+03  0.20358898383E+03  0.00000000000E+00 0. -1.
        -14    1    4    4    0    0 -0.41962921487E+02  0.17172458493E+02 -0.24001554678E+03  0.24426060429E+03  0.00000000000E+00 0.  1.
        -11    1    3    3    0    0  0.12306215242E+03  0.17477095028E+02  0.30827086299E+03  0.33238632219E+03  0.00000000000E+00 0. -1.
         11    1    3    3    0    0 -0.52073709613E+01 -0.21490616845E+02  0.10498425307E+03  0.10728772865E+03  0.00000000000E+00 0.  1.
          4    1    1    2  501    0  0.24004203447E+02 -0.57320766868E+01 -0.79657110461E+02  0.83392528042E+02  0.00000000000E+00 0. -1.
<scales pt_clust_5="13000.00000" pt_clust_6="13000.00000" pt_clust_7="13000.00000" pt_clust_8="13000.00000" pt_clust_9="24.67911"></scales>
<clustering>
<clus scale="   24.679">  2  9  1 -1</clus>
<clus scale="   79.044">  5  6 -1 -1</clus>
<clus scale="   92.885">  7  8 -1 -1</clus>
<clus scale="  142.560">  2  5  1 -1</clus>
<clus scale="   24.679">  2  5  1 -1</clus>
</clustering>
</event>
<event>
 9    1  0.6345107E-005  0.1045564E+03  0.7546771E-02  0.1276057E+00
         21   -1    0    0  501  502  0.00000000000E+00  0.00000000000E+00  0.16329918178E+03  0.16329918178E+03  0.00000000000E+00 0.  1.
          1   -1    0    0  502    0 -0.00000000000E+00 -0.00000000000E+00 -0.11588682962E+03  0.11588682962E+03  0.00000000000E+00 0. -1.
        -24    2    1    2    0    0 -0.12707667327E+02 -0.55011320261E+02  0.36338583680E+02  0.10635217885E+03  0.82477652230E+02 0.  0.
         23    2    1    2    0    0 -0.30285529040E+01  0.35904750652E+02  0.60876435082E+02  0.11721912918E+03  0.93466895982E+02 0.  0.
         11    1    3    3    0    0 -0.25826953076E+02 -0.17226932087E+02 -0.20242491608E+02  0.37061532089E+02  0.00000000000E+00 0. -1.
        -12    1    3    3    0    0  0.13119285749E+02 -0.37784388175E+02  0.56581075288E+02  0.69290646764E+02  0.00000000000E+00 0.  1.
        -11    1    4    4    0    0 -0.30413559007E+02  0.55699737043E+02  0.52607716268E+02  0.82431893640E+02  0.00000000000E+00 0.  1.
         11    1    4    4    0    0  0.27385006103E+02 -0.19794986390E+02  0.82687188144E+01  0.34787235537E+02  0.00000000000E+00 0. -1.
          2    1    1    2  501    0  0.15736220231E+02  0.19106569609E+02 -0.49802666609E+02  0.55614703369E+02  0.00000000000E+00 0. -1.
<scales pt_clust_5="13000.00000" pt_clust_6="13000.00000" pt_clust_7="13000.00000" pt_clust_8="13000.00000" pt_clust_9="24.75258"></scales>
<clustering>
<clus scale="   24.753">  1  9  2 -1</clus>
<clus scale="   82.478">  5  6 -1 -1</clus>
<clus scale="   93.467">  7  8 -1 -1</clus>
<clus scale="   94.861">  2  5  1 -1</clus>
<clus scale="   24.753">  1  5  2 -1</clus>
</clustering>
</event>
<event>
 9    1  0.6345107E-005  0.1439468E+03  0.7546771E-02  0.1210652E+00
         21   -1    0    0  501  502  0.00000000000E+00  0.00000000000E+00  0.60771276420E+02  0.60771276420E+02  0.00000000000E+00 0. -1.
          1   -1    0    0  502    0 -0.00000000000E+00 -0.00000000000E+00 -0.49561003544E+03  0.49561003544E+03  0.00000000000E+00 0. -1.
         23    2    1    2    0    0 -0.12578685059E+03 -0.40179892866E+01 -0.27817703924E+03  0.31990059412E+03  0.95474860243E+02 0.  0.
        -24    2    1    2    0    0  0.77726370934E+02  0.18839394869E+02 -0.67014767278E+02  0.13368937637E+03  0.83579655314E+02 0.  0.
         11    1    4    4    0    0  0.95630516365E+02  0.19910766368E+02 -0.55001024259E+02  0.11210150288E+03  0.00000000000E+00 0. -1.
        -12    1    4    4    0    0 -0.17904145431E+02 -0.10713714990E+01 -0.12013743019E+02  0.21587873490E+02  0.00000000000E+00 0.  1.
        -13    1    3    3    0    0 -0.29086681970E+02  0.40509026444E+02 -0.68324336777E+02  0.84588600222E+02  0.00000000000E+00 0.  1.
         13    1    3    3    0    0 -0.96700168622E+02 -0.44527015731E+02 -0.20985270246E+03  0.23531199390E+03  0.00000000000E+00 0. -1.
          2    1    1    2  501    0  0.48060479658E+02 -0.14821405583E+02 -0.89646952504E+02  0.10279134138E+03  0.00000000000E+00 0. -1.
<scales pt_clust_5="13000.00000" pt_clust_6="13000.00000" pt_clust_7="13000.00000" pt_clust_8="13000.00000" pt_clust_9="50.29400"></scales>
<clustering>
<clus scale="   50.294">  1  9  2 -1</clus>
<clus scale="   83.580">  5  6 -1 -1</clus>
<clus scale="   95.475">  7  8 -1 -1</clus>
<clus scale="  136.348">  1  5  2 -1</clus>
<clus scale="   50.294">  1  5  2 -1</clus>
</clustering>
</event>
<event>
 9    1  0.6345107E-005  0.9993307E+02  0.7546771E-02  0.1281068E+00
         21   -1    0    0  501  502  0.00000000000E+00  0.00000000000E+00  0.43087641976E+02  0.43087641976E+02  0.00000000000E+00 0.  1.
          3   -1    0    0  502    0 -0.00000000000E+00 -0.00000000000E+00 -0.63515066902E+03  0.63515066902E+03  0.00000000000E+00 0. -1.
        -24    2    1    2    0    0  0.84339425450E+01  0.52005167390E+02 -0.40199390438E+03  0.41388198263E+03  0.83207737422E+02 0.  0.
         23    2    1    2    0    0  0.47424571116E+02 -0.59097940244E+02 -0.74612840199E+02  0.13590153423E+03  0.84619705725E+02 0.  0.
         13    1    3    3    0    0  0.30057850725E+02  0.66068358374E+02 -0.30480806621E+03  0.31333122984E+03  0.00000000000E+00 0. -1.
        -14    1    3    3    0    0 -0.21623908180E+02 -0.14063190984E+02 -0.97185838170E+02  0.10055075279E+03  0.00000000000E+00 0.  1.
        -13    1    4    4    0    0  0.12388558796E+02 -0.48699186828E+02 -0.84257152119E+02  0.98103796410E+02  0.00000000000E+00 0. -1.
         13    1    4    4    0    0  0.35036012320E+02 -0.10398753415E+02  0.96443119204E+01  0.37797737820E+02  0.00000000000E+00 0.  1.
          4    1    1    2  501    0 -0.55858513661E+02  0.70927728534E+01 -0.11545628247E+03  0.12845479414E+03  0.00000000000E+00 0. -1.
<scales pt_clust_5="13000.00000" pt_clust_6="13000.00000" pt_clust_7="13000.00000" pt_clust_8="13000.00000" pt_clust_9="56.30705"></scales>
<clustering>
<clus scale="   56.307">  1  9  2 -1</clus>
<clus scale="   83.208">  5  6 -1 -1</clus>
<clus scale="   84.620">  7  8 -1 -1</clus>
<clus scale="   98.740">  2  5  1 -1</clus>
<clus scale="   56.307">  1  5  2 -1</clus>
</clustering>
</event>
<event>
 9    1  0.6345107E-005  0.9811756E+02  0.7546771E-02  0.1290499E+00
         21   -1    0    0  501  502  0.00000000000E+00  0.00000000000E+00  0.14595713053E+03  0.14595713053E+03  0.00000000000E+00 0. -1.
          1   -1    0    0  502    0 -0.00000000000E+00 -0.00000000000E+00 -0.42667572830E+03  0.42667572830E+03  0.00000000000E+00 0. -1.
        -24    2    1    2    0    0  0.26441638001E+02  0.33558377068E+02 -0.34102639364E+03  0.35280594291E+03  0.79672500253E+02 0.  0.
         23    2    1    2    0    0 -0.45501015098E+01 -0.59148072669E+00 -0.48854453562E+02  0.10371295325E+03  0.91370486294E+02 0.  0.
         11    1    3    3    0    0  0.92783596473E+01  0.50177471934E+02 -0.30710660656E+03  0.31131709629E+03  0.00000000000E+00 0. -1.
        -12    1    3    3    0    0  0.17163278354E+02 -0.16619094866E+02 -0.33919787086E+02  0.41488846621E+02  0.00000000000E+00 0.  1.
        -11    1    4    4    0    0  0.39807533637E+02 -0.51162116929E+01 -0.37821912313E+01  0.40312781185E+02  0.00000000000E+00 0. -1.
         11    1    4    4    0    0 -0.44357635147E+02  0.45247309662E+01 -0.45072262331E+02  0.63400172064E+02  0.00000000000E+00 0.  1.
          2    1    1    2  501    0 -0.21891536491E+02 -0.32966896341E+02  0.10916224944E+03  0.11611396267E+03  0.00000000000E+00 0. -1.
<scales pt_clust_5="13000.00000" pt_clust_6="13000.00000" pt_clust_7="13000.00000" pt_clust_8="13000.00000" pt_clust_9="39.57342"></scales>
<clustering>
<clus scale="   39.573">  1  9  2 -1</clus>
<clus scale="   79.673">  5  6 -1 -1</clus>
<clus scale="   87.328">  2  5  1 -1</clus>
<clus scale="   91.370">  7  8 -1 -1</clus>
<clus scale="   39.573">  1  5  2 -1</clus>
</clustering>
</event>
<event>
 9    1  0.6345107E-005  0.2473229E+03  0.7546771E-02  0.1155064E+00
          1   -1    0    0  502    0 -0.00000000000E+00  0.00000000000E+00  0.11538220361E+03  0.11538220361E+03  0.00000000000E+00 0. -1.
         21   -1    0    0  501  502  0.00000000000E+00 -0.00000000000E+00 -0.15845958330E+04  0.15845958330E+04  0.00000000000E+00 0. -1.
         23    2    1    2    0    0  0.25590850881E+02 -0.21002803004E+01  0.48165697250E+02  0.10497664496E+03  0.89670835666E+02 0.  0.
        -24    2    1    2    0    0  0.19320779436E+03  0.93740303207E+02 -0.52827683640E+03  0.57785121731E+03  0.93376213380E+02 0.  0.
         11    1    4    4    0    0  0.15955375457E+03  0.77960867683E+02 -0.31719393554E+03  0.36352068749E+03  0.00000000000E+00 0. -1.
        -12    1    4    4    0    0  0.33654039787E+02  0.15779435525E+02 -0.21108290086E+03  0.21433052982E+03  0.00000000000E+00 0.  1.
        -11    1    3    3    0    0  0.39610815865E+02 -0.26618695319E+02  0.57963011985E+02  0.75081838232E+02  0.00000000000E+00 0. -1.
         11    1    3    3    0    0 -0.14019964983E+02  0.24518415019E+02 -0.97973147354E+01  0.29894806726E+02  0.00000000000E+00 0.  1.
          2    1    1    2  501    0 -0.21879864524E+03 -0.91640022907E+02 -0.98910249019E+03  0.10171501743E+04  0.00000000000E+00 0. -1.
<scales pt_clust_5="13000.00000" pt_clust_6="13000.00000" pt_clust_7="13000.00000" pt_clust_8="13000.00000" pt_clust_9="229.01854"></scales>
<clustering>
<clus scale="   89.671">  7  8 -1 -1</clus>
<clus scale="   93.275">  1  7  2 -1</clus>
<clus scale="   93.376">  5  6 -1 -1</clus>
<clus scale="  229.019">  2  9  1 -1</clus>
<clus scale="  229.019">  2  5  1 -1</clus>
</clustering>
</event>
<event>
 9    1  0.6345107E-005  0.1017970E+03  0.7546771E-02  0.1281153E+00
         21   -1    0    0  501  502  0.00000000000E+00  0.00000000000E+00  0.62097335851E+02  0.62097335851E+02  0.00000000000E+00 0. -1.
          3   -1    0    0  502    0 -0.00000000000E+00 -0.00000000000E+00 -0.27583896492E+03  0.27583896492E+03  0.00000000000E+00 0. -1.
        -24    2    1    2    0    0  0.35094377327E+01 -0.44537408035E+02 -0.17143519051E+03  0.19532156240E+03  0.82247135670E+02 0.  0.
         23    2    1    2    0    0  0.26607418991E+02  0.41484404718E+02 -0.22993708653E+02  0.10670753262E+03  0.91808911880E+02 0.  0.
         13    1    3    3    0    0 -0.43425282375E+01 -0.55460911281E+02 -0.17305019941E+03  0.18177222491E+03  0.00000000000E+00 0. -1.
        -14    1    3    3    0    0  0.78519659702E+01  0.10923503246E+02  0.16150089007E+01  0.13549337494E+02  0.00000000000E+00 0.  1.
        -11    1    4    4    0    0 -0.29299598007E+02  0.31302871023E+02 -0.25391588566E+02  0.49830401841E+02  0.00000000000E+00 0.  1.
         11    1    4    4    0    0  0.55907016998E+02  0.10181533695E+02  0.23978799133E+01  0.56877130782E+02  0.00000000000E+00 0. -1.
          4    1    1    2  501    0 -0.30116856724E+02  0.30530033167E+01 -0.19312729905E+02  0.35907205747E+02  0.00000000000E+00 0. -1.
<scales pt_clust_5="13000.00000" pt_clust_6="13000.00000" pt_clust_7="13000.00000" pt_clust_8="13000.00000" pt_clust_9="30.27121"></scales>
<clustering>
<clus scale="   30.271">  1  9  2 -1</clus>
<clus scale="   82.247">  5  6 -1 -1</clus>
<clus scale="   91.809">  7  8 -1 -1</clus>
<clus scale="   93.265">  2  5  1 -1</clus>
<clus scale="   30.271">  1  5  2 -1</clus>
</clustering>
</event>
<event>
 9    1  0.6345107E-005  0.3798527E+03  0.7546771E-02  0.1108415E+00
          3   -1    0    0  502    0 -0.00000000000E+00  0.00000000000E+00  0.72225911574E+03  0.72225911574E+03  0.00000000000E+00 0. -1.
         21   -1    0    0  501  502  0.00000000000E+00 -0.00000000000E+00 -0.51766931318E+03  0.51766931318E+03  0.00000000000E+00 0. -1.
        -24    2    1    2    0    0 -0.58451066435E+01 -0.32866847510E+01  0.44227375880E+03  0.44957745761E+03  0.80429130903E+02 0.  0.
         23    2    1    2    0    0  0.10301211556E+03 -0.35309580958E+03 -0.73252613529E+02  0.38601500165E+03  0.91397425617E+02 0.  0.
         13    1    3    3    0    0 -0.67059250903E+01  0.25889569895E+02  0.54515611988E+02  0.60722246426E+02  0.00000000000E+00 0. -1.
        -14    1    3    3    0    0  0.86081844682E+00 -0.29176254646E+02  0.38775814682E+03  0.38885521119E+03  0.00000000000E+00 0.  1.
        -13    1    4    4    0    0  0.92786949393E+02 -0.28570431902E+03 -0.94011771616E+02  0.31476116197E+03  0.00000000000E+00 0. -1.
         13    1    4    4    0    0  0.10225166166E+02 -0.67391490568E+02  0.20759158088E+02  0.71253839676E+02  0.00000000000E+00 0.  1.
          4    1    1    2  501    0 -0.97167008915E+02  0.35638249433E+03 -0.16443134272E+03  0.40433596965E+03  0.00000000000E+00 0. -1.
<scales pt_clust_5="13000.00000" pt_clust_6="13000.00000" pt_clust_7="13000.00000" pt_clust_8="13000.00000" pt_clust_9="368.69304"></scales>
<clustering>
<clus scale="   80.429">  5  6 -1 -1</clus>
<clus scale="   80.708">  1  5  2 -1</clus>
<clus scale="   91.397">  7  8 -1 -1</clus>
<clus scale="  368.693">  2  9  1 -1</clus>
<clus scale="  368.693">  2  5  1 -1</clus>
</clustering>
</event>
<event>
 9    1  0.6345107E-005  0.1292427E+03  0.7546771E-02  0.1231490E+00
          1   -1    0    0  502    0 -0.00000000000E+00  0.00000000000E+00  0.29370217881E+03  0.29370217881E+03  0.00000000000E+00 0. -1.
         21   -1    0    0  501  502  0.00000000000E+00 -0.00000000000E+00 -0.37951265188E+03  0.37951265188E+03  0.00000000000E+00 0. -1.
         23    2    1    2    0    0 -0.75022583449E+01  0.92261043346E+02  0.13948162372E+03  0.19082767017E+03  0.91606180736E+02 0.  0.
        -24    2    1    2    0    0  0.77620415318E+02 -0.71014574426E+02  0.89005170010E+02  0.15966322230E+03  0.80637619088E+02 0.  0.
         11    1    4    4    0    0  0.85414937356E+02 -0.29638248127E+02  0.62506436292E+02  0.10991447518E+03  0.00000000000E+00 0. -1.
        -12    1    4    4    0    0 -0.77945220382E+01 -0.41376326299E+02  0.26498733718E+02  0.49748747124E+02  0.00000000000E+00 0.  1.
        -13    1    3    3    0    0 -0.62654806174E+01  0.30531692900E+02 -0.69309942139E+01  0.31929284356E+02  0.00000000000E+00 0.  1.
         13    1    3    3    0    0 -0.12367777275E+01  0.61729350446E+02  0.14641261793E+03  0.15889838582E+03  0.00000000000E+00 0. -1.
          2    1    1    2  501    0 -0.70118156973E+02 -0.21246468920E+02 -0.31429726680E+03  0.32272393821E+03  0.00000000000E+00 0. -1.
<scales pt_clust_5="13000.00000" pt_clust_6="13000.00000" pt_clust_7="13000.00000" pt_clust_8="13000.00000" pt_clust_9="73.26642"></scales>
<clustering>
<clus scale="   73.266">  2  9  1 -1</clus>
<clus scale="   80.638">  5  6 -1 -1</clus>
<clus scale="   91.606">  7  8 -1 -1</clus>
<clus scale="  121.714">  2  5  1 -1</clus>
<clus scale="   73.266">  2  5  1 -1</clus>
</clustering>
</event>
<event>
 9    1  0.6345107E-005  0.1112813E+03  0.7546771E-02  0.1263630E+00
          1   -1    0    0  502    0 -0.00000000000E+00  0.00000000000E+00  0.11180380505E+03  0.11180380505E+03  0.00000000000E+00 0. -1.
         21   -1    0    0  501  502  0.00000000000E+00 -0.00000000000E+00 -0.21227440323E+03  0.21227440323E+03  0.00000000000E+00 0. -1.
         23    2    1    2    0    0 -0.26050434162E+02  0.50298672021E+02  0.24050121630E+02  0.11194827803E+03  0.93516988173E+02 0.  0.
        -24    2    1    2    0    0  0.48954888499E+02 -0.57294363144E+02 -0.14412613480E+03  0.18117955028E+03  0.79840225137E+02 0.  0.
         13    1    4    4    0    0 -0.75318277361E+01 -0.52555620631E+02 -0.68390856258E+02  0.86580199287E+02  0.00000000000E+00 0. -1.
        -14    1    4    4    0    0  0.56486716235E+02 -0.47387425128E+01 -0.75735278544E+02  0.94599350990E+02  0.00000000000E+00 0.  1.
        -11    1    3    3    0    0  0.28586039191E+01 -0.24074154912E+02 -0.86133197459E+01  0.25727919234E+02  0.00000000000E+00 0.  1.
         11    1    3    3    0    0 -0.28909038081E+02  0.74372826933E+02  0.32663441376E+02  0.86220358798E+02  0.00000000000E+00 0. -1.
          2    1    1    2  501    0 -0.22904454337E+02  0.69956911231E+01  0.19605414993E+02  0.30950379963E+02  0.00000000000E+00 0. -1.
<scales pt_clust_5="13000.00000" pt_clust_6="13000.00000" pt_clust_7="13000.00000" pt_clust_8="13000.00000" pt_clust_9="23.94899"></scales>
<clustering>
<clus scale="   23.949">  2  9  1 -1</clus>
<clus scale="   79.840">  5  6 -1 -1</clus>
<clus scale="   93.517">  7  8 -1 -1</clus>
<clus scale="  100.063">  2  5  1 -1</clus>
<clus scale="   23.949">  2  5  1 -1</clus>
</clustering>
</event>
<event>
 9    1  0.6345107E-005  0.9959496E+02  0.7546771E-02  0.1283954E+00
         21   -1    0    0  501  502  0.00000000000E+00  0.00000000000E+00  0.17567712978E+03  0.17567712978E+03  0.00000000000E+00 0.  1.
         -4   -1    0    0    0  501 -0.00000000000E+00 -0.00000000000E+00 -0.94626863688E+02  0.94626863688E+02  0.00000000000E+00 0.  1.
         23    2    1    2    0    0  0.53337732012E+02  0.18206077251E+01  0.25753520264E+02  0.10492295137E+03  0.86587260319E+02 0.  0.
        -24    2    1    2    0    0 -0.29585144052E+02 -0.51115363792E+02  0.25734140875E+02  0.10318694252E+03  0.80605446072E+02 0.  0.
         13    1    4    4    0    0  0.75749030759E+01  0.18609442239E+02 -0.18916719143E-02  0.20092050683E+02  0.00000000000E+00 0. -1.
        -14    1    4    4    0    0 -0.37160047127E+02 -0.69724806031E+02  0.25736032546E+02  0.83094891840E+02  0.00000000000E+00 0.  1.
        -13    1    3    3    0    0  0.45385835892E+02 -0.32235701744E+02 -0.80931977065E+01  0.56254016885E+02  0.00000000000E+00 0.  1.
         13    1    3    3    0    0  0.79518961196E+01  0.34056309469E+02  0.33846717971E+02  0.48668934485E+02  0.00000000000E+00 0. -1.
         -3    1    1    2    0  502 -0.23752587960E+02  0.49294756067E+02  0.29562604955E+02  0.62194099578E+02  0.00000000000E+00 0.  1.
<scales pt_clust_5="13000.00000" pt_clust_6="13000.00000" pt_clust_7="13000.00000" pt_clust_8="13000.00000" pt_clust_9="54.71890"></scales>
<clustering>
<clus scale="   54.719">  1  9  2 -1</clus>
<clus scale="   80.605">  5  6 -1 -1</clus>
<clus scale="   86.587">  7  8 -1 -1</clus>
<clus scale="   94.441">  1  5  2 -1</clus>
<clus scale="   54.719">  1  5  2 -1</clus>
</clustering>
</event>
<event>
 9    1  0.6345107E-005  0.1187309E+03  0.7546771E-02  0.1248605E+00
          1   -1    0    0  502    0 -0.00000000000E+00  0.00000000000E+00  0.11180887828E+04  0.11180887828E+04  0.00000000000E+00 0. -1.
         21   -1    0    0  501  502  0.00000000000E+00 -0.00000000000E+00 -0.23147301026E+02  0.23147301026E+02  0.00000000000E+00 0. -1.
         23    2    1    2    0    0  0.78707706760E+02 -0.30783758875E+01  0.57886222295E+03  0.59126780702E+03  0.91168892465E+02 0.  0.
        -24    2    1    2    0    0 -0.60185244048E+02  0.62493368629E+02  0.24931348764E+03  0.27603908949E+03  0.80701171530E+02 0.  0.
         11    1    4    4    0    0 -0.62318325400E+02  0.75780740084E+02  0.17599465496E+03  0.20149544120E+03  0.00000000000E+00 0. -1.
        -12    1    4    4    0    0  0.21330813516E+01 -0.13287371455E+02  0.73318832676E+02  0.74543648295E+02  0.00000000000E+00 0.  1.
        -13    1    3    3    0    0  0.88603370205E+02 -0.28453586155E+02  0.43353943218E+03  0.44341470773E+03  0.00000000000E+00 0. -1.
         13    1    3    3    0    0 -0.98956634449E+01  0.25375210268E+02  0.14532279077E+03  0.14785309929E+03  0.00000000000E+00 0.  1.
          2    1    1    2  501    0 -0.18522462712E+02 -0.59414992741E+02  0.26676577117E+03  0.27392918731E+03  0.00000000000E+00 0. -1.
<scales pt_clust_5="13000.00000" pt_clust_6="13000.00000" pt_clust_7="13000.00000" pt_clust_8="13000.00000" pt_clust_9="62.23525"></scales>
<clustering>
<clus scale="   62.235">  2  9  1 -1</clus>
<clus scale="   80.701">  5  6 -1 -1</clus>
<clus scale="   91.169">  7  8 -1 -1</clus>
<clus scale="  110.896">  2  5  1 -1</clus>
<clus scale="   62.235">  2  5  1 -1</clus>
</clustering>
</event>
<event>
 9    1  0.8418243E-005  0.9229589E+02  0.7546771E-02  0.1302632E+00
          1   -1    0    0  502    0 -0.00000000000E+00  0.00000000000E+00  0.29541106270E+03  0.29541106270E+03  0.00000000000E+00 0. -1.
         21   -1    0    0  501  502  0.00000000000E+00 -0.00000000000E+00 -0.13525383679E+03  0.13525383679E+03  0.00000000000E+00 0.  1.
         23    2    1    2    0    0 -0.49841271842E+01 -0.21402550115E+01  0.25232441617E+03  0.26862538250E+03  0.91992189397E+02 0.  0.
        -24    2    1    2    0    0  0.29730638828E+01  0.37408594107E+02 -0.41993593981E+02  0.10067755905E+03  0.83452183543E+02 0.  0.
         11    1    4    4    0    0 -0.38469190475E+01  0.20124708329E+02  0.24325572686E+02  0.31804656231E+02  0.00000000000E+00 0. -1.
        -12    1    4    4    0    0  0.68199829302E+01  0.17283885779E+02 -0.66319166667E+02  0.68872902815E+02  0.00000000000E+00 0.  1.
        -13    1    3    3    0    0 -0.73180614910E+01 -0.44955467983E+02  0.91877226079E+02  0.10254741731E+03  0.00000000000E+00 0. -1.
         13    1    3    3    0    0  0.23339343067E+01  0.42815212972E+02  0.16044719009E+03  0.16607796519E+03  0.00000000000E+00 0.  1.
          2    1    1    2  501    0  0.20110633015E+01 -0.35268339096E+02 -0.50173596287E+02  0.61361957943E+02  0.00000000000E+00 0. -1.
<scales pt_clust_5="13000.00000" pt_clust_6="13000.00000" pt_clust_7="13000.00000" pt_clust_8="13000.00000" pt_clust_9="35.32563"></scales>
<clustering>
<clus scale="   35.326">  2  9  1 -1</clus>
<clus scale="   83.452">  5  6 -1 -1</clus>
<clus scale="   83.787">  2  5  1 -1</clus>
<clus scale="   91.992">  7  8 -1 -1</clus>
<clus scale="   35.326">  2  5  1 -1</clus>
</clustering>
</event>
<event>
 9    1  0.6345107E-005  0.1195158E+03  0.7546771E-02  0.1247018E+00
         -2   -1    0    0    0  501 -0.00000000000E+00  0.00000000000E+00  0.17972410712E+03  0.17972410712E+03  0.00000000000E+00 0.  1.
         21   -1    0    0  501  502  0.00000000000E+00 -0.00000000000E+00 -0.17635783814E+03  0.17635783814E+03  0.00000000000E+00 0.  1.
        -24    2    1    2    0    0 -0.34150066626E+02 -0.72958699490E+02  0.53946573525E+02  0.12585091309E+03  0.80243508459E+02 0.  0.
         23    2    1    2    0    0 -0.49103662994E+02  0.88808420147E+02 -0.95377728513E+01  0.13606688534E+03  0.90139463983E+02 0.  0.
         13    1    3    3    0    0 -0.34994952807E+02 -0.24710339881E+02 -0.11669759346E+02  0.44400798441E+02  0.00000000000E+00 0. -1.
        -14    1    3    3    0    0  0.84488618114E+00 -0.48248359610E+02  0.65616332871E+02  0.81450114654E+02  0.00000000000E+00 0.  1.
        -11    1    4    4    0    0 -0.75309211575E+01  0.44506270653E+02  0.37937239080E+02  0.58964031494E+02  0.00000000000E+00 0. -1.
         11    1    4    4    0    0 -0.41572741836E+02  0.44302149493E+02 -0.47475011932E+02  0.77102853847E+02  0.00000000000E+00 0.  1.
         -1    1    1    2    0  502  0.83253729619E+02 -0.15849720656E+02 -0.41042531695E+02  0.94164146831E+02  0.00000000000E+00 0.  1.
<scales pt_clust_5="13000.00000" pt_clust_6="13000.00000" pt_clust_7="13000.00000" pt_clust_8="13000.00000" pt_clust_9="84.74902"></scales>
<clustering>
<clus scale="   80.244">  5  6 -1 -1</clus>
<clus scale="   84.749">  2  9  1 -1</clus>
<clus scale="   90.139">  7  8 -1 -1</clus>
<clus scale="  112.240">  1  5  2 -1</clus>
<clus scale="   84.749">  2  5  1 -1</clus>
</clustering>
</event>
<event>
 9    1  0.6345107E-005  0.1086165E+03  0.7546771E-02  0.1269357E+00
          1   -1    0    0  502    0 -0.00000000000E+00  0.00000000000E+00  0.13635735050E+04  0.13635735050E+04  0.00000000000E+00 0. -1.
         21   -1    0    0  501  502  0.00000000000E+00 -0.00000000000E+00 -0.16579720618E+02  0.16579720618E+02  0.00000000000E+00 0. -1.
         23    2    1    2    0    0 -0.30481412998E+02 -0.42672422898E+02  0.49071804901E+03  0.50214108033E+03  0.92689852285E+02 0.  0.
        -24    2    1    2    0    0  0.80829285424E+02  0.30601193262E-02  0.35254162360E+03  0.36997313287E+03  0.77853383241E+02 0.  0.
         11    1    4    4    0    0  0.75727474056E+02  0.28563397097E+02  0.22329786709E+03  0.23751306370E+03  0.00000000000E+00 0. -1.
        -12    1    4    4    0    0  0.51018113681E+01 -0.28560336978E+02  0.12924375651E+03  0.13246006917E+03  0.00000000000E+00 0.  1.
        -13    1    3    3    0    0  0.32578417781E+01 -0.64509860114E+02  0.34435182038E+03  0.35035740578E+03  0.00000000000E+00 0.  1.
         13    1    3    3    0    0 -0.33739254776E+02  0.21837437216E+02  0.14636622863E+03  0.15178367455E+03  0.00000000000E+00 0. -1.
          2    1    1    2  501    0 -0.50347872426E+02  0.42669362779E+02  0.50373411182E+03  0.50803901247E+03  0.00000000000E+00 0. -1.
<scales pt_clust_5="13000.00000" pt_clust_6="13000.00000" pt_clust_7="13000.00000" pt_clust_8="13000.00000" pt_clust_9="65.99687"></scales>
<clustering>
<clus scale="   65.997">  2  9  1 -1</clus>
<clus scale="   77.853">  5  6 -1 -1</clus>
<clus scale="   92.690">  7  8 -1 -1</clus>
<clus scale="   96.267">  2  5  1 -1</clus>
<clus scale="   65.997">  2  5  1 -1</clus>
</clustering>
</event>
<event>
 9    1  0.6345107E-005  0.9087757E+02  0.7546771E-02  0.1309913E+00
         21   -1    0    0  501  502  0.00000000000E+00  0.00000000000E+00  0.21265016854E+03  0.21265016854E+03  0.00000000000E+00 0.  1.
          1   -1    0    0  502    0 -0.00000000000E+00 -0.00000000000E+00 -0.16511895632E+03  0.16511895632E+03  0.00000000000E+00 0. -1.
        -24    2    1    2    0    0  0.14646416548E+02  0.14178767126E+02 -0.12958827042E+03  0.15076589357E+03  0.74308006821E+02 0.  0.
         23    2    1    2    0    0  0.58073088078E+01 -0.22987129208E+02  0.64584830938E+02  0.11228623188E+03  0.88740433493E+02 0.  0.
         11    1    3    3    0    0  0.14877117400E+02 -0.13843614001E+02 -0.11913595206E+03  0.12085673066E+03  0.00000000000E+00 0. -1.
        -12    1    3    3    0    0 -0.23070085234E+00  0.28022381128E+02 -0.10452318354E+02  0.29909162909E+02  0.00000000000E+00 0.  1.
        -13    1    4    4    0    0  0.22556284097E+02 -0.52933184101E+02  0.40045029518E+02  0.70102156318E+02  0.00000000000E+00 0. -1.
         13    1    4    4    0    0 -0.16748975289E+02  0.29946054893E+02  0.24539801420E+02  0.42184075557E+02  0.00000000000E+00 0.  1.
          2    1    1    2  501    0 -0.20453725355E+02  0.88083620821E+01  0.11253465169E+03  0.11471699942E+03  0.00000000000E+00 0. -1.
<scales pt_clust_5="13000.00000" pt_clust_6="13000.00000" pt_clust_7="13000.00000" pt_clust_8="13000.00000" pt_clust_9="22.26976"></scales>
<clustering>
<clus scale="   22.270">  1  9  2 -1</clus>
<clus scale="   74.308">  5  6 -1 -1</clus>
<clus scale="   76.848">  2  5  1 -1</clus>
<clus scale="   88.740">  7  8 -1 -1</clus>
<clus scale="   22.270">  1  5  2 -1</clus>
</clustering>
</event>
<event>
 9    1  0.6345107E-005  0.8988735E+02  0.7546771E-02  0.1307916E+00
          1   -1    0    0  502    0 -0.00000000000E+00  0.00000000000E+00  0.36661758297E+03  0.36661758297E+03  0.00000000000E+00 0. -1.
         21   -1    0    0  501  502  0.00000000000E+00 -0.00000000000E+00 -0.87968106481E+02  0.87968106481E+02  0.00000000000E+00 0.  1.
        -24    2    1    2    0    0  0.92077005738E+01 -0.21060830392E+02  0.12092193767E+03  0.14704701074E+03  0.80451028763E+02 0.  0.
         23    2    1    2    0    0 -0.76722059995E+01 -0.18057486490E+02 -0.45117718291E+02  0.10095020181E+03  0.88149867717E+02 0.  0.
         11    1    3    3    0    0 -0.19704432031E+02 -0.10961790131E+02  0.25013725198E+00  0.22549679669E+02  0.00000000000E+00 0. -1.
        -12    1    3    3    0    0  0.28912132604E+02 -0.10099040261E+02  0.12067180042E+03  0.12449733107E+03  0.00000000000E+00 0.  1.
        -13    1    4    4    0    0  0.40376323433E+02 -0.90657275831E+01 -0.22232078887E+02  0.46975528121E+02  0.00000000000E+00 0.  1.
         13    1    4    4    0    0 -0.48048529433E+02 -0.89917589065E+01 -0.22885639404E+02  0.53974673689E+02  0.00000000000E+00 0. -1.
          2    1    1    2  501    0 -0.15354945744E+01  0.39118316881E+02  0.20284525710E+03  0.20658847690E+03  0.00000000000E+00 0. -1.
<scales pt_clust_5="13000.00000" pt_clust_6="13000.00000" pt_clust_7="13000.00000" pt_clust_8="13000.00000" pt_clust_9="39.14846"></scales>
<clustering>
<clus scale="   39.148">  2  9  1 -1</clus>
<clus scale="   80.451">  5  6 -1 -1</clus>
<clus scale="   82.351">  1  5  2 -1</clus>
<clus scale="   88.150">  7  8 -1 -1</clus>
<clus scale="   39.148">  2  5  1 -1</clus>
</clustering>
</event>
<event>
 9    1  0.6345107E-005  0.1596138E+03  0.7546771E-02  0.1200607E+00
         21   -1    0    0  501  502  0.00000000000E+00  0.00000000000E+00  0.19895254586E+03  0.19895254586E+03  0.00000000000E+00 0. -1.
         -4   -1    0    0    0  501 -0.00000000000E+00 -0.00000000000E+00 -0.28006286972E+03  0.28006286972E+03  0.00000000000E+00 0.  1.
        -24    2    1    2    0    0  0.94486193817E+02 -0.15702888019E+02  0.33997476254E+02  0.12870471287E+03  0.78961086675E+02 0.  0.
         23    2    1    2    0    0  0.75867992352E+02  0.75080505451E+02 -0.13851480111E+02  0.14343128725E+03  0.94803143931E+02 0.  0.
         11    1    3    3    0    0  0.76196703181E+02  0.19882199874E+02  0.39870268173E+02  0.88265948880E+02  0.00000000000E+00 0. -1.
        -12    1    3    3    0    0  0.18289490636E+02 -0.35585087892E+02 -0.58727919188E+01  0.40438763989E+02  0.00000000000E+00 0.  1.
        -13    1    4    4    0    0  0.59303535735E+02  0.56096370683E+02 -0.52673407358E+02  0.97150398852E+02  0.00000000000E+00 0. -1.
         13    1    4    4    0    0  0.16564456618E+02  0.18984134768E+02  0.38821927247E+02  0.46280888400E+02  0.00000000000E+00 0.  1.
         -3    1    1    2    0  502 -0.17035418617E+03 -0.59377617433E+02 -0.10125632001E+03  0.20687941545E+03  0.00000000000E+00 0.  1.
<scales pt_clust_5="13000.00000" pt_clust_6="13000.00000" pt_clust_7="13000.00000" pt_clust_8="13000.00000" pt_clust_9="128.40923"></scales>
<clustering>
<clus scale="   78.961">  5  6 -1 -1</clus>
<clus scale="   94.803">  7  8 -1 -1</clus>
<clus scale="  124.133">  2  5  1 -1</clus>
<clus scale="  128.409">  1  9  2 -1</clus>
<clus scale="  128.409">  1  5  2 -1</clus>
</clustering>
</event>
<event>
 9    1  0.6345107E-005  0.1682479E+03  0.7546771E-02  0.1202096E+00
         21   -1    0    0  501  502  0.00000000000E+00  0.00000000000E+00  0.30929216976E+02  0.30929216976E+02  0.00000000000E+00 0. -1.
          1   -1    0    0  502    0 -0.00000000000E+00 -0.00000000000E+00 -0.15272134614E+04  0.15272134614E+04  0.00000000000E+00 0. -1.
        -24    2    1    2    0    0  0.20440203326E+02 -0.57210968733E+02 -0.33790110485E+03  0.35314060252E+03  0.82705692877E+02 0.  0.
         23    2    1    2    0    0  0.48932078130E+01  0.16180341335E+03 -0.42902430688E+03  0.46774657874E+03  0.92307735205E+02 0.  0.
         11    1    3    3    0    0  0.51357011430E+02 -0.38179919275E+02 -0.24947237038E+03  0.25754943689E+03  0.00000000000E+00 0. -1.
        -12    1    3    3    0    0 -0.30916808104E+02 -0.19031049459E+02 -0.88428734473E+02  0.95591165635E+02  0.00000000000E+00 0.  1.
        -11    1    4    4    0    0 -0.97069616002E+01  0.54242005281E+02 -0.53326466562E+02  0.76682020555E+02  0.00000000000E+00 0. -1.
         11    1    4    4    0    0  0.14600169413E+02  0.10756140807E+03 -0.37569784032E+03  0.39106455819E+03  0.00000000000E+00 0.  1.
          2    1    1    2  501    0 -0.25333411139E+02 -0.10459244462E+03 -0.72935883273E+03  0.73725549715E+03  0.00000000000E+00 0. -1.
<scales pt_clust_5="13000.00000" pt_clust_6="13000.00000" pt_clust_7="13000.00000" pt_clust_8="13000.00000" pt_clust_9="140.66504"></scales>
<clustering>
<clus scale="   82.706">  5  6 -1 -1</clus>
<clus scale="   92.308">  7  8 -1 -1</clus>
<clus scale="  102.621">  2  5  1 -1</clus>
<clus scale="  140.665">  1  9  2 -1</clus>
<clus scale="  140.665">  1  5  2 -1</clus>
</clustering>
</event>
<event>
 9    1  0.6345107E-005  0.1177909E+03  0.7546771E-02  0.1249389E+00
          1   -1    0    0  502    0 -0.00000000000E+00  0.00000000000E+00  0.30289054485E+03  0.30289054485E+03  0.00000000000E+00 0. -1.
         21   -1    0    0  501  502  0.00000000000E+00 -0.00000000000E+00 -0.21070027241E+03  0.21070027241E+03  0.00000000000E+00 0.  1.
         23    2    1    2    0    0 -0.64598706598E+02  0.32297967304E+02  0.23282563166E+03  0.26034356702E+03  0.91404849667E+02 0.  0.
        -24    2    1    2    0    0  0.62458029377E+02 -0.61995961627E+02 -0.12833107725E+02  0.12202237130E+03  0.83547984732E+02 0.  0.
         13    1    4    4    0    0  0.32395204499E+02 -0.19021740725E+02  0.34774549915E+02  0.51191261134E+02  0.00000000000E+00 0. -1.
        -14    1    4    4    0    0  0.30062824878E+02 -0.42974220901E+02 -0.47607657640E+02  0.70831110168E+02  0.00000000000E+00 0.  1.
        -13    1    3    3    0    0 -0.52092795559E+02 -0.12777400163E+02  0.56443741030E+02  0.77864094457E+02  0.00000000000E+00 0.  1.
         13    1    3    3    0    0 -0.12505911038E+02  0.45075367467E+02  0.17638189063E+03  0.18247947256E+03  0.00000000000E+00 0. -1.
          2    1    1    2  501    0  0.21406772213E+01  0.29697994323E+02 -0.12780225150E+03  0.13122487894E+03  0.00000000000E+00 0. -1.
<scales pt_clust_5="13000.00000" pt_clust_6="13000.00000" pt_clust_7="13000.00000" pt_clust_8="13000.00000" pt_clust_9="29.77505"></scales>
<clustering>
<clus scale="   29.775">  2  9  1 -1</clus>
<clus scale="   83.548">  5  6 -1 -1</clus>
<clus scale="   91.405">  7  8 -1 -1</clus>
<clus scale="  111.804">  2  5  1 -1</clus>
<clus scale="   29.775">  2  5  1 -1</clus>
</clustering>
</event>
<event>
 9    1  0.6345107E-005  0.1305005E+03  0.7546771E-02  0.1229545E+00
         21   -1    0    0  501  502  0.00000000000E+00  0.00000000000E+00  0.25152569258E+03  0.25152569258E+03  0.00000000000E+00 0. -1.
          1   -1    0    0  502    0 -0.00000000000E+00 -0.00000000000E+00 -0.21378625065E+03  0.21378625065E+03  0.00000000000E+00 0. -1.
        -24    2    1    2    0    0  0.11113840978E+02  0.13130737866E+03 -0.11390581041E+03  0.19144079440E+03  0.79434872469E+02 0.  0.
         23    2    1    2    0    0 -0.29220796779E+02 -0.35525645544E+02  0.10140850090E+02  0.10204129665E+03  0.90518853985E+02 0.  0.
         13    1    3    3    0    0 -0.26643760978E+02  0.43637546117E+02 -0.69190318307E+02  0.86031538273E+02  0.00000000000E+00 0. -1.
        -14    1    3    3    0    0  0.37757601957E+02  0.87669832539E+02 -0.44715492100E+02  0.10540925612E+03  0.00000000000E+00 0.  1.
        -11    1    4    4    0    0 -0.37185511354E+02 -0.62362157281E+02  0.10706659244E+01  0.72615062080E+02  0.00000000000E+00 0.  1.
         11    1    4    4    0    0  0.79647145753E+01  0.26836511737E+02  0.90701841652E+01  0.29426234575E+02  0.00000000000E+00 0. -1.
          2    1    1    2  501    0  0.18106955800E+02 -0.95781733112E+02  0.14150440224E+03  0.17182985218E+03  0.00000000000E+00 0. -1.
<scales pt_clust_5="13000.00000" pt_clust_6="13000.00000" pt_clust_7="13000.00000" pt_clust_8="13000.00000" pt_clust_9="97.47821"></scales>
<clustering>
<clus scale="   79.435">  5  6 -1 -1</clus>
<clus scale="   90.519">  7  8 -1 -1</clus>
<clus scale="   97.478">  1  9  2 -1</clus>
<clus scale="  123.072">  2  5  1 -1</clus>
<clus scale="   97.478">  1  5  2 -1</clus>
</clustering>
</event>
<event>
 9    1  0.6345107E-005  0.1075962E+03  0.7546771E-02  0.1268739E+00
         21   -1    0    0  501  502  0.00000000000E+00  0.00000000000E+00  0.28176251887E+03  0.28176251887E+03  0.00000000000E+00 0. -1.
          3   -1    0    0  502    0 -0.00000000000E+00 -0.00000000000E+00 -0.62525826384E+02  0.62525826384E+02  0.00000000000E+00 0. -1.
        -24    2    1    2    0    0 -0.37556078643E+02 -0.39571202023E+02  0.31627276103E+02  0.10140173427E+03  0.79408362573E+02 0.  0.
         23    2    1    2    0    0  0.39976300611E+02  0.70607744018E+02  0.16643687642E+03  0.20523822640E+03  0.88532127595E+02 0.  0.
         13    1    3    3    0    0 -0.60280599656E+02 -0.15562017272E+02  0.27594932056E+02  0.68098512110E+02  0.00000000000E+00 0. -1.
        -14    1    3    3    0    0  0.22724521013E+02 -0.24009184751E+02  0.40323440468E+01  0.33303222159E+02  0.00000000000E+00 0.  1.
        -11    1    4    4    0    0  0.29616573038E+02 -0.15251998195E+02  0.40030168240E+02  0.52078586932E+02  0.00000000000E+00 0.  1.
         11    1    4    4    0    0  0.10359727573E+02  0.85859742214E+02  0.12640670818E+03  0.15315963947E+03  0.00000000000E+00 0. -1.
          4    1    1    2  501    0 -0.24202219681E+01 -0.31036541995E+02  0.21172539957E+02  0.37648384582E+02  0.00000000000E+00 0. -1.
<scales pt_clust_5="13000.00000" pt_clust_6="13000.00000" pt_clust_7="13000.00000" pt_clust_8="13000.00000" pt_clust_9="31.13078"></scales>
<clustering>
<clus scale="   31.131">  1  9  2 -1</clus>
<clus scale="   79.408">  5  6 -1 -1</clus>
<clus scale="   88.532">  7  8 -1 -1</clus>
<clus scale="  100.223">  2  5  1 -1</clus>
<clus scale="   31.131">  1  5  2 -1</clus>
</clustering>
</event>
<event>
 9    1  0.6345107E-005  0.1497079E+03  0.7546771E-02  0.1224558E+00
         21   -1    0    0  501  502  0.00000000000E+00  0.00000000000E+00  0.55121116043E+02  0.55121116043E+02  0.00000000000E+00 0. -1.
          1   -1    0    0  502    0 -0.00000000000E+00 -0.00000000000E+00 -0.69704556923E+03  0.69704556923E+03  0.00000000000E+00 0. -1.
         23    2    1    2    0    0  0.16311724859E+02  0.79952241270E+01 -0.88045531584E+02  0.12619523778E+03  0.88561992014E+02 0.  0.
        -24    2    1    2    0    0  0.10505167508E+03 -0.20454817893E+02 -0.42800358913E+03  0.45067479708E+03  0.92013294696E+02 0.  0.
         11    1    4    4    0    0  0.11637889165E+03  0.11800785615E+01 -0.34133818829E+03  0.36063443789E+03  0.00000000000E+00 0. -1.
        -12    1    4    4    0    0 -0.11327216571E+02 -0.21634896454E+02 -0.86665400833E+02  0.90040359181E+02  0.00000000000E+00 0.  1.
        -13    1    3    3    0    0 -0.26049531377E+02  0.15977507621E+02 -0.75267338310E+02  0.81234420359E+02  0.00000000000E+00 0.  1.
         13    1    3    3    0    0  0.42361256236E+02 -0.79822834943E+01 -0.12778193273E+02  0.44960817419E+02  0.00000000000E+00 0. -1.
          2    1    1    2  501    0 -0.12136339994E+03  0.12459593766E+02 -0.12587533247E+03  0.17529665042E+03  0.00000000000E+00 0. -1.
<scales pt_clust_5="13000.00000" pt_clust_6="13000.00000" pt_clust_7="13000.00000" pt_clust_8="13000.00000" pt_clust_9="118.09325"></scales>
<clustering>
<clus scale="   88.562">  7  8 -1 -1</clus>
<clus scale="   90.406">  2  7  1 -1</clus>
<clus scale="   92.013">  5  6 -1 -1</clus>
<clus scale="  118.093">  1  9  2 -1</clus>
<clus scale="  118.093">  1  5  2 -1</clus>
</clustering>
</event>
<event>
 9    1  0.6345107E-005  0.1808388E+03  0.7546771E-02  0.1168042E+00
         21   -1    0    0  501  502  0.00000000000E+00  0.00000000000E+00  0.68042810274E+03  0.68042810274E+03  0.00000000000E+00 0. -1.
          3   -1    0    0  502    0 -0.00000000000E+00 -0.00000000000E+00 -0.58651934474E+02  0.58651934474E+02  0.00000000000E+00 0. -1.
         23    2    1    2    0    0  0.10601821584E+03 -0.12913979726E+03  0.21117611793E+03  0.28333428292E+03  0.88124989458E+02 0.  0.
        -24    2    1    2    0    0 -0.75753200074E+02  0.12478259382E+03  0.32630780891E+03  0.36607893565E+03  0.78916144924E+02 0.  0.
         11    1    4    4    0    0 -0.61884613637E+02  0.13310804954E+03  0.31055839665E+03  0.34350251234E+03  0.00000000000E+00 0. -1.
        -12    1    4    4    0    0 -0.13868586437E+02 -0.83254557205E+01  0.15749412256E+02  0.22576423303E+02  0.00000000000E+00 0.  1.
        -11    1    3    3    0    0  0.16435943010E+01 -0.26688035223E+02  0.88471198447E+02  0.92423512057E+02  0.00000000000E+00 0.  1.
         11    1    3    3    0    0  0.10437462153E+03 -0.10245176204E+03  0.12270491948E+03  0.19091077086E+03  0.00000000000E+00 0. -1.
          4    1    1    2  501    0 -0.30265015762E+02  0.43572034431E+01  0.84292241429E+02  0.89666818646E+02  0.00000000000E+00 0. -1.
<scales pt_clust_5="13000.00000" pt_clust_6="13000.00000" pt_clust_7="13000.00000" pt_clust_8="13000.00000" pt_clust_9="30.57706"></scales>
<clustering>
<clus scale="   30.577">  1  9  2 -1</clus>
<clus scale="   78.916">  5  6 -1 -1</clus>
<clus scale="   88.125">  7  8 -1 -1</clus>
<clus scale="  176.534">  1  5  2 -1</clus>
<clus scale="   30.577">  1  5  2 -1</clus>
</clustering>
</event>
<event>
 9    1  0.6345107E-005  0.8976062E+02  0.7546771E-02  0.1308074E+00
         21   -1    0    0  501  502  0.00000000000E+00  0.00000000000E+00  0.18444918805E+03  0.18444918805E+03  0.00000000000E+00 0. -1.
          1   -1    0    0  502    0 -0.00000000000E+00 -0.00000000000E+00 -0.90969778596E+02  0.90969778596E+02  0.00000000000E+00 0. -1.
        -24    2    1    2    0    0  0.17136495091E+02  0.97489124568E+00  0.17796911328E+02  0.84144209727E+02  0.80429522570E+02 0.  0.
         23    2    1    2    0    0  0.36767124581E+02  0.39411022207E+02  0.22689722120E+02  0.10557261851E+03  0.87895984934E+02 0.  0.
         11    1    3    3    0    0  0.38955637966E+00 -0.30103460365E+02  0.33902762895E+02  0.45340571369E+02  0.00000000000E+00 0. -1.
        -12    1    3    3    0    0  0.16746938711E+02  0.31078351611E+02 -0.16105851568E+02  0.38803638358E+02  0.00000000000E+00 0.  1.
        -11    1    4    4    0    0 -0.27683762305E+02  0.71430038564E+00  0.29565707143E+01  0.27850354231E+02  0.00000000000E+00 0.  1.
         11    1    4    4    0    0  0.64450886885E+02  0.38696721822E+02  0.19733151405E+02  0.77722264278E+02  0.00000000000E+00 0. -1.
          2    1    1    2  501    0 -0.53903619672E+02 -0.40385913453E+02  0.52992776001E+02  0.85702138407E+02  0.00000000000E+00 0. -1.
<scales pt_clust_5="13000.00000" pt_clust_6="13000.00000" pt_clust_7="13000.00000" pt_clust_8="13000.00000" pt_clust_9="67.35445"></scales>
<clustering>
<clus scale="   67.354">  1  9  2 -1</clus>
<clus scale="   80.430">  5  6 -1 -1</clus>
<clus scale="   82.463">  2  5  1 -1</clus>
<clus scale="   87.896">  7  8 -1 -1</clus>
<clus scale="   67.354">  1  5  2 -1</clus>
</clustering>
</event>
<event>
 9    1  0.6345107E-005  0.1240155E+03  0.7546771E-02  0.1240286E+00
         -2   -1    0    0    0  501 -0.00000000000E+00  0.00000000000E+00  0.65388705425E+02  0.65388705425E+02  0.00000000000E+00 0.  1.
         21   -1    0    0  501  502  0.00000000000E+00 -0.00000000000E+00 -0.41442598580E+03  0.41442598580E+03  0.00000000000E+00 0. -1.
        -24    2    1    2    0    0  0.61456819357E+02 -0.61576244910E+02 -0.19039451444E+02  0.11955790814E+03  0.79768528288E+02 0.  0.
         23    2    1    2    0    0 -0.57213332899E+02  0.34689205465E+02 -0.29269488699E+03  0.31407854638E+03  0.92186387225E+02 0.  0.
         11    1    3    3    0    0  0.52666987280E+02 -0.95364573920E+00 -0.24429317023E+02  0.58064726982E+02  0.00000000000E+00 0. -1.
        -12    1    3    3    0    0  0.87898320775E+01 -0.60622599171E+02  0.53898655793E+01  0.61493181160E+02  0.00000000000E+00 0.  1.
        -11    1    4    4    0    0 -0.81434626961E+02  0.33113779665E+02 -0.20428243881E+03  0.22239477440E+03  0.00000000000E+00 0. -1.
         11    1    4    4    0    0  0.24221294062E+02  0.15754258004E+01 -0.88412448179E+02  0.91683771986E+02  0.00000000000E+00 0.  1.
         -1    1    1    2    0  502 -0.42434864586E+01  0.26887039445E+02 -0.37302941945E+02  0.46178236705E+02  0.00000000000E+00 0.  1.
<scales pt_clust_5="13000.00000" pt_clust_6="13000.00000" pt_clust_7="13000.00000" pt_clust_8="13000.00000" pt_clust_9="27.21985"></scales>
<clustering>
<clus scale="   27.220">  2  9  1 -1</clus>
<clus scale="   79.769">  5  6 -1 -1</clus>
<clus scale="   92.186">  7  8 -1 -1</clus>
<clus scale="  115.085">  1  5  2 -1</clus>
<clus scale="   27.220">  2  5  1 -1</clus>
</clustering>
</event>
<event>
 9    1  0.6345107E-005  0.9792469E+02  0.7546771E-02  0.1297195E+00
          1   -1    0    0  502    0 -0.00000000000E+00  0.00000000000E+00  0.53927110335E+03  0.53927110335E+03  0.00000000000E+00 0. -1.
         21   -1    0    0  501  502  0.00000000000E+00 -0.00000000000E+00 -0.41520032873E+02  0.41520032873E+02  0.00000000000E+00 0.  1.
         23    2    1    2    0    0  0.34696952751E+02  0.17672082075E+02  0.36562403212E+03  0.37858584765E+03  0.90167234408E+02 0.  0.
        -24    2    1    2    0    0 -0.35947827569E+01 -0.53011641105E+02  0.12905745853E+03  0.15502847508E+03  0.67489583859E+02 0.  0.
         13    1    4    4    0    0  0.24519115453E+02  0.10508974300E+01  0.44239605303E+02  0.50590849819E+02  0.00000000000E+00 0. -1.
        -14    1    4    4    0    0 -0.28113898209E+02 -0.54062538535E+02  0.84817853223E+02  0.10443762526E+03  0.00000000000E+00 0.  1.
        -11    1    3    3    0    0 -0.27954314526E+02  0.17223060616E+02  0.17106932635E+03  0.17419182511E+03  0.00000000000E+00 0. -1.
         11    1    3    3    0    0  0.62651267278E+02  0.44902145810E+00  0.19455470577E+03  0.20439402254E+03  0.00000000000E+00 0.  1.
          2    1    1    2  501    0 -0.31102169994E+02  0.35339559031E+02  0.30695798301E+01  0.47176813491E+02  0.00000000000E+00 0. -1.
<scales pt_clust_5="13000.00000" pt_clust_6="13000.00000" pt_clust_7="13000.00000" pt_clust_8="13000.00000" pt_clust_9="47.07685"></scales>
<clustering>
<clus scale="   47.077">  2  9  1 -1</clus>
<clus scale="   67.490">  5  6 -1 -1</clus>
<clus scale="   77.550">  2  5  1 -1</clus>
<clus scale="   90.167">  7  8 -1 -1</clus>
<clus scale="   47.077">  2  5  1 -1</clus>
</clustering>
</event>
<event>
 9    1  0.6345107E-005  0.1029720E+03  0.7546771E-02  0.1277527E+00
          1   -1    0    0  502    0 -0.00000000000E+00  0.00000000000E+00  0.53250916752E+03  0.53250916752E+03  0.00000000000E+00 0. -1.
         21   -1    0    0  501  502  0.00000000000E+00 -0.00000000000E+00 -0.37980087408E+02  0.37980087408E+02  0.00000000000E+00 0.  1.
         23    2    1    2    0    0 -0.11392973241E+02 -0.38343120767E+02  0.23349543819E+03  0.25361343115E+03  0.90551963296E+02 0.  0.
        -24    2    1    2    0    0  0.47670336763E+02  0.39770501022E+02  0.26066368399E+03  0.28056850513E+03  0.83180383272E+02 0.  0.
         11    1    4    4    0    0  0.25368177235E+01 -0.21025531348E+02  0.10918352398E+03  0.11121848012E+03  0.00000000000E+00 0. -1.
        -12    1    4    4    0    0  0.45133519040E+02  0.60796032370E+02  0.15148016001E+03  0.16935002501E+03  0.00000000000E+00 0.  1.
        -13    1    3    3    0    0  0.17586013431E+02 -0.52057169306E+02  0.81628661853E+02  0.98399467379E+02  0.00000000000E+00 0.  1.
         13    1    3    3    0    0 -0.28978986672E+02  0.13714048539E+02  0.15186677633E+03  0.15521396377E+03  0.00000000000E+00 0. -1.
          2    1    1    2  501    0 -0.36277363523E+02 -0.14273802550E+01  0.36995793762E+00  0.36307318648E+02  0.00000000000E+00 0. -1.
<scales pt_clust_5="13000.00000" pt_clust_6="13000.00000" pt_clust_7="13000.00000" pt_clust_8="13000.00000" pt_clust_9="36.30543"></scales>
<clustering>
<clus scale="   36.305">  2  9  1 -1</clus>
<clus scale="   83.180">  5  6 -1 -1</clus>
<clus scale="   90.552">  7  8 -1 -1</clus>
<clus scale="   96.553">  2  5  1 -1</clus>
<clus scale="   36.305">  2  5  1 -1</clus>
</clustering>
</event>
<event>
 9    1  0.6345107E-005  0.1158621E+03  0.7546771E-02  0.1252735E+00
         21   -1    0    0  501  502  0.00000000000E+00  0.00000000000E+00  0.16113459694E+03  0.16113459694E+03  0.00000000000E+00 0. -1.
         -4   -1    0    0    0  501 -0.00000000000E+00 -0.00000000000E+00 -0.41943394900E+03  0.41943394900E+03  0.00000000000E+00 0.  1.
         23    2    1    2    0    0 -0.18100190138E+01  0.90242794897E+02 -0.33410734425E+03  0.35746221697E+03  0.89467764483E+02 0.  0.
        -24    2    1    2    0    0  0.95344257401E+01 -0.31674813550E+02 -0.37204138547E+02  0.95585285252E+02  0.81597792520E+02 0.  0.
         13    1    4    4    0    0  0.22205796294E+02 -0.55629196270E+02 -0.32280834320E+02  0.68042318678E+02  0.00000000000E+00 0. -1.
        -14    1    4    4    0    0 -0.12671370554E+02  0.23954382720E+02 -0.49233042274E+01  0.27542966574E+02  0.00000000000E+00 0.  1.
        -13    1    3    3    0    0  0.17419174650E+02 -0.12918300710E+02 -0.46492485417E+02  0.51301669944E+02  0.00000000000E+00 0. -1.
         13    1    3    3    0    0 -0.19229193664E+02  0.10316109561E+03 -0.28761485883E+03  0.30616054703E+03  0.00000000000E+00 0.  1.
         -3    1    1    2    0  502 -0.77244067263E+01 -0.58567981347E+02  0.11301213073E+03  0.12752104372E+03  0.00000000000E+00 0.  1.
<scales pt_clust_5="13000.00000" pt_clust_6="13000.00000" pt_clust_7="13000.00000" pt_clust_8="13000.00000" pt_clust_9="59.07516"></scales>
<clustering>
<clus scale="   59.075">  1  9  2 -1</clus>
<clus scale="   81.598">  5  6 -1 -1</clus>
<clus scale="   89.468">  7  8 -1 -1</clus>
<clus scale="  109.899">  1  5  2 -1</clus>
<clus scale="   59.075">  1  5  2 -1</clus>
</clustering>
</event>
<event>
 9    1  0.6345107E-005  0.1253141E+03  0.7546771E-02  0.1238055E+00
          1   -1    0    0  502    0 -0.00000000000E+00  0.00000000000E+00  0.38117405444E+03  0.38117405444E+03  0.00000000000E+00 0. -1.
         21   -1    0    0  501  502  0.00000000000E+00 -0.00000000000E+00 -0.99811055063E+02  0.99811055063E+02  0.00000000000E+00 0. -1.
        -24    2    1    2    0    0 -0.16764554373E+02  0.10773741294E+03  0.26183492003E+03  0.29504692088E+03  0.81281976772E+02 0.  0.
         23    2    1    2    0    0  0.18701155381E+02 -0.22657122922E+02  0.24320697884E+02  0.10070101735E+03  0.93199356854E+02 0.  0.
         11    1    3    3    0    0  0.16226673989E+02  0.72172607976E+02  0.90020976018E+02  0.11651594918E+03  0.00000000000E+00 0. -1.
        -12    1    3    3    0    0 -0.32991228361E+02  0.35564804964E+02  0.17181394401E+03  0.17853097170E+03  0.00000000000E+00 0.  1.
        -13    1    4    4    0    0  0.56238330099E+02 -0.17346287768E+02  0.21604302543E+02  0.62692817451E+02  0.00000000000E+00 0.  1.
         13    1    4    4    0    0 -0.37537174718E+02 -0.53108351545E+01  0.27163953418E+01  0.38008199898E+02  0.00000000000E+00 0. -1.
          2    1    1    2  501    0 -0.19366010081E+01 -0.85080290018E+02 -0.47926185371E+01  0.85237171266E+02  0.00000000000E+00 0. -1.
<scales pt_clust_5="13000.00000" pt_clust_6="13000.00000" pt_clust_7="13000.00000" pt_clust_8="13000.00000" pt_clust_9="85.10233"></scales>
<clustering>
<clus scale="   81.282">  5  6 -1 -1</clus>
<clus scale="   85.102">  2  9  1 -1</clus>
<clus scale="   93.199">  7  8 -1 -1</clus>
<clus scale="  116.723">  1  5  2 -1</clus>
<clus scale="   85.102">  2  5  1 -1</clus>
</clustering>
</event>
<event>
 9    1  0.6345107E-005  0.2611102E+03  0.7546771E-02  0.1107095E+00
          3   -1    0    0  502    0 -0.00000000000E+00  0.00000000000E+00  0.12855062422E+04  0.12855062422E+04  0.00000000000E+00 0. -1.
         21   -1    0    0  501  502  0.00000000000E+00 -0.00000000000E+00 -0.13574295915E+03  0.13574295915E+03  0.00000000000E+00 0. -1.
         23    2    1    2    0    0  0.21097819364E+02  0.25088848433E+03  0.95328673050E+03  0.99024260577E+03  0.91840504040E+02 0.  0.
        -24    2    1    2    0    0  0.28066833312E+02 -0.20256354317E+03 -0.35678778625E+01  0.21941681051E+03  0.79443507133E+02 0.  0.
         11    1    4    4    0    0 -0.19603955187E+02 -0.13626509994E+03  0.28238541037E+00  0.13766834154E+03  0.00000000000E+00 0. -1.
        -12    1    4    4    0    0  0.47670788499E+02 -0.66298443231E+02 -0.38502632729E+01  0.81748468966E+02  0.00000000000E+00 0.  1.
        -13    1    3    3    0    0  0.25927831680E+02  0.59322916567E+02  0.38787090556E+03  0.39323695181E+03  0.00000000000E+00 0.  1.
         13    1    3    3    0    0 -0.48300123169E+01  0.19156556777E+03  0.56541582493E+03  0.59700565396E+03  0.00000000000E+00 0. -1.
          4    1    1    2  501    0 -0.49164652676E+02 -0.48324941162E+02  0.20004443043E+03  0.21158978510E+03  0.00000000000E+00 0. -1.
<scales pt_clust_5="13000.00000" pt_clust_6="13000.00000" pt_clust_7="13000.00000" pt_clust_8="13000.00000" pt_clust_9="68.93814"></scales>
<clustering>
<clus scale="   68.938">  2  9  1 -1</clus>
<clus scale="   79.444">  5  6 -1 -1</clus>
<clus scale="   91.841">  7  8 -1 -1</clus>
<clus scale="  257.012">  2  5  1 -1</clus>
<clus scale="   68.938">  2  5  1 -1</clus>
</clustering>
</event>
<event>
 9    1  0.6345107E-005  0.1061377E+03  0.7546771E-02  0.1271825E+00
         21   -1    0    0  501  502  0.00000000000E+00  0.00000000000E+00  0.55983385620E+03  0.55983385620E+03  0.00000000000E+00 0. -1.
          1   -1    0    0  502    0 -0.00000000000E+00 -0.00000000000E+00 -0.41164462975E+02  0.41164462975E+02  0.00000000000E+00 0. -1.
        -24    2    1    2    0    0 -0.31594561329E+02 -0.37524994907E+02  0.59018188296E+02  0.11138094612E+03  0.80723150707E+02 0.  0.
         23    2    1    2    0    0  0.73087452874E+02  0.45546619568E+02  0.30956361352E+03  0.33369338002E+03  0.90029832444E+02 0.  0.
         11    1    3    3    0    0  0.35094383387E+01 -0.55085802493E+02  0.33673056520E+02  0.64657841978E+02  0.00000000000E+00 0. -1.
        -12    1    3    3    0    0 -0.35103999667E+02  0.17560807587E+02  0.25345131776E+02  0.46723104140E+02  0.00000000000E+00 0.  1.
        -13    1    4    4    0    0  0.41097372448E+02 -0.64416416480E+01  0.22829006851E+03  0.23204922785E+03  0.00000000000E+00 0.  1.
         13    1    4    4    0    0  0.31990080426E+02  0.51988261216E+02  0.81273545019E+02  0.10164415217E+03  0.00000000000E+00 0. -1.
          2    1    1    2  501    0 -0.41492891545E+02 -0.80216246610E+01  0.15008759140E+03  0.15592399303E+03  0.00000000000E+00 0. -1.
<scales pt_clust_5="13000.00000" pt_clust_6="13000.00000" pt_clust_7="13000.00000" pt_clust_8="13000.00000" pt_clust_9="42.26117"></scales>
<clustering>
<clus scale="   42.261">  1  9  2 -1</clus>
<clus scale="   80.723">  5  6 -1 -1</clus>
<clus scale="   90.030">  7  8 -1 -1</clus>
<clus scale="   98.367">  2  5  1 -1</clus>
<clus scale="   42.261">  1  5  2 -1</clus>
</clustering>
</event>
<event>
 9    1  0.6345107E-005  0.1008073E+03  0.7546771E-02  0.1279210E+00
          1   -1    0    0  502    0 -0.00000000000E+00  0.00000000000E+00  0.79809338698E+03  0.79809338698E+03  0.00000000000E+00 0. -1.
         21   -1    0    0  501  502  0.00000000000E+00 -0.00000000000E+00 -0.20522709764E+02  0.20522709764E+02  0.00000000000E+00 0. -1.
        -24    2    1    2    0    0 -0.56459634591E+02 -0.34918626761E+01  0.35981267155E+03  0.37466830882E+03  0.87814005645E+02 0.  0.
         23    2    1    2    0    0  0.31385782720E+02 -0.36602616575E+02  0.31345317894E+03  0.32942371974E+03  0.89119430212E+02 0.  0.
         13    1    3    3    0    0 -0.39873490635E+02  0.31466648372E+02  0.29374038429E+03  0.29809974602E+03  0.00000000000E+00 0. -1.
        -14    1    3    3    0    0 -0.16586143956E+02 -0.34958511049E+02  0.66072287254E+02  0.76568562798E+02  0.00000000000E+00 0.  1.
        -11    1    4    4    0    0 -0.25239802473E+02 -0.35452975740E+02  0.11192577099E+03  0.12008888095E+03  0.00000000000E+00 0. -1.
         11    1    4    4    0    0  0.56625585193E+02 -0.11496408353E+01  0.20152740795E+03  0.20933483878E+03  0.00000000000E+00 0.  1.
          2    1    1    2  501    0  0.25073851871E+02  0.40094479251E+02  0.10430482673E+03  0.11452406818E+03  0.00000000000E+00 0. -1.
<scales pt_clust_5="13000.00000" pt_clust_6="13000.00000" pt_clust_7="13000.00000" pt_clust_8="13000.00000" pt_clust_9="47.28917"></scales>
<clustering>
<clus scale="   47.289">  2  9  1 -1</clus>
<clus scale="   87.814">  5  6 -1 -1</clus>
<clus scale="   89.119">  7  8 -1 -1</clus>
<clus scale="   99.655">  1  5  2 -1</clus>
<clus scale="   47.289">  2  5  1 -1</clus>
</clustering>
</event>
<event>
 9    1  0.6345107E-005  0.1535220E+03  0.7546771E-02  0.1200535E+00
          1   -1    0    0  502    0 -0.00000000000E+00  0.00000000000E+00  0.94200494372E+03  0.94200494372E+03  0.00000000000E+00 0. -1.
         21   -1    0    0  501  502  0.00000000000E+00 -0.00000000000E+00 -0.64306379137E+02  0.64306379137E+02  0.00000000000E+00 0.  1.
         23    2    1    2    0    0  0.40231031350E+02 -0.92057161724E+02  0.51858657775E+03  0.53667867925E+03  0.94862580764E+02 0.  0.
        -24    2    1    2    0    0 -0.82687667838E+02  0.17096834086E+03  0.30112349132E+03  0.36289836708E+03  0.70373601677E+02 0.  0.
         11    1    4    4    0    0 -0.26073094971E+02  0.63156351284E+01  0.57518053361E+02  0.63466684102E+02  0.00000000000E+00 0. -1.
        -12    1    4    4    0    0 -0.56614572867E+02  0.16465270573E+03  0.24360543796E+03  0.29943168298E+03  0.00000000000E+00 0.  1.
        -11    1    3    3    0    0 -0.22925394211E+02 -0.46587460396E+02  0.12300249396E+03  0.13351246641E+03  0.00000000000E+00 0.  1.
         11    1    3    3    0    0  0.63156425561E+02 -0.45469701329E+02  0.39558408379E+03  0.40316621284E+03  0.00000000000E+00 0. -1.
          2    1    1    2  501    0  0.42456636488E+02 -0.78911179137E+02  0.57988495510E+02  0.10673427653E+03  0.00000000000E+00 0. -1.
<scales pt_clust_5="13000.00000" pt_clust_6="13000.00000" pt_clust_7="13000.00000" pt_clust_8="13000.00000" pt_clust_9="89.60770"></scales>
<clustering>
<clus scale="   70.374">  5  6 -1 -1</clus>
<clus scale="   89.608">  2  9  1 -1</clus>
<clus scale="   94.863">  7  8 -1 -1</clus>
<clus scale="  139.723">  2  5  1 -1</clus>
<clus scale="   89.608">  2  5  1 -1</clus>
</clustering>
</event>
<event>
 9    1  0.6345107E-005  0.1898719E+03  0.7546771E-02  0.1188802E+00
         -2   -1    0    0    0  501 -0.00000000000E+00  0.00000000000E+00  0.87164928535E+02  0.87164928535E+02  0.00000000000E+00 0.  1.
         21   -1    0    0  501  502  0.00000000000E+00 -0.00000000000E+00 -0.74196923147E+03  0.74196923147E+03  0.00000000000E+00 0. -1.
        -24    2    1    2    0    0  0.25382684602E+02 -0.39972877591E+02 -0.26069869610E+02  0.99012152788E+02  0.82955751324E+02 0.  0.
         23    2    1    2    0    0  0.15098232722E+03  0.38474786570E+02 -0.21230370887E+03  0.27788157345E+03  0.88709253894E+02 0.  0.
         13    1    3    3    0    0  0.21217436255E+02  0.42304666693E+01  0.23852329478E+02  0.32202640745E+02  0.00000000000E+00 0. -1.
        -14    1    3    3    0    0  0.41652483474E+01 -0.44203344260E+02 -0.49922199088E+02  0.66809512042E+02  0.00000000000E+00 0.  1.
        -11    1    4    4    0    0  0.61136006733E+02 -0.99689209730E+01 -0.29724329417E+02  0.68706087531E+02  0.00000000000E+00 0.  1.
         11    1    4    4    0    0  0.89846320483E+02  0.48443707543E+02 -0.18257937946E+03  0.20917548592E+03  0.00000000000E+00 0. -1.
         -1    1    1    2    0  502 -0.17636501182E+03  0.14980910206E+01 -0.41643072445E+03  0.45224043377E+03  0.00000000000E+00 0.  1.
<scales pt_clust_5="13000.00000" pt_clust_6="13000.00000" pt_clust_7="13000.00000" pt_clust_8="13000.00000" pt_clust_9="167.87498"></scales>
<clustering>
<clus scale="   82.956">  5  6 -1 -1</clus>
<clus scale="   88.709">  7  8 -1 -1</clus>
<clus scale="   95.518">  1  5  2 -1</clus>
<clus scale="  167.875">  2  9  1 -1</clus>
<clus scale="  167.875">  2  5  1 -1</clus>
</clustering>
</event>
<event>
 9    1  0.6345107E-005  0.1079264E+03  0.7546771E-02  0.1270776E+00
         -2   -1    0    0    0  501 -0.00000000000E+00  0.00000000000E+00  0.74617634732E+03  0.74617634732E+03  0.00000000000E+00 0.  1.
         21   -1    0    0  501  502  0.00000000000E+00 -0.00000000000E+00 -0.23644966663E+02  0.23644966663E+02  0.00000000000E+00 0.  1.
         23    2    1    2    0    0  0.42148634002E+02 -0.23829785256E+02  0.35791700075E+03  0.37371385449E+03  0.95984892558E+02 0.  0.
        -24    2    1    2    0    0 -0.59411889977E+02 -0.18743295346E+02  0.19549170194E+03  0.22085630429E+03  0.81727705365E+02 0.  0.
         11    1    4    4    0    0 -0.75456966457E+01 -0.40168491572E+02  0.47962865196E+02  0.63014932285E+02  0.00000000000E+00 0. -1.
        -12    1    4    4    0    0 -0.51866193331E+02  0.21425196226E+02  0.14752883675E+03  0.15784137200E+03  0.00000000000E+00 0.  1.
        -11    1    3    3    0    0  0.32155787060E+02 -0.57637319241E+02  0.16699589053E+03  0.17956526018E+03  0.00000000000E+00 0.  1.
         11    1    3    3    0    0  0.99928469426E+01  0.33807533986E+02  0.19092111022E+03  0.19414859431E+03  0.00000000000E+00 0. -1.
         -1    1    1    2    0  502  0.17263255974E+02  0.42573080602E+02  0.16912267797E+03  0.17525115521E+03  0.00000000000E+00 0.  1.
<scales pt_clust_5="13000.00000" pt_clust_6="13000.00000" pt_clust_7="13000.00000" pt_clust_8="13000.00000" pt_clust_9="45.94006"></scales>
<clustering>
<clus scale="   45.940">  2  9  1 -1</clus>
<clus scale="   81.728">  5  6 -1 -1</clus>
<clus scale="   95.470">  2  5  1 -1</clus>
<clus scale="   95.985">  7  8 -1 -1</clus>
<clus scale="   45.940">  2  5  1 -1</clus>
</clustering>
</event>
<event>
 9    1  0.6345107E-005  0.1015725E+03  0.7546771E-02  0.1287364E+00
         21   -1    0    0  501  502  0.00000000000E+00  0.00000000000E+00  0.25269766246E+03  0.25269766246E+03  0.00000000000E+00 0.  1.
         -2   -1    0    0    0  501 -0.00000000000E+00 -0.00000000000E+00 -0.83004817979E+02  0.83004817979E+02  0.00000000000E+00 0.  1.
         23    2    1    2    0    0  0.21870061747E+02  0.13297341192E+02 -0.49108138935E+01  0.10400696823E+03  0.10068870078E+03 0.  0.
        -24    2    1    2    0    0  0.25977302285E+02  0.90053440258E+01  0.15025340296E+03  0.17356019633E+03  0.82408374550E+02 0.  0.
         11    1    4    4    0    0  0.78247670949E+01  0.35700211921E+02  0.25165404159E+02  0.44373749873E+02  0.00000000000E+00 0. -1.
        -12    1    4    4    0    0  0.18152535190E+02 -0.26694867895E+02  0.12508799880E+03  0.12918644646E+03  0.00000000000E+00 0.  1.
        -13    1    3    3    0    0 -0.39182445608E+02  0.16038007841E+02 -0.67119375714E+01  0.42866441948E+02  0.00000000000E+00 0.  1.
         13    1    3    3    0    0  0.61052507355E+02 -0.27406666495E+01  0.18011236779E+01  0.61140526286E+02  0.00000000000E+00 0. -1.
         -1    1    1    2    0  502 -0.47847364033E+02 -0.22302685218E+02  0.24350255420E+02  0.58135315874E+02  0.00000000000E+00 0.  1.
<scales pt_clust_5="13000.00000" pt_clust_6="13000.00000" pt_clust_7="13000.00000" pt_clust_8="13000.00000" pt_clust_9="52.78999"></scales>
<clustering>
<clus scale="   52.790">  1  9  2 -1</clus>
<clus scale="   82.408">  5  6 -1 -1</clus>
<clus scale="   83.486">  1  5  2 -1</clus>
<clus scale="  100.689">  7  8 -1 -1</clus>
<clus scale="   52.790">  1  5  2 -1</clus>
</clustering>
</event>
<event>
 9    1  0.6345107E-005  0.1315974E+03  0.7546771E-02  0.1225139E+00
         21   -1    0    0  501  502  0.00000000000E+00  0.00000000000E+00  0.64376663607E+02  0.64376663607E+02  0.00000000000E+00 0.  1.
         -2   -1    0    0    0  501 -0.00000000000E+00 -0.00000000000E+00 -0.44738458083E+03  0.44738458083E+03  0.00000000000E+00 0.  1.
         23    2    1    2    0    0  0.63221402567E+02  0.10484283221E+03 -0.26991144646E+03  0.30741022197E+03  0.81608151749E+02 0.  0.
        -24    2    1    2    0    0 -0.60848737046E+02 -0.46495144396E+02 -0.74991713716E+02  0.13462258691E+03  0.81456224615E+02 0.  0.
         13    1    4    4    0    0 -0.17185881313E+02 -0.31604860212E+02  0.10501800719E+02  0.37476786467E+02  0.00000000000E+00 0. -1.
        -14    1    4    4    0    0 -0.43662855734E+02 -0.14890284184E+02 -0.85493514435E+02  0.97145800446E+02  0.00000000000E+00 0.  1.
        -13    1    3    3    0    0 -0.82786993757E+01  0.42933423912E+02 -0.14033320201E+03  0.14698715365E+03  0.00000000000E+00 0. -1.
         13    1    3    3    0    0  0.71500101942E+02  0.61909408299E+02 -0.12957824446E+03  0.16042306832E+03  0.00000000000E+00 0.  1.
         -1    1    1    2    0  502 -0.23726655203E+01 -0.58347687815E+02 -0.38104757043E+02  0.69728435551E+02  0.00000000000E+00 0.  1.
<scales pt_clust_5="13000.00000" pt_clust_6="13000.00000" pt_clust_7="13000.00000" pt_clust_8="13000.00000" pt_clust_9="58.39591"></scales>
<clustering>
<clus scale="   58.396">  1  9  2 -1</clus>
<clus scale="   81.456">  5  6 -1 -1</clus>
<clus scale="   81.608">  7  8 -1 -1</clus>
<clus scale="  131.503">  1  5  2 -1</clus>
<clus scale="   58.396">  1  5  2 -1</clus>
</clustering>
</event>
<event>
 9    1  0.6345107E-005  0.1396973E+03  0.7546771E-02  0.1216123E+00
         21   -1    0    0  501  502  0.00000000000E+00  0.00000000000E+00  0.76259298502E+02  0.76259298502E+02  0.00000000000E+00 0.  1.
         -2   -1    0    0    0  501 -0.00000000000E+00 -0.00000000000E+00 -0.79695245594E+03  0.79695245594E+03  0.00000000000E+00 0.  1.
        -24    2    1    2    0    0 -0.10999338271E+03 -0.35841789318E+01 -0.70156704038E+03  0.71462163955E+03  0.79852269770E+02 0.  0.
         23    2    1    2    0    0  0.73609160402E+02 -0.11522152985E+02 -0.85398087338E+01  0.11779694364E+03  0.90841197108E+02 0.  0.
         11    1    3    3    0    0 -0.49204826882E+02 -0.11853138836E+02 -0.12586207701E+03  0.13565719413E+03  0.00000000000E+00 0. -1.
        -12    1    3    3    0    0 -0.60788555831E+02  0.82689599040E+01 -0.57570496336E+03  0.57896444542E+03  0.00000000000E+00 0.  1.
        -13    1    4    4    0    0 -0.17914919035E+01  0.24424553541E+02  0.17727846442E+02  0.30233173807E+02  0.00000000000E+00 0.  1.
         13    1    4    4    0    0  0.75400652306E+02 -0.35946706526E+02 -0.26267655176E+02  0.87563769829E+02  0.00000000000E+00 0. -1.
         -1    1    1    2    0  502  0.36384222311E+02  0.15106331916E+02 -0.10586308323E+02  0.40793171256E+02  0.00000000000E+00 0.  1.
<scales pt_clust_5="13000.00000" pt_clust_6="13000.00000" pt_clust_7="13000.00000" pt_clust_8="13000.00000" pt_clust_9="39.39559"></scales>
<clustering>
<clus scale="   39.396">  1  9  2 -1</clus>
<clus scale="   79.852">  5  6 -1 -1</clus>
<clus scale="   90.841">  7  8 -1 -1</clus>
<clus scale="  132.814">  2  5  1 -1</clus>
<clus scale="   39.396">  1  5  2 -1</clus>
</clustering>
</event>
<event>
 9    1  0.6345107E-005  0.1005756E+03  0.7546771E-02  0.1279349E+00
         21   -1    0    0  501  502  0.00000000000E+00  0.00000000000E+00  0.77546535401E+02  0.77546535401E+02  0.00000000000E+00 0. -1.
          1   -1    0    0  502    0 -0.00000000000E+00 -0.00000000000E+00 -0.23602704004E+03  0.23602704004E+03  0.00000000000E+00 0. -1.
        -24    2    1    2    0    0 -0.23345957023E+02 -0.11292141386E+02 -0.99410940772E+02  0.13763896586E+03  0.91593687614E+02 0.  0.
         23    2    1    2    0    0  0.70770324663E+02  0.18322799431E+02 -0.38370106563E+02  0.12371422724E+03  0.92134581527E+02 0.  0.
         11    1    3    3    0    0 -0.54717197623E+02 -0.18849676438E+01 -0.33893987848E+02  0.64391981107E+02  0.00000000000E+00 0. -1.
        -12    1    3    3    0    0  0.31371240599E+02 -0.94071737421E+01 -0.65516952925E+02  0.73246984751E+02  0.00000000000E+00 0.  1.
        -13    1    4    4    0    0  0.24395685066E+02 -0.29392530392E+02  0.12245031273E+02  0.40112480396E+02  0.00000000000E+00 0. -1.
         13    1    4    4    0    0  0.46374639597E+02  0.47715329824E+02 -0.50615137835E+02  0.83601746848E+02  0.00000000000E+00 0.  1.
          2    1    1    2  501    0 -0.47424367640E+02 -0.70306580456E+01 -0.20699457299E+02  0.52220382334E+02  0.00000000000E+00 0. -1.
<scales pt_clust_5="13000.00000" pt_clust_6="13000.00000" pt_clust_7="13000.00000" pt_clust_8="13000.00000" pt_clust_9="47.94268"></scales>
<clustering>
<clus scale="   47.943">  1  9  2 -1</clus>
<clus scale="   91.594">  5  6 -1 -1</clus>
<clus scale="   92.135">  7  8 -1 -1</clus>
<clus scale="  100.080">  2  5  1 -1</clus>
<clus scale="   47.943">  1  5  2 -1</clus>
</clustering>
</event>
<event>
 9    1  0.6345107E-005  0.2454411E+03  0.7546771E-02  0.1116893E+00
          1   -1    0    0  502    0 -0.00000000000E+00  0.00000000000E+00  0.76724901197E+03  0.76724901197E+03  0.00000000000E+00 0. -1.
         21   -1    0    0  501  502  0.00000000000E+00 -0.00000000000E+00 -0.14967312253E+03  0.14967312253E+03  0.00000000000E+00 0. -1.
         23    2    1    2    0    0 -0.16629298115E+03 -0.17769463693E+03  0.57351006995E+03  0.62959034533E+03  0.90782503950E+02 0.  0.
        -24    2    1    2    0    0  0.88196565329E+02  0.15582473869E+03  0.14116029916E+01  0.19569814471E+03  0.78967005108E+02 0.  0.
         11    1    4    4    0    0  0.60424565486E+02  0.12950667476E+03  0.32312548633E+02  0.14651691957E+03  0.00000000000E+00 0. -1.
        -12    1    4    4    0    0  0.27771999844E+02  0.26318063925E+02 -0.30900945641E+02  0.49181225133E+02  0.00000000000E+00 0.  1.
        -11    1    3    3    0    0 -0.16697640204E+03 -0.13338080297E+03  0.49995088623E+03  0.54371173069E+03  0.00000000000E+00 0. -1.
         11    1    3    3    0    0  0.68342088378E+00 -0.44313833959E+02  0.73559183715E+02  0.85878614643E+02  0.00000000000E+00 0.  1.
          2    1    1    2  501    0  0.78096415826E+02  0.21869898246E+02  0.42654216496E+02  0.91633644471E+02  0.00000000000E+00 0. -1.
<scales pt_clust_5="13000.00000" pt_clust_6="13000.00000" pt_clust_7="13000.00000" pt_clust_8="13000.00000" pt_clust_9="81.10082"></scales>
<clustering>
<clus scale="   78.967">  5  6 -1 -1</clus>
<clus scale="   81.101">  2  9  1 -1</clus>
<clus scale="   90.783">  7  8 -1 -1</clus>
<clus scale="  241.321">  2  5  1 -1</clus>
<clus scale="   81.101">  2  5  1 -1</clus>
</clustering>
</event>
<event>
 9    1  0.6345107E-005  0.1213974E+03  0.7546771E-02  0.1242658E+00
         21   -1    0    0  501  502  0.00000000000E+00  0.00000000000E+00  0.54776573394E+03  0.54776573394E+03  0.00000000000E+00 0.  1.
         -4   -1    0    0    0  501 -0.00000000000E+00 -0.00000000000E+00 -0.36650290396E+02  0.36650290396E+02  0.00000000000E+00 0.  1.
        -24    2    1    2    0    0  0.10687732365E+02  0.85560774778E+02  0.13184010594E+03  0.17722176928E+03  0.81184162069E+02 0.  0.
         23    2    1    2    0    0 -0.35198056606E+02 -0.75012357806E+02  0.29063235988E+03  0.31462210700E+03  0.87487968261E+02 0.  0.
         13    1    3    3    0    0 -0.12693405169E+02  0.26502137958E+02 -0.16068623796E+01  0.29429030868E+02  0.00000000000E+00 0. -1.
        -14    1    3    3    0    0  0.23381137534E+02  0.59058636820E+02  0.13344696832E+03  0.14779273842E+03  0.00000000000E+00 0.  1.
        -11    1    4    4    0    0  0.28238924599E+02 -0.23548376373E+02  0.11882658334E+03  0.12438536812E+03  0.00000000000E+00 0. -1.
         11    1    4    4    0    0 -0.63436981206E+02 -0.51463981433E+02  0.17180577654E+03  0.19023673889E+03  0.00000000000E+00 0.  1.
         -3    1    1    2    0  502  0.24510324241E+02 -0.10548416971E+02  0.88642977725E+02  0.92572148052E+02  0.00000000000E+00 0.  1.
<scales pt_clust_5="13000.00000" pt_clust_6="13000.00000" pt_clust_7="13000.00000" pt_clust_8="13000.00000" pt_clust_9="26.68380"></scales>
<clustering>
<clus scale="   26.684">  1  9  2 -1</clus>
<clus scale="   81.184">  5  6 -1 -1</clus>
<clus scale="   87.488">  7  8 -1 -1</clus>
<clus scale="  116.936">  2  5  1 -1</clus>
<clus scale="   26.684">  1  5  2 -1</clus>
</clustering>
</event>
<event>
 9    1  0.6345107E-005  0.1437710E+03  0.7546771E-02  0.1229628E+00
         21   -1    0    0  501  502  0.00000000000E+00  0.00000000000E+00  0.32292573907E+03  0.32292573907E+03  0.00000000000E+00 0. -1.
          1   -1    0    0  502    0 -0.00000000000E+00 -0.00000000000E+00 -0.10666851490E+03  0.10666851490E+03  0.00000000000E+00 0. -1.
         23    2    1    2    0    0  0.13338201236E+02 -0.64522257843E+01  0.68359162148E+02  0.11452287159E+03  0.90680616661E+02 0.  0.
        -24    2    1    2    0    0 -0.99807685318E+02  0.73138635047E+02  0.14258185807E+03  0.20574475762E+03  0.81795385285E+02 0.  0.
         13    1    4    4    0    0 -0.87589330045E+02  0.89514415836E+02  0.10704215429E+03  0.16475055136E+03  0.00000000000E+00 0. -1.
        -14    1    4    4    0    0 -0.12218355273E+02 -0.16375780788E+02  0.35539703780E+02  0.40994206259E+02  0.00000000000E+00 0.  1.
        -11    1    3    3    0    0  0.27932208363E+02 -0.42591801862E+02  0.50238152030E+02  0.71541189320E+02  0.00000000000E+00 0. -1.
         11    1    3    3    0    0 -0.14594007127E+02  0.36139576078E+02  0.18121010118E+02  0.42981682271E+02  0.00000000000E+00 0.  1.
          2    1    1    2  501    0  0.86469484082E+02 -0.66686409263E+02  0.53162039571E+01  0.10932662476E+03  0.00000000000E+00 0. -1.
<scales pt_clust_5="13000.00000" pt_clust_6="13000.00000" pt_clust_7="13000.00000" pt_clust_8="13000.00000" pt_clust_9="118.23542"></scales>
<clustering>
<clus scale="   81.795">  5  6 -1 -1</clus>
<clus scale="   90.681">  7  8 -1 -1</clus>
<clus scale="   91.883">  2  7  1 -1</clus>
<clus scale="  118.235">  1  9  2 -1</clus>
<clus scale="  118.235">  1  5  2 -1</clus>
</clustering>
</event>
<event>
 9    1  0.6345107E-005  0.1038566E+03  0.7546771E-02  0.1276850E+00
         21   -1    0    0  501  502  0.00000000000E+00  0.00000000000E+00  0.13290764346E+03  0.13290764346E+03  0.00000000000E+00 0.  1.
         -2   -1    0    0    0  501 -0.00000000000E+00 -0.00000000000E+00 -0.17713619293E+03  0.17713619293E+03  0.00000000000E+00 0.  1.
         23    2    1    2    0    0  0.18694613426E+02  0.29997793584E+02 -0.65982941944E+02  0.11698197138E+03  0.89898146866E+02 0.  0.
        -24    2    1    2    0    0 -0.14055636555E+02 -0.93723895302E+02 -0.43628767304E+01  0.12403543603E+03  0.79900095289E+02 0.  0.
         11    1    4    4    0    0 -0.34722034742E+02 -0.28225433863E+02 -0.26339424274E+02  0.51923598531E+02  0.00000000000E+00 0. -1.
        -12    1    4    4    0    0  0.20666398187E+02 -0.65498461439E+02  0.21976547543E+02  0.72111837494E+02  0.00000000000E+00 0.  1.
        -13    1    3    3    0    0  0.25247653268E+02 -0.11716844452E+02 -0.69245198687E+02  0.74629926843E+02  0.00000000000E+00 0. -1.
         13    1    3    3    0    0 -0.65530398420E+01  0.41714638035E+02  0.32622567431E+01  0.42352044539E+02  0.00000000000E+00 0.  1.
         -1    1    1    2    0  502 -0.46389768703E+01  0.63726101718E+02  0.26117269207E+02  0.69026428978E+02  0.00000000000E+00 0.  1.
<scales pt_clust_5="13000.00000" pt_clust_6="13000.00000" pt_clust_7="13000.00000" pt_clust_8="13000.00000" pt_clust_9="63.89473"></scales>
<clustering>
<clus scale="   63.895">  1  9  2 -1</clus>
<clus scale="   79.900">  5  6 -1 -1</clus>
<clus scale="   89.898">  7  8 -1 -1</clus>
<clus scale="   95.334">  1  5  2 -1</clus>
<clus scale="   63.895">  1  5  2 -1</clus>
</clustering>
</event>
<event>
 9    1  0.6345107E-005  0.1239015E+03  0.7546771E-02  0.1245464E+00
         21   -1    0    0  501  502  0.00000000000E+00  0.00000000000E+00  0.31026259399E+03  0.31026259399E+03  0.00000000000E+00 0. -1.
          1   -1    0    0  502    0 -0.00000000000E+00 -0.00000000000E+00 -0.21258809845E+03  0.21258809845E+03  0.00000000000E+00 0. -1.
        -24    2    1    2    0    0 -0.10223366298E+02  0.64917450832E+02  0.20946495778E+03  0.23383412823E+03  0.80523526662E+02 0.  0.
         23    2    1    2    0    0  0.27907046182E+02  0.65922531109E+02  0.39778243783E+01  0.11342012462E+03  0.87884687222E+02 0.  0.
         13    1    3    3    0    0 -0.17916291057E+02  0.75275092894E+02  0.20660423698E+03  0.22061877489E+03  0.00000000000E+00 0. -1.
        -14    1    3    3    0    0  0.76929247589E+01 -0.10357642062E+02  0.28607208002E+01  0.13215353341E+02  0.00000000000E+00 0.  1.
        -11    1    4    4    0    0  0.30767593040E+02  0.88782228943E+01  0.35804177334E+02  0.48035473744E+02  0.00000000000E+00 0. -1.
         11    1    4    4    0    0 -0.28605468588E+01  0.57044308215E+02 -0.31826352955E+02  0.65384650878E+02  0.00000000000E+00 0.  1.
          2    1    1    2  501    0 -0.17683679884E+02 -0.13083998194E+03 -0.11576828661E+03  0.17559643958E+03  0.00000000000E+00 0. -1.
<scales pt_clust_5="13000.00000" pt_clust_6="13000.00000" pt_clust_7="13000.00000" pt_clust_8="13000.00000" pt_clust_9="87.33772"></scales>
<clustering>
<clus scale="   80.524">  5  6 -1 -1</clus>
<clus scale="   87.885">  7  8 -1 -1</clus>
<clus scale="  103.937">  2  5  1 -1</clus>
<clus scale="   87.338">  1  9  2 -1</clus>
<clus scale="   87.338">  1  5  2 -1</clus>
</clustering>
</event>
<event>
 9    1  0.6345107E-005  0.1248245E+03  0.7546771E-02  0.1255469E+00
          3   -1    0    0  502    0 -0.00000000000E+00  0.00000000000E+00  0.37007117910E+02  0.37007117910E+02  0.00000000000E+00 0. -1.
         21   -1    0    0  501  502  0.00000000000E+00 -0.00000000000E+00 -0.60464426049E+03  0.60464426049E+03  0.00000000000E+00 0. -1.
        -24    2    1    2    0    0 -0.23626421741E+02 -0.35284536937E+01 -0.23299873328E+03  0.24742245740E+03  0.79742115142E+02 0.  0.
         23    2    1    2    0    0 -0.71977863945E+01 -0.77180351381E+02 -0.19907641232E+03  0.23347725522E+03  0.94189150097E+02 0.  0.
         11    1    3    3    0    0  0.26196489746E+02 -0.61588157732E+01 -0.13268373673E+03  0.13538523213E+03  0.00000000000E+00 0. -1.
        -12    1    3    3    0    0 -0.49822911487E+02  0.26303620796E+01 -0.10031499655E+03  0.11203722528E+03  0.00000000000E+00 0.  1.
        -13    1    4    4    0    0 -0.49357639448E+02 -0.35973247810E+02 -0.80426676916E+02  0.10098862059E+03  0.00000000000E+00 0. -1.
         13    1    4    4    0    0  0.42159853054E+02 -0.41207103571E+02 -0.11864973540E+03  0.13248863463E+03  0.00000000000E+00 0.  1.
          4    1    1    2  501    0  0.30824208135E+02  0.80708805075E+02 -0.13556199698E+03  0.16075166577E+03  0.00000000000E+00 0. -1.
<scales pt_clust_5="13000.00000" pt_clust_6="13000.00000" pt_clust_7="13000.00000" pt_clust_8="13000.00000" pt_clust_9="81.91194"></scales>
<clustering>
<clus scale="   79.742">  5  6 -1 -1</clus>
<clus scale="   83.243">  1  5  2 -1</clus>
<clus scale="   81.912">  2  9  1 -1</clus>
<clus scale="   94.189">  7  8 -1 -1</clus>
<clus scale="   81.912">  2  5  1 -1</clus>
</clustering>
</event>
<event>
 9    1  0.6345107E-005  0.5590905E+03  0.7546771E-02  0.9994115E-01
         -2   -1    0    0    0  501 -0.00000000000E+00  0.00000000000E+00  0.46429284221E+03  0.46429284221E+03  0.00000000000E+00 0.  1.
         21   -1    0    0  501  502  0.00000000000E+00 -0.00000000000E+00 -0.91883602532E+03  0.91883602532E+03  0.00000000000E+00 0.  1.
        -24    2    1    2    0    0 -0.68140721049E+02  0.11559817011E+03  0.12247587929E+02  0.15586552339E+03  0.78345154119E+02 0.  0.
         23    2    1    2    0    0 -0.18584854094E+03  0.34172026247E+03  0.14247053376E+03  0.42423779566E+03  0.91473691932E+02 0.  0.
         13    1    3    3    0    0 -0.32579603855E+02  0.87380291233E+02 -0.25661000555E+02  0.96722452579E+02  0.00000000000E+00 0. -1.
        -14    1    3    3    0    0 -0.35561117194E+02  0.28217878881E+02  0.37908588484E+02  0.59143070815E+02  0.00000000000E+00 0.  1.
        -13    1    4    4    0    0 -0.41194049114E+02  0.58987231274E+02  0.65858671737E+02  0.97538750139E+02  0.00000000000E+00 0. -1.
         13    1    4    4    0    0 -0.14465449183E+03  0.28273303120E+03  0.76611862027E+02  0.32669904552E+03  0.00000000000E+00 0.  1.
         -1    1    1    2    0  502  0.25398926199E+03 -0.45731843259E+03 -0.60926130480E+03  0.80302554848E+03  0.00000000000E+00 0.  1.
<scales pt_clust_5="13000.00000" pt_clust_6="13000.00000" pt_clust_7="13000.00000" pt_clust_8="13000.00000" pt_clust_9="523.11633"></scales>
<clustering>
<clus scale="   78.345">  5  6 -1 -1</clus>
<clus scale="   91.474">  7  8 -1 -1</clus>
<clus scale="   96.458">  5  7 -1 -1</clus>
<clus scale="  523.116">  2  9  1 -1</clus>
<clus scale="  523.116">  2  5  1 -1</clus>
</clustering>
</event>
<event>
 9    1  0.6345107E-005  0.9785290E+02  0.7546771E-02  0.1291846E+00
          1   -1    0    0  502    0 -0.00000000000E+00  0.00000000000E+00  0.49972605462E+03  0.49972605462E+03  0.00000000000E+00 0. -1.
         21   -1    0    0  501  502  0.00000000000E+00 -0.00000000000E+00 -0.32430824791E+02  0.32430824791E+02  0.00000000000E+00 0. -1.
         23    2    1    2    0    0 -0.31292471449E+02  0.22508161122E+02  0.27893806241E+03  0.29675981189E+03  0.93670204448E+02 0.  0.
        -24    2    1    2    0    0  0.22605447110E+02  0.55562532254E+01  0.18796762132E+03  0.20601633420E+03  0.81049522527E+02 0.  0.
         11    1    4    4    0    0 -0.14072161766E+02  0.28119306645E+02  0.34759649638E+02  0.46871679999E+02  0.00000000000E+00 0. -1.
        -12    1    4    4    0    0  0.36677608876E+02 -0.22563053419E+02  0.15320797169E+03  0.15914465420E+03  0.00000000000E+00 0.  1.
        -11    1    3    3    0    0 -0.40959002412E+02 -0.26972996760E+02  0.16570310605E+03  0.17280828043E+03  0.00000000000E+00 0. -1.
         11    1    3    3    0    0  0.96665309631E+01  0.49481157881E+02  0.11323495637E+03  0.12395153145E+03  0.00000000000E+00 0.  1.
          2    1    1    2  501    0  0.86870243386E+01 -0.28064414347E+02  0.38954608912E+00  0.29380733324E+02  0.00000000000E+00 0. -1.
<scales pt_clust_5="13000.00000" pt_clust_6="13000.00000" pt_clust_7="13000.00000" pt_clust_8="13000.00000" pt_clust_9="29.37815"></scales>
<clustering>
<clus scale="   29.378">  2  9  1 -1</clus>
<clus scale="   81.050">  5  6 -1 -1</clus>
<clus scale="   85.849">  2  5  1 -1</clus>
<clus scale="   93.670">  7  8 -1 -1</clus>
<clus scale="   29.378">  2  5  1 -1</clus>
</clustering>
</event>
<event>
 9    1  0.6345107E-005  0.9975124E+02  0.7546771E-02  0.1286797E+00
         21   -1    0    0  501  502  0.00000000000E+00  0.00000000000E+00  0.70080211983E+02  0.70080211983E+02  0.00000000000E+00 0.  1.
         -4   -1    0    0    0  501 -0.00000000000E+00 -0.00000000000E+00 -0.27103882951E+03  0.27103882951E+03  0.00000000000E+00 0.  1.
         23    2    1    2    0    0 -0.34937311112E+02 -0.23200261662E+02 -0.14879206894E+03  0.17951663724E+03  0.91259385375E+02 0.  0.
        -24    2    1    2    0    0  0.50431431674E+02 -0.28493681015E+02 -0.26495593960E+02  0.10184180357E+03  0.79463937088E+02 0.  0.
         11    1    4    4    0    0  0.42824028435E+02  0.20194623142E+02 -0.22442316501E+02  0.52396352785E+02  0.00000000000E+00 0. -1.
        -12    1    4    4    0    0  0.76074032395E+01 -0.48688304156E+02 -0.40532774590E+01  0.49445450790E+02  0.00000000000E+00 0.  1.
        -11    1    3    3    0    0  0.25818913309E+02  0.13249634551E+02 -0.52214067758E+02  0.59736738880E+02  0.00000000000E+00 0.  1.
         11    1    3    3    0    0 -0.60756224421E+02 -0.36449896213E+02 -0.96578001179E+02  0.11977989836E+03  0.00000000000E+00 0. -1.
         -3    1    1    2    0  502 -0.15494120563E+02  0.51693942677E+02 -0.25670954628E+02  0.59760600674E+02  0.00000000000E+00 0.  1.
<scales pt_clust_5="13000.00000" pt_clust_6="13000.00000" pt_clust_7="13000.00000" pt_clust_8="13000.00000" pt_clust_9="53.96602"></scales>
<clustering>
<clus scale="   53.966">  1  9  2 -1</clus>
<clus scale="   79.464">  5  6 -1 -1</clus>
<clus scale="   89.087">  1  5  2 -1</clus>
<clus scale="   91.259">  7  8 -1 -1</clus>
<clus scale="   53.966">  1  5  2 -1</clus>
</clustering>
</event>
<event>
 9    1  0.6345107E-005  0.1221327E+03  0.7546771E-02  0.1242413E+00
         21   -1    0    0  501  502  0.00000000000E+00  0.00000000000E+00  0.94742739748E+02  0.94742739748E+02  0.00000000000E+00 0. -1.
          1   -1    0    0  502    0 -0.00000000000E+00 -0.00000000000E+00 -0.48527524908E+03  0.48527524908E+03  0.00000000000E+00 0. -1.
         23    2    1    2    0    0 -0.59138536063E+01  0.82024574339E+02 -0.37798288729E+03  0.39713107637E+03  0.89883392665E+02 0.  0.
        -24    2    1    2    0    0 -0.17864872047E+02 -0.85230428633E+02 -0.57600980548E+02  0.13184447719E+03  0.80509090086E+02 0.  0.
         11    1    4    4    0    0 -0.23806215544E+02 -0.39462851206E+02 -0.70224842950E+02  0.83997506458E+02  0.00000000000E+00 0. -1.
        -12    1    4    4    0    0  0.59413434967E+01 -0.45767577426E+02  0.12623862402E+02  0.47846970729E+02  0.00000000000E+00 0.  1.
        -11    1    3    3    0    0 -0.14481008261E+02  0.19421341123E+02 -0.14577890206E+02  0.28273715252E+02  0.00000000000E+00 0.  1.
         11    1    3    3    0    0  0.85671546544E+01  0.62603233217E+02 -0.36340499708E+03  0.36885736112E+03  0.00000000000E+00 0. -1.
          2    1    1    2  501    0  0.23778725653E+02  0.32058542933E+01  0.45051358503E+02  0.51042435271E+02  0.00000000000E+00 0. -1.
<scales pt_clust_5="13000.00000" pt_clust_6="13000.00000" pt_clust_7="13000.00000" pt_clust_8="13000.00000" pt_clust_9="23.99386"></scales>
<clustering>
<clus scale="   23.994">  1  9  2 -1</clus>
<clus scale="   80.509">  5  6 -1 -1</clus>
<clus scale="   89.883">  7  8 -1 -1</clus>
<clus scale="  115.408">  1  5  2 -1</clus>
<clus scale="   23.994">  1  5  2 -1</clus>
</clustering>
</event>
<event>
 9    1  0.6345107E-005  0.1420601E+03  0.7546771E-02  0.1217698E+00
         -2   -1    0    0    0  501 -0.00000000000E+00  0.00000000000E+00  0.16395754582E+03  0.16395754582E+03  0.00000000000E+00 0.  1.
         21   -1    0    0  501  502  0.00000000000E+00 -0.00000000000E+00 -0.29654423542E+03  0.29654423542E+03  0.00000000000E+00 0.  1.
        -24    2    1    2    0    0  0.61828164130E+02  0.66310316807E+02  0.49942797478E+02  0.13198079620E+03  0.81883255621E+02 0.  0.
         23    2    1    2    0    0  0.62268509016E+02 -0.90091146701E+02 -0.12409139713E+03  0.18930703993E+03  0.91895041193E+02 0.  0.
         11    1    3    3    0    0  0.22086279333E+02 -0.16183338844E+02  0.24999565751E+02  0.37076710731E+02  0.00000000000E+00 0. -1.
        -12    1    3    3    0    0  0.39741884796E+02  0.82493655651E+02  0.24943231727E+02  0.94904085469E+02  0.00000000000E+00 0.  1.
        -13    1    4    4    0    0 -0.98887515163E+01 -0.22964589897E+02 -0.75290376772E+02  0.79333477361E+02  0.00000000000E+00 0.  1.
         13    1    4    4    0    0  0.72157260532E+02 -0.67126556804E+02 -0.48801020359E+02  0.10997356257E+03  0.00000000000E+00 0. -1.
         -1    1    1    2    0  502 -0.12409667315E+03  0.23780829894E+02 -0.58438089942E+02  0.13921394511E+03  0.00000000000E+00 0.  1.
<scales pt_clust_5="13000.00000" pt_clust_6="13000.00000" pt_clust_7="13000.00000" pt_clust_8="13000.00000" pt_clust_9="108.33466"></scales>
<clustering>
<clus scale="   81.883">  5  6 -1 -1</clus>
<clus scale="   91.895">  7  8 -1 -1</clus>
<clus scale="  122.166">  1  5  2 -1</clus>
<clus scale="  108.335">  2  9  1 -1</clus>
<clus scale="  108.335">  2  5  1 -1</clus>
</clustering>
</event>
<event>
 9    1  0.6345107E-005  0.1085087E+03  0.7546771E-02  0.1267722E+00
         21   -1    0    0  501  502  0.00000000000E+00  0.00000000000E+00  0.74398229382E+02  0.74398229382E+02  0.00000000000E+00 0. -1.
          3   -1    0    0  502    0 -0.00000000000E+00 -0.00000000000E+00 -0.50718421447E+03  0.50718421447E+03  0.00000000000E+00 0. -1.
        -24    2    1    2    0    0 -0.60302562613E+02  0.27712226609E+02 -0.40719392483E+03  0.42021588821E+03  0.79813117498E+02 0.  0.
         23    2    1    2    0    0  0.17052305894E+00 -0.38045348753E+02 -0.17333554602E+02  0.99796769958E+02  0.90617137116E+02 0.  0.
         13    1    3    3    0    0 -0.72874920160E+02  0.54628913136E+01 -0.35036271815E+03  0.35790310342E+03  0.00000000000E+00 0. -1.
        -14    1    3    3    0    0  0.12572357547E+02  0.22249335295E+02 -0.56831206682E+02  0.62312784791E+02  0.00000000000E+00 0.  1.
        -11    1    4    4    0    0  0.40851165398E+02 -0.32843843577E+02 -0.25001627297E+02  0.58074238203E+02  0.00000000000E+00 0.  1.
         11    1    4    4    0    0 -0.40680642340E+02 -0.52015051755E+01  0.76680726950E+01  0.41722531756E+02  0.00000000000E+00 0. -1.
          4    1    1    2  501    0  0.60132039554E+02  0.10333122144E+02 -0.82585056625E+01  0.61569785690E+02  0.00000000000E+00 0. -1.
<scales pt_clust_5="13000.00000" pt_clust_6="13000.00000" pt_clust_7="13000.00000" pt_clust_8="13000.00000" pt_clust_9="61.01341"></scales>
<clustering>
<clus scale="   61.013">  1  9  2 -1</clus>
<clus scale="   79.813">  5  6 -1 -1</clus>
<clus scale="   90.617">  7  8 -1 -1</clus>
<clus scale="   99.663">  2  5  1 -1</clus>
<clus scale="   61.013">  1  5  2 -1</clus>
</clustering>
</event>
<event>
 9    1  0.6345107E-005  0.2586585E+03  0.7546771E-02  0.1151590E+00
         21   -1    0    0  501  502  0.00000000000E+00  0.00000000000E+00  0.11897621588E+03  0.11897621588E+03  0.00000000000E+00 0. -1.
          1   -1    0    0  502    0 -0.00000000000E+00 -0.00000000000E+00 -0.75765664151E+03  0.75765664151E+03  0.00000000000E+00 0. -1.
        -24    2    1    2    0    0 -0.32016514551E+02 -0.20846370549E+02 -0.78781826283E+02  0.11848127069E+03  0.79822346390E+02 0.  0.
         23    2    1    2    0    0 -0.22101616863E+03  0.39501557246E+02 -0.36537125366E+03  0.43844165102E+03  0.91249156280E+02 0.  0.
         13    1    3    3    0    0 -0.48512974189E+02 -0.38685052525E+02 -0.67521541890E+02  0.91701693402E+02  0.00000000000E+00 0. -1.
        -14    1    3    3    0    0  0.16496459638E+02  0.17838681976E+02 -0.11260284393E+02  0.26779577290E+02  0.00000000000E+00 0.  1.
        -11    1    4    4    0    0 -0.52554258023E+02  0.38188058937E+02 -0.54247058404E+02  0.84634633733E+02  0.00000000000E+00 0.  1.
         11    1    4    4    0    0 -0.16846191061E+03  0.13134983089E+01 -0.31112419526E+03  0.35380701728E+03  0.00000000000E+00 0. -1.
          2    1    1    2  501    0  0.25303268319E+03 -0.18655186696E+02 -0.19452734569E+03  0.31970993568E+03  0.00000000000E+00 0. -1.
<scales pt_clust_5="13000.00000" pt_clust_6="13000.00000" pt_clust_7="13000.00000" pt_clust_8="13000.00000" pt_clust_9="242.02852"></scales>
<clustering>
<clus scale="   79.822">  5  6 -1 -1</clus>
<clus scale="   88.494">  2  5  1 -1</clus>
<clus scale="   91.249">  7  8 -1 -1</clus>
<clus scale="  242.029">  1  9  2 -1</clus>
<clus scale="  242.029">  1  5  2 -1</clus>
</clustering>
</event>
<event>
 9    1  0.1221444E-004  0.2081380E+03  0.7546771E-02  0.1166823E+00
          1   -1    0    0  502    0 -0.00000000000E+00  0.00000000000E+00  0.50913343189E+03  0.50913343189E+03  0.00000000000E+00 0. -1.
         21   -1    0    0  501  502  0.00000000000E+00 -0.00000000000E+00 -0.45670480929E+03  0.45670480929E+03  0.00000000000E+00 0. -1.
         23    2    1    2    0    0  0.55031418936E+02 -0.53422786307E+02  0.39758634702E+02  0.12553569310E+03  0.91082435413E+02 0.  0.
        -24    2    1    2    0    0 -0.19568454882E+03 -0.12941716824E+01 -0.37155723632E+03  0.42749774159E+03  0.80033878337E+02 0.  0.
         13    1    4    4    0    0 -0.13863531087E+03 -0.19172549104E+02 -0.18749440237E+03  0.23396898722E+03  0.00000000000E+00 0. -1.
        -14    1    4    4    0    0 -0.57049237942E+02  0.17878377422E+02 -0.18406283394E+03  0.19352875437E+03  0.00000000000E+00 0.  1.
        -13    1    3    3    0    0  0.51786886309E+02  0.23208937875E+01 -0.75060294325E+01  0.52379467536E+02  0.00000000000E+00 0.  1.
         13    1    3    3    0    0  0.32445326274E+01 -0.55743680094E+02  0.47264664134E+02  0.73156225560E+02  0.00000000000E+00 0. -1.
          2    1    1    2  501    0  0.14065312988E+03  0.54716957989E+02  0.38422722422E+03  0.41280480650E+03  0.00000000000E+00 0. -1.
<scales pt_clust_5="13000.00000" pt_clust_6="13000.00000" pt_clust_7="13000.00000" pt_clust_8="13000.00000" pt_clust_9="192.13543"></scales>
<clustering>
<clus scale="   80.034">  5  6 -1 -1</clus>
<clus scale="   91.082">  7  8 -1 -1</clus>
<clus scale="  119.073">  1  7  2 -1</clus>
<clus scale="  192.135">  2  9  1 -1</clus>
<clus scale="  192.135">  2  5  1 -1</clus>
</clustering>
</event>
<event>
 9    1  0.6345107E-005  0.1228927E+03  0.7546771E-02  0.1252044E+00
         21   -1    0    0  501  502  0.00000000000E+00  0.00000000000E+00  0.24313806415E+03  0.24313806415E+03  0.00000000000E+00 0. -1.
          3   -1    0    0  502    0 -0.00000000000E+00 -0.00000000000E+00 -0.15751826758E+03  0.15751826758E+03  0.00000000000E+00 0. -1.
        -24    2    1    2    0    0 -0.24975930345E+01 -0.41641946270E+02 -0.51140376480E+02  0.10645760066E+03  0.83531987712E+02 0.  0.
         23    2    1    2    0    0  0.96167247179E+02  0.15170526745E+02 -0.28085134201E+01  0.12403951622E+03  0.76809045845E+02 0.  0.
         13    1    3    3    0    0 -0.41881023071E+01  0.24000185954E+02 -0.27323843028E+02  0.36607943463E+02  0.00000000000E+00 0. -1.
        -14    1    3    3    0    0  0.16905092726E+01 -0.65642132224E+02 -0.23816533451E+02  0.69849657195E+02  0.00000000000E+00 0.  1.
        -13    1    4    4    0    0  0.28592176073E+02 -0.30106368729E+02  0.70111890957E+01  0.42107751580E+02  0.00000000000E+00 0.  1.
         13    1    4    4    0    0  0.67575071107E+02  0.45276895474E+02 -0.98197025158E+01  0.81931764636E+02  0.00000000000E+00 0. -1.
          4    1    1    2  501    0 -0.93669654145E+02  0.26471419525E+02  0.13956868647E+03  0.17015921486E+03  0.00000000000E+00 0. -1.
<scales pt_clust_5="13000.00000" pt_clust_6="13000.00000" pt_clust_7="13000.00000" pt_clust_8="13000.00000" pt_clust_9="95.93221"></scales>
<clustering>
<clus scale="   76.809">  7  8 -1 -1</clus>
<clus scale="   83.532">  5  6 -1 -1</clus>
<clus scale="   93.370">  2  5  1 -1</clus>
<clus scale="   95.932">  1  9  2 -1</clus>
<clus scale="   95.932">  1  5  2 -1</clus>
</clustering>
</event>
<event>
 9    1  0.6345107E-005  0.1254781E+03  0.7546771E-02  0.1242987E+00
         21   -1    0    0  501  502  0.00000000000E+00  0.00000000000E+00  0.18697047921E+03  0.18697047921E+03  0.00000000000E+00 0.  1.
         -2   -1    0    0    0  501 -0.00000000000E+00 -0.00000000000E+00 -0.17956481667E+03  0.17956481667E+03  0.00000000000E+00 0.  1.
        -24    2    1    2    0    0  0.28008779664E+02  0.67188738412E+02 -0.77319250889E+02  0.13410720744E+03  0.81900294398E+02 0.  0.
         23    2    1    2    0    0 -0.61703503837E+01 -0.55292573403E+02 -0.22438851584E+02  0.12241668782E+03  0.10670989410E+03 0.  0.
         13    1    3    3    0    0 -0.27273948729E+02  0.34110156715E+02 -0.20662631548E+02  0.48314753574E+02  0.00000000000E+00 0. -1.
        -14    1    3    3    0    0  0.55282728394E+02  0.33078581697E+02 -0.56656619341E+02  0.85792453869E+02  0.00000000000E+00 0.  1.
        -13    1    4    4    0    0 -0.19382567678E+02 -0.80514818903E+02 -0.36687174550E+02  0.90577418650E+02  0.00000000000E+00 0. -1.
         13    1    4    4    0    0  0.13212217295E+02  0.25222245501E+02  0.14248322966E+02  0.31839269170E+02  0.00000000000E+00 0.  1.
         -1    1    1    2    0  502 -0.21838429281E+02 -0.11896165009E+02  0.10716376501E+03  0.11001140062E+03  0.00000000000E+00 0.  1.
<scales pt_clust_5="13000.00000" pt_clust_6="13000.00000" pt_clust_7="13000.00000" pt_clust_8="13000.00000" pt_clust_9="24.86837"></scales>
<clustering>
<clus scale="   24.868">  1  9  2 -1</clus>
<clus scale="   81.900">  5  6 -1 -1</clus>
<clus scale="  105.192">  2  5  1 -1</clus>
<clus scale="  106.710">  7  8 -1 -1</clus>
<clus scale="   24.868">  1  5  2 -1</clus>
</clustering>
</event>
<event>
 9    1  0.6345107E-005  0.2435928E+03  0.7546771E-02  0.1145944E+00
          1   -1    0    0  502    0 -0.00000000000E+00  0.00000000000E+00  0.12739330439E+04  0.12739330439E+04  0.00000000000E+00 0. -1.
         21   -1    0    0  501  502  0.00000000000E+00 -0.00000000000E+00 -0.82086794957E+02  0.82086794957E+02  0.00000000000E+00 0.  1.
         23    2    1    2    0    0  0.32608728903E+02  0.68605498372E+02  0.81593818193E+02  0.14606527206E+03  0.94379388254E+02 0.  0.
        -24    2    1    2    0    0  0.15574382374E+03 -0.18881191338E+03  0.60984622799E+03  0.66192844145E+03  0.79566089145E+02 0.  0.
         13    1    4    4    0    0  0.26890305095E+02 -0.92773160851E+00  0.39794019250E+02  0.48036581499E+02  0.00000000000E+00 0. -1.
        -14    1    4    4    0    0  0.12885351865E+03 -0.18788418177E+03  0.57005220874E+03  0.61389185995E+03  0.00000000000E+00 0.  1.
        -11    1    3    3    0    0  0.65525297942E+02  0.36461296145E+02  0.46944910168E+02  0.88469290591E+02  0.00000000000E+00 0. -1.
         11    1    3    3    0    0 -0.32916569039E+02  0.32144202227E+02  0.34648908025E+02  0.57595981470E+02  0.00000000000E+00 0.  1.
          2    1    1    2  501    0 -0.18835255264E+03  0.12020641501E+03  0.50040620274E+03  0.54802612532E+03  0.00000000000E+00 0. -1.
<scales pt_clust_5="13000.00000" pt_clust_6="13000.00000" pt_clust_7="13000.00000" pt_clust_8="13000.00000" pt_clust_9="230.23184"></scales>
<clustering>
<clus scale="   79.566">  5  6 -1 -1</clus>
<clus scale="   94.379">  7  8 -1 -1</clus>
<clus scale="  121.151">  1  7  2 -1</clus>
<clus scale="  230.232">  2  9  1 -1</clus>
<clus scale="  230.232">  2  5  1 -1</clus>
</clustering>
</event>
<event>
 9    1  0.6345107E-005  0.1261474E+03  0.7546771E-02  0.1240758E+00
         -2   -1    0    0    0  501 -0.00000000000E+00  0.00000000000E+00  0.23999711434E+03  0.23999711434E+03  0.00000000000E+00 0.  1.
         21   -1    0    0  501  502  0.00000000000E+00 -0.00000000000E+00 -0.65131445109E+03  0.65131445109E+03  0.00000000000E+00 0.  1.
         23    2    1    2    0    0 -0.45931593179E+02 -0.36460203942E+02  0.19795402759E+03  0.22564645774E+03  0.91057504522E+02 0.  0.
        -24    2    1    2    0    0 -0.71975352976E+02  0.58939379502E+02 -0.44945375143E+03  0.46579257160E+03  0.79370921576E+02 0.  0.
         13    1    4    4    0    0 -0.24449462240E+01  0.21936032946E+02 -0.22075011793E+02  0.31216557291E+02  0.00000000000E+00 0. -1.
        -14    1    4    4    0    0 -0.69530406752E+02  0.37003346556E+02 -0.42737873963E+03  0.43457601431E+03  0.00000000000E+00 0.  1.
        -13    1    3    3    0    0 -0.20716528778E+02 -0.54401408397E+02  0.18148104578E+03  0.19058871366E+03  0.00000000000E+00 0.  1.
         13    1    3    3    0    0 -0.25215064401E+02  0.17941204455E+02  0.16472981811E+02  0.35057744078E+02  0.00000000000E+00 0. -1.
         -1    1    1    2    0  502  0.11790694615E+03 -0.22479175560E+02 -0.15981761291E+03  0.19987253609E+03  0.00000000000E+00 0.  1.
<scales pt_clust_5="13000.00000" pt_clust_6="13000.00000" pt_clust_7="13000.00000" pt_clust_8="13000.00000" pt_clust_9="98.04806"></scales>
<clustering>
<clus scale="   79.371">  5  6 -1 -1</clus>
<clus scale="   91.058">  7  8 -1 -1</clus>
<clus scale="  108.308">  1  7  2 -1</clus>
<clus scale="   98.048">  2  9  1 -1</clus>
<clus scale="   98.048">  2  5  1 -1</clus>
</clustering>
</event>
<event>
 9    1  0.6345107E-005  0.9595480E+02  0.7546771E-02  0.1293333E+00
         21   -1    0    0  501  502  0.00000000000E+00  0.00000000000E+00  0.35033491092E+02  0.35033491092E+02  0.00000000000E+00 0. -1.
          1   -1    0    0  502    0 -0.00000000000E+00 -0.00000000000E+00 -0.54421256439E+03  0.54421256439E+03  0.00000000000E+00 0. -1.
         23    2    1    2    0    0  0.49589667884E+01 -0.28929176639E+02 -0.32839366452E+03  0.34120038731E+03  0.87828337055E+02 0.  0.
        -24    2    1    2    0    0 -0.16266778281E+02  0.70452501487E+02 -0.10192821625E+03  0.14820965134E+03  0.79677954545E+02 0.  0.
         11    1    4    4    0    0  0.40221568051E+01  0.75189367312E+02 -0.45306911763E+02  0.87876816941E+02  0.00000000000E+00 0. -1.
        -12    1    4    4    0    0 -0.20288935086E+02 -0.47368658246E+01 -0.56621304482E+02  0.60332834394E+02  0.00000000000E+00 0.  1.
        -11    1    3    3    0    0  0.30043603919E+02 -0.50972305671E+02 -0.20495688269E+03  0.21332631774E+03  0.00000000000E+00 0. -1.
         11    1    3    3    0    0 -0.25084637130E+02  0.22043129032E+02 -0.12343678184E+03  0.12787406957E+03  0.00000000000E+00 0.  1.
          2    1    1    2  501    0  0.11307811493E+02 -0.41523324848E+02 -0.78857192530E+02  0.89836016836E+02  0.00000000000E+00 0. -1.
<scales pt_clust_5="13000.00000" pt_clust_6="13000.00000" pt_clust_7="13000.00000" pt_clust_8="13000.00000" pt_clust_9="43.03549"></scales>
<clustering>
<clus scale="   43.035">  1  9  2 -1</clus>
<clus scale="   79.678">  5  6 -1 -1</clus>
<clus scale="   87.828">  7  8 -1 -1</clus>
<clus scale="   88.556">  1  5  2 -1</clus>
<clus scale="   43.035">  1  5  2 -1</clus>
</clustering>
</event>
<event>
 9    1  0.6345107E-005  0.9779597E+02  0.7546771E-02  0.1291774E+00
         21   -1    0    0  501  502  0.00000000000E+00  0.00000000000E+00  0.48653471416E+02  0.48653471416E+02  0.00000000000E+00 0.  1.
          3   -1    0    0  502    0 -0.00000000000E+00 -0.00000000000E+00 -0.30298296270E+03  0.30298296270E+03  0.00000000000E+00 0. -1.
         23    2    1    2    0    0  0.12301339233E+02 -0.32438466633E+02 -0.20693221333E+03  0.22987457745E+03  0.93903159583E+02 0.  0.
        -24    2    1    2    0    0 -0.64818567444E+00  0.13381882892E+02 -0.53574864584E+02  0.98586180885E+02  0.81666847692E+02 0.  0.
         11    1    4    4    0    0  0.37087811937E+02 -0.88790571426E+01 -0.18104732131E+02  0.42215219715E+02  0.00000000000E+00 0. -1.
        -12    1    4    4    0    0 -0.37735997612E+02  0.22260940035E+02 -0.35470132453E+02  0.56370961170E+02  0.00000000000E+00 0.  1.
        -11    1    3    3    0    0  0.33131311703E+02  0.98864984725E+01 -0.27019505452E+02  0.43880295602E+02  0.00000000000E+00 0. -1.
         11    1    3    3    0    0 -0.20829972470E+02 -0.42324965105E+02 -0.17991270787E+03  0.18599428185E+03  0.00000000000E+00 0.  1.
          4    1    1    2  501    0 -0.11653153559E+02  0.19056583740E+02  0.61775866231E+01  0.23175675787E+02  0.00000000000E+00 0. -1.
<scales pt_clust_5="13000.00000" pt_clust_6="13000.00000" pt_clust_7="13000.00000" pt_clust_8="13000.00000" pt_clust_9="22.33717"></scales>
<clustering>
<clus scale="   22.337">  1  9  2 -1</clus>
<clus scale="   81.667">  5  6 -1 -1</clus>
<clus scale="   86.115">  1  5  2 -1</clus>
<clus scale="   93.903">  7  8 -1 -1</clus>
<clus scale="   22.337">  1  5  2 -1</clus>
</clustering>
</event>
<event>
 9    1  0.6345107E-005  0.8570590E+02  0.7546771E-02  0.1316461E+00
         -4   -1    0    0    0  501 -0.00000000000E+00  0.00000000000E+00  0.14669215333E+03  0.14669215333E+03  0.00000000000E+00 0.  1.
         21   -1    0    0  501  502  0.00000000000E+00 -0.00000000000E+00 -0.29307968892E+03  0.29307968892E+03  0.00000000000E+00 0.  1.
        -24    2    1    2    0    0  0.79660144408E+01  0.68816120463E+01  0.30970168976E+02  0.87163067618E+02  0.80792543095E+02 0.  0.
         23    2    1    2    0    0 -0.27043714235E+02  0.55687929411E+02 -0.23998133998E+03  0.26205146758E+03  0.85131781155E+02 0.  0.
         13    1    3    3    0    0  0.12090450106E+02  0.42082997069E+02  0.69138422666E+01  0.44327856264E+02  0.00000000000E+00 0. -1.
        -14    1    3    3    0    0 -0.41244356655E+01 -0.35201385022E+02  0.24056326709E+02  0.42835211355E+02  0.00000000000E+00 0.  1.
        -13    1    4    4    0    0 -0.34546340215E+02 -0.11804037334E+02 -0.68658348675E+02  0.77760875525E+02  0.00000000000E+00 0. -1.
         13    1    4    4    0    0  0.75026259804E+01  0.67491966745E+02 -0.17132299131E+03  0.18429059206E+03  0.00000000000E+00 0.  1.
         -3    1    1    2    0  502  0.19077699794E+02 -0.62569541458E+02  0.62623635414E+02  0.90557307050E+02  0.00000000000E+00 0.  1.
<scales pt_clust_5="13000.00000" pt_clust_6="13000.00000" pt_clust_7="13000.00000" pt_clust_8="13000.00000" pt_clust_9="65.41338"></scales>
<clustering>
<clus scale="   65.413">  2  9  1 -1</clus>
<clus scale="   80.793">  5  6 -1 -1</clus>
<clus scale="   81.397">  1  5  2 -1</clus>
<clus scale="   85.132">  7  8 -1 -1</clus>
<clus scale="   65.413">  2  5  1 -1</clus>
</clustering>
</event>
<event>
 9    1  0.6345107E-005  0.1487854E+03  0.7546771E-02  0.1203377E+00
         21   -1    0    0  501  502  0.00000000000E+00  0.00000000000E+00  0.56557711192E+02  0.56557711192E+02  0.00000000000E+00 0.  1.
         -2   -1    0    0    0  501 -0.00000000000E+00 -0.00000000000E+00 -0.53335314554E+03  0.53335314554E+03  0.00000000000E+00 0.  1.
         23    2    1    2    0    0  0.84941134078E+02  0.56176469953E+02 -0.14970353051E+03  0.20130116450E+03  0.87978518684E+02 0.  0.
        -24    2    1    2    0    0 -0.11866459803E+03 -0.73591059521E+02 -0.20460916392E+03  0.26038114031E+03  0.80227784457E+02 0.  0.
         13    1    4    4    0    0 -0.24713931775E+02  0.13357889383E+02 -0.15692380870E+02  0.32178602361E+02  0.00000000000E+00 0. -1.
        -14    1    4    4    0    0 -0.93950666250E+02 -0.86948948904E+02 -0.18891678306E+03  0.22820253794E+03  0.00000000000E+00 0.  1.
        -11    1    3    3    0    0  0.71701587698E+02  0.72770726808E+02 -0.84021071310E+02  0.13227334116E+03  0.00000000000E+00 0.  1.
         11    1    3    3    0    0  0.13239546380E+02 -0.16594256855E+02 -0.65682459198E+02  0.69027823341E+02  0.00000000000E+00 0. -1.
         -1    1    1    2    0  502  0.33723463948E+02  0.17414589568E+02 -0.12248273991E+03  0.12822855192E+03  0.00000000000E+00 0.  1.
<scales pt_clust_5="13000.00000" pt_clust_6="13000.00000" pt_clust_7="13000.00000" pt_clust_8="13000.00000" pt_clust_9="37.95446"></scales>
<clustering>
<clus scale="   37.954">  1  9  2 -1</clus>
<clus scale="   80.228">  5  6 -1 -1</clus>
<clus scale="   87.979">  7  8 -1 -1</clus>
<clus scale="  144.338">  1  5  2 -1</clus>
<clus scale="   37.954">  1  5  2 -1</clus>
</clustering>
</event>
<event>
 9    1  0.6345107E-005  0.2829151E+03  0.7546771E-02  0.1112590E+00
         21   -1    0    0  501  502  0.00000000000E+00  0.00000000000E+00  0.29509832360E+03  0.29509832360E+03  0.00000000000E+00 0.  1.
         -4   -1    0    0    0  501 -0.00000000000E+00 -0.00000000000E+00 -0.73442484646E+03  0.73442484646E+03  0.00000000000E+00 0.  1.
         23    2    1    2    0    0 -0.10640648666E+03  0.10466254005E+03  0.12770438997E+03  0.21717047329E+03  0.92617576933E+02 0.  0.
        -24    2    1    2    0    0  0.32659839362E+03 -0.12732053690E+03 -0.33134679648E+03  0.48901871556E+03  0.80446098685E+02 0.  0.
         11    1    4    4    0    0  0.10949101781E+02 -0.24982675582E+02 -0.18410739857E+02  0.32908543741E+02  0.00000000000E+00 0. -1.
        -12    1    4    4    0    0  0.31564929184E+03 -0.10233786132E+03 -0.31293605663E+03  0.45611017182E+03  0.00000000000E+00 0.  1.
        -11    1    3    3    0    0 -0.28554958056E+02  0.32291253196E+02 -0.89686728613E+01  0.44028942247E+02  0.00000000000E+00 0.  1.
         11    1    3    3    0    0 -0.77851528608E+02  0.72371286849E+02  0.13667306283E+03  0.17314153104E+03  0.00000000000E+00 0. -1.
         -3    1    1    2    0  502 -0.22019190696E+03  0.22657996853E+02 -0.23568411634E+03  0.32333398121E+03  0.00000000000E+00 0.  1.
<scales pt_clust_5="13000.00000" pt_clust_6="13000.00000" pt_clust_7="13000.00000" pt_clust_8="13000.00000" pt_clust_9="271.23678"></scales>
<clustering>
<clus scale="   80.446">  5  6 -1 -1</clus>
<clus scale="   92.618">  7  8 -1 -1</clus>
<clus scale="  175.655">  2  7  1 -1</clus>
<clus scale="  271.237">  1  9  2 -1</clus>
<clus scale="  271.237">  1  5  2 -1</clus>
</clustering>
</event>
<event>
 9    1  0.6345107E-005  0.1275418E+03  0.7546771E-02  0.1234103E+00
         21   -1    0    0  501  502  0.00000000000E+00  0.00000000000E+00  0.44689282958E+02  0.44689282958E+02  0.00000000000E+00 0. -1.
          3   -1    0    0  502    0 -0.00000000000E+00 -0.00000000000E+00 -0.84708493010E+03  0.84708493010E+03  0.00000000000E+00 0. -1.
        -24    2    1    2    0    0  0.28911390887E+01 -0.95751657936E+02 -0.54964726676E+03  0.56373990876E+03  0.80708290721E+02 0.  0.
         23    2    1    2    0    0  0.44889174346E+02  0.56012638979E+02 -0.71727740025E+02  0.13664302912E+03  0.91509535123E+02 0.  0.
         11    1    3    3    0    0 -0.37534626826E+02 -0.62539653888E+02 -0.31776960600E+03  0.32603309497E+03  0.00000000000E+00 0. -1.
        -12    1    3    3    0    0  0.40425765914E+02 -0.33212004047E+02 -0.23187766076E+03  0.23770681379E+03  0.00000000000E+00 0.  1.
        -11    1    4    4    0    0  0.50010658979E+02 -0.76798920861E+01 -0.19903930959E+02  0.54371069712E+02  0.00000000000E+00 0. -1.
         11    1    4    4    0    0 -0.51214846333E+01  0.63692531065E+02 -0.51823809066E+02  0.82271959405E+02  0.00000000000E+00 0.  1.
          4    1    1    2  501    0 -0.47780313435E+02  0.39739018957E+02 -0.18102064036E+03  0.19139127518E+03  0.00000000000E+00 0. -1.
<scales pt_clust_5="13000.00000" pt_clust_6="13000.00000" pt_clust_7="13000.00000" pt_clust_8="13000.00000" pt_clust_9="62.14621"></scales>
<clustering>
<clus scale="   62.146">  1  9  2 -1</clus>
<clus scale="   80.708">  5  6 -1 -1</clus>
<clus scale="   91.510">  7  8 -1 -1</clus>
<clus scale="  120.028">  2  5  1 -1</clus>
<clus scale="   62.146">  1  5  2 -1</clus>
</clustering>
</event>
<event>
 9    1  0.6345107E-005  0.9182149E+02  0.7546771E-02  0.1304868E+00
         -4   -1    0    0    0  501 -0.00000000000E+00  0.00000000000E+00  0.83337384816E+02  0.83337384816E+02  0.00000000000E+00 0.  1.
         21   -1    0    0  501  502  0.00000000000E+00 -0.00000000000E+00 -0.19446746805E+03  0.19446746805E+03  0.00000000000E+00 0.  1.
        -24    2    1    2    0    0 -0.10519601964E+02 -0.12120256411E+02  0.11932949075E+02  0.83437967907E+02  0.81005781114E+02 0.  0.
         23    2    1    2    0    0  0.99171568104E+01 -0.31984692760E+02 -0.50670679856E+02  0.10959506078E+03  0.91226032356E+02 0.  0.
         11    1    3    3    0    0 -0.41269592050E+02 -0.11176562612E+02 -0.12059056052E+02  0.44424268285E+02  0.00000000000E+00 0. -1.
        -12    1    3    3    0    0  0.30749990085E+02 -0.94369379823E+00  0.23992005126E+02  0.39013699622E+02  0.00000000000E+00 0.  1.
        -11    1    4    4    0    0 -0.22255824359E+02 -0.33052094414E+02 -0.63479704611E+02  0.74949553438E+02  0.00000000000E+00 0.  1.
         11    1    4    4    0    0  0.32172981169E+02  0.10674016546E+01  0.12809024755E+02  0.34645507339E+02  0.00000000000E+00 0. -1.
         -3    1    1    2    0  502  0.60244515399E+00  0.44104949170E+02 -0.72392352454E+02  0.84771824183E+02  0.00000000000E+00 0.  1.
<scales pt_clust_5="13000.00000" pt_clust_6="13000.00000" pt_clust_7="13000.00000" pt_clust_8="13000.00000" pt_clust_9="44.10906"></scales>
<clustering>
<clus scale="   44.109">  2  9  1 -1</clus>
<clus scale="   81.006">  5  6 -1 -1</clus>
<clus scale="   81.676">  1  5  2 -1</clus>
<clus scale="   91.226">  7  8 -1 -1</clus>
<clus scale="   44.109">  2  5  1 -1</clus>
</clustering>
</event>
<event>
 9    1  0.6345107E-005  0.1021053E+03  0.7546771E-02  0.1281072E+00
          1   -1    0    0  502    0 -0.00000000000E+00  0.00000000000E+00  0.41649755532E+03  0.41649755532E+03  0.00000000000E+00 0. -1.
         21   -1    0    0  501  502  0.00000000000E+00 -0.00000000000E+00 -0.79340506387E+02  0.79340506387E+02  0.00000000000E+00 0. -1.
        -24    2    1    2    0    0  0.10422948773E+01  0.45012568999E+02  0.26059952053E+03  0.27618506851E+03  0.79616984514E+02 0.  0.
         23    2    1    2    0    0 -0.77680221999E+02 -0.47014147034E+02  0.58255101281E+02  0.14083448631E+03  0.90532584178E+02 0.  0.
         13    1    3    3    0    0 -0.27532817178E+02  0.40750957994E+02  0.22512465992E+03  0.23043395823E+03  0.00000000000E+00 0. -1.
        -14    1    3    3    0    0  0.28575112055E+02  0.42616110046E+01  0.35474860607E+02  0.45751110286E+02  0.00000000000E+00 0.  1.
        -11    1    4    4    0    0 -0.90292701983E+02 -0.12256019979E+02  0.38599006978E+02  0.98958907617E+02  0.00000000000E+00 0. -1.
         11    1    4    4    0    0  0.12612479983E+02 -0.34758127055E+02  0.19656094303E+02  0.41875578694E+02  0.00000000000E+00 0.  1.
          2    1    1    2  501    0  0.76637927122E+02  0.20015780352E+01  0.18302427118E+02  0.78818506879E+02  0.00000000000E+00 0. -1.
<scales pt_clust_5="13000.00000" pt_clust_6="13000.00000" pt_clust_7="13000.00000" pt_clust_8="13000.00000" pt_clust_9="76.66406"></scales>
<clustering>
<clus scale="   76.664">  2  9  1 -1</clus>
<clus scale="   79.617">  5  6 -1 -1</clus>
<clus scale="   90.533">  7  8 -1 -1</clus>
<clus scale="   92.565">  1  5  2 -1</clus>
<clus scale="   76.664">  2  5  1 -1</clus>
</clustering>
</event>
<event>
 9    1  0.6345107E-005  0.1447682E+03  0.7546771E-02  0.1212613E+00
          3   -1    0    0  502    0 -0.00000000000E+00  0.00000000000E+00  0.20309862957E+03  0.20309862957E+03  0.00000000000E+00 0. -1.
         21   -1    0    0  501  502  0.00000000000E+00 -0.00000000000E+00 -0.62496763812E+03  0.62496763812E+03  0.00000000000E+00 0.  1.
         23    2    1    2    0    0 -0.33989376553E+02 -0.85417106438E+02 -0.51691780808E+03  0.53266448567E+03  0.89866980577E+02 0.  0.
        -24    2    1    2    0    0 -0.98024566645E+02  0.22130318247E+02  0.68484764119E+02  0.14661150433E+03  0.81891413675E+02 0.  0.
         11    1    4    4    0    0 -0.94738700155E+02 -0.11450772583E+02  0.55926097135E+02  0.11060863366E+03  0.00000000000E+00 0. -1.
        -12    1    4    4    0    0 -0.32858664901E+01  0.33581090830E+02  0.12558666984E+02  0.36002870668E+02  0.00000000000E+00 0.  1.
        -13    1    3    3    0    0 -0.48096337592E+02 -0.10296772857E+02 -0.26027316339E+03  0.26487997433E+03  0.00000000000E+00 0.  1.
         13    1    3    3    0    0  0.14106961038E+02 -0.75120333581E+02 -0.25664464469E+03  0.26778451134E+03  0.00000000000E+00 0. -1.
          4    1    1    2  501    0  0.13201394320E+03  0.63286788191E+02  0.26564035414E+02  0.14879027769E+03  0.00000000000E+00 0. -1.
<scales pt_clust_5="13000.00000" pt_clust_6="13000.00000" pt_clust_7="13000.00000" pt_clust_8="13000.00000" pt_clust_9="119.38012"></scales>
<clustering>
<clus scale="   81.891">  5  6 -1 -1</clus>
<clus scale="   89.867">  7  8 -1 -1</clus>
<clus scale="  128.559">  1  7  2 -1</clus>
<clus scale="  119.380">  2  9  1 -1</clus>
<clus scale="  119.380">  2  5  1 -1</clus>
</clustering>
</event>
<event>
 9    1  0.6345107E-005  0.9204669E+02  0.7546771E-02  0.1306036E+00
         -2   -1    0    0    0  501 -0.00000000000E+00  0.00000000000E+00  0.11686405045E+03  0.11686405045E+03  0.00000000000E+00 0.  1.
         21   -1    0    0  501  502  0.00000000000E+00 -0.00000000000E+00 -0.20625492229E+03  0.20625492229E+03  0.00000000000E+00 0.  1.
         23    2    1    2    0    0 -0.81855576607E+01 -0.53829788953E+01  0.64759930706E+02  0.11297071895E+03  0.92046482278E+02 0.  0.
        -24    2    1    2    0    0 -0.23787852249E+02 -0.16162077707E+02 -0.47764029652E+02  0.96990691722E+02  0.79364457295E+02 0.  0.
         13    1    4    4    0    0  0.10678698751E+02 -0.16953489849E+02  0.15238164907E+02  0.25172546450E+02  0.00000000000E+00 0. -1.
        -14    1    4    4    0    0 -0.34466551001E+02  0.79141214232E+00 -0.63002194558E+02  0.71818145272E+02  0.00000000000E+00 0.  1.
        -11    1    3    3    0    0  0.12576501662E+02  0.36826201096E+02  0.88557748181E+01  0.39909425313E+02  0.00000000000E+00 0. -1.
         11    1    3    3    0    0 -0.20762059322E+02 -0.42209179991E+02  0.55904155888E+02  0.73061293640E+02  0.00000000000E+00 0.  1.
         -1    1    1    2    0  502  0.31973409910E+02  0.21545056602E+02 -0.10638677289E+03  0.11315756206E+03  0.00000000000E+00 0.  1.
<scales pt_clust_5="13000.00000" pt_clust_6="13000.00000" pt_clust_7="13000.00000" pt_clust_8="13000.00000" pt_clust_9="38.55500"></scales>
<clustering>
<clus scale="   38.555">  2  9  1 -1</clus>
<clus scale="   79.364">  5  6 -1 -1</clus>
<clus scale="   79.365">  2  5  1 -1</clus>
<clus scale="   92.046">  7  8 -1 -1</clus>
<clus scale="   38.555">  2  5  1 -1</clus>
</clustering>
</event>
<event>
 9    1  0.6345107E-005  0.8911953E+02  0.7546771E-02  0.1309742E+00
         21   -1    0    0  501  502  0.00000000000E+00  0.00000000000E+00  0.14242002462E+03  0.14242002462E+03  0.00000000000E+00 0.  1.
          3   -1    0    0  502    0 -0.00000000000E+00 -0.00000000000E+00 -0.12737326249E+03  0.12737326249E+03  0.00000000000E+00 0. -1.
         23    2    1    2    0    0 -0.19405515426E+02  0.10973970584E+02 -0.63181743534E+02  0.11051883451E+03  0.87894698400E+02 0.  0.
        -24    2    1    2    0    0  0.25511532808E+01  0.32656785312E+02  0.29406502286E+02  0.91663060091E+02  0.80401493757E+02 0.  0.
         13    1    4    4    0    0  0.18019017771E+02 -0.22890695656E+02  0.10916889873E+02  0.31110246440E+02  0.00000000000E+00 0. -1.
        -14    1    4    4    0    0 -0.15467864490E+02  0.55547480968E+02  0.18489612413E+02  0.60552813651E+02  0.00000000000E+00 0.  1.
        -11    1    3    3    0    0  0.26990313449E+02 -0.14206769616E+02 -0.45636508966E+02  0.54890803179E+02  0.00000000000E+00 0. -1.
         11    1    3    3    0    0 -0.46395828875E+02  0.25180740200E+02 -0.17545234567E+02  0.55628031334E+02  0.00000000000E+00 0.  1.
          4    1    1    2  501    0  0.16854362145E+02 -0.43630755896E+02  0.48822003372E+02  0.67611392506E+02  0.00000000000E+00 0. -1.
<scales pt_clust_5="13000.00000" pt_clust_6="13000.00000" pt_clust_7="13000.00000" pt_clust_8="13000.00000" pt_clust_9="46.77299"></scales>
<clustering>
<clus scale="   46.773">  1  9  2 -1</clus>
<clus scale="   80.401">  5  6 -1 -1</clus>
<clus scale="   81.739">  1  5  2 -1</clus>
<clus scale="   87.895">  7  8 -1 -1</clus>
<clus scale="   46.773">  1  5  2 -1</clus>
</clustering>
</event>
<event>
 9    1  0.6345107E-005  0.1472858E+03  0.7546771E-02  0.1205639E+00
         -2   -1    0    0    0  501 -0.00000000000E+00  0.00000000000E+00  0.37275549591E+03  0.37275549591E+03  0.00000000000E+00 0.  1.
         21   -1    0    0  501  502  0.00000000000E+00 -0.00000000000E+00 -0.35193138568E+03  0.35193138568E+03  0.00000000000E+00 0.  1.
        -24    2    1    2    0    0  0.71820228140E+02  0.91835941548E+02  0.32043989708E+03  0.35028677743E+03  0.80169280082E+02 0.  0.
         23    2    1    2    0    0 -0.49903574746E+02 -0.11260626824E+03 -0.12462784667E+03  0.19682610444E+03  0.89654206841E+02 0.  0.
         13    1    3    3    0    0  0.99616299194E+01  0.30667531346E+02  0.21034906805E+02  0.38499335758E+02  0.00000000000E+00 0. -1.
        -14    1    3    3    0    0  0.61858598221E+02  0.61168410202E+02  0.29940499028E+03  0.31178744167E+03  0.00000000000E+00 0.  1.
        -11    1    4    4    0    0  0.18117858491E+02 -0.40690782453E+02 -0.72138897337E+02  0.84782174317E+02  0.00000000000E+00 0.  1.
         11    1    4    4    0    0 -0.68021433237E+02 -0.71915485789E+02 -0.52488949337E+02  0.11204393013E+03  0.00000000000E+00 0. -1.
         -1    1    1    2    0  502 -0.21916653395E+02  0.20770326694E+02 -0.17498794018E+03  0.17757399972E+03  0.00000000000E+00 0.  1.
<scales pt_clust_5="13000.00000" pt_clust_6="13000.00000" pt_clust_7="13000.00000" pt_clust_8="13000.00000" pt_clust_9="30.19513"></scales>
<clustering>
<clus scale="   30.195">  2  9  1 -1</clus>
<clus scale="   80.169">  5  6 -1 -1</clus>
<clus scale="   89.654">  7  8 -1 -1</clus>
<clus scale="  141.712">  1  5  2 -1</clus>
<clus scale="   30.195">  2  5  1 -1</clus>
</clustering>
</event>
<event>
 9    1  0.6345107E-005  0.1139789E+03  0.7546771E-02  0.1257554E+00
         -4   -1    0    0    0  501 -0.00000000000E+00  0.00000000000E+00  0.32048043370E+03  0.32048043370E+03  0.00000000000E+00 0.  1.
         21   -1    0    0  501  502  0.00000000000E+00 -0.00000000000E+00 -0.61161319870E+02  0.61161319870E+02  0.00000000000E+00 0.  1.
        -24    2    1    2    0    0 -0.38843461504E+01 -0.70988731832E+02  0.16790270552E+03  0.19909492785E+03  0.79956135365E+02 0.  0.
         23    2    1    2    0    0  0.23078407392E+02  0.57206969027E+02  0.26553072037E+02  0.11351349054E+03  0.91515008102E+02 0.  0.
         11    1    3    3    0    0  0.28543868638E+02 -0.67611240943E+01  0.81726354242E+02  0.86831228331E+02  0.00000000000E+00 0. -1.
        -12    1    3    3    0    0 -0.32428214788E+02 -0.64227607738E+02  0.86176351279E+02  0.11226369952E+03  0.00000000000E+00 0.  1.
        -11    1    4    4    0    0 -0.31059620992E+02  0.43940291609E+02  0.19929501874E+02  0.57381480704E+02  0.00000000000E+00 0. -1.
         11    1    4    4    0    0  0.54138028383E+02  0.13266677417E+02  0.66235701626E+01  0.56132009840E+02  0.00000000000E+00 0.  1.
         -3    1    1    2    0  502 -0.19194061241E+02  0.13781762806E+02  0.64863336268E+02  0.69033335171E+02  0.00000000000E+00 0.  1.
<scales pt_clust_5="13000.00000" pt_clust_6="13000.00000" pt_clust_7="13000.00000" pt_clust_8="13000.00000" pt_clust_9="23.62942"></scales>
<clustering>
<clus scale="   23.629">  2  9  1 -1</clus>
<clus scale="   79.956">  5  6 -1 -1</clus>
<clus scale="   91.515">  7  8 -1 -1</clus>
<clus scale="  104.925">  1  5  2 -1</clus>
<clus scale="   23.629">  2  5  1 -1</clus>
</clustering>
</event>
<event>
 9    1  0.6345107E-005  0.1520522E+03  0.7546771E-02  0.1200399E+00
         21   -1    0    0  501  502  0.00000000000E+00  0.00000000000E+00  0.23295596890E+03  0.23295596890E+03  0.00000000000E+00 0.  1.
         -2   -1    0    0    0  501 -0.00000000000E+00 -0.00000000000E+00 -0.42965532313E+03  0.42965532313E+03  0.00000000000E+00 0.  1.
        -24    2    1    2    0    0 -0.10372328410E+03 -0.74169629121E+02 -0.31727145690E+03  0.35032029175E+03  0.76180548035E+02 0.  0.
         23    2    1    2    0    0  0.93202376221E+02  0.52993437474E+02 -0.43403070809E+02  0.14661970490E+03  0.90102852129E+02 0.  0.
         13    1    3    3    0    0 -0.12197523705E+02 -0.19394575360E+02 -0.98841660700E+01  0.24952472359E+02  0.00000000000E+00 0. -1.
        -14    1    3    3    0    0 -0.91525760396E+02 -0.54775053761E+02 -0.30738729083E+03  0.32536781939E+03  0.00000000000E+00 0.  1.
        -11    1    4    4    0    0  0.10765509590E+02  0.56519210219E+02 -0.18052574175E+02  0.60301017859E+02  0.00000000000E+00 0.  1.
         11    1    4    4    0    0  0.82436866632E+02 -0.35257727450E+01 -0.25350496634E+02  0.86318687045E+02  0.00000000000E+00 0. -1.
         -1    1    1    2    0  502  0.10520907879E+02  0.21176191648E+02  0.16397517347E+03  0.16567129538E+03  0.00000000000E+00 0.  1.
<scales pt_clust_5="13000.00000" pt_clust_6="13000.00000" pt_clust_7="13000.00000" pt_clust_8="13000.00000" pt_clust_9="23.64573"></scales>
<clustering>
<clus scale="   23.646">  1  9  2 -1</clus>
<clus scale="   76.181">  5  6 -1 -1</clus>
<clus scale="   90.103">  7  8 -1 -1</clus>
<clus scale="  144.239">  2  5  1 -1</clus>
<clus scale="   23.646">  1  5  2 -1</clus>
</clustering>
</event>
<event>
 9    1  0.6345107E-005  0.1164288E+03  0.7546771E-02  0.1252577E+00
         21   -1    0    0  501  502  0.00000000000E+00  0.00000000000E+00  0.88628677498E+02  0.88628677498E+02  0.00000000000E+00 0.  1.
          1   -1    0    0  502    0 -0.00000000000E+00 -0.00000000000E+00 -0.32901770117E+03  0.32901770117E+03  0.00000000000E+00 0. -1.
         23    2    1    2    0    0 -0.39833568507E+02  0.72582749218E+02 -0.19989254617E+03  0.23467884616E+03  0.90896436437E+02 0.  0.
        -24    2    1    2    0    0  0.60472551352E+01 -0.37367950012E+02  0.32753569418E+02  0.94949543276E+02  0.80682628093E+02 0.  0.
         13    1    4    4    0    0 -0.19914191943E+02  0.18709269372E+02  0.10331464253E+02  0.29212171346E+02  0.00000000000E+00 0. -1.
        -14    1    4    4    0    0  0.25961447078E+02 -0.56077219384E+02  0.22422105165E+02  0.65737371930E+02  0.00000000000E+00 0.  1.
        -11    1    3    3    0    0 -0.48836077058E+01  0.45417143522E+02 -0.20790756380E+02  0.50187868064E+02  0.00000000000E+00 0.  1.
         11    1    3    3    0    0 -0.34949960801E+02  0.27165605695E+02 -0.17910178979E+03  0.18449097810E+03  0.00000000000E+00 0. -1.
          2    1    1    2  501    0  0.33786313372E+02 -0.35214799205E+02 -0.73250046914E+02  0.88017989225E+02  0.00000000000E+00 0. -1.
<scales pt_clust_5="13000.00000" pt_clust_6="13000.00000" pt_clust_7="13000.00000" pt_clust_8="13000.00000" pt_clust_9="48.80163"></scales>
<clustering>
<clus scale="   48.802">  1  9  2 -1</clus>
<clus scale="   80.683">  5  6 -1 -1</clus>
<clus scale="   90.896">  7  8 -1 -1</clus>
<clus scale="  108.642">  1  5  2 -1</clus>
<clus scale="   48.802">  1  5  2 -1</clus>
</clustering>
</event>
<event>
 9    1  0.6345107E-005  0.1164983E+03  0.7546771E-02  0.1270563E+00
         21   -1    0    0  501  502  0.00000000000E+00  0.00000000000E+00  0.40981965212E+02  0.40981965212E+02  0.00000000000E+00 0.  1.
          1   -1    0    0  502    0 -0.00000000000E+00 -0.00000000000E+00 -0.54191996653E+03  0.54191996653E+03  0.00000000000E+00 0. -1.
        -24    2    1    2    0    0  0.19298518849E+02 -0.94179132334E+01 -0.49942618802E+02  0.91125716154E+02  0.73133446879E+02 0.  0.
         23    2    1    2    0    0  0.92872113390E+01 -0.62668678187E+02 -0.33030447789E+03  0.34831920080E+03  0.90617890116E+02 0.  0.
         11    1    3    3    0    0 -0.27510839245E+02  0.24465548920E+01 -0.14263353279E+02  0.31084966681E+02  0.00000000000E+00 0. -1.
        -12    1    3    3    0    0  0.46809358094E+02 -0.11864468125E+02 -0.35679265523E+02  0.60040749473E+02  0.00000000000E+00 0.  1.
        -13    1    4    4    0    0  0.46912017756E+02 -0.53627153493E+02 -0.23112635218E+03  0.24185946265E+03  0.00000000000E+00 0. -1.
         13    1    4    4    0    0 -0.37624806417E+02 -0.90415246944E+01 -0.99178125718E+02  0.10645973815E+03  0.00000000000E+00 0.  1.
          2    1    1    2  501    0 -0.28585730188E+02  0.72086591420E+02 -0.12069090462E+03  0.14345701478E+03  0.00000000000E+00 0. -1.
<scales pt_clust_5="13000.00000" pt_clust_6="13000.00000" pt_clust_7="13000.00000" pt_clust_8="13000.00000" pt_clust_9="73.21375"></scales>
<clustering>
<clus scale="   73.133">  5  6 -1 -1</clus>
<clus scale="   76.221">  2  5  1 -1</clus>
<clus scale="   73.214">  1  9  2 -1</clus>
<clus scale="   90.618">  7  8 -1 -1</clus>
<clus scale="   73.214">  1  5  2 -1</clus>
</clustering>
</event>
<event>
 9    1  0.6345107E-005  0.9992478E+02  0.7546771E-02  0.1288516E+00
         21   -1    0    0  501  502  0.00000000000E+00  0.00000000000E+00  0.16852061303E+03  0.16852061303E+03  0.00000000000E+00 0. -1.
          3   -1    0    0  502    0 -0.00000000000E+00 -0.00000000000E+00 -0.12976910045E+03  0.12976910045E+03  0.00000000000E+00 0. -1.
         23    2    1    2    0    0  0.26698095429E+02 -0.81121846327E+01 -0.83393939214E+02  0.13040421413E+03  0.96291817539E+02 0.  0.
        -24    2    1    2    0    0 -0.10443108747E+02  0.29857224290E+02  0.99958472481E+02  0.13282364840E+03  0.81546998657E+02 0.  0.
         11    1    4    4    0    0  0.10085888130E+02  0.51820771971E+02  0.82826834690E+02  0.98221189627E+02  0.00000000000E+00 0. -1.
        -12    1    4    4    0    0 -0.20528996877E+02 -0.21963547681E+02  0.17131637791E+02  0.34602458769E+02  0.00000000000E+00 0.  1.
        -13    1    3    3    0    0  0.52920153795E+02 -0.33721911622E+02 -0.44284534659E+02  0.76803841122E+02  0.00000000000E+00 0. -1.
         13    1    3    3    0    0 -0.26222058367E+02  0.25609726989E+02 -0.39109404556E+02  0.53600373004E+02  0.00000000000E+00 0.  1.
          4    1    1    2  501    0 -0.16254986682E+02 -0.21745039657E+02  0.22186979316E+02  0.35061850962E+02  0.00000000000E+00 0. -1.
<scales pt_clust_5="13000.00000" pt_clust_6="13000.00000" pt_clust_7="13000.00000" pt_clust_8="13000.00000" pt_clust_9="27.14906"></scales>
<clustering>
<clus scale="   27.149">  1  9  2 -1</clus>
<clus scale="   81.547">  5  6 -1 -1</clus>
<clus scale="   85.807">  1  5  2 -1</clus>
<clus scale="   96.292">  7  8 -1 -1</clus>
<clus scale="   27.149">  1  5  2 -1</clus>
</clustering>
</event>
<event>
 9    1  0.6345107E-005  0.1113489E+03  0.7546771E-02  0.1261785E+00
          1   -1    0    0  502    0 -0.00000000000E+00  0.00000000000E+00  0.19233760668E+03  0.19233760668E+03  0.00000000000E+00 0. -1.
         21   -1    0    0  501  502  0.00000000000E+00 -0.00000000000E+00 -0.13005347937E+03  0.13005347937E+03  0.00000000000E+00 0. -1.
         23    2    1    2    0    0 -0.32444763402E+02 -0.58490468004E+02  0.30211242281E+01  0.11261573988E+03  0.90550428811E+02 0.  0.
        -24    2    1    2    0    0  0.12378958087E+02  0.62572592273E+02 -0.38504504485E+02  0.10988647884E+03  0.80770498698E+02 0.  0.
         13    1    4    4    0    0  0.39165654631E+02  0.42800987343E+02 -0.47963782947E+02  0.75275477380E+02  0.00000000000E+00 0. -1.
        -14    1    4    4    0    0 -0.26786696544E+02  0.19771604930E+02  0.94592784623E+01  0.34611001464E+02  0.00000000000E+00 0.  1.
        -13    1    3    3    0    0 -0.11391370341E+01 -0.69281476779E+02  0.24100345876E+02  0.73362438136E+02  0.00000000000E+00 0. -1.
         13    1    3    3    0    0 -0.31305626368E+02  0.10791008775E+02 -0.21079221648E+02  0.39253301746E+02  0.00000000000E+00 0.  1.
          2    1    1    2  501    0  0.20065805316E+02 -0.40821242690E+01  0.97767507564E+02  0.99888867332E+02  0.00000000000E+00 0. -1.
<scales pt_clust_5="13000.00000" pt_clust_6="13000.00000" pt_clust_7="13000.00000" pt_clust_8="13000.00000" pt_clust_9="20.47683"></scales>
<clustering>
<clus scale="   20.477">  2  9  1 -1</clus>
<clus scale="   80.770">  5  6 -1 -1</clus>
<clus scale="   90.550">  7  8 -1 -1</clus>
<clus scale="  103.552">  2  5  1 -1</clus>
<clus scale="   20.477">  2  5  1 -1</clus>
</clustering>
</event>
<event>
 9    1  0.6345107E-005  0.9153477E+02  0.7546771E-02  0.1304301E+00
          1   -1    0    0  502    0 -0.00000000000E+00  0.00000000000E+00  0.11867411366E+03  0.11867411366E+03  0.00000000000E+00 0. -1.
         21   -1    0    0  501  502  0.00000000000E+00 -0.00000000000E+00 -0.35341886272E+03  0.35341886272E+03  0.00000000000E+00 0. -1.
         23    2    1    2    0    0 -0.37436639095E+01 -0.39204358037E+02  0.40985101374E+02  0.10705041642E+03  0.90713926236E+02 0.  0.
        -24    2    1    2    0    0 -0.10356599098E+02 -0.26470028278E+02 -0.63316316353E+01  0.87396485381E+02  0.82402272759E+02 0.  0.
         13    1    4    4    0    0 -0.21912423223E+02  0.15609058262E+02  0.22519222482E+02  0.35084360797E+02  0.00000000000E+00 0. -1.
        -14    1    4    4    0    0  0.11555824125E+02 -0.42079086540E+02 -0.28850854117E+02  0.52312124585E+02  0.00000000000E+00 0.  1.
        -13    1    3    3    0    0  0.22429675333E+02 -0.30918457845E+02  0.61763112595E+02  0.72620406557E+02  0.00000000000E+00 0. -1.
         13    1    3    3    0    0 -0.26173339243E+02 -0.82859001918E+01 -0.20778011221E+02  0.34430009866E+02  0.00000000000E+00 0.  1.
          2    1    1    2  501    0  0.14100263008E+02  0.65674386316E+02 -0.26939821880E+03  0.27764607458E+03  0.00000000000E+00 0. -1.
<scales pt_clust_5="13000.00000" pt_clust_6="13000.00000" pt_clust_7="13000.00000" pt_clust_8="13000.00000" pt_clust_9="67.17099"></scales>
<clustering>
<clus scale="   67.171">  2  9  1 -1</clus>
<clus scale="   82.402">  5  6 -1 -1</clus>
<clus scale="   83.305">  2  5  1 -1</clus>
<clus scale="   90.714">  7  8 -1 -1</clus>
<clus scale="   67.171">  2  5  1 -1</clus>
</clustering>
</event>
<event>
 9    1  0.6345107E-005  0.1584846E+03  0.7546771E-02  0.1218940E+00
          1   -1    0    0  502    0 -0.00000000000E+00  0.00000000000E+00  0.57527970286E+03  0.57527970286E+03  0.00000000000E+00 0. -1.
         21   -1    0    0  501  502  0.00000000000E+00 -0.00000000000E+00 -0.60692839520E+02  0.60692839520E+02  0.00000000000E+00 0.  1.
        -24    2    1    2    0    0  0.53754862515E+01 -0.26045381434E+02  0.11930547347E+03  0.14690361070E+03  0.81483845570E+02 0.  0.
         23    2    1    2    0    0  0.73621953835E+01 -0.11246195772E+03  0.23439781006E+03  0.27639533721E+03  0.93542264336E+02 0.  0.
         11    1    3    3    0    0 -0.37924768445E+02 -0.11771125816E+02  0.62754223032E+02  0.74262641839E+02  0.00000000000E+00 0. -1.
        -12    1    3    3    0    0  0.43300254696E+02 -0.14274255618E+02  0.56551250441E+02  0.72640968858E+02  0.00000000000E+00 0.  1.
        -13    1    4    4    0    0 -0.43055514907E+02 -0.57724657964E+02  0.11232550168E+03  0.13342762768E+03  0.00000000000E+00 0.  1.
         13    1    4    4    0    0  0.50417710291E+02 -0.54737299757E+02  0.12207230838E+03  0.14296770953E+03  0.00000000000E+00 0. -1.
          2    1    1    2  501    0 -0.12737681635E+02  0.13850733915E+03  0.16088357981E+03  0.21267359447E+03  0.00000000000E+00 0. -1.
<scales pt_clust_5="13000.00000" pt_clust_6="13000.00000" pt_clust_7="13000.00000" pt_clust_8="13000.00000" pt_clust_9="127.93445"></scales>
<clustering>
<clus scale="   81.484">  5  6 -1 -1</clus>
<clus scale="   85.714">  1  5  2 -1</clus>
<clus scale="   93.542">  7  8 -1 -1</clus>
<clus scale="  127.934">  2  9  1 -1</clus>
<clus scale="  127.934">  2  5  1 -1</clus>
</clustering>
</event>
<event>
 9    1  0.6345107E-005  0.2051563E+03  0.7546771E-02  0.1147085E+00
          1   -1    0    0  502    0 -0.00000000000E+00  0.00000000000E+00  0.46235753177E+03  0.46235753177E+03  0.00000000000E+00 0. -1.
         21   -1    0    0  501  502  0.00000000000E+00 -0.00000000000E+00 -0.13607618700E+03  0.13607618700E+03  0.00000000000E+00 0. -1.
        -24    2    1    2    0    0  0.15108897695E+03  0.11524701969E+03  0.26035351207E+03  0.33268999823E+03  0.82394958396E+02 0.  0.
         23    2    1    2    0    0 -0.13440074763E+03 -0.73348849995E+02 -0.37785271314E+01  0.18272004789E+03  0.99642982066E+02 0.  0.
         13    1    3    3    0    0  0.85851715314E+02  0.43238027127E+02  0.18932914582E+03  0.21233362774E+03  0.00000000000E+00 0. -1.
        -14    1    3    3    0    0  0.65237261634E+02  0.72008992565E+02  0.71024366257E+02  0.12035637049E+03  0.00000000000E+00 0.  1.
        -13    1    4    4    0    0 -0.12718368666E+02 -0.47787693344E+02 -0.26833690388E+02  0.56262487294E+02  0.00000000000E+00 0. -1.
         13    1    4    4    0    0 -0.12168237896E+03 -0.25561156651E+02  0.23055163256E+02  0.12645756060E+03  0.00000000000E+00 0.  1.
          2    1    1    2  501    0 -0.16688229321E+02 -0.41898169697E+02  0.69706359826E+02  0.83023672660E+02  0.00000000000E+00 0. -1.
<scales pt_clust_5="13000.00000" pt_clust_6="13000.00000" pt_clust_7="13000.00000" pt_clust_8="13000.00000" pt_clust_9="45.09940"></scales>
<clustering>
<clus scale="   45.099">  2  9  1 -1</clus>
<clus scale="   82.395">  5  6 -1 -1</clus>
<clus scale="   99.643">  7  8 -1 -1</clus>
<clus scale="  197.356">  1  5  2 -1</clus>
<clus scale="   45.099">  2  5  1 -1</clus>
</clustering>
</event>
<event>
 9    1  0.6345107E-005  0.9168184E+02  0.7546771E-02  0.1305360E+00
          3   -1    0    0  502    0 -0.00000000000E+00  0.00000000000E+00  0.19483319780E+03  0.19483319780E+03  0.00000000000E+00 0. -1.
         21   -1    0    0  501  502  0.00000000000E+00 -0.00000000000E+00 -0.85625225632E+02  0.85625225632E+02  0.00000000000E+00 0.  1.
        -24    2    1    2    0    0  0.15035530742E+02 -0.23721806416E+02  0.81527821059E+02  0.11777742755E+03  0.80224345112E+02 0.  0.
         23    2    1    2    0    0 -0.14180239015E+01 -0.35604332661E+02  0.45654413435E+01  0.97570957658E+02  0.90716973206E+02 0.  0.
         13    1    3    3    0    0 -0.16325028042E+02 -0.30432458720E+02  0.78259787273E+02  0.85540840470E+02  0.00000000000E+00 0. -1.
        -14    1    3    3    0    0  0.31360558784E+02  0.67106523034E+01  0.32680337856E+01  0.32236587077E+02  0.00000000000E+00 0.  1.
        -11    1    4    4    0    0 -0.30928864106E+02 -0.12629096853E+02  0.35710337420E+02  0.48901093249E+02  0.00000000000E+00 0. -1.
         11    1    4    4    0    0  0.29510840205E+02 -0.22975235808E+02 -0.31144896077E+02  0.48669864410E+02  0.00000000000E+00 0.  1.
          4    1    1    2  501    0 -0.13617506840E+02  0.59326139077E+02  0.23114709766E+02  0.65110038227E+02  0.00000000000E+00 0. -1.
<scales pt_clust_5="13000.00000" pt_clust_6="13000.00000" pt_clust_7="13000.00000" pt_clust_8="13000.00000" pt_clust_9="60.86894"></scales>
<clustering>
<clus scale="   60.869">  2  9  1 -1</clus>
<clus scale="   80.224">  5  6 -1 -1</clus>
<clus scale="   81.314">  1  5  2 -1</clus>
<clus scale="   90.717">  7  8 -1 -1</clus>
<clus scale="   60.869">  2  5  1 -1</clus>
</clustering>
</event>
<event>
 9    1  0.6345107E-005  0.1235158E+03  0.7546771E-02  0.1240412E+00
         21   -1    0    0  501  502  0.00000000000E+00  0.00000000000E+00  0.35834366925E+02  0.35834366925E+02  0.00000000000E+00 0. -1.
         -4   -1    0    0    0  501 -0.00000000000E+00 -0.00000000000E+00 -0.68813362070E+03  0.68813362070E+03  0.00000000000E+00 0.  1.
         23    2    1    2    0    0  0.30004687264E+01  0.10148051167E+03 -0.46149868751E+03  0.48129358199E+03  0.91406654226E+02 0.  0.
        -24    2    1    2    0    0  0.21463905564E+01 -0.48503012151E+02 -0.10198447954E+03  0.13913019828E+03  0.81235637652E+02 0.  0.
         11    1    4    4    0    0  0.80720039184E+01 -0.42076023837E+02 -0.66032236193E+01  0.43349182130E+02  0.00000000000E+00 0. -1.
        -12    1    4    4    0    0 -0.59256133619E+01 -0.64269883136E+01 -0.95381255922E+02  0.95781016145E+02  0.00000000000E+00 0.  1.
        -11    1    3    3    0    0 -0.34046128881E+02  0.83173144951E+02 -0.24679418440E+03  0.26264858726E+03  0.00000000000E+00 0. -1.
         11    1    3    3    0    0  0.37046597608E+02  0.18307366717E+02 -0.21470450310E+03  0.21864499474E+03  0.00000000000E+00 0.  1.
         -3    1    1    2    0  502 -0.51468592828E+01 -0.52977499517E+02 -0.88816086723E+02  0.10354420735E+03  0.00000000000E+00 0.  1.
<scales pt_clust_5="13000.00000" pt_clust_6="13000.00000" pt_clust_7="13000.00000" pt_clust_8="13000.00000" pt_clust_9="53.22693"></scales>
<clustering>
<clus scale="   53.227">  1  9  2 -1</clus>
<clus scale="   81.236">  5  6 -1 -1</clus>
<clus scale="   91.407">  7  8 -1 -1</clus>
<clus scale="  116.190">  1  5  2 -1</clus>
<clus scale="   53.227">  1  5  2 -1</clus>
</clustering>
</event>
<event>
 9    1  0.6345107E-005  0.1424845E+03  0.7546771E-02  0.1229966E+00
          1   -1    0    0  502    0 -0.00000000000E+00  0.00000000000E+00  0.29502462793E+03  0.29502462793E+03  0.00000000000E+00 0. -1.
         21   -1    0    0  501  502  0.00000000000E+00 -0.00000000000E+00 -0.32392813138E+03  0.32392813138E+03  0.00000000000E+00 0. -1.
        -24    2    1    2    0    0  0.19491623229E+02 -0.45463391679E+02  0.19092365432E+03  0.21269338756E+03  0.79622810629E+02 0.  0.
         23    2    1    2    0    0  0.97370372744E+02 -0.32130820756E+02 -0.22761224594E+03  0.26576668332E+03  0.91165872617E+02 0.  0.
         13    1    3    3    0    0  0.15221000052E+02 -0.66578543090E+02  0.16740020125E+03  0.18079604149E+03  0.00000000000E+00 0. -1.
        -14    1    3    3    0    0  0.42706231767E+01  0.21115151410E+02  0.23523453075E+02  0.31897346064E+02  0.00000000000E+00 0.  1.
        -13    1    4    4    0    0  0.22672732129E+02  0.18894117409E+02 -0.11841680647E+02  0.31800406529E+02  0.00000000000E+00 0.  1.
         13    1    4    4    0    0  0.74697640615E+02 -0.51024938165E+02 -0.21577056529E+03  0.23396627679E+03  0.00000000000E+00 0. -1.
          2    1    1    2  501    0 -0.11686199597E+03  0.77594212435E+02  0.77850881675E+01  0.14049268844E+03  0.00000000000E+00 0. -1.
<scales pt_clust_5="13000.00000" pt_clust_6="13000.00000" pt_clust_7="13000.00000" pt_clust_8="13000.00000" pt_clust_9="109.50170"></scales>
<clustering>
<clus scale="   79.623">  5  6 -1 -1</clus>
<clus scale="   91.166">  7  8 -1 -1</clus>
<clus scale="   93.737">  1  5  2 -1</clus>
<clus scale="  109.502">  2  9  1 -1</clus>
<clus scale="  109.502">  2  5  1 -1</clus>
</clustering>
</event>
<event>
 9    1  0.6345107E-005  0.1349661E+03  0.7546771E-02  0.1223083E+00
         21   -1    0    0  501  502  0.00000000000E+00  0.00000000000E+00  0.64987199947E+02  0.64987199947E+02  0.00000000000E+00 0. -1.
          1   -1    0    0  502    0 -0.00000000000E+00 -0.00000000000E+00 -0.69786877014E+03  0.69786877014E+03  0.00000000000E+00 0. -1.
        -24    2    1    2    0    0 -0.80529873024E+02 -0.11362704081E+03 -0.23740267560E+03  0.28633971891E+03  0.78957199773E+02 0.  0.
         23    2    1    2    0    0 -0.39201059469E+02  0.78513149549E+02 -0.12066564882E+03  0.17470372392E+03  0.90885392827E+02 0.  0.
         11    1    3    3    0    0 -0.54263709428E+02 -0.11988151007E+03 -0.21034194754E+03  0.24811259845E+03  0.00000000000E+00 0. -1.
        -12    1    3    3    0    0 -0.26266163596E+02  0.62544692609E+01 -0.27060728061E+02  0.38227120464E+02  0.00000000000E+00 0.  1.
        -11    1    4    4    0    0 -0.17022988763E+02  0.50359068215E+02 -0.12757187615E+03  0.13820420211E+03  0.00000000000E+00 0. -1.
         11    1    4    4    0    0 -0.22178070707E+02  0.28154081334E+02  0.69062273264E+01  0.36499521804E+02  0.00000000000E+00 0.  1.
          2    1    1    2  501    0  0.11973093249E+03  0.35113891257E+02 -0.27481324578E+03  0.30181252726E+03  0.00000000000E+00 0. -1.
<scales pt_clust_5="13000.00000" pt_clust_6="13000.00000" pt_clust_7="13000.00000" pt_clust_8="13000.00000" pt_clust_9="124.77378"></scales>
<clustering>
<clus scale="   78.957">  5  6 -1 -1</clus>
<clus scale="   90.885">  7  8 -1 -1</clus>
<clus scale="  124.774">  1  9  2 -1</clus>
<clus scale="  127.240">  2  5  1 -1</clus>
<clus scale="  124.774">  1  5  2 -1</clus>
</clustering>
</event>
<event>
 9    1  0.6345107E-005  0.1636813E+03  0.7546771E-02  0.1186257E+00
          1   -1    0    0  502    0 -0.00000000000E+00  0.00000000000E+00  0.26983595205E+03  0.26983595205E+03  0.00000000000E+00 0. -1.
         21   -1    0    0  501  502  0.00000000000E+00 -0.00000000000E+00 -0.28677423652E+03  0.28677423652E+03  0.00000000000E+00 0. -1.
        -24    2    1    2    0    0  0.57851407443E+02 -0.95268835469E+02  0.36664168142E+02  0.14232378840E+03  0.80553480143E+02 0.  0.
         23    2    1    2    0    0 -0.18093180323E+03  0.57667115472E+02  0.83017052901E+02  0.22659632995E+03  0.91609235603E+02 0.  0.
         13    1    3    3    0    0  0.36874272916E+02 -0.10720429181E+03  0.29387318974E+02  0.11711569793E+03  0.00000000000E+00 0. -1.
        -14    1    3    3    0    0  0.20977134527E+02  0.11935456341E+02  0.72768491686E+01  0.25208090465E+02  0.00000000000E+00 0.  1.
        -13    1    4    4    0    0 -0.14211546949E+03  0.12073103207E+02  0.86165286686E+02  0.16663439956E+03  0.00000000000E+00 0. -1.
         13    1    4    4    0    0 -0.38816333746E+02  0.45594012265E+02 -0.31482337850E+01  0.59961930389E+02  0.00000000000E+00 0.  1.
          2    1    1    2  501    0  0.12308039579E+03  0.37601719997E+02 -0.13661950551E+03  0.18769007022E+03  0.00000000000E+00 0. -1.
<scales pt_clust_5="13000.00000" pt_clust_6="13000.00000" pt_clust_7="13000.00000" pt_clust_8="13000.00000" pt_clust_9="128.69605"></scales>
<clustering>
<clus scale="   80.553">  5  6 -1 -1</clus>
<clus scale="   91.609">  7  8 -1 -1</clus>
<clus scale="  128.696">  2  9  1 -1</clus>
<clus scale="  157.760">  1  5  2 -1</clus>
<clus scale="  128.696">  2  5  1 -1</clus>
</clustering>
</event>
<event>
 9    1  0.6345107E-005  0.1007784E+03  0.7546771E-02  0.1285495E+00
         21   -1    0    0  501  502  0.00000000000E+00  0.00000000000E+00  0.14541965893E+03  0.14541965893E+03  0.00000000000E+00 0. -1.
          1   -1    0    0  502    0 -0.00000000000E+00 -0.00000000000E+00 -0.13616981166E+03  0.13616981166E+03  0.00000000000E+00 0. -1.
         23    2    1    2    0    0  0.41365256301E+02 -0.73195210197E+01 -0.73721481975E+02  0.12560596054E+03  0.92613933084E+02 0.  0.
        -24    2    1    2    0    0 -0.33970195231E+02 -0.31331602930E+02  0.67016950255E+02  0.11352013148E+03  0.79119562205E+02 0.  0.
         11    1    4    4    0    0 -0.21417535331E+02 -0.55016618295E+02  0.63129046423E+02  0.86433879992E+02  0.00000000000E+00 0. -1.
        -12    1    4    4    0    0 -0.12552659900E+02  0.23685015365E+02  0.38879038319E+01  0.27086251487E+02  0.00000000000E+00 0.  1.
        -13    1    3    3    0    0 -0.21869635125E+01 -0.43505126080E+02 -0.42897388582E+02  0.61136443728E+02  0.00000000000E+00 0. -1.
         13    1    3    3    0    0  0.43552219813E+02  0.36185605060E+02 -0.30824093393E+02  0.64469516810E+02  0.00000000000E+00 0.  1.
          2    1    1    2  501    0 -0.73950610699E+01  0.38651123949E+02  0.15954378986E+02  0.42463378570E+02  0.00000000000E+00 0. -1.
<scales pt_clust_5="13000.00000" pt_clust_6="13000.00000" pt_clust_7="13000.00000" pt_clust_8="13000.00000" pt_clust_9="39.35221"></scales>
<clustering>
<clus scale="   39.352">  1  9  2 -1</clus>
<clus scale="   79.120">  5  6 -1 -1</clus>
<clus scale="   88.537">  1  5  2 -1</clus>
<clus scale="   92.614">  7  8 -1 -1</clus>
<clus scale="   39.352">  1  5  2 -1</clus>
</clustering>
</event>
<event>
 9    1  0.6345107E-005  0.1919827E+03  0.7546771E-02  0.1189455E+00
          1   -1    0    0  502    0 -0.00000000000E+00  0.00000000000E+00  0.97854304341E+03  0.97854304341E+03  0.00000000000E+00 0. -1.
         21   -1    0    0  501  502  0.00000000000E+00 -0.00000000000E+00 -0.73836619518E+02  0.73836619518E+02  0.00000000000E+00 0. -1.
        -24    2    1    2    0    0  0.36147605618E+02  0.22004386921E+02  0.20511596174E+02  0.93358510692E+02  0.80648890292E+02 0.  0.
         23    2    1    2    0    0  0.13657276474E+03  0.63536388632E+02  0.37158490995E+03  0.41137301848E+03  0.91996860160E+02 0.  0.
         11    1    3    3    0    0  0.23601947969E+01 -0.29399853667E+02  0.83514044429E+01  0.30654002533E+02  0.00000000000E+00 0. -1.
        -12    1    3    3    0    0  0.33787410821E+02  0.51404240589E+02  0.12160191731E+02  0.62704508159E+02  0.00000000000E+00 0.  1.
        -13    1    4    4    0    0  0.14064725815E+03  0.36329819927E+02  0.33844819860E+03  0.36830515904E+03  0.00000000000E+00 0. -1.
         13    1    4    4    0    0 -0.40744934120E+01  0.27206568705E+02  0.33136711354E+02  0.43067859438E+02  0.00000000000E+00 0.  1.
          2    1    1    2  501    0 -0.17272037035E+03 -0.85540775553E+02  0.51260991776E+03  0.54764813376E+03  0.00000000000E+00 0. -1.
<scales pt_clust_5="13000.00000" pt_clust_6="13000.00000" pt_clust_7="13000.00000" pt_clust_8="13000.00000" pt_clust_9="168.50511"></scales>
<clustering>
<clus scale="   80.649">  5  6 -1 -1</clus>
<clus scale="   91.077">  1  5  2 -1</clus>
<clus scale="   91.997">  7  8 -1 -1</clus>
<clus scale="  168.505">  2  9  1 -1</clus>
<clus scale="  168.505">  2  5  1 -1</clus>
</clustering>
</event>
<event>
 9    1  0.6345107E-005  0.1455374E+03  0.7546771E-02  0.1208227E+00
         21   -1    0    0  501  502  0.00000000000E+00  0.00000000000E+00  0.54522493291E+03  0.54522493291E+03  0.00000000000E+00 0. -1.
          1   -1    0    0  502    0 -0.00000000000E+00 -0.00000000000E+00 -0.49325126392E+02  0.49325126392E+02  0.00000000000E+00 0. -1.
         23    2    1    2    0    0  0.90225341162E+02  0.26860679855E+02  0.22170476803E+03  0.25921212589E+03  0.95790467862E+02 0.  0.
        -24    2    1    2    0    0 -0.12633695907E+03 -0.97891076424E+01  0.22442975300E+03  0.27152515127E+03  0.85442026427E+02 0.  0.
         11    1    4    4    0    0 -0.80560473686E+02 -0.47451846950E+02  0.13378137480E+03  0.16321496238E+03  0.00000000000E+00 0. -1.
        -12    1    4    4    0    0 -0.45776485385E+02  0.37662739308E+02  0.90648378202E+02  0.10831018889E+03  0.00000000000E+00 0.  1.
        -13    1    3    3    0    0  0.22813043645E+02 -0.15178677208E+01 -0.28548594396E+01  0.23041030905E+02  0.00000000000E+00 0.  1.
         13    1    3    3    0    0  0.67412297518E+02  0.28378547576E+02  0.22455962747E+03  0.23617109499E+03  0.00000000000E+00 0. -1.
          2    1    1    2  501    0  0.36111617909E+02 -0.17071572213E+02  0.49765285490E+02  0.63812782150E+02  0.00000000000E+00 0. -1.
<scales pt_clust_5="13000.00000" pt_clust_6="13000.00000" pt_clust_7="13000.00000" pt_clust_8="13000.00000" pt_clust_9="39.94357"></scales>
<clustering>
<clus scale="   39.944">  1  9  2 -1</clus>
<clus scale="   85.442">  5  6 -1 -1</clus>
<clus scale="   95.790">  7  8 -1 -1</clus>
<clus scale="  138.945">  1  5  2 -1</clus>
<clus scale="   39.944">  1  5  2 -1</clus>
</clustering>
</event>
<event>
 9    1  0.6345107E-005  0.1848059E+03  0.7546771E-02  0.1164072E+00
         21   -1    0    0  501  502  0.00000000000E+00  0.00000000000E+00  0.12313636871E+03  0.12313636871E+03  0.00000000000E+00 0. -1.
          1   -1    0    0  502    0 -0.00000000000E+00 -0.00000000000E+00 -0.68406000607E+03  0.68406000607E+03  0.00000000000E+00 0. -1.
        -24    2    1    2    0    0  0.11707909178E+03  0.10816625879E+03 -0.32461548933E+03  0.37075187995E+03  0.81696311419E+02 0.  0.
         23    2    1    2    0    0 -0.93060588669E+02 -0.13867978427E+03 -0.30413714463E+03  0.35828608830E+03  0.89314962907E+02 0.  0.
         13    1    3    3    0    0  0.10686225234E+03  0.63079086499E+02 -0.28106340575E+03  0.30723793741E+03  0.00000000000E+00 0. -1.
        -14    1    3    3    0    0  0.10216839433E+02  0.45087172288E+02 -0.43552083582E+02  0.63513942542E+02  0.00000000000E+00 0.  1.
        -13    1    4    4    0    0 -0.47485493785E+02 -0.78340053626E+02 -0.24720452001E+03  0.26363252992E+03  0.00000000000E+00 0. -1.
         13    1    4    4    0    0 -0.45575094884E+02 -0.60339730640E+02 -0.56932624629E+02  0.94653558382E+02  0.00000000000E+00 0.  1.
          2    1    1    2  501    0 -0.24018503109E+02  0.30513525479E+02  0.67828996614E+02  0.78158406524E+02  0.00000000000E+00 0. -1.
<scales pt_clust_5="13000.00000" pt_clust_6="13000.00000" pt_clust_7="13000.00000" pt_clust_8="13000.00000" pt_clust_9="38.83251"></scales>
<clustering>
<clus scale="   38.833">  1  9  2 -1</clus>
<clus scale="   81.696">  5  6 -1 -1</clus>
<clus scale="   89.315">  7  8 -1 -1</clus>
<clus scale="  181.247">  2  5  1 -1</clus>
<clus scale="   38.833">  1  5  2 -1</clus>
</clustering>
</event>
<event>
 9    1  0.6345107E-005  0.1531860E+03  0.7546771E-02  0.1211706E+00
         21   -1    0    0  501  502  0.00000000000E+00  0.00000000000E+00  0.63213683553E+02  0.63213683553E+02  0.00000000000E+00 0.  1.
         -2   -1    0    0    0  501 -0.00000000000E+00 -0.00000000000E+00 -0.11597925719E+04  0.11597925719E+04  0.00000000000E+00 0.  1.
        -24    2    1    2    0    0  0.70290695852E+02  0.25840412228E+02 -0.53140427225E+03  0.54279641390E+03  0.81418287522E+02 0.  0.
         23    2    1    2    0    0  0.90804711904E+02 -0.51147040537E+02 -0.75966313941E+02  0.16453851335E+03  0.10217889245E+03 0.  0.
         11    1    3    3    0    0  0.25068338085E+02 -0.22280304711E+02 -0.82428678324E+02  0.88990564459E+02  0.00000000000E+00 0. -1.
        -12    1    3    3    0    0  0.45222357767E+02  0.48120716939E+02 -0.44897559393E+03  0.45380584944E+03  0.00000000000E+00 0.  1.
        -11    1    4    4    0    0  0.44609258696E+02 -0.20591837353E+01 -0.85501390488E+02  0.96460945332E+02  0.00000000000E+00 0. -1.
         11    1    4    4    0    0  0.46195453208E+02 -0.49087856801E+02  0.95350765471E+01  0.68077568018E+02  0.00000000000E+00 0.  1.
         -1    1    1    2    0  502 -0.16109540776E+03  0.25306628309E+02 -0.48920830214E+03  0.51567132819E+03  0.00000000000E+00 0.  1.
<scales pt_clust_5="13000.00000" pt_clust_6="13000.00000" pt_clust_7="13000.00000" pt_clust_8="13000.00000" pt_clust_9="114.12909"></scales>
<clustering>
<clus scale="   81.418">  5  6 -1 -1</clus>
<clus scale="  102.179">  7  8 -1 -1</clus>
<clus scale="  110.623">  2  5  1 -1</clus>
<clus scale="  114.129">  1  9  2 -1</clus>
<clus scale="  114.129">  1  5  2 -1</clus>
</clustering>
</event>
<event>
 9    1  0.6345107E-005  0.1136141E+03  0.7546771E-02  0.1256826E+00
          1   -1    0    0  502    0 -0.00000000000E+00  0.00000000000E+00  0.96813401148E+03  0.96813401148E+03  0.00000000000E+00 0. -1.
         21   -1    0    0  501  502  0.00000000000E+00 -0.00000000000E+00 -0.75120717418E+02  0.75120717418E+02  0.00000000000E+00 0.  1.
        -24    2    1    2    0    0  0.55610829482E+02 -0.31789243454E+02  0.36041806428E+03  0.37494127471E+03  0.81096597116E+02 0.  0.
         23    2    1    2    0    0 -0.14567809881E+03 -0.97088590708E+01  0.53703192013E+02  0.17926152509E+03  0.89074637968E+02 0.  0.
         13    1    3    3    0    0  0.17329064685E+01  0.23147802146E+02  0.49955110941E+02  0.55084814769E+02  0.00000000000E+00 0. -1.
        -14    1    3    3    0    0  0.53877923013E+02 -0.54937045600E+02  0.31046295334E+03  0.31985645994E+03  0.00000000000E+00 0.  1.
        -13    1    4    4    0    0 -0.28299554548E+02  0.31505194759E+02 -0.31827894277E+01  0.42468485173E+02  0.00000000000E+00 0.  1.
         13    1    4    4    0    0 -0.11737854426E+03 -0.41214053830E+02  0.56885981440E+02  0.13679303992E+03  0.00000000000E+00 0. -1.
          2    1    1    2  501    0  0.90067269326E+02  0.41498102525E+02  0.47889203776E+03  0.48905192909E+03  0.00000000000E+00 0. -1.
<scales pt_clust_5="13000.00000" pt_clust_6="13000.00000" pt_clust_7="13000.00000" pt_clust_8="13000.00000" pt_clust_9="99.16761"></scales>
<clustering>
<clus scale="   81.097">  5  6 -1 -1</clus>
<clus scale="   89.075">  7  8 -1 -1</clus>
<clus scale="   99.168">  2  9  1 -1</clus>
<clus scale="  107.473">  1  5  2 -1</clus>
<clus scale="   99.168">  2  5  1 -1</clus>
</clustering>
</event>
<event>
 9    1  0.6345107E-005  0.1423611E+03  0.7546771E-02  0.1211984E+00
         21   -1    0    0  501  502  0.00000000000E+00  0.00000000000E+00  0.27298764044E+02  0.27298764044E+02  0.00000000000E+00 0. -1.
          1   -1    0    0  502    0 -0.00000000000E+00 -0.00000000000E+00 -0.12718440419E+04  0.12718440419E+04  0.00000000000E+00 0. -1.
        -24    2    1    2    0    0 -0.74850162428E+02  0.23845551139E+02 -0.37882771843E+03  0.39592332512E+03  0.84105184144E+02 0.  0.
         23    2    1    2    0    0  0.14689969653E+03 -0.44061296555E+01 -0.70407325812E+03  0.72518042158E+03  0.92566496195E+02 0.  0.
         13    1    3    3    0    0 -0.67838953392E+02 -0.81865147674E+01 -0.15091356946E+03  0.16566245220E+03  0.00000000000E+00 0. -1.
        -14    1    3    3    0    0 -0.70112090363E+01  0.32032065907E+02 -0.22791414897E+03  0.23026087293E+03  0.00000000000E+00 0.  1.
        -13    1    4    4    0    0  0.11451442486E+03  0.70754777977E+01 -0.65676210670E+03  0.66670839254E+03  0.00000000000E+00 0. -1.
         13    1    4    4    0    0  0.32385271671E+02 -0.11481607453E+02 -0.47311151425E+02  0.58472029040E+02  0.00000000000E+00 0.  1.
          2    1    1    2  501    0 -0.72049534106E+02 -0.19439421484E+02 -0.16164430132E+03  0.17803905925E+03  0.00000000000E+00 0. -1.
<scales pt_clust_5="13000.00000" pt_clust_6="13000.00000" pt_clust_7="13000.00000" pt_clust_8="13000.00000" pt_clust_9="74.62591"></scales>
<clustering>
<clus scale="   74.626">  1  9  2 -1</clus>
<clus scale="   84.105">  5  6 -1 -1</clus>
<clus scale="   92.566">  7  8 -1 -1</clus>
<clus scale="  137.010">  2  5  1 -1</clus>
<clus scale="   74.626">  1  5  2 -1</clus>
</clustering>
</event>
<event>
 9    1  0.6345107E-005  0.1703100E+03  0.7546771E-02  0.1184868E+00
         -2   -1    0    0    0  501 -0.00000000000E+00  0.00000000000E+00  0.72439518057E+02  0.72439518057E+02  0.00000000000E+00 0.  1.
         21   -1    0    0  501  502  0.00000000000E+00 -0.00000000000E+00 -0.72671587592E+03  0.72671587592E+03  0.00000000000E+00 0.  1.
        -24    2    1    2    0    0 -0.13852365684E+02  0.12537671789E+03 -0.53310317976E+02  0.15814536384E+03  0.79099662941E+02 0.  0.
         23    2    1    2    0    0 -0.38623128615E+02 -0.98914480029E+02 -0.48860893269E+03  0.51421079090E+03  0.11999261623E+03 0.  0.
         13    1    3    3    0    0  0.23128415357E+01  0.24717636683E+02  0.20570726353E+02  0.32240744127E+02  0.00000000000E+00 0. -1.
        -14    1    3    3    0    0 -0.16165207220E+02  0.10065908120E+03 -0.73881044329E+02  0.12590461971E+03  0.00000000000E+00 0.  1.
        -11    1    4    4    0    0 -0.80940172709E+02 -0.69400355714E+02 -0.36535774013E+03  0.38059689857E+03  0.00000000000E+00 0.  1.
         11    1    4    4    0    0  0.42317044094E+02 -0.29514124315E+02 -0.12325119256E+03  0.13361389233E+03  0.00000000000E+00 0. -1.
         -1    1    1    2    0  502  0.52475494299E+02 -0.26462237858E+02 -0.11235710720E+03  0.12679923924E+03  0.00000000000E+00 0.  1.
<scales pt_clust_5="13000.00000" pt_clust_6="13000.00000" pt_clust_7="13000.00000" pt_clust_8="13000.00000" pt_clust_9="58.77012"></scales>
<clustering>
<clus scale="   58.770">  2  9  1 -1</clus>
<clus scale="   79.100">  5  6 -1 -1</clus>
<clus scale="  119.993">  7  8 -1 -1</clus>
<clus scale="  144.444">  1  5  2 -1</clus>
<clus scale="   58.770">  2  5  1 -1</clus>
</clustering>
</event>
<event>
 9    1  0.6345107E-005  0.9743006E+02  0.7546771E-02  0.1292861E+00
          1   -1    0    0  502    0 -0.00000000000E+00  0.00000000000E+00  0.51442358456E+03  0.51442358456E+03  0.00000000000E+00 0. -1.
         21   -1    0    0  501  502  0.00000000000E+00 -0.00000000000E+00 -0.78335106114E+02  0.78335106114E+02  0.00000000000E+00 0. -1.
        -24    2    1    2    0    0  0.17847591211E+02  0.43067277820E+02  0.36098396212E+03  0.37267425081E+03  0.80020930885E+02 0.  0.
         23    2    1    2    0    0  0.25011543600E+02  0.34159864425E+02  0.82861566478E+02  0.13142154592E+03  0.92806841780E+02 0.  0.
         13    1    3    3    0    0  0.47049834867E+02  0.35907157915E+02  0.28237893497E+03  0.28851494565E+03  0.00000000000E+00 0. -1.
        -14    1    3    3    0    0 -0.29202243656E+02  0.71601199051E+01  0.78605027151E+02  0.84159305159E+02  0.00000000000E+00 0.  1.
        -13    1    4    4    0    0 -0.31045881210E+02  0.22751386443E+02  0.11930878326E+02  0.40296627437E+02  0.00000000000E+00 0.  1.
         13    1    4    4    0    0  0.56057424810E+02  0.11408477982E+02  0.70930688152E+02  0.91124918479E+02  0.00000000000E+00 0. -1.
          2    1    1    2  501    0 -0.42859134811E+02 -0.77227142245E+02 -0.77570501495E+01  0.88662893948E+02  0.00000000000E+00 0. -1.
<scales pt_clust_5="13000.00000" pt_clust_6="13000.00000" pt_clust_7="13000.00000" pt_clust_8="13000.00000" pt_clust_9="88.32291"></scales>
<clustering>
<clus scale="   80.021">  5  6 -1 -1</clus>
<clus scale="   88.323">  2  9  1 -1</clus>
<clus scale="   85.340">  1  5  2 -1</clus>
<clus scale="   92.807">  7  8 -1 -1</clus>
<clus scale="   88.323">  2  5  1 -1</clus>
</clustering>
</event>
<event>
 9    1  0.6345107E-005  0.1107277E+03  0.7546771E-02  0.1263769E+00
         -4   -1    0    0    0  501 -0.00000000000E+00  0.00000000000E+00  0.55049428166E+03  0.55049428166E+03  0.00000000000E+00 0.  1.
         21   -1    0    0  501  502  0.00000000000E+00 -0.00000000000E+00 -0.11836093154E+03  0.11836093154E+03  0.00000000000E+00 0.  1.
        -24    2    1    2    0    0  0.78472068638E+02 -0.40559010997E+02  0.41308887621E+03  0.43008001972E+03  0.80768216454E+02 0.  0.
         23    2    1    2    0    0  0.25801904238E+01 -0.34917556439E+01  0.84845648853E+02  0.12546264624E+03  0.92321404514E+02 0.  0.
         11    1    3    3    0    0  0.49194606376E+02 -0.48554002838E+01  0.81709352137E+02  0.95499227406E+02  0.00000000000E+00 0. -1.
        -12    1    3    3    0    0  0.29277462261E+02 -0.35703610713E+02  0.33137952407E+03  0.33458079232E+03  0.00000000000E+00 0.  1.
        -13    1    4    4    0    0  0.35597221946E+01  0.36347433314E+02  0.76466003293E+02  0.84739938578E+02  0.00000000000E+00 0. -1.
         13    1    4    4    0    0 -0.97953177085E+00 -0.39839188958E+02  0.83796455600E+01  0.40722707659E+02  0.00000000000E+00 0.  1.
         -3    1    1    2    0  502 -0.81052259062E+02  0.44050766641E+02 -0.65801174932E+02  0.11331254724E+03  0.00000000000E+00 0.  1.
<scales pt_clust_5="13000.00000" pt_clust_6="13000.00000" pt_clust_7="13000.00000" pt_clust_8="13000.00000" pt_clust_9="92.24933"></scales>
<clustering>
<clus scale="   80.768">  5  6 -1 -1</clus>
<clus scale="   92.249">  2  9  1 -1</clus>
<clus scale="   92.321">  7  8 -1 -1</clus>
<clus scale="  101.296">  1  5  2 -1</clus>
<clus scale="   92.249">  2  5  1 -1</clus>
</clustering>
</event>
<event>
 9    1  0.6345107E-005  0.9418211E+02  0.7546771E-02  0.1297700E+00
         21   -1    0    0  501  502  0.00000000000E+00  0.00000000000E+00  0.16555198958E+03  0.16555198958E+03  0.00000000000E+00 0. -1.
          1   -1    0    0  502    0 -0.00000000000E+00 -0.00000000000E+00 -0.28910582696E+03  0.28910582696E+03  0.00000000000E+00 0. -1.
         23    2    1    2    0    0 -0.21493270868E+02 -0.11016848672E+02 -0.21917402697E+03  0.23784998314E+03  0.89174148354E+02 0.  0.
        -24    2    1    2    0    0  0.50010561574E+02  0.31100075124E+02 -0.14694751309E+02  0.10111013231E+03  0.80864406244E+02 0.  0.
         11    1    4    4    0    0  0.70136149505E+02  0.31569802309E+02 -0.12903044616E+01  0.76924617457E+02  0.00000000000E+00 0. -1.
        -12    1    4    4    0    0 -0.20125587932E+02 -0.46972718477E+00 -0.13404446847E+02  0.24185514849E+02  0.00000000000E+00 0.  1.
        -11    1    3    3    0    0  0.30129326214E+01  0.33374821332E+02 -0.13903385727E+03  0.14301527865E+03  0.00000000000E+00 0.  1.
         11    1    3    3    0    0 -0.24506203489E+02 -0.44391670004E+02 -0.80140169705E+02  0.94834704489E+02  0.00000000000E+00 0. -1.
          2    1    1    2  501    0 -0.28517290706E+02 -0.20083226452E+02  0.11031494090E+03  0.11569770110E+03  0.00000000000E+00 0. -1.
<scales pt_clust_5="13000.00000" pt_clust_6="13000.00000" pt_clust_7="13000.00000" pt_clust_8="13000.00000" pt_clust_9="34.87939"></scales>
<clustering>
<clus scale="   34.879">  1  9  2 -1</clus>
<clus scale="   80.864">  5  6 -1 -1</clus>
<clus scale="   86.356">  1  5  2 -1</clus>
<clus scale="   89.174">  7  8 -1 -1</clus>
<clus scale="   34.879">  1  5  2 -1</clus>
</clustering>
</event>
<event>
 9    1  0.6345107E-005  0.1291279E+03  0.7546771E-02  0.1232211E+00
          1   -1    0    0  502    0 -0.00000000000E+00  0.00000000000E+00  0.23129085064E+03  0.23129085064E+03  0.00000000000E+00 0. -1.
         21   -1    0    0  501  502  0.00000000000E+00 -0.00000000000E+00 -0.13300488037E+03  0.13300488037E+03  0.00000000000E+00 0.  1.
         23    2    1    2    0    0  0.32040426603E+02  0.48944488611E+02  0.34663815692E+02  0.11663415265E+03  0.94761772588E+02 0.  0.
        -24    2    1    2    0    0 -0.79416945922E+02 -0.11055303231E+03  0.25403395505E+02  0.16105429932E+03  0.82244334606E+02 0.  0.
         11    1    4    4    0    0 -0.30592220656E+01 -0.62139668616E+02  0.32815470461E+02  0.70338839605E+02  0.00000000000E+00 0. -1.
        -12    1    4    4    0    0 -0.76357723856E+02 -0.48413363689E+02 -0.74120749563E+01  0.90715459716E+02  0.00000000000E+00 0.  1.
        -13    1    3    3    0    0  0.27242396924E+02 -0.22104846662E+02 -0.44905243358E+01  0.35368591221E+02  0.00000000000E+00 0. -1.
         13    1    3    3    0    0  0.47980296781E+01  0.71049335274E+02  0.39154340027E+02  0.81265561430E+02  0.00000000000E+00 0.  1.
          2    1    1    2  501    0  0.47376519319E+02  0.61608543694E+02  0.38218759074E+02  0.86607279048E+02  0.00000000000E+00 0. -1.
<scales pt_clust_5="13000.00000" pt_clust_6="13000.00000" pt_clust_7="13000.00000" pt_clust_8="13000.00000" pt_clust_9="77.71842"></scales>
<clustering>
<clus scale="   77.718">  2  9  1 -1</clus>
<clus scale="   82.244">  5  6 -1 -1</clus>
<clus scale="   94.762">  7  8 -1 -1</clus>
<clus scale="  120.243">  2  5  1 -1</clus>
<clus scale="   77.718">  2  5  1 -1</clus>
</clustering>
</event>
<event>
 9    1  0.6345107E-005  0.1488307E+03  0.7546771E-02  0.1214635E+00
          1   -1    0    0  502    0 -0.00000000000E+00  0.00000000000E+00  0.16141627537E+04  0.16141627537E+04  0.00000000000E+00 0. -1.
         21   -1    0    0  501  502  0.00000000000E+00 -0.00000000000E+00 -0.24804899870E+02  0.24804899870E+02  0.00000000000E+00 0. -1.
        -24    2    1    2    0    0 -0.68499894574E+02  0.42718304229E+02  0.44421415299E+03  0.45844667085E+03  0.79561593864E+02 0.  0.
         23    2    1    2    0    0  0.80740946234E+02  0.87466660753E+02  0.48909794011E+03  0.51157105289E+03  0.91206523871E+02 0.  0.
         13    1    3    3    0    0 -0.65546303273E+02  0.58043951074E+02  0.27703513188E+03  0.29054067258E+03  0.00000000000E+00 0. -1.
        -14    1    3    3    0    0 -0.29535913013E+01 -0.15325646845E+02  0.16717902111E+03  0.16790599826E+03  0.00000000000E+00 0.  1.
        -13    1    4    4    0    0 -0.22127452311E+01  0.36962368432E+02  0.52141826356E+02  0.63952192905E+02  0.00000000000E+00 0.  1.
         13    1    4    4    0    0  0.82953691466E+02  0.50504292321E+02  0.43695611375E+03  0.44761885999E+03  0.00000000000E+00 0. -1.
          2    1    1    2  501    0 -0.12241051661E+02 -0.13018496498E+03  0.65604576076E+03  0.66894992986E+03  0.00000000000E+00 0. -1.
<scales pt_clust_5="13000.00000" pt_clust_6="13000.00000" pt_clust_7="13000.00000" pt_clust_8="13000.00000" pt_clust_9="117.60942"></scales>
<clustering>
<clus scale="   79.562">  5  6 -1 -1</clus>
<clus scale="   91.207">  7  8 -1 -1</clus>
<clus scale="  113.345">  1  5  2 -1</clus>
<clus scale="  117.609">  2  9  1 -1</clus>
<clus scale="  117.609">  2  5  1 -1</clus>
</clustering>
</event>
<event>
 9    1  0.6345107E-005  0.1012368E+03  0.7546771E-02  0.1279150E+00
          1   -1    0    0  502    0 -0.00000000000E+00  0.00000000000E+00  0.24851940795E+03  0.24851940795E+03  0.00000000000E+00 0. -1.
         21   -1    0    0  501  502  0.00000000000E+00 -0.00000000000E+00 -0.64121939921E+02  0.64121939921E+02  0.00000000000E+00 0. -1.
        -24    2    1    2    0    0 -0.51466841448E+02  0.21289278319E+02  0.13669630629E+03  0.17108000695E+03  0.86489418342E+02 0.  0.
         23    2    1    2    0    0  0.18505246009E+02 -0.24845893393E+02  0.16857565731E+02  0.96279515654E+02  0.89586857652E+02 0.  0.
         11    1    3    3    0    0 -0.60692095160E+02 -0.23372623516E+01  0.44062667974E+02  0.75036737130E+02  0.00000000000E+00 0. -1.
        -12    1    3    3    0    0  0.92252537115E+01  0.23626540671E+02  0.92633638319E+02  0.96043269823E+02  0.00000000000E+00 0.  1.
        -11    1    4    4    0    0 -0.13387855945E+02  0.15305436616E+02 -0.23463281972E+02  0.31048617967E+02  0.00000000000E+00 0. -1.
         11    1    4    4    0    0  0.31893101954E+02 -0.40151330008E+02  0.40320847702E+02  0.65230897687E+02  0.00000000000E+00 0.  1.
          2    1    1    2  501    0  0.32961595439E+02  0.35566150735E+01  0.30843596010E+02  0.45281825267E+02  0.00000000000E+00 0. -1.
<scales pt_clust_5="13000.00000" pt_clust_6="13000.00000" pt_clust_7="13000.00000" pt_clust_8="13000.00000" pt_clust_9="33.15294"></scales>
<clustering>
<clus scale="   33.153">  2  9  1 -1</clus>
<clus scale="   86.489">  5  6 -1 -1</clus>
<clus scale="   89.587">  7  8 -1 -1</clus>
<clus scale="   98.506">  1  5  2 -1</clus>
<clus scale="   33.153">  2  5  1 -1</clus>
</clustering>
</event>
<event>
 9    1  0.6345107E-005  0.8759638E+02  0.7546771E-02  0.1312868E+00
         -2   -1    0    0    0  501 -0.00000000000E+00  0.00000000000E+00  0.11839619824E+03  0.11839619824E+03  0.00000000000E+00 0.  1.
         21   -1    0    0  501  502  0.00000000000E+00 -0.00000000000E+00 -0.21031856472E+03  0.21031856472E+03  0.00000000000E+00 0.  1.
        -24    2    1    2    0    0  0.12050477325E+02  0.10864215065E+02  0.81086612189E+02  0.11532362072E+03  0.80381923639E+02 0.  0.
         23    2    1    2    0    0  0.31206505415E+01  0.15941050754E+02 -0.95616641567E+02  0.13009492841E+03  0.86708088987E+02 0.  0.
         11    1    3    3    0    0 -0.12927456570E+02 -0.30301444576E+02  0.41518091930E+02  0.53000458811E+02  0.00000000000E+00 0. -1.
        -12    1    3    3    0    0  0.24977933895E+02  0.41165659641E+02  0.39568520259E+02  0.62323161913E+02  0.00000000000E+00 0.  1.
        -13    1    4    4    0    0 -0.30400887608E+02  0.29831297499E+02 -0.21811699035E+02  0.47852591284E+02  0.00000000000E+00 0.  1.
         13    1    4    4    0    0  0.33521538149E+02 -0.13890246745E+02 -0.73804942532E+02  0.82242337130E+02  0.00000000000E+00 0. -1.
         -1    1    1    2    0  502 -0.15171127867E+02 -0.26805265819E+02 -0.77392337102E+02  0.83296213830E+02  0.00000000000E+00 0.  1.
<scales pt_clust_5="13000.00000" pt_clust_6="13000.00000" pt_clust_7="13000.00000" pt_clust_8="13000.00000" pt_clust_9="30.80074"></scales>
<clustering>
<clus scale="   30.801">  2  9  1 -1</clus>
<clus scale="   80.382">  5  6 -1 -1</clus>
<clus scale="   81.339">  1  5  2 -1</clus>
<clus scale="   86.708">  7  8 -1 -1</clus>
<clus scale="   30.801">  2  5  1 -1</clus>
</clustering>
</event>
<event>
 9    1  0.6345107E-005  0.1295572E+03  0.7546771E-02  0.1230855E+00
         21   -1    0    0  501  502  0.00000000000E+00  0.00000000000E+00  0.12917209082E+03  0.12917209082E+03  0.00000000000E+00 0.  1.
         -4   -1    0    0    0  501 -0.00000000000E+00 -0.00000000000E+00 -0.88260576792E+03  0.88260576792E+03  0.00000000000E+00 0.  1.
         23    2    1    2    0    0  0.84266476893E+02  0.50293690495E+01 -0.57784622386E+03  0.59098886635E+03  0.90749369369E+02 0.  0.
        -24    2    1    2    0    0 -0.10932239159E+03 -0.41612123825E+02 -0.27639094097E+03  0.31066433600E+03  0.80233554462E+02 0.  0.
         11    1    4    4    0    0 -0.45340245145E+02  0.55862755016E+01 -0.18003672420E+03  0.18574220405E+03  0.00000000000E+00 0. -1.
        -12    1    4    4    0    0 -0.63982146441E+02 -0.47198399327E+02 -0.96354216763E+02  0.12492213195E+03  0.00000000000E+00 0.  1.
        -11    1    3    3    0    0  0.10251218751E+03  0.13703314632E+02 -0.46682025476E+03  0.47813981185E+03  0.00000000000E+00 0.  1.
         11    1    3    3    0    0 -0.18245710614E+02 -0.86739455827E+01 -0.11102596911E+03  0.11284905451E+03  0.00000000000E+00 0. -1.
         -3    1    1    2    0  502  0.25055914693E+02  0.36582754776E+02  0.10080348773E+03  0.11012465639E+03  0.00000000000E+00 0.  1.
<scales pt_clust_5="13000.00000" pt_clust_6="13000.00000" pt_clust_7="13000.00000" pt_clust_8="13000.00000" pt_clust_9="44.34069"></scales>
<clustering>
<clus scale="   44.341">  1  9  2 -1</clus>
<clus scale="   80.234">  5  6 -1 -1</clus>
<clus scale="   90.749">  7  8 -1 -1</clus>
<clus scale="  122.422">  1  5  2 -1</clus>
<clus scale="   44.341">  1  5  2 -1</clus>
</clustering>
</event>
<event>
 9    1  0.6345107E-005  0.1320001E+03  0.7546771E-02  0.1227654E+00
          1   -1    0    0  502    0 -0.00000000000E+00  0.00000000000E+00  0.22510143186E+03  0.22510143186E+03  0.00000000000E+00 0. -1.
         21   -1    0    0  501  502  0.00000000000E+00 -0.00000000000E+00 -0.12771155161E+03  0.12771155161E+03  0.00000000000E+00 0. -1.
         23    2    1    2    0    0  0.33830777601E+02 -0.76976549551E+02  0.83071590628E+02  0.15017284060E+03  0.92634130802E+02 0.  0.
        -24    2    1    2    0    0 -0.84909880337E+02  0.87121800334E+02 -0.79667130749E+01  0.14599544149E+03  0.80320013354E+02 0.  0.
         11    1    4    4    0    0 -0.63619168352E+02  0.75459242956E+02  0.28008207623E+02  0.10259607996E+03  0.00000000000E+00 0. -1.
        -12    1    4    4    0    0 -0.21290711986E+02  0.11662557378E+02 -0.35974920698E+02  0.43399361524E+02  0.00000000000E+00 0.  1.
        -11    1    3    3    0    0  0.60943797318E+02 -0.74656175965E+02  0.54497860227E+02  0.11071453297E+03  0.00000000000E+00 0. -1.
         11    1    3    3    0    0 -0.27113019717E+02 -0.23203735863E+01  0.28573730402E+02  0.39458307627E+02  0.00000000000E+00 0.  1.
          2    1    1    2  501    0  0.51079102736E+02 -0.10145250783E+02  0.22285002692E+02  0.56644701383E+02  0.00000000000E+00 0. -1.
<scales pt_clust_5="13000.00000" pt_clust_6="13000.00000" pt_clust_7="13000.00000" pt_clust_8="13000.00000" pt_clust_9="52.07690"></scales>
<clustering>
<clus scale="   52.077">  2  9  1 -1</clus>
<clus scale="   80.320">  5  6 -1 -1</clus>
<clus scale="   92.634">  7  8 -1 -1</clus>
<clus scale="  123.670">  2  5  1 -1</clus>
<clus scale="   52.077">  2  5  1 -1</clus>
</clustering>
</event>
<event>
 9    1  0.6345107E-005  0.1229884E+03  0.7546771E-02  0.1241589E+00
         21   -1    0    0  501  502  0.00000000000E+00  0.00000000000E+00  0.10017785951E+03  0.10017785951E+03  0.00000000000E+00 0. -1.
         -2   -1    0    0    0  501 -0.00000000000E+00 -0.00000000000E+00 -0.29133833145E+03  0.29133833145E+03  0.00000000000E+00 0.  1.
         23    2    1    2    0    0  0.24060583054E+02  0.92521626398E+02 -0.19265051321E+03  0.23374120833E+03  0.91550910549E+02 0.  0.
        -24    2    1    2    0    0  0.53152162333E+01 -0.44234379940E+02  0.26968227254E+02  0.95777130123E+02  0.80380603887E+02 0.  0.
         13    1    4    4    0    0  0.12175176813E+02  0.18118009535E+02  0.24761749860E+02  0.33009717600E+02  0.00000000000E+00 0. -1.
        -14    1    4    4    0    0 -0.68599605800E+01 -0.62352389475E+02  0.22064773941E+01  0.62767412523E+02  0.00000000000E+00 0.  1.
        -11    1    3    3    0    0 -0.25776643169E+02  0.23990065820E+01 -0.63382236015E+02  0.68465308061E+02  0.00000000000E+00 0.  1.
         11    1    3    3    0    0  0.49837226223E+02  0.90122619816E+02 -0.12926827719E+03  0.16527590026E+03  0.00000000000E+00 0. -1.
         -1    1    1    2    0  502 -0.29375799288E+02 -0.48287246458E+02 -0.25478185984E+02  0.61997852506E+02  0.00000000000E+00 0.  1.
<scales pt_clust_5="13000.00000" pt_clust_6="13000.00000" pt_clust_7="13000.00000" pt_clust_8="13000.00000" pt_clust_9="56.52076"></scales>
<clustering>
<clus scale="   56.521">  1  9  2 -1</clus>
<clus scale="   80.381">  5  6 -1 -1</clus>
<clus scale="   91.551">  7  8 -1 -1</clus>
<clus scale="  114.916">  1  5  2 -1</clus>
<clus scale="   56.521">  1  5  2 -1</clus>
</clustering>
</event>
<event>
 9    1  0.6345107E-005  0.1215999E+03  0.7546771E-02  0.1240866E+00
         21   -1    0    0  501  502  0.00000000000E+00  0.00000000000E+00  0.38401888870E+02  0.38401888870E+02  0.00000000000E+00 0. -1.
          1   -1    0    0  502    0 -0.00000000000E+00 -0.00000000000E+00 -0.73515854087E+03  0.73515854087E+03  0.00000000000E+00 0. -1.
         23    2    1    2    0    0 -0.14426005815E+02  0.10140640947E+03 -0.28634855956E+03  0.31481979973E+03  0.81391886672E+02 0.  0.
        -24    2    1    2    0    0 -0.18734729259E+02 -0.72764259527E+02 -0.11078423049E+03  0.15592968939E+03  0.79970586876E+02 0.  0.
         11    1    4    4    0    0 -0.10510761676E+02 -0.85339566729E+02 -0.11159923623E+03  0.14088189127E+03  0.00000000000E+00 0. -1.
        -12    1    4    4    0    0 -0.82239675826E+01  0.12575307202E+02  0.81500574530E+00  0.15047798124E+02  0.00000000000E+00 0.  1.
        -13    1    3    3    0    0  0.11894712718E+02  0.38062683687E+02 -0.31261173838E+02  0.50670633210E+02  0.00000000000E+00 0.  1.
         13    1    3    3    0    0 -0.26320718532E+02  0.63343725780E+02 -0.25508738572E+03  0.26414916652E+03  0.00000000000E+00 0. -1.
          2    1    1    2  501    0  0.33160735073E+02 -0.28642149940E+02 -0.29962386196E+03  0.30281094062E+03  0.00000000000E+00 0. -1.
<scales pt_clust_5="13000.00000" pt_clust_6="13000.00000" pt_clust_7="13000.00000" pt_clust_8="13000.00000" pt_clust_9="43.81791"></scales>
<clustering>
<clus scale="   43.818">  1  9  2 -1</clus>
<clus scale="   79.971">  5  6 -1 -1</clus>
<clus scale="   81.392">  7  8 -1 -1</clus>
<clus scale="  120.653">  1  5  2 -1</clus>
<clus scale="   43.818">  1  5  2 -1</clus>
</clustering>
</event>
<event>
 9    1  0.6345107E-005  0.9145156E+02  0.7546771E-02  0.1302077E+00
         21   -1    0    0  501  502  0.00000000000E+00  0.00000000000E+00  0.81116034235E+02  0.81116034235E+02  0.00000000000E+00 0.  1.
         -2   -1    0    0    0  501 -0.00000000000E+00 -0.00000000000E+00 -0.35899459580E+03  0.35899459580E+03  0.00000000000E+00 0.  1.
         23    2    1    2    0    0  0.34435108408E+02 -0.60687019825E+01 -0.95722417196E+02  0.13596646391E+03  0.90008290276E+02 0.  0.
        -24    2    1    2    0    0  0.35443239888E+02 -0.19516055984E+01  0.15939182725E+02  0.93932207596E+02  0.85493684326E+02 0.  0.
         11    1    4    4    0    0  0.39322963794E+02 -0.16608774734E+02 -0.25557250683E+02  0.49752587291E+02  0.00000000000E+00 0. -1.
        -12    1    4    4    0    0 -0.38797239055E+01  0.14657169136E+02  0.41496433408E+02  0.44179620304E+02  0.00000000000E+00 0.  1.
        -11    1    3    3    0    0  0.44635165297E+02 -0.40580139353E+02 -0.64620526001E+02  0.88401685909E+02  0.00000000000E+00 0.  1.
         11    1    3    3    0    0 -0.10200056889E+02  0.34511437371E+02 -0.31101891195E+02  0.47564777996E+02  0.00000000000E+00 0. -1.
         -1    1    1    2    0  502 -0.69878348297E+02  0.80203075809E+01 -0.19809532710E+03  0.21021195854E+03  0.00000000000E+00 0.  1.
<scales pt_clust_5="13000.00000" pt_clust_6="13000.00000" pt_clust_7="13000.00000" pt_clust_8="13000.00000" pt_clust_9="70.33714"></scales>
<clustering>
<clus scale="   70.337">  1  9  2 -1</clus>
<clus scale="   85.494">  5  6 -1 -1</clus>
<clus scale="   87.012">  1  5  2 -1</clus>
<clus scale="   90.008">  7  8 -1 -1</clus>
<clus scale="   70.337">  1  5  2 -1</clus>
</clustering>
</event>
<event>
 9    1  0.6345107E-005  0.1285532E+03  0.7546771E-02  0.1233208E+00
          3   -1    0    0  502    0 -0.00000000000E+00  0.00000000000E+00  0.72457866499E+03  0.72457866499E+03  0.00000000000E+00 0. -1.
         21   -1    0    0  501  502  0.00000000000E+00 -0.00000000000E+00 -0.41583363175E+02  0.41583363175E+02  0.00000000000E+00 0. -1.
        -24    2    1    2    0    0 -0.69633908834E+02 -0.43645410725E+02  0.38915280272E+03  0.40488097682E+03  0.75729111884E+02 0.  0.
         23    2    1    2    0    0  0.85804710123E+02  0.95095251945E+02  0.21645914755E+03  0.26695839197E+03  0.89479971293E+02 0.  0.
         13    1    3    3    0    0 -0.71551727586E+02 -0.34780196909E+02  0.19621525462E+03  0.21173034257E+03  0.00000000000E+00 0. -1.
        -14    1    3    3    0    0  0.19178187520E+01 -0.88652138158E+01  0.19293754810E+03  0.19315063425E+03  0.00000000000E+00 0.  1.
        -11    1    4    4    0    0  0.51824293845E+02  0.86048463508E+02  0.20770736845E+03  0.23072157769E+03  0.00000000000E+00 0.  1.
         11    1    4    4    0    0  0.33980416279E+02  0.90467884371E+01  0.87517791004E+01  0.36236814277E+02  0.00000000000E+00 0. -1.
          4    1    1    2  501    0 -0.16170801289E+02 -0.51449841220E+02  0.77383351547E+02  0.94322659380E+02  0.00000000000E+00 0. -1.
<scales pt_clust_5="13000.00000" pt_clust_6="13000.00000" pt_clust_7="13000.00000" pt_clust_8="13000.00000" pt_clust_9="53.93126"></scales>
<clustering>
<clus scale="   53.931">  2  9  1 -1</clus>
<clus scale="   75.729">  5  6 -1 -1</clus>
<clus scale="   89.480">  7  8 -1 -1</clus>
<clus scale="  119.391">  1  5  2 -1</clus>
<clus scale="   53.931">  2  5  1 -1</clus>
</clustering>
</event>
<event>
 9    1  0.6345107E-005  0.9207833E+02  0.7546771E-02  0.1304075E+00
         21   -1    0    0  501  502  0.00000000000E+00  0.00000000000E+00  0.22213972455E+03  0.22213972455E+03  0.00000000000E+00 0. -1.
          1   -1    0    0  502    0 -0.00000000000E+00 -0.00000000000E+00 -0.31347254706E+03  0.31347254706E+03  0.00000000000E+00 0. -1.
        -24    2    1    2    0    0 -0.40423504682E+01  0.12896447506E+02 -0.20249027040E+03  0.21781741500E+03  0.79116734740E+02 0.  0.
         23    2    1    2    0    0 -0.25697514860E+02 -0.58988207986E+02 -0.68682204929E+02  0.12977568020E+03  0.89356090700E+02 0.  0.
         13    1    3    3    0    0 -0.16047400877E+02  0.33134947200E+02 -0.18465888360E+03  0.18829324761E+03  0.00000000000E+00 0. -1.
        -14    1    3    3    0    0  0.12005050408E+02 -0.20238499694E+02 -0.17831386793E+02  0.29524167391E+02  0.00000000000E+00 0.  1.
        -13    1    4    4    0    0  0.30540907238E+02 -0.33357913252E+02 -0.14248507473E+02  0.47418533894E+02  0.00000000000E+00 0.  1.
         13    1    4    4    0    0 -0.56238422098E+02 -0.25630294734E+02 -0.54433697456E+02  0.82357146302E+02  0.00000000000E+00 0. -1.
          2    1    1    2  501    0  0.29739865328E+02  0.46091760480E+02  0.17983965282E+03  0.18801917642E+03  0.00000000000E+00 0. -1.
<scales pt_clust_5="13000.00000" pt_clust_6="13000.00000" pt_clust_7="13000.00000" pt_clust_8="13000.00000" pt_clust_9="54.85353"></scales>
<clustering>
<clus scale="   54.854">  1  9  2 -1</clus>
<clus scale="   79.117">  5  6 -1 -1</clus>
<clus scale="   82.179">  2  5  1 -1</clus>
<clus scale="   89.356">  7  8 -1 -1</clus>
<clus scale="   54.854">  1  5  2 -1</clus>
</clustering>
</event>
<event>
 9    1  0.6345107E-005  0.1473315E+03  0.7546771E-02  0.1208015E+00
         21   -1    0    0  501  502  0.00000000000E+00  0.00000000000E+00  0.26659580337E+03  0.26659580337E+03  0.00000000000E+00 0.  1.
         -4   -1    0    0    0  501 -0.00000000000E+00 -0.00000000000E+00 -0.24561550782E+03  0.24561550782E+03  0.00000000000E+00 0.  1.
        -24    2    1    2    0    0  0.48573593823E+02 -0.11748773811E+03 -0.96406318042E+02  0.17674196793E+03  0.76031456939E+02 0.  0.
         23    2    1    2    0    0 -0.13303879843E+03 -0.21825921675E+00  0.33150537337E+02  0.16788417345E+03  0.96885334517E+02 0.  0.
         11    1    3    3    0    0 -0.19799320530E+02 -0.20791934205E+02 -0.11065978763E+02  0.30769684876E+02  0.00000000000E+00 0. -1.
        -12    1    3    3    0    0  0.68372914352E+02 -0.96695803910E+02 -0.85340339279E+02  0.14597228305E+03  0.00000000000E+00 0.  1.
        -13    1    4    4    0    0 -0.34872981246E+02 -0.31678676634E+02  0.43702365580E+02  0.64261653663E+02  0.00000000000E+00 0. -1.
         13    1    4    4    0    0 -0.98165817188E+02  0.31460417418E+02 -0.10551828243E+02  0.10362251979E+03  0.00000000000E+00 0.  1.
         -3    1    1    2    0  502  0.84465204612E+02  0.11770599733E+03  0.84236076249E+02  0.16758516981E+03  0.00000000000E+00 0.  1.
<scales pt_clust_5="13000.00000" pt_clust_6="13000.00000" pt_clust_7="13000.00000" pt_clust_8="13000.00000" pt_clust_9="144.87606"></scales>
<clustering>
<clus scale="   76.031">  5  6 -1 -1</clus>
<clus scale="   96.885">  7  8 -1 -1</clus>
<clus scale="  144.876">  1  9  2 -1</clus>
<clus scale="  134.538">  2  5  1 -1</clus>
<clus scale="  144.876">  1  5  2 -1</clus>
</clustering>
</event>
<event>
 9    1  0.6345107E-005  0.1222695E+03  0.7546771E-02  0.1257617E+00
          1   -1    0    0  502    0 -0.00000000000E+00  0.00000000000E+00  0.51634217957E+03  0.51634217957E+03  0.00000000000E+00 0. -1.
         21   -1    0    0  501  502  0.00000000000E+00 -0.00000000000E+00 -0.60034617832E+02  0.60034617832E+02  0.00000000000E+00 0.  1.
        -24    2    1    2    0    0 -0.12578735614E+02  0.24604575699E+02  0.20989643754E+02  0.87446610704E+02  0.80266648390E+02 0.  0.
         23    2    1    2    0    0 -0.69099324269E+02  0.54299618940E+01  0.34592085476E+03  0.36416956059E+03  0.90299667766E+02 0.  0.
         11    1    3    3    0    0 -0.35371651519E+02  0.19774925136E+02  0.40325351053E+02  0.57169356589E+02  0.00000000000E+00 0. -1.
        -12    1    3    3    0    0  0.22792915904E+02  0.48296505636E+01 -0.19335707299E+02  0.30277254115E+02  0.00000000000E+00 0.  1.
        -11    1    4    4    0    0  0.19313791147E+02 -0.69107297250E+01  0.11057725401E+03  0.11246381560E+03  0.00000000000E+00 0.  1.
         11    1    4    4    0    0 -0.88413115416E+02  0.12340691619E+02  0.23534360075E+03  0.25170574499E+03  0.00000000000E+00 0. -1.
          2    1    1    2  501    0  0.81678059884E+02 -0.30034537593E+02  0.89397063227E+02  0.12476062611E+03  0.00000000000E+00 0. -1.
<scales pt_clust_5="13000.00000" pt_clust_6="13000.00000" pt_clust_7="13000.00000" pt_clust_8="13000.00000" pt_clust_9="82.43661"></scales>
<clustering>
<clus scale="   80.267">  5  6 -1 -1</clus>
<clus scale="   84.890">  1  5  2 -1</clus>
<clus scale="   82.437">  2  9  1 -1</clus>
<clus scale="   90.300">  7  8 -1 -1</clus>
<clus scale="   82.437">  2  5  1 -1</clus>
</clustering>
</event>
<event>
 9    1  0.6345107E-005  0.1214331E+03  0.7546771E-02  0.1243827E+00
         -2   -1    0    0    0  501 -0.00000000000E+00  0.00000000000E+00  0.16960883830E+03  0.16960883830E+03  0.00000000000E+00 0.  1.
         21   -1    0    0  501  502  0.00000000000E+00 -0.00000000000E+00 -0.16143121244E+03  0.16143121244E+03  0.00000000000E+00 0. -1.
        -24    2    1    2    0    0 -0.70329639693E+02  0.38896553595E+02  0.97105099372E+02  0.15029500973E+03  0.81853463736E+02 0.  0.
         23    2    1    2    0    0  0.50889772951E+02 -0.62116947318E+02 -0.88099075599E+02  0.15045013472E+03  0.91790586566E+02 0.  0.
         13    1    3    3    0    0 -0.67048558464E+02  0.11009647707E+02  0.10122530429E+03  0.12191506783E+03  0.00000000000E+00 0. -1.
        -14    1    3    3    0    0 -0.32810812281E+01  0.27886905889E+02 -0.41202049164E+01  0.28379941907E+02  0.00000000000E+00 0.  1.
        -11    1    4    4    0    0  0.35686181391E+02 -0.17419208437E+02 -0.94784103401E+02  0.10276652481E+03  0.00000000000E+00 0. -1.
         11    1    4    4    0    0  0.15203591560E+02 -0.44697738881E+02  0.66850278016E+01  0.47683609911E+02  0.00000000000E+00 0.  1.
         -1    1    1    2    0  502  0.19439866741E+02  0.23220393723E+02 -0.82839791454E+00  0.30294906282E+02  0.00000000000E+00 0.  1.
<scales pt_clust_5="13000.00000" pt_clust_6="13000.00000" pt_clust_7="13000.00000" pt_clust_8="13000.00000" pt_clust_9="30.28358"></scales>
<clustering>
<clus scale="   30.284">  2  9  1 -1</clus>
<clus scale="   81.853">  5  6 -1 -1</clus>
<clus scale="   91.791">  7  8 -1 -1</clus>
<clus scale="  114.107">  1  5  2 -1</clus>
<clus scale="   30.284">  2  5  1 -1</clus>
</clustering>
</event>
<event>
 9    1  0.6345107E-005  0.1769986E+03  0.7546771E-02  0.1172118E+00
         21   -1    0    0  501  502  0.00000000000E+00  0.00000000000E+00  0.17100663052E+03  0.17100663052E+03  0.00000000000E+00 0. -1.
          1   -1    0    0  502    0 -0.00000000000E+00 -0.00000000000E+00 -0.21690877147E+03  0.21690877147E+03  0.00000000000E+00 0. -1.
         23    2    1    2    0    0  0.14407787915E+03 -0.69514280802E+02 -0.74382960344E+02  0.19844519172E+03  0.90868029744E+02 0.  0.
        -24    2    1    2    0    0 -0.12016039922E+03  0.73099975147E+02  0.16518657524E+02  0.16248880247E+03  0.79671933419E+02 0.  0.
         13    1    4    4    0    0 -0.20485176883E+02  0.46758511043E+02  0.28882042795E+02  0.58652989889E+02  0.00000000000E+00 0. -1.
        -14    1    4    4    0    0 -0.99675222338E+02  0.26341464103E+02 -0.12363385271E+02  0.10383581258E+03  0.00000000000E+00 0.  1.
        -11    1    3    3    0    0  0.64614421670E+02 -0.76002033496E+02 -0.19476285212E+02  0.10163984587E+03  0.00000000000E+00 0. -1.
         11    1    3    3    0    0  0.79463457483E+02  0.64877526934E+01 -0.54906675132E+02  0.96805345845E+02  0.00000000000E+00 0.  1.
          2    1    1    2  501    0 -0.23917479932E+02 -0.35856943442E+01  0.11962161871E+02  0.26981407800E+02  0.00000000000E+00 0. -1.
<scales pt_clust_5="13000.00000" pt_clust_6="13000.00000" pt_clust_7="13000.00000" pt_clust_8="13000.00000" pt_clust_9="24.18477"></scales>
<clustering>
<clus scale="   24.185">  1  9  2 -1</clus>
<clus scale="   79.672">  5  6 -1 -1</clus>
<clus scale="   90.868">  7  8 -1 -1</clus>
<clus scale="  171.520">  1  5  2 -1</clus>
<clus scale="   24.185">  1  5  2 -1</clus>
</clustering>
</event>
<event>
 9    1  0.6345107E-005  0.1299885E+03  0.7546771E-02  0.1229117E+00
         21   -1    0    0  501  502  0.00000000000E+00  0.00000000000E+00  0.38106885610E+03  0.38106885610E+03  0.00000000000E+00 0.  1.
          1   -1    0    0  502    0 -0.00000000000E+00 -0.00000000000E+00 -0.14367789564E+03  0.14367789564E+03  0.00000000000E+00 0. -1.
        -24    2    1    2    0    0  0.92491946059E+02  0.34042850699E+02 -0.92540458284E+02  0.15695733232E+03  0.79738271732E+02 0.  0.
         23    2    1    2    0    0 -0.71193313253E+02 -0.55812110497E+02  0.21368109837E+03  0.24761592226E+03  0.86432364470E+02 0.  0.
         11    1    3    3    0    0  0.10624590220E+03  0.30829722811E+02 -0.71877052893E+02  0.13192791317E+03  0.00000000000E+00 0. -1.
        -12    1    3    3    0    0 -0.13753956136E+02  0.32131278873E+01 -0.20663405392E+02  0.25029419142E+02  0.00000000000E+00 0.  1.
        -11    1    4    4    0    0 -0.53867324755E+02 -0.71811295368E+01  0.17461339023E+03  0.18287452897E+03  0.00000000000E+00 0.  1.
         11    1    4    4    0    0 -0.17325988499E+02 -0.48630980960E+02  0.39067708140E+02  0.64741393296E+02  0.00000000000E+00 0. -1.
          2    1    1    2  501    0 -0.21298632806E+02  0.21769259798E+02  0.11625032038E+03  0.12017349716E+03  0.00000000000E+00 0. -1.
<scales pt_clust_5="13000.00000" pt_clust_6="13000.00000" pt_clust_7="13000.00000" pt_clust_8="13000.00000" pt_clust_9="30.45542"></scales>
<clustering>
<clus scale="   30.455">  1  9  2 -1</clus>
<clus scale="   79.738">  5  6 -1 -1</clus>
<clus scale="   86.432">  7  8 -1 -1</clus>
<clus scale="  125.637">  2  5  1 -1</clus>
<clus scale="   30.455">  1  5  2 -1</clus>
</clustering>
</event>
<event>
 9    1  0.6345107E-005  0.1055816E+03  0.7546771E-02  0.1276057E+00
         21   -1    0    0  501  502  0.00000000000E+00  0.00000000000E+00  0.11299691770E+04  0.11299691770E+04  0.00000000000E+00 0.  1.
          1   -1    0    0  502    0 -0.00000000000E+00 -0.00000000000E+00 -0.22636301441E+02  0.22636301441E+02  0.00000000000E+00 0. -1.
         23    2    1    2    0    0 -0.53216934835E+02  0.36356538095E+02  0.23566867826E+03  0.26052597671E+03  0.90444560964E+02 0.  0.
        -24    2    1    2    0    0  0.27144081682E+01 -0.32807834343E+02  0.80121890508E+03  0.80532906835E+03  0.74293017558E+02 0.  0.
         11    1    4    4    0    0  0.20788292769E+02 -0.40504801686E+02  0.27497067555E+03  0.27871430622E+03  0.00000000000E+00 0. -1.
        -12    1    4    4    0    0 -0.18073884601E+02  0.76969673433E+01  0.52624822953E+03  0.52661476213E+03  0.00000000000E+00 0.  1.
        -13    1    3    3    0    0 -0.64437473330E+02  0.11398131652E+02  0.84370538973E+02  0.10677309221E+03  0.00000000000E+00 0.  1.
         13    1    3    3    0    0  0.11220538496E+02  0.24958406443E+02  0.15129813929E+03  0.15375288449E+03  0.00000000000E+00 0. -1.
          2    1    1    2  501    0  0.50502526666E+02 -0.35487037523E+01  0.70445292205E+02  0.86750433382E+02  0.00000000000E+00 0. -1.
<scales pt_clust_5="13000.00000" pt_clust_6="13000.00000" pt_clust_7="13000.00000" pt_clust_8="13000.00000" pt_clust_9="50.62708"></scales>
<clustering>
<clus scale="   50.627">  1  9  2 -1</clus>
<clus scale="   74.293">  5  6 -1 -1</clus>
<clus scale="   90.445">  7  8 -1 -1</clus>
<clus scale="   92.123">  1  5  2 -1</clus>
<clus scale="   50.627">  1  5  2 -1</clus>
</clustering>
</event>
<event>
 9    1  0.6345107E-005  0.1172007E+03  0.7546771E-02  0.1250328E+00
          1   -1    0    0  502    0 -0.00000000000E+00  0.00000000000E+00  0.63553827461E+02  0.63553827461E+02  0.00000000000E+00 0. -1.
         21   -1    0    0  501  502  0.00000000000E+00 -0.00000000000E+00 -0.33194404403E+03  0.33194404403E+03  0.00000000000E+00 0.  1.
        -24    2    1    2    0    0  0.76795364525E+02 -0.35633791142E+02 -0.66223520142E+02  0.13602147622E+03  0.83360615930E+02 0.  0.
         23    2    1    2    0    0 -0.39215351099E+02  0.52043686379E+02 -0.10270342869E+03  0.15189162080E+03  0.90976266958E+02 0.  0.
         13    1    3    3    0    0  0.27016055336E+02 -0.37285471988E+02 -0.72433223854E+02  0.85829165120E+02  0.00000000000E+00 0. -1.
        -14    1    3    3    0    0  0.49779309189E+02  0.16516808461E+01  0.62097037125E+01  0.50192311096E+02  0.00000000000E+00 0.  1.
        -13    1    4    4    0    0 -0.20601255100E+01  0.65121369681E+02 -0.36031528020E+02  0.74453394266E+02  0.00000000000E+00 0. -1.
         13    1    4    4    0    0 -0.37155225589E+02 -0.13077683303E+02 -0.66671900671E+02  0.77438226531E+02  0.00000000000E+00 0.  1.
          2    1    1    2  501    0 -0.37580013427E+02 -0.16409895237E+02 -0.99463267731E+02  0.10758477447E+03  0.00000000000E+00 0. -1.
<scales pt_clust_5="13000.00000" pt_clust_6="13000.00000" pt_clust_7="13000.00000" pt_clust_8="13000.00000" pt_clust_9="41.00661"></scales>
<clustering>
<clus scale="   41.007">  2  9  1 -1</clus>
<clus scale="   83.361">  5  6 -1 -1</clus>
<clus scale="   90.976">  7  8 -1 -1</clus>
<clus scale="  111.393">  1  5  2 -1</clus>
<clus scale="   41.007">  2  5  1 -1</clus>
</clustering>
</event>
<event>
 9    1  0.6345107E-005  0.9929762E+02  0.7546771E-02  0.1287485E+00
         -4   -1    0    0    0  501 -0.00000000000E+00  0.00000000000E+00  0.10910276659E+03  0.10910276659E+03  0.00000000000E+00 0.  1.
         21   -1    0    0  501  502  0.00000000000E+00 -0.00000000000E+00 -0.15846757247E+03  0.15846757247E+03  0.00000000000E+00 0.  1.
         23    2    1    2    0    0  0.26501730820E+02  0.14237911042E+02  0.28804412793E+02  0.99949986025E+02  0.90858382457E+02 0.  0.
        -24    2    1    2    0    0 -0.66609247866E+02  0.16029259048E+01 -0.44788948022E+02  0.11308790850E+03  0.79645865628E+02 0.  0.
         11    1    4    4    0    0  0.45758628565E+01 -0.23403282557E+02 -0.26109665103E+02  0.35360525549E+02  0.00000000000E+00 0. -1.
        -12    1    4    4    0    0 -0.71185110723E+02  0.25006208462E+02 -0.18679282920E+02  0.77727382953E+02  0.00000000000E+00 0.  1.
        -11    1    3    3    0    0  0.21513983229E+02  0.47370879599E+02  0.38893024453E+02  0.64957825236E+02  0.00000000000E+00 0. -1.
         11    1    3    3    0    0  0.49877475911E+01 -0.33132968556E+02 -0.10088611660E+02  0.34992160788E+02  0.00000000000E+00 0.  1.
         -3    1    1    2    0  502  0.40107517047E+02 -0.15840836947E+02 -0.33380270651E+02  0.54532444540E+02  0.00000000000E+00 0.  1.
<scales pt_clust_5="13000.00000" pt_clust_6="13000.00000" pt_clust_7="13000.00000" pt_clust_8="13000.00000" pt_clust_9="43.12244"></scales>
<clustering>
<clus scale="   43.122">  2  9  1 -1</clus>
<clus scale="   79.646">  5  6 -1 -1</clus>
<clus scale="   89.153">  2  5  1 -1</clus>
<clus scale="   90.858">  7  8 -1 -1</clus>
<clus scale="   43.122">  2  5  1 -1</clus>
</clustering>
</event>
<event>
 9    1  0.6345107E-005  0.1476259E+03  0.7546771E-02  0.1223692E+00
         -4   -1    0    0    0  501 -0.00000000000E+00  0.00000000000E+00  0.48859510309E+03  0.48859510309E+03  0.00000000000E+00 0.  1.
         21   -1    0    0  501  502  0.00000000000E+00 -0.00000000000E+00 -0.11089859601E+03  0.11089859601E+03  0.00000000000E+00 0.  1.
        -24    2    1    2    0    0  0.52207535902E+02  0.24525817131E+01  0.24661261718E+03  0.26464047518E+03  0.80530467452E+02 0.  0.
         23    2    1    2    0    0 -0.14627144082E+03  0.48184836608E+02  0.14078787385E+03  0.22758564426E+03  0.90867415340E+02 0.  0.
         11    1    3    3    0    0  0.57299818819E+02 -0.28329778814E+02  0.14811349512E+03  0.16131786336E+03  0.00000000000E+00 0. -1.
        -12    1    3    3    0    0 -0.50922829170E+01  0.30782360528E+02  0.98499122063E+02  0.10332261181E+03  0.00000000000E+00 0.  1.
        -13    1    4    4    0    0 -0.71081944799E+02  0.66363594272E+02  0.10243731264E+03  0.14124507971E+03  0.00000000000E+00 0.  1.
         13    1    4    4    0    0 -0.75189496017E+02 -0.18178757663E+02  0.38350561219E+02  0.86340564553E+02  0.00000000000E+00 0. -1.
         -3    1    1    2    0  502  0.94063904914E+02 -0.50637418321E+02 -0.97039839564E+01  0.10726757966E+03  0.00000000000E+00 0.  1.
<scales pt_clust_5="13000.00000" pt_clust_6="13000.00000" pt_clust_7="13000.00000" pt_clust_8="13000.00000" pt_clust_9="116.34651"></scales>
<clustering>
<clus scale="   80.530">  5  6 -1 -1</clus>
<clus scale="   90.867">  7  8 -1 -1</clus>
<clus scale="   96.004">  1  5  2 -1</clus>
<clus scale="  116.347">  2  9  1 -1</clus>
<clus scale="  116.347">  2  5  1 -1</clus>
</clustering>
</event>
<event>
 9    1  0.6345107E-005  0.9429298E+02  0.7546771E-02  0.1298008E+00
          1   -1    0    0  502    0 -0.00000000000E+00  0.00000000000E+00  0.28687734142E+03  0.28687734142E+03  0.00000000000E+00 0. -1.
         21   -1    0    0  501  502  0.00000000000E+00 -0.00000000000E+00 -0.98328353452E+02  0.98328353452E+02  0.00000000000E+00 0. -1.
         23    2    1    2    0    0  0.10958972046E+02  0.41432490291E+01  0.14866319403E+03  0.17538002812E+03  0.92304622990E+02 0.  0.
        -24    2    1    2    0    0  0.58104731818E+02 -0.54652038303E+02  0.50788576720E+02  0.12357137029E+03  0.79544948801E+02 0.  0.
         13    1    4    4    0    0  0.37055729996E+02 -0.66741805627E+01 -0.14070274135E+02  0.40195079624E+02  0.00000000000E+00 0. -1.
        -14    1    4    4    0    0  0.21049001822E+02 -0.47977857741E+02  0.64858850855E+02  0.83376290667E+02  0.00000000000E+00 0.  1.
        -11    1    3    3    0    0  0.47982235272E+02 -0.13565072323E+02  0.99840699858E+02  0.11159960321E+03  0.00000000000E+00 0. -1.
         11    1    3    3    0    0 -0.37023263226E+02  0.17708321352E+02  0.48822494171E+02  0.63780424913E+02  0.00000000000E+00 0.  1.
          2    1    1    2  501    0 -0.69063703864E+02  0.50508789274E+02 -0.10902782779E+02  0.86254296459E+02  0.00000000000E+00 0. -1.
<scales pt_clust_5="13000.00000" pt_clust_6="13000.00000" pt_clust_7="13000.00000" pt_clust_8="13000.00000" pt_clust_9="85.56245"></scales>
<clustering>
<clus scale="   79.545">  5  6 -1 -1</clus>
<clus scale="   85.562">  2  9  1 -1</clus>
<clus scale="   85.562">  2  5  1 -1</clus>
<clus scale="   92.305">  7  8 -1 -1</clus>
<clus scale="   85.562">  2  5  1 -1</clus>
</clustering>
</event>
<event>
 9    1  0.6345107E-005  0.2587832E+03  0.7546771E-02  0.1107877E+00
         21   -1    0    0  501  502  0.00000000000E+00  0.00000000000E+00  0.13246957219E+03  0.13246957219E+03  0.00000000000E+00 0.  1.
         -2   -1    0    0    0  501 -0.00000000000E+00 -0.00000000000E+00 -0.48347417876E+03  0.48347417876E+03  0.00000000000E+00 0.  1.
        -24    2    1    2    0    0 -0.47541625675E+00  0.12672039654E+03 -0.18350977238E+03  0.23707070265E+03  0.80426342548E+02 0.  0.
         23    2    1    2    0    0  0.38481075745E+02  0.44478052805E+02 -0.17295197611E+03  0.20342185963E+03  0.89492885528E+02 0.  0.
         11    1    3    3    0    0  0.24723709563E+02  0.34481974204E+02 -0.10534642638E+03  0.11356996923E+03  0.00000000000E+00 0. -1.
        -12    1    3    3    0    0 -0.25199125820E+02  0.92238422332E+02 -0.78163345993E+02  0.12350073341E+03  0.00000000000E+00 0.  1.
        -13    1    4    4    0    0 -0.22617662207E+02  0.51468968688E+01 -0.90933176797E+02  0.93845041603E+02  0.00000000000E+00 0. -1.
         13    1    4    4    0    0  0.61098737952E+02  0.39331155936E+02 -0.82018799316E+02  0.10957681802E+03  0.00000000000E+00 0.  1.
         -1    1    1    2    0  502 -0.38005659488E+02 -0.17119844934E+03  0.54571419166E+01  0.17545118868E+03  0.00000000000E+00 0.  1.
<scales pt_clust_5="13000.00000" pt_clust_6="13000.00000" pt_clust_7="13000.00000" pt_clust_8="13000.00000" pt_clust_9="175.36630"></scales>
<clustering>
<clus scale="   80.426">  5  6 -1 -1</clus>
<clus scale="   89.493">  7  8 -1 -1</clus>
<clus scale="  103.920">  5  7 -1 -1</clus>
<clus scale="  175.366">  1  9  2 -1</clus>
<clus scale="  175.366">  1  5  2 -1</clus>
</clustering>
</event>
<event>
 9    1  0.6345107E-005  0.2197827E+03  0.7546771E-02  0.1161042E+00
         21   -1    0    0  501  502  0.00000000000E+00  0.00000000000E+00  0.10229815814E+03  0.10229815814E+03  0.00000000000E+00 0.  1.
          1   -1    0    0  502    0 -0.00000000000E+00 -0.00000000000E+00 -0.10111097232E+04  0.10111097232E+04  0.00000000000E+00 0. -1.
        -24    2    1    2    0    0 -0.72939020411E+02 -0.39142595928E+02 -0.22486008084E+03  0.25283169727E+03  0.80681891863E+02 0.  0.
         23    2    1    2    0    0 -0.15241172411E+03 -0.98179772754E+02 -0.11480691269E+03  0.23322784837E+03  0.91356448206E+02 0.  0.
         13    1    3    3    0    0 -0.19378688593E+02  0.23162251864E+02 -0.89816756943E+02  0.94757972281E+02  0.00000000000E+00 0. -1.
        -14    1    3    3    0    0 -0.53560331819E+02 -0.62304847792E+02 -0.13504332390E+03  0.15807372499E+03  0.00000000000E+00 0.  1.
        -13    1    4    4    0    0 -0.15411412748E+03 -0.75158450791E+02 -0.74865978687E+02  0.18709588926E+03  0.00000000000E+00 0.  1.
         13    1    4    4    0    0  0.17024033677E+01 -0.23021321962E+02 -0.39940933999E+02  0.46131959104E+02  0.00000000000E+00 0. -1.
          2    1    1    2  501    0  0.22535074452E+03  0.13732236868E+03 -0.56914457148E+03  0.62734833565E+03  0.00000000000E+00 0. -1.
<scales pt_clust_5="13000.00000" pt_clust_6="13000.00000" pt_clust_7="13000.00000" pt_clust_8="13000.00000" pt_clust_9="199.89613"></scales>
<clustering>
<clus scale="   80.682">  5  6 -1 -1</clus>
<clus scale="   91.356">  7  8 -1 -1</clus>
<clus scale="  115.593">  2  5  1 -1</clus>
<clus scale="  199.896">  1  9  2 -1</clus>
<clus scale="  199.896">  1  5  2 -1</clus>
</clustering>
</event>
<event>
 9    1  0.7490162E-005  0.1150070E+03  0.7546771E-02  0.1254959E+00
          1   -1    0    0  502    0 -0.00000000000E+00  0.00000000000E+00  0.29316556734E+03  0.29316556734E+03  0.00000000000E+00 0. -1.
         21   -1    0    0  501  502  0.00000000000E+00 -0.00000000000E+00 -0.12808664618E+03  0.12808664618E+03  0.00000000000E+00 0.  1.
         23    2    1    2    0    0  0.46241798161E+02 -0.61449317285E+02  0.98399830003E+02  0.15417040655E+03  0.90397263342E+02 0.  0.
        -24    2    1    2    0    0 -0.23201526358E+02  0.45609128893E+02 -0.75768332632E+02  0.12191626617E+03  0.80648820593E+02 0.  0.
         13    1    4    4    0    0 -0.21496048463E+02  0.30419185001E+02  0.68700085101E+01  0.37876165758E+02  0.00000000000E+00 0. -1.
        -14    1    4    4    0    0 -0.17054778954E+01  0.15189943893E+02 -0.82638341142E+02  0.84040100411E+02  0.00000000000E+00 0.  1.
        -13    1    3    3    0    0  0.58071513564E+02 -0.20387327965E+01  0.48026704479E+02  0.75385817380E+02  0.00000000000E+00 0. -1.
         13    1    3    3    0    0 -0.11829715403E+02 -0.59410584489E+02  0.50373125524E+02  0.78784589171E+02  0.00000000000E+00 0.  1.
          2    1    1    2  501    0 -0.23040271803E+02  0.15840188392E+02  0.14244742378E+03  0.14516554080E+03  0.00000000000E+00 0. -1.
<scales pt_clust_5="13000.00000" pt_clust_6="13000.00000" pt_clust_7="13000.00000" pt_clust_8="13000.00000" pt_clust_9="27.96009"></scales>
<clustering>
<clus scale="   27.960">  2  9  1 -1</clus>
<clus scale="   80.649">  5  6 -1 -1</clus>
<clus scale="   90.397">  7  8 -1 -1</clus>
<clus scale="  107.514">  2  5  1 -1</clus>
<clus scale="   27.960">  2  5  1 -1</clus>
</clustering>
</event>
<event>
 9    1  0.6345107E-005  0.1673523E+03  0.7546771E-02  0.1182233E+00
         21   -1    0    0  501  502  0.00000000000E+00  0.00000000000E+00  0.54678005377E+03  0.54678005377E+03  0.00000000000E+00 0. -1.
          1   -1    0    0  502    0 -0.00000000000E+00 -0.00000000000E+00 -0.20179206544E+03  0.20179206544E+03  0.00000000000E+00 0. -1.
         23    2    1    2    0    0  0.11359616205E+03  0.85020271506E+02 -0.14942511039E+03  0.22554960102E+03  0.91718178710E+02 0.  0.
        -24    2    1    2    0    0 -0.87085830420E+02 -0.81428584072E+02  0.41502138958E+03  0.43924458922E+03  0.80489124644E+02 0.  0.
         11    1    4    4    0    0 -0.38509903069E+02 -0.45545964282E+02  0.85582076190E+02  0.10431557536E+03  0.00000000000E+00 0. -1.
        -12    1    4    4    0    0 -0.48575927350E+02 -0.35882619790E+02  0.32943931339E+03  0.33492901386E+03  0.00000000000E+00 0.  1.
        -13    1    3    3    0    0  0.83416648156E+02  0.10035975709E+03 -0.13771929177E+03  0.18972881004E+03  0.00000000000E+00 0. -1.
         13    1    3    3    0    0  0.30179513891E+02 -0.15339485587E+02 -0.11705818617E+02  0.35820790977E+02  0.00000000000E+00 0.  1.
          2    1    1    2  501    0 -0.26510331628E+02 -0.35916874340E+01  0.79391709143E+02  0.83777928968E+02  0.00000000000E+00 0. -1.
<scales pt_clust_5="13000.00000" pt_clust_6="13000.00000" pt_clust_7="13000.00000" pt_clust_8="13000.00000" pt_clust_9="26.75253"></scales>
<clustering>
<clus scale="   26.753">  1  9  2 -1</clus>
<clus scale="   80.489">  5  6 -1 -1</clus>
<clus scale="   91.718">  7  8 -1 -1</clus>
<clus scale="  161.472">  1  5  2 -1</clus>
<clus scale="   26.753">  1  5  2 -1</clus>
</clustering>
</event>
<event>
 9    1  0.6345107E-005  0.9654362E+02  0.7546771E-02  0.1292845E+00
         21   -1    0    0  501  502  0.00000000000E+00  0.00000000000E+00  0.36446918876E+02  0.36446918876E+02  0.00000000000E+00 0. -1.
          1   -1    0    0  502    0 -0.00000000000E+00 -0.00000000000E+00 -0.78491127143E+03  0.78491127143E+03  0.00000000000E+00 0. -1.
         23    2    1    2    0    0  0.44262778988E+01 -0.17251857007E+02 -0.35737382696E+03  0.36937680244E+03  0.91683976142E+02 0.  0.
        -24    2    1    2    0    0  0.54194516952E+02  0.20970687330E+02 -0.37878545138E+03  0.39196770493E+03  0.82361690954E+02 0.  0.
         11    1    4    4    0    0  0.68371328959E+02  0.38231555183E+02 -0.30265872117E+03  0.31263171934E+03  0.00000000000E+00 0. -1.
        -12    1    4    4    0    0 -0.14176812007E+02 -0.17260867853E+02 -0.76126730211E+02  0.79335985595E+02  0.00000000000E+00 0.  1.
        -13    1    3    3    0    0 -0.36529259216E+01 -0.50636691550E+02 -0.28216118126E+03  0.28669208326E+03  0.00000000000E+00 0.  1.
         13    1    3    3    0    0  0.80792038205E+01  0.33384834543E+02 -0.75212645702E+02  0.82684719177E+02  0.00000000000E+00 0. -1.
          2    1    1    2  501    0 -0.58620794851E+02 -0.37188303228E+01 -0.12305074217E+02  0.60013682935E+02  0.00000000000E+00 0. -1.
<scales pt_clust_5="13000.00000" pt_clust_6="13000.00000" pt_clust_7="13000.00000" pt_clust_8="13000.00000" pt_clust_9="58.73864"></scales>
<clustering>
<clus scale="   58.739">  1  9  2 -1</clus>
<clus scale="   82.362">  5  6 -1 -1</clus>
<clus scale="   87.739">  1  5  2 -1</clus>
<clus scale="   91.684">  7  8 -1 -1</clus>
<clus scale="   58.739">  1  5  2 -1</clus>
</clustering>
</event>
<event>
 9    1  0.6345107E-005  0.1116858E+03  0.7546771E-02  0.1259629E+00
         21   -1    0    0  501  502  0.00000000000E+00  0.00000000000E+00  0.42372732717E+02  0.42372732717E+02  0.00000000000E+00 0. -1.
          1   -1    0    0  502    0 -0.00000000000E+00 -0.00000000000E+00 -0.99600430221E+03  0.99600430221E+03  0.00000000000E+00 0. -1.
        -24    2    1    2    0    0 -0.61710748228E+02  0.27415552729E+02 -0.64354319131E+03  0.65227841163E+03  0.82215924335E+02 0.  0.
         23    2    1    2    0    0  0.88741195284E+02  0.15032780326E+02 -0.77035168377E+02  0.14767399234E+03  0.88160119227E+02 0.  0.
         11    1    3    3    0    0 -0.21305102015E+02  0.41306193313E+02 -0.15364907896E+03  0.16052460386E+03  0.00000000000E+00 0. -1.
        -12    1    3    3    0    0 -0.40405646213E+02 -0.13890640584E+02 -0.48989411235E+03  0.49175380777E+03  0.00000000000E+00 0.  1.
        -11    1    4    4    0    0 -0.35095840295E+01  0.31537816034E+02 -0.25598560095E+02  0.40770544504E+02  0.00000000000E+00 0.  1.
         11    1    4    4    0    0  0.92250779314E+02 -0.16505035707E+02 -0.51436608282E+02  0.10690344784E+03  0.00000000000E+00 0. -1.
          2    1    1    2  501    0 -0.27030447056E+02 -0.42448333055E+02 -0.23305320981E+03  0.23842463096E+03  0.00000000000E+00 0. -1.
<scales pt_clust_5="13000.00000" pt_clust_6="13000.00000" pt_clust_7="13000.00000" pt_clust_8="13000.00000" pt_clust_9="50.32404"></scales>
<clustering>
<clus scale="   50.324">  1  9  2 -1</clus>
<clus scale="   82.216">  5  6 -1 -1</clus>
<clus scale="   88.160">  7  8 -1 -1</clus>
<clus scale="  107.056">  2  5  1 -1</clus>
<clus scale="   50.324">  1  5  2 -1</clus>
</clustering>
</event>
<event>
 9    1  0.6345107E-005  0.1274675E+03  0.7546771E-02  0.1233101E+00
         21   -1    0    0  501  502  0.00000000000E+00  0.00000000000E+00  0.37418030423E+02  0.37418030423E+02  0.00000000000E+00 0. -1.
          3   -1    0    0  502    0 -0.00000000000E+00 -0.00000000000E+00 -0.10001929585E+04  0.10001929585E+04  0.00000000000E+00 0. -1.
        -24    2    1    2    0    0 -0.82636697620E+02 -0.62815366602E+02 -0.57254992027E+03  0.58789353888E+03  0.83849912233E+02 0.  0.
         23    2    1    2    0    0  0.17319927475E+01  0.66362211187E+02 -0.10701345830E+03  0.15515517623E+03  0.90632806325E+02 0.  0.
         13    1    3    3    0    0 -0.89999945393E+02 -0.39192357419E+02 -0.52692607368E+03  0.53599171466E+03  0.00000000000E+00 0. -1.
        -14    1    3    3    0    0  0.73632477729E+01 -0.23623009183E+02 -0.45623846584E+02  0.51901824223E+02  0.00000000000E+00 0.  1.
        -11    1    4    4    0    0  0.43914065158E+02  0.16216323292E+02 -0.43977099609E+02  0.64229273309E+02  0.00000000000E+00 0.  1.
         11    1    4    4    0    0 -0.42182072411E+02  0.50145887895E+02 -0.63036358692E+02  0.90925902926E+02  0.00000000000E+00 0. -1.
          4    1    1    2  501    0  0.80904704873E+02 -0.35468445843E+01 -0.28321154947E+03  0.29456227378E+03  0.00000000000E+00 0. -1.
<scales pt_clust_5="13000.00000" pt_clust_6="13000.00000" pt_clust_7="13000.00000" pt_clust_8="13000.00000" pt_clust_9="80.98245"></scales>
<clustering>
<clus scale="   80.982">  1  9  2 -1</clus>
<clus scale="   83.850">  5  6 -1 -1</clus>
<clus scale="   90.633">  7  8 -1 -1</clus>
<clus scale="  122.737">  2  5  1 -1</clus>
<clus scale="   80.982">  1  5  2 -1</clus>
</clustering>
</event>
<event>
 9    1  0.6345107E-005  0.1640431E+03  0.7546771E-02  0.1206932E+00
         -4   -1    0    0    0  501 -0.00000000000E+00  0.00000000000E+00  0.40906010626E+03  0.40906010626E+03  0.00000000000E+00 0.  1.
         21   -1    0    0  501  502  0.00000000000E+00 -0.00000000000E+00 -0.14387227314E+03  0.14387227314E+03  0.00000000000E+00 0.  1.
         23    2    1    2    0    0  0.36488726358E+02  0.17201563444E+02  0.85677258463E+02  0.13150071305E+03  0.91238829331E+02 0.  0.
        -24    2    1    2    0    0 -0.48243078778E+02  0.12643707884E+03  0.22050832988E+03  0.27159495425E+03  0.82620615305E+02 0.  0.
         11    1    4    4    0    0 -0.27045613528E+02 -0.23224756091E+01  0.49870529848E+02  0.56779651737E+02  0.00000000000E+00 0. -1.
        -12    1    4    4    0    0 -0.21197465250E+02  0.12875955445E+03  0.17063780003E+03  0.21481530252E+03  0.00000000000E+00 0.  1.
        -13    1    3    3    0    0 -0.29835280951E+02  0.12057372344E+02  0.37205830468E+02  0.49191442733E+02  0.00000000000E+00 0. -1.
         13    1    3    3    0    0  0.66324007310E+02  0.51441910998E+01  0.48471427995E+02  0.82309270313E+02  0.00000000000E+00 0.  1.
         -3    1    1    2    0  502  0.11754352420E+02 -0.14363864229E+03 -0.40997755225E+02  0.14983671210E+03  0.00000000000E+00 0.  1.
<scales pt_clust_5="13000.00000" pt_clust_6="13000.00000" pt_clust_7="13000.00000" pt_clust_8="13000.00000" pt_clust_9="141.71792"></scales>
<clustering>
<clus scale="   82.621">  5  6 -1 -1</clus>
<clus scale="   91.239">  7  8 -1 -1</clus>
<clus scale="   99.759">  1  7  2 -1</clus>
<clus scale="  141.718">  2  9  1 -1</clus>
<clus scale="  141.718">  2  5  1 -1</clus>
</clustering>
</event>
<event>
 9    1  0.6345107E-005  0.1111331E+03  0.7546771E-02  0.1273676E+00
          1   -1    0    0  502    0 -0.00000000000E+00  0.00000000000E+00  0.47120322419E+03  0.47120322419E+03  0.00000000000E+00 0. -1.
         21   -1    0    0  501  502  0.00000000000E+00 -0.00000000000E+00 -0.47515242234E+02  0.47515242234E+02  0.00000000000E+00 0.  1.
        -24    2    1    2    0    0 -0.32975454086E+02 -0.96385168805E+01  0.17060880803E+03  0.18971611193E+03  0.75528512300E+02 0.  0.
         23    2    1    2    0    0  0.35032897357E+02 -0.50271620751E+02  0.80900856092E+02  0.14668715821E+03  0.10591333304E+03 0.  0.
         11    1    3    3    0    0 -0.52703872648E+02  0.94606486322E+01  0.13099196228E+03  0.14151359033E+03  0.00000000000E+00 0. -1.
        -12    1    3    3    0    0  0.19728418563E+02 -0.19099165513E+02  0.39616845744E+02  0.48202521604E+02  0.00000000000E+00 0.  1.
        -11    1    4    4    0    0  0.11729331199E+00 -0.48268541311E+02  0.96878460364E+02  0.10823724830E+03  0.00000000000E+00 0. -1.
         11    1    4    4    0    0  0.34915604045E+02 -0.20030794398E+01 -0.15977604273E+02  0.38449909901E+02  0.00000000000E+00 0.  1.
          2    1    1    2  501    0 -0.20574432717E+01  0.59910137632E+02  0.17217831783E+03  0.18231519628E+03  0.00000000000E+00 0. -1.
<scales pt_clust_5="13000.00000" pt_clust_6="13000.00000" pt_clust_7="13000.00000" pt_clust_8="13000.00000" pt_clust_9="59.94549"></scales>
<clustering>
<clus scale="   59.945">  2  9  1 -1</clus>
<clus scale="   75.529">  5  6 -1 -1</clus>
<clus scale="   82.689">  1  5  2 -1</clus>
<clus scale="  105.913">  7  8 -1 -1</clus>
<clus scale="   59.945">  2  5  1 -1</clus>
</clustering>
</event>
<event>
 9    1  0.6345107E-005  0.1528616E+03  0.7546771E-02  0.1213030E+00
          3   -1    0    0  502    0 -0.00000000000E+00  0.00000000000E+00  0.44902338414E+03  0.44902338414E+03  0.00000000000E+00 0. -1.
         21   -1    0    0  501  502  0.00000000000E+00 -0.00000000000E+00 -0.11078536233E+03  0.11078536233E+03  0.00000000000E+00 0. -1.
         23    2    1    2    0    0  0.11510292023E+01  0.61451990687E+02  0.16735438888E+03  0.19930545564E+03  0.89092654826E+02 0.  0.
        -24    2    1    2    0    0 -0.60154062040E+01  0.10975224958E+03  0.32213070500E+02  0.14013069966E+03  0.80729112943E+02 0.  0.
         11    1    4    4    0    0 -0.39401495191E+01  0.11939849391E+03  0.15150173887E+02  0.12042031761E+03  0.00000000000E+00 0. -1.
        -12    1    4    4    0    0 -0.20752566849E+01 -0.96462443206E+01  0.17062896613E+02  0.19710382052E+02  0.00000000000E+00 0.  1.
        -13    1    3    3    0    0  0.39429947601E+02  0.41521735586E+02  0.13066531824E+03  0.14266113936E+03  0.00000000000E+00 0. -1.
         13    1    3    3    0    0 -0.38278918399E+02  0.19930255101E+02  0.36689070636E+02  0.56644316275E+02  0.00000000000E+00 0.  1.
          4    1    1    2  501    0  0.48643770017E+01 -0.17120424027E+03  0.13867056243E+03  0.22037259116E+03  0.00000000000E+00 0. -1.
<scales pt_clust_5="13000.00000" pt_clust_6="13000.00000" pt_clust_7="13000.00000" pt_clust_8="13000.00000" pt_clust_9="129.80561"></scales>
<clustering>
<clus scale="   80.729">  5  6 -1 -1</clus>
<clus scale="   89.093">  7  8 -1 -1</clus>
<clus scale="  108.237">  1  7  2 -1</clus>
<clus scale="  129.806">  2  9  1 -1</clus>
<clus scale="  129.806">  2  5  1 -1</clus>
</clustering>
</event>
<event>
 9    1  0.6345107E-005  0.1068864E+03  0.7546771E-02  0.1272085E+00
         21   -1    0    0  501  502  0.00000000000E+00  0.00000000000E+00  0.82811428309E+02  0.82811428309E+02  0.00000000000E+00 0. -1.
          1   -1    0    0  502    0 -0.00000000000E+00 -0.00000000000E+00 -0.26322070420E+03  0.26322070420E+03  0.00000000000E+00 0. -1.
         23    2    1    2    0    0  0.55645503661E+02 -0.68664034444E+01 -0.19947884013E+03  0.22646624992E+03  0.91387007373E+02 0.  0.
        -24    2    1    2    0    0 -0.49118363511E+02  0.25962197326E+02  0.23855773049E+02  0.98825566846E+02  0.78171257062E+02 0.  0.
         13    1    4    4    0    0  0.72790371202E+01  0.37252690289E+02  0.49334583681E+01  0.38276446108E+02  0.00000000000E+00 0. -1.
        -14    1    4    4    0    0 -0.56397400631E+02 -0.11290492963E+02  0.18922314681E+02  0.60549120738E+02  0.00000000000E+00 0.  1.
        -11    1    3    3    0    0 -0.59790118120E+00 -0.37553849885E+02 -0.41407893166E+02  0.55904049437E+02  0.00000000000E+00 0.  1.
         11    1    3    3    0    0  0.56243404842E+02  0.30687446441E+02 -0.15807094697E+03  0.17056220048E+03  0.00000000000E+00 0. -1.
          2    1    1    2  501    0 -0.65271401502E+01 -0.19095793882E+02 -0.47862088068E+01  0.20740315747E+02  0.00000000000E+00 0. -1.
<scales pt_clust_5="13000.00000" pt_clust_6="13000.00000" pt_clust_7="13000.00000" pt_clust_8="13000.00000" pt_clust_9="20.18051"></scales>
<clustering>
<clus scale="   20.181">  1  9  2 -1</clus>
<clus scale="   78.171">  5  6 -1 -1</clus>
<clus scale="   91.387">  7  8 -1 -1</clus>
<clus scale="   95.832">  1  5  2 -1</clus>
<clus scale="   20.181">  1  5  2 -1</clus>
</clustering>
</event>
<event>
 9    1  0.6345107E-005  0.1019995E+03  0.7546771E-02  0.1282586E+00
         -2   -1    0    0    0  501 -0.00000000000E+00  0.00000000000E+00  0.35726084652E+03  0.35726084652E+03  0.00000000000E+00 0.  1.
         21   -1    0    0  501  502  0.00000000000E+00 -0.00000000000E+00 -0.48219745370E+02  0.48219745370E+02  0.00000000000E+00 0.  1.
        -24    2    1    2    0    0  0.30992933902E+02  0.37685999713E+02  0.20395462732E+03  0.22351726504E+03  0.77341329455E+02 0.  0.
         23    2    1    2    0    0 -0.88064977810E+01 -0.44828379435E+02  0.11765449466E+03  0.15548301938E+03  0.90803365550E+02 0.  0.
         13    1    3    3    0    0  0.39198018403E+01  0.44190965351E+02  0.49078549324E+02  0.66158221476E+02  0.00000000000E+00 0. -1.
        -14    1    3    3    0    0  0.27073132062E+02 -0.65049656383E+01  0.15487607800E+03  0.15735904357E+03  0.00000000000E+00 0.  1.
        -13    1    4    4    0    0  0.19656810351E+02 -0.32731225328E+02  0.48157404819E+01  0.38482654028E+02  0.00000000000E+00 0. -1.
         13    1    4    4    0    0 -0.28463308132E+02 -0.12097154107E+02  0.11283875418E+03  0.11700036535E+03  0.00000000000E+00 0.  1.
         -1    1    1    2    0  502 -0.22186436121E+02  0.71423797223E+01 -0.12568020832E+02  0.26480307466E+02  0.00000000000E+00 0.  1.
<scales pt_clust_5="13000.00000" pt_clust_6="13000.00000" pt_clust_7="13000.00000" pt_clust_8="13000.00000" pt_clust_9="23.30776"></scales>
<clustering>
<clus scale="   23.308">  2  9  1 -1</clus>
<clus scale="   77.341">  5  6 -1 -1</clus>
<clus scale="   90.224">  1  5  2 -1</clus>
<clus scale="   90.803">  7  8 -1 -1</clus>
<clus scale="   23.308">  2  5  1 -1</clus>
</clustering>
</event>
<event>
 9    1  0.6345107E-005  0.1174562E+03  0.7546771E-02  0.1250152E+00
         21   -1    0    0  501  502  0.00000000000E+00  0.00000000000E+00  0.14125566704E+03  0.14125566704E+03  0.00000000000E+00 0. -1.
          1   -1    0    0  502    0 -0.00000000000E+00 -0.00000000000E+00 -0.28898386224E+03  0.28898386224E+03  0.00000000000E+00 0. -1.
        -24    2    1    2    0    0 -0.23420541538E+02 -0.70522661290E+02 -0.16133486370E+02  0.12428073077E+03  0.98302813469E+02 0.  0.
         23    2    1    2    0    0 -0.29694782551E+02  0.54593944982E+02  0.46618048208E+02  0.11931810512E+03  0.90560967591E+02 0.  0.
         13    1    3    3    0    0 -0.48518320774E+02 -0.50691020646E+02 -0.43181257169E+02  0.82390703332E+02  0.00000000000E+00 0. -1.
        -14    1    3    3    0    0  0.25097779236E+02 -0.19831640643E+02  0.27047770799E+02  0.41890027433E+02  0.00000000000E+00 0.  1.
        -11    1    4    4    0    0 -0.12786919186E+02  0.25426181414E+02 -0.26445973008E+02  0.38850810698E+02  0.00000000000E+00 0.  1.
         11    1    4    4    0    0 -0.16907863365E+02  0.29167763567E+02  0.73064021216E+02  0.80467294420E+02  0.00000000000E+00 0. -1.
          2    1    1    2  501    0  0.53115324090E+02  0.15928716308E+02 -0.17821275704E+03  0.18664069339E+03  0.00000000000E+00 0. -1.
<scales pt_clust_5="13000.00000" pt_clust_6="13000.00000" pt_clust_7="13000.00000" pt_clust_8="13000.00000" pt_clust_9="55.45236"></scales>
<clustering>
<clus scale="   55.452">  1  9  2 -1</clus>
<clus scale="   90.561">  7  8 -1 -1</clus>
<clus scale="   98.303">  5  6 -1 -1</clus>
<clus scale="  111.058">  1  7  2 -1</clus>
<clus scale="   55.452">  1  5  2 -1</clus>
</clustering>
</event>
<event>
 9    1  0.6345107E-005  0.1333035E+03  0.7546771E-02  0.1247924E+00
         21   -1    0    0  501  502  0.00000000000E+00  0.00000000000E+00  0.53928700479E+02  0.53928700479E+02  0.00000000000E+00 0. -1.
          1   -1    0    0  502    0 -0.00000000000E+00 -0.00000000000E+00 -0.48951542044E+03  0.48951542044E+03  0.00000000000E+00 0. -1.
        -24    2    1    2    0    0 -0.17039405530E+02  0.18978409180E+02 -0.13780882636E+03  0.15906301102E+03  0.75227970172E+02 0.  0.
         23    2    1    2    0    0 -0.74986812235E+02 -0.54804768631E+02 -0.10889388790E+03  0.17123909058E+03  0.94012566438E+02 0.  0.
         13    1    3    3    0    0 -0.32860847679E+02  0.17687720976E+02 -0.13823446718E+03  0.14318330454E+03  0.00000000000E+00 0. -1.
        -14    1    3    3    0    0  0.15821442150E+02  0.12906882041E+01  0.42564081765E+00  0.15879706478E+02  0.00000000000E+00 0.  1.
        -13    1    4    4    0    0 -0.15721173545E+02 -0.68530346982E+02 -0.47781887221E+02  0.85009837675E+02  0.00000000000E+00 0.  1.
         13    1    4    4    0    0 -0.59265638690E+02  0.13725578351E+02 -0.61112000676E+02  0.86229252907E+02  0.00000000000E+00 0. -1.
          2    1    1    2  501    0  0.92026217764E+02  0.35826359451E+02 -0.18888400571E+03  0.21314201932E+03  0.00000000000E+00 0. -1.
<scales pt_clust_5="13000.00000" pt_clust_6="13000.00000" pt_clust_7="13000.00000" pt_clust_8="13000.00000" pt_clust_9="94.50640"></scales>
<clustering>
<clus scale="   75.228">  5  6 -1 -1</clus>
<clus scale="   79.434">  2  5  1 -1</clus>
<clus scale="   94.013">  7  8 -1 -1</clus>
<clus scale="   94.506">  1  9  2 -1</clus>
<clus scale="   94.506">  1  5  2 -1</clus>
</clustering>
</event>
<event>
 9    1  0.6345107E-005  0.1506922E+03  0.7546771E-02  0.1201137E+00
         21   -1    0    0  501  502  0.00000000000E+00  0.00000000000E+00  0.30810766870E+03  0.30810766870E+03  0.00000000000E+00 0.  1.
         -4   -1    0    0    0  501 -0.00000000000E+00 -0.00000000000E+00 -0.50475429018E+03  0.50475429018E+03  0.00000000000E+00 0.  1.
        -24    2    1    2    0    0  0.45010873567E+02  0.11594805817E+03 -0.41050440548E+03  0.43690976909E+03  0.83104443154E+02 0.  0.
         23    2    1    2    0    0 -0.12538711471E+03 -0.38025826088E+02  0.32784814019E+02  0.16306810196E+03  0.91369961483E+02 0.  0.
         13    1    3    3    0    0  0.20612821836E+02 -0.88372815332E+01 -0.63512112780E+02  0.67355582091E+02  0.00000000000E+00 0. -1.
        -14    1    3    3    0    0  0.24398051731E+02  0.12478533970E+03 -0.34699229270E+03  0.36955418700E+03  0.00000000000E+00 0.  1.
        -11    1    4    4    0    0 -0.10480781948E+03 -0.57933980033E+02  0.28499216751E+00  0.11975435811E+03  0.00000000000E+00 0.  1.
         11    1    4    4    0    0 -0.20579295232E+02  0.19908153945E+02  0.32499821851E+02  0.43313743848E+02  0.00000000000E+00 0. -1.
         -3    1    1    2    0  502  0.80376241141E+02 -0.77922232082E+02  0.18107296998E+03  0.21288408783E+03  0.00000000000E+00 0.  1.
<scales pt_clust_5="13000.00000" pt_clust_6="13000.00000" pt_clust_7="13000.00000" pt_clust_8="13000.00000" pt_clust_9="111.94737"></scales>
<clustering>
<clus scale="   83.104">  5  6 -1 -1</clus>
<clus scale="   91.370">  7  8 -1 -1</clus>
<clus scale="  111.947">  1  9  2 -1</clus>
<clus scale="  145.829">  2  5  1 -1</clus>
<clus scale="  111.947">  1  5  2 -1</clus>
</clustering>
</event>
<event>
 9    1  0.6345107E-005  0.1500466E+03  0.7546771E-02  0.1201823E+00
         21   -1    0    0  501  502  0.00000000000E+00  0.00000000000E+00  0.64694506471E+03  0.64694506471E+03  0.00000000000E+00 0.  1.
         -2   -1    0    0    0  501 -0.00000000000E+00 -0.00000000000E+00 -0.69557952592E+02  0.69557952592E+02  0.00000000000E+00 0.  1.
        -24    2    1    2    0    0 -0.98244110896E+02  0.31349654140E+02  0.25874128502E+03  0.29026147820E+03  0.81669866030E+02 0.  0.
         23    2    1    2    0    0  0.12323707092E+03 -0.76015588231E+02  0.33222701758E+03  0.37328738484E+03  0.89459125692E+02 0.  0.
         13    1    3    3    0    0 -0.62578821575E+02 -0.20757739456E+02  0.16005337452E+03  0.17310134417E+03  0.00000000000E+00 0. -1.
        -14    1    3    3    0    0 -0.35665289321E+02  0.52107393596E+02  0.98687910494E+02  0.11716013404E+03  0.00000000000E+00 0.  1.
        -13    1    4    4    0    0  0.34637272199E+02  0.19028510041E+02  0.93047214496E+02  0.10109208152E+03  0.00000000000E+00 0. -1.
         13    1    4    4    0    0  0.88599798718E+02 -0.95044098273E+02  0.23917980308E+03  0.27219530332E+03  0.00000000000E+00 0.  1.
         -1    1    1    2    0  502 -0.24992960021E+02  0.44665934091E+02 -0.13581190472E+02  0.52954154261E+02  0.00000000000E+00 0.  1.
<scales pt_clust_5="13000.00000" pt_clust_6="13000.00000" pt_clust_7="13000.00000" pt_clust_8="13000.00000" pt_clust_9="51.18297"></scales>
<clustering>
<clus scale="   51.183">  1  9  2 -1</clus>
<clus scale="   81.670">  5  6 -1 -1</clus>
<clus scale="   89.459">  7  8 -1 -1</clus>
<clus scale="  145.537">  2  5  1 -1</clus>
<clus scale="   51.183">  1  5  2 -1</clus>
</clustering>
</event>
<event>
 9    1  0.6345107E-005  0.3046169E+03  0.7546771E-02  0.1131286E+00
         21   -1    0    0  501  502  0.00000000000E+00  0.00000000000E+00  0.10052619997E+03  0.10052619997E+03  0.00000000000E+00 0. -1.
          1   -1    0    0  502    0 -0.00000000000E+00 -0.00000000000E+00 -0.12600358317E+04  0.12600358317E+04  0.00000000000E+00 0. -1.
        -24    2    1    2    0    0  0.16660699738E+02  0.33752307642E+02 -0.72980335141E+02  0.11456150125E+03  0.79883734674E+02 0.  0.
         23    2    1    2    0    0 -0.29906053049E+03 -0.62840016857E+01 -0.69255397723E+03  0.76048974319E+03  0.96109045086E+02 0.  0.
         13    1    3    3    0    0 -0.18579949337E+02  0.20235417465E+02 -0.71714589187E+02  0.76796282069E+02  0.00000000000E+00 0. -1.
        -14    1    3    3    0    0  0.35240649075E+02  0.13516890177E+02 -0.12657459538E+01  0.37765219185E+02  0.00000000000E+00 0.  1.
        -13    1    4    4    0    0 -0.61525342325E+02  0.28570088407E+02 -0.96999970696E+02  0.11836643111E+03  0.00000000000E+00 0.  1.
         13    1    4    4    0    0 -0.23753518816E+03 -0.34854090093E+02 -0.59555400653E+03  0.64212331207E+03  0.00000000000E+00 0. -1.
          2    1    1    2  501    0  0.28239983075E+03 -0.27468305957E+02 -0.39397531932E+03  0.48551078718E+03  0.00000000000E+00 0. -1.
<scales pt_clust_5="13000.00000" pt_clust_6="13000.00000" pt_clust_7="13000.00000" pt_clust_8="13000.00000" pt_clust_9="289.05795"></scales>
<clustering>
<clus scale="   79.884">  5  6 -1 -1</clus>
<clus scale="   88.308">  2  5  1 -1</clus>
<clus scale="   96.109">  7  8 -1 -1</clus>
<clus scale="  289.058">  1  9  2 -1</clus>
<clus scale="  289.058">  1  5  2 -1</clus>
</clustering>
</event>
<event>
 9    1  0.6345107E-005  0.1111560E+03  0.7546771E-02  0.1266022E+00
         21   -1    0    0  501  502  0.00000000000E+00  0.00000000000E+00  0.27311717797E+02  0.27311717797E+02  0.00000000000E+00 0.  1.
          1   -1    0    0  502    0 -0.00000000000E+00 -0.00000000000E+00 -0.58054299662E+03  0.58054299662E+03  0.00000000000E+00 0. -1.
        -24    2    1    2    0    0  0.33270522208E+02 -0.36407282122E+02 -0.24824801127E+03  0.26575396775E+03  0.81028874088E+02 0.  0.
         23    2    1    2    0    0 -0.51868607830E+02  0.21438714005E+02 -0.29523985620E+03  0.31631546239E+03  0.98686007735E+02 0.  0.
         11    1    3    3    0    0  0.51682689270E+02 -0.39354059977E+02 -0.23231870043E+03  0.24122980947E+03  0.00000000000E+00 0. -1.
        -12    1    3    3    0    0 -0.18412167062E+02  0.29467778549E+01 -0.15929310844E+02  0.24524158286E+02  0.00000000000E+00 0.  1.
        -11    1    4    4    0    0  0.22981610027E+02  0.28273395023E+02 -0.70809188687E+02  0.79633413012E+02  0.00000000000E+00 0.  1.
         11    1    4    4    0    0 -0.74850217857E+02 -0.68346810183E+01 -0.22443066751E+03  0.23668204938E+03  0.00000000000E+00 0. -1.
          2    1    1    2  501    0  0.18598085622E+02  0.14968568117E+02 -0.97434113502E+01  0.25785284273E+02  0.00000000000E+00 0. -1.
<scales pt_clust_5="13000.00000" pt_clust_6="13000.00000" pt_clust_7="13000.00000" pt_clust_8="13000.00000" pt_clust_9="23.87356"></scales>
<clustering>
<clus scale="   23.874">  1  9  2 -1</clus>
<clus scale="   81.029">  5  6 -1 -1</clus>
<clus scale="   95.825">  2  5  1 -1</clus>
<clus scale="   98.686">  7  8 -1 -1</clus>
<clus scale="   23.874">  1  5  2 -1</clus>
</clustering>
</event>
<event>
 9    1  0.6345107E-005  0.1001767E+03  0.7546771E-02  0.1284956E+00
         -2   -1    0    0    0  501 -0.00000000000E+00  0.00000000000E+00  0.25511743890E+03  0.25511743890E+03  0.00000000000E+00 0.  1.
         21   -1    0    0  501  502  0.00000000000E+00 -0.00000000000E+00 -0.67276481416E+02  0.67276481416E+02  0.00000000000E+00 0.  1.
        -24    2    1    2    0    0  0.13861875373E+02  0.44188920855E+02  0.13176490102E+03  0.16111038077E+03  0.80310356350E+02 0.  0.
         23    2    1    2    0    0  0.32935896916E+02 -0.39796349287E+02  0.38380002350E+02  0.11105927740E+03  0.90513069745E+02 0.  0.
         11    1    3    3    0    0  0.20270868400E+02 -0.18978719657E+02  0.53970558170E+02  0.60695313284E+02  0.00000000000E+00 0. -1.
        -12    1    3    3    0    0 -0.64089930270E+01  0.63167640512E+02  0.77794342852E+02  0.10041506749E+03  0.00000000000E+00 0.  1.
        -11    1    4    4    0    0  0.52931860980E+02 -0.48651487943E+02  0.62124434422E+01  0.72161926522E+02  0.00000000000E+00 0.  1.
         11    1    4    4    0    0 -0.19995964064E+02  0.88551386566E+01  0.32167558908E+02  0.38897350881E+02  0.00000000000E+00 0. -1.
         -1    1    1    2    0  502 -0.46797772289E+02 -0.43925715682E+01  0.17696054114E+02  0.50224262139E+02  0.00000000000E+00 0.  1.
<scales pt_clust_5="13000.00000" pt_clust_6="13000.00000" pt_clust_7="13000.00000" pt_clust_8="13000.00000" pt_clust_9="47.00347"></scales>
<clustering>
<clus scale="   47.003">  2  9  1 -1</clus>
<clus scale="   80.310">  5  6 -1 -1</clus>
<clus scale="   90.513">  7  8 -1 -1</clus>
<clus scale="   91.063">  1  5  2 -1</clus>
<clus scale="   47.003">  2  5  1 -1</clus>
</clustering>
</event>
<event>
 9    1  0.6345107E-005  0.1338769E+03  0.7546771E-02  0.1224234E+00
          1   -1    0    0  502    0 -0.00000000000E+00  0.00000000000E+00  0.47710625836E+03  0.47710625836E+03  0.00000000000E+00 0. -1.
         21   -1    0    0  501  502  0.00000000000E+00 -0.00000000000E+00 -0.91318042645E+02  0.91318042645E+02  0.00000000000E+00 0.  1.
         23    2    1    2    0    0 -0.93228248956E+02  0.43684946254E+02  0.39725315022E+03  0.42044861371E+03  0.91471801532E+02 0.  0.
        -24    2    1    2    0    0  0.62586489069E+02 -0.25096997158E+02 -0.26590833627E+02  0.10907553145E+03  0.81507491973E+02 0.  0.
         11    1    4    4    0    0  0.32312914237E+02  0.36292204477E+01  0.26216228843E+02  0.41768245382E+02  0.00000000000E+00 0. -1.
        -12    1    4    4    0    0  0.30273574832E+02 -0.28726217605E+02 -0.52807062470E+02  0.67307286067E+02  0.00000000000E+00 0.  1.
        -13    1    3    3    0    0 -0.99100614217E+02  0.12260919663E+02  0.23939855480E+03  0.25938953319E+03  0.00000000000E+00 0. -1.
         13    1    3    3    0    0  0.58723652609E+01  0.31424026591E+02  0.15785459543E+03  0.16105908052E+03  0.00000000000E+00 0.  1.
          2    1    1    2  501    0  0.30641759887E+02 -0.18587949096E+02  0.15125899115E+02  0.38900155843E+02  0.00000000000E+00 0. -1.
<scales pt_clust_5="13000.00000" pt_clust_6="13000.00000" pt_clust_7="13000.00000" pt_clust_8="13000.00000" pt_clust_9="35.83894"></scales>
<clustering>
<clus scale="   35.839">  2  9  1 -1</clus>
<clus scale="   81.507">  5  6 -1 -1</clus>
<clus scale="   91.472">  7  8 -1 -1</clus>
<clus scale="  127.277">  2  5  1 -1</clus>
<clus scale="   35.839">  2  5  1 -1</clus>
</clustering>
</event>
<event>
 9    1  0.6345107E-005  0.3235965E+03  0.7546771E-02  0.1091472E+00
         -2   -1    0    0    0  501 -0.00000000000E+00  0.00000000000E+00  0.26489925398E+03  0.26489925398E+03  0.00000000000E+00 0.  1.
         21   -1    0    0  501  502  0.00000000000E+00 -0.00000000000E+00 -0.86001911157E+03  0.86001911157E+03  0.00000000000E+00 0. -1.
        -24    2    1    2    0    0  0.14612335717E+03 -0.11745963915E+03 -0.26660676538E+03  0.33487142055E+03  0.76882368689E+02 0.  0.
         23    2    1    2    0    0 -0.39881878522E+03  0.18001724450E+03 -0.13994302111E+03  0.46860160741E+03  0.92416370579E+02 0.  0.
         13    1    3    3    0    0  0.10910981165E+03 -0.12381108745E+03 -0.21425942640E+03  0.27044636839E+03  0.00000000000E+00 0. -1.
        -14    1    3    3    0    0  0.37013545526E+02  0.63514483007E+01 -0.52347338982E+02  0.64425052165E+02  0.00000000000E+00 0.  1.
        -13    1    4    4    0    0 -0.30871001730E+03  0.17593001582E+03 -0.12770597477E+03  0.37757391494E+03  0.00000000000E+00 0. -1.
         13    1    4    4    0    0 -0.90108767916E+02  0.40872286738E+01 -0.12237046339E+02  0.91027692472E+02  0.00000000000E+00 0.  1.
         -1    1    1    2    0  502  0.25269542804E+03 -0.62557605347E+02 -0.18857007110E+03  0.32144533759E+03  0.00000000000E+00 0.  1.
<scales pt_clust_5="13000.00000" pt_clust_6="13000.00000" pt_clust_7="13000.00000" pt_clust_8="13000.00000" pt_clust_9="310.11922"></scales>
<clustering>
<clus scale="   76.882">  5  6 -1 -1</clus>
<clus scale="   92.416">  7  8 -1 -1</clus>
<clus scale="  202.632">  1  5  2 -1</clus>
<clus scale="  310.119">  2  9  1 -1</clus>
<clus scale="  310.119">  2  5  1 -1</clus>
</clustering>
</event>
<event>
 9    1  0.6345107E-005  0.1234374E+03  0.7546771E-02  0.1240406E+00
         21   -1    0    0  501  502  0.00000000000E+00  0.00000000000E+00  0.93364273063E+02  0.93364273063E+02  0.00000000000E+00 0.  1.
         -4   -1    0    0    0  501 -0.00000000000E+00 -0.00000000000E+00 -0.30514836728E+03  0.30514836728E+03  0.00000000000E+00 0.  1.
         23    2    1    2    0    0  0.72619040720E+02 -0.60768021175E+01 -0.97381838217E+02  0.15148176564E+03  0.90294242940E+02 0.  0.
        -24    2    1    2    0    0 -0.89745835236E+02  0.75237703881E+02 -0.48933553139E+02  0.15026978501E+03  0.80445563196E+02 0.  0.
         11    1    4    4    0    0 -0.20129569211E+02 -0.15502797723E+02  0.11094748393E+01  0.25431618672E+02  0.00000000000E+00 0. -1.
        -12    1    4    4    0    0 -0.69616266025E+02  0.90740501603E+02 -0.50043027978E+02  0.12483816634E+03  0.00000000000E+00 0.  1.
        -13    1    3    3    0    0  0.12575723934E+02 -0.43459843729E+02 -0.40374707861E+02  0.60638468683E+02  0.00000000000E+00 0. -1.
         13    1    3    3    0    0  0.60043316786E+02  0.37383041611E+02 -0.57007130356E+02  0.90843296958E+02  0.00000000000E+00 0.  1.
         -3    1    1    2    0  502  0.17126794515E+02 -0.69160901763E+02 -0.65468702858E+02  0.96761089684E+02  0.00000000000E+00 0.  1.
<scales pt_clust_5="13000.00000" pt_clust_6="13000.00000" pt_clust_7="13000.00000" pt_clust_8="13000.00000" pt_clust_9="71.25000"></scales>
<clustering>
<clus scale="   71.250">  1  9  2 -1</clus>
<clus scale="   80.446">  5  6 -1 -1</clus>
<clus scale="   90.294">  7  8 -1 -1</clus>
<clus scale="  116.427">  1  5  2 -1</clus>
<clus scale="   71.250">  1  5  2 -1</clus>
</clustering>
</event>
<event>
 9    1  0.6345107E-005  0.1104904E+03  0.7546771E-02  0.1262840E+00
         21   -1    0    0  501  502  0.00000000000E+00  0.00000000000E+00  0.19039158162E+03  0.19039158162E+03  0.00000000000E+00 0.  1.
          3   -1    0    0  502    0 -0.00000000000E+00 -0.00000000000E+00 -0.79061903176E+02  0.79061903176E+02  0.00000000000E+00 0. -1.
        -24    2    1    2    0    0  0.69470480684E+02 -0.12751888206E+02  0.16459185481E+02  0.10869672498E+03  0.80964899158E+02 0.  0.
         23    2    1    2    0    0 -0.56470703679E+02 -0.65622302922E+01  0.83377326479E+02  0.13479289548E+03  0.89360745631E+02 0.  0.
         13    1    3    3    0    0  0.44130083358E+02  0.31936041872E+02  0.17795638927E+02  0.57306716817E+02  0.00000000000E+00 0. -1.
        -14    1    3    3    0    0  0.25340397327E+02 -0.44687930077E+02 -0.13364534464E+01  0.51390008164E+02  0.00000000000E+00 0.  1.
        -13    1    4    4    0    0 -0.77056972852E+02  0.29032144675E+01  0.81278987741E+02  0.11203784882E+03  0.00000000000E+00 0.  1.
         13    1    4    4    0    0  0.20586269174E+02 -0.94654447597E+01  0.20983387381E+01  0.22755046659E+02  0.00000000000E+00 0. -1.
          4    1    1    2  501    0 -0.12999777005E+02  0.19314118498E+02  0.11493166484E+02  0.25963864338E+02  0.00000000000E+00 0. -1.
<scales pt_clust_5="13000.00000" pt_clust_6="13000.00000" pt_clust_7="13000.00000" pt_clust_8="13000.00000" pt_clust_9="23.28152"></scales>
<clustering>
<clus scale="   23.282">  1  9  2 -1</clus>
<clus scale="   80.965">  5  6 -1 -1</clus>
<clus scale="   89.361">  7  8 -1 -1</clus>
<clus scale="  103.818">  2  5  1 -1</clus>
<clus scale="   23.282">  1  5  2 -1</clus>
</clustering>
</event>
<event>
 9    1  0.6345107E-005  0.1115344E+03  0.7546771E-02  0.1261825E+00
         21   -1    0    0  501  502  0.00000000000E+00  0.00000000000E+00  0.24472529181E+02  0.24472529181E+02  0.00000000000E+00 0.  1.
          1   -1    0    0  502    0 -0.00000000000E+00 -0.00000000000E+00 -0.71907388298E+03  0.71907388298E+03  0.00000000000E+00 0. -1.
         23    2    1    2    0    0  0.55385724637E+02 -0.24148317293E+02 -0.26949418849E+03  0.29074431678E+03  0.90853840818E+02 0.  0.
        -24    2    1    2    0    0 -0.40080675641E+02  0.63762399964E+02 -0.25931184312E+03  0.28165418002E+03  0.80089580664E+02 0.  0.
         11    1    4    4    0    0 -0.53940866314E+02  0.53972396319E+02 -0.25177948140E+03  0.26308847158E+03  0.00000000000E+00 0. -1.
        -12    1    4    4    0    0  0.13860190673E+02  0.97900036451E+01 -0.75323617208E+01  0.18565708442E+02  0.00000000000E+00 0.  1.
        -13    1    3    3    0    0  0.53945528687E+02  0.23618207092E+02 -0.11777955524E+03  0.13168129482E+03  0.00000000000E+00 0.  1.
         13    1    3    3    0    0  0.14401959503E+01 -0.47766524385E+02 -0.15171463324E+03  0.15906302196E+03  0.00000000000E+00 0. -1.
          2    1    1    2  501    0 -0.15305048996E+02 -0.39614082671E+02 -0.16579532219E+03  0.17114791536E+03  0.00000000000E+00 0. -1.
<scales pt_clust_5="13000.00000" pt_clust_6="13000.00000" pt_clust_7="13000.00000" pt_clust_8="13000.00000" pt_clust_9="42.46789"></scales>
<clustering>
<clus scale="   42.468">  1  9  2 -1</clus>
<clus scale="   80.090">  5  6 -1 -1</clus>
<clus scale="   90.854">  7  8 -1 -1</clus>
<clus scale="  102.955">  1  5  2 -1</clus>
<clus scale="   42.468">  1  5  2 -1</clus>
</clustering>
</event>
<event>
 9    1  0.6345107E-005  0.1455521E+03  0.7546771E-02  0.1233953E+00
         21   -1    0    0  501  502  0.00000000000E+00  0.00000000000E+00  0.35843770957E+03  0.35843770957E+03  0.00000000000E+00 0.  1.
         -4   -1    0    0    0  501 -0.00000000000E+00 -0.00000000000E+00 -0.89824607460E+02  0.89824607460E+02  0.00000000000E+00 0.  1.
        -24    2    1    2    0    0 -0.13931548782E+02  0.82007228079E+01  0.10032686872E+02  0.81625588196E+02  0.79377212954E+02 0.  0.
         23    2    1    2    0    0 -0.25803471332E+02  0.10402938087E+03  0.12922600965E+03  0.19083277484E+03  0.90718549173E+02 0.  0.
         13    1    3    3    0    0 -0.12522735679E+02  0.42466915307E+02 -0.42434991030E+01  0.44477692040E+02  0.00000000000E+00 0. -1.
        -14    1    3    3    0    0 -0.14088131035E+01 -0.34266192500E+02  0.14276185975E+02  0.37147896155E+02  0.00000000000E+00 0.  1.
        -11    1    4    4    0    0 -0.13012025149E+02 -0.15411994213E+02  0.15830214751E+02  0.25640555048E+02  0.00000000000E+00 0. -1.
         11    1    4    4    0    0 -0.12791446183E+02  0.11944137509E+03  0.11339579490E+03  0.16519221979E+03  0.00000000000E+00 0.  1.
         -3    1    1    2    0  502  0.39735020114E+02 -0.11223010368E+03  0.12935440559E+03  0.17580395400E+03  0.00000000000E+00 0.  1.
<scales pt_clust_5="13000.00000" pt_clust_6="13000.00000" pt_clust_7="13000.00000" pt_clust_8="13000.00000" pt_clust_9="113.82255"></scales>
<clustering>
<clus scale="   79.377">  5  6 -1 -1</clus>
<clus scale="   81.007">  2  5  1 -1</clus>
<clus scale="   90.719">  7  8 -1 -1</clus>
<clus scale="  113.823">  1  9  2 -1</clus>
<clus scale="  113.823">  1  5  2 -1</clus>
</clustering>
</event>
<event>
 9    1  0.6345107E-005  0.1387938E+03  0.7546771E-02  0.1219546E+00
         21   -1    0    0  501  502  0.00000000000E+00  0.00000000000E+00  0.24884220707E+03  0.24884220707E+03  0.00000000000E+00 0. -1.
         -2   -1    0    0    0  501 -0.00000000000E+00 -0.00000000000E+00 -0.28549097766E+03  0.28549097766E+03  0.00000000000E+00 0.  1.
         23    2    1    2    0    0  0.87624812438E+02  0.67865028670E+01 -0.67639592407E+02  0.14600716886E+03  0.94967439271E+02 0.  0.
        -24    2    1    2    0    0 -0.16576520548E+03  0.63271025973E+02  0.13913064114E+03  0.23763361760E+03  0.75040487978E+02 0.  0.
         13    1    4    4    0    0 -0.11291315750E+03  0.59044313500E+02  0.56337062706E+02  0.13931789809E+03  0.00000000000E+00 0. -1.
        -14    1    4    4    0    0 -0.52852047976E+02  0.42267124736E+01  0.82793578432E+02  0.98315719512E+02  0.00000000000E+00 0.  1.
        -13    1    3    3    0    0  0.33526130535E+02  0.67255348528E+01 -0.83001990911E+02  0.89769508982E+02  0.00000000000E+00 0.  1.
         13    1    3    3    0    0  0.54098681903E+02  0.60968014206E-01  0.15362398504E+02  0.56237659878E+02  0.00000000000E+00 0. -1.
         -1    1    1    2    0  502  0.78140393038E+02 -0.70057528840E+02 -0.10813981932E+03  0.15069239826E+03  0.00000000000E+00 0.  1.
<scales pt_clust_5="13000.00000" pt_clust_6="13000.00000" pt_clust_7="13000.00000" pt_clust_8="13000.00000" pt_clust_9="104.94756"></scales>
<clustering>
<clus scale="   75.040">  5  6 -1 -1</clus>
<clus scale="   94.967">  7  8 -1 -1</clus>
<clus scale="  104.948">  1  9  2 -1</clus>
<clus scale="  126.000">  1  5  2 -1</clus>
<clus scale="  104.948">  1  5  2 -1</clus>
</clustering>
</event>
<event>
 9    1  0.6345107E-005  0.1264825E+03  0.7546771E-02  0.1248265E+00
         21   -1    0    0  501  502  0.00000000000E+00  0.00000000000E+00  0.76850111007E+02  0.76850111007E+02  0.00000000000E+00 0.  1.
         -2   -1    0    0    0  501 -0.00000000000E+00 -0.00000000000E+00 -0.32230675166E+03  0.32230675166E+03  0.00000000000E+00 0.  1.
        -24    2    1    2    0    0 -0.13004061807E+02 -0.43682263572E+02 -0.50308653753E+02  0.10517167616E+03  0.80329789298E+02 0.  0.
         23    2    1    2    0    0  0.78371205822E+02 -0.26881654233E+02 -0.10241845327E+03  0.16037793962E+03  0.91470622127E+02 0.  0.
         11    1    3    3    0    0 -0.17948723366E+02 -0.15869102061E+02  0.18837974887E+02  0.30477112207E+02  0.00000000000E+00 0. -1.
        -12    1    3    3    0    0  0.49446615586E+01 -0.27813161511E+02 -0.69146628640E+02  0.74694563948E+02  0.00000000000E+00 0.  1.
        -11    1    4    4    0    0  0.74477606806E+02  0.19869930508E+01 -0.10751392964E+03  0.13080560815E+03  0.00000000000E+00 0. -1.
         11    1    4    4    0    0  0.38935990162E+01 -0.28868647284E+02  0.50954763747E+01  0.29572331473E+02  0.00000000000E+00 0.  1.
         -1    1    1    2    0  502 -0.65367144015E+02  0.70563917805E+02 -0.92729533633E+02  0.13360724689E+03  0.00000000000E+00 0.  1.
<scales pt_clust_5="13000.00000" pt_clust_6="13000.00000" pt_clust_7="13000.00000" pt_clust_8="13000.00000" pt_clust_9="87.35537"></scales>
<clustering>
<clus scale="   80.330">  5  6 -1 -1</clus>
<clus scale="   91.471">  7  8 -1 -1</clus>
<clus scale="   92.359">  2  5  1 -1</clus>
<clus scale="   87.355">  1  9  2 -1</clus>
<clus scale="   87.355">  1  5  2 -1</clus>
</clustering>
</event>
<event>
 9    1  0.6345107E-005  0.9029852E+02  0.7546771E-02  0.1306493E+00
          3   -1    0    0  502    0 -0.00000000000E+00  0.00000000000E+00  0.35266380408E+02  0.35266380408E+02  0.00000000000E+00 0. -1.
         21   -1    0    0  501  502  0.00000000000E+00 -0.00000000000E+00 -0.40481594755E+03  0.40481594755E+03  0.00000000000E+00 0. -1.
        -24    2    1    2    0    0 -0.22131343948E+02 -0.28731721560E+02 -0.67319944106E+02  0.10975304789E+03  0.78730225700E+02 0.  0.
         23    2    1    2    0    0 -0.88097201507E+01  0.71699134731E+01 -0.25799688525E+03  0.27220186736E+03  0.86037462579E+02 0.  0.
         11    1    3    3    0    0 -0.29680751227E+02  0.16182776029E+02 -0.76027456671E+01  0.34650122296E+02  0.00000000000E+00 0. -1.
        -12    1    3    3    0    0  0.75494072794E+01 -0.44914497589E+02 -0.59717198439E+02  0.75102925598E+02  0.00000000000E+00 0.  1.
        -13    1    4    4    0    0 -0.16456056305E+02  0.43492727879E+02 -0.10623969138E+03  0.11597107912E+03  0.00000000000E+00 0.  1.
         13    1    4    4    0    0  0.76463361546E+01 -0.36322814406E+02 -0.15175719388E+03  0.15623078825E+03  0.00000000000E+00 0. -1.
          4    1    1    2  501    0  0.30941064099E+02  0.21561808087E+02 -0.44232737783E+02  0.58127412701E+02  0.00000000000E+00 0. -1.
<scales pt_clust_5="13000.00000" pt_clust_6="13000.00000" pt_clust_7="13000.00000" pt_clust_8="13000.00000" pt_clust_9="37.71289"></scales>
<clustering>
<clus scale="   37.713">  2  9  1 -1</clus>
<clus scale="   78.730">  5  6 -1 -1</clus>
<clus scale="   83.366">  1  5  2 -1</clus>
<clus scale="   86.037">  7  8 -1 -1</clus>
<clus scale="   37.713">  2  5  1 -1</clus>
</clustering>
</event>
<event>
 9    1  0.6345107E-005  0.1368203E+03  0.7546771E-02  0.1220548E+00
          3   -1    0    0  502    0 -0.00000000000E+00  0.00000000000E+00  0.39586597191E+03  0.39586597191E+03  0.00000000000E+00 0. -1.
         21   -1    0    0  501  502  0.00000000000E+00 -0.00000000000E+00 -0.12438411740E+03  0.12438411740E+03  0.00000000000E+00 0. -1.
         23    2    1    2    0    0  0.11651389594E+03 -0.11022420117E+02  0.19351869043E+03  0.24428220890E+03  0.92343556063E+02 0.  0.
        -24    2    1    2    0    0 -0.36539520879E+02  0.93974640257E+02 -0.12746663845E+02  0.12932121534E+03  0.79969554832E+02 0.  0.
         11    1    4    4    0    0 -0.42551542373E+02  0.89496905351E+02  0.15316355082E+02  0.10027422679E+03  0.00000000000E+00 0. -1.
        -12    1    4    4    0    0  0.60120214942E+01  0.44777349061E+01 -0.28063018927E+02  0.29046988547E+02  0.00000000000E+00 0.  1.
        -13    1    3    3    0    0  0.88184595001E+01  0.21563051613E+02  0.36535854467E+01  0.23581329679E+02  0.00000000000E+00 0.  1.
         13    1    3    3    0    0  0.10769543644E+03 -0.32585471730E+02  0.18986510499E+03  0.22070087922E+03  0.00000000000E+00 0. -1.
          4    1    1    2  501    0 -0.79974375064E+02 -0.82952220140E+02  0.90709827928E+02  0.14664666507E+03  0.00000000000E+00 0. -1.
<scales pt_clust_5="13000.00000" pt_clust_6="13000.00000" pt_clust_7="13000.00000" pt_clust_8="13000.00000" pt_clust_9="115.22580"></scales>
<clustering>
<clus scale="   79.970">  5  6 -1 -1</clus>
<clus scale="   92.344">  7  8 -1 -1</clus>
<clus scale="  115.226">  2  9  1 -1</clus>
<clus scale="  128.793">  2  5  1 -1</clus>
<clus scale="  115.226">  2  5  1 -1</clus>
</clustering>
</event>
<event>
 9    1  0.6345107E-005  0.9163728E+02  0.7546771E-02  0.1299076E+00
         21   -1    0    0  501  502  0.00000000000E+00  0.00000000000E+00  0.66137491278E+02  0.66137491278E+02  0.00000000000E+00 0. -1.
          1   -1    0    0  502    0 -0.00000000000E+00 -0.00000000000E+00 -0.21123500784E+03  0.21123500784E+03  0.00000000000E+00 0. -1.
         23    2    1    2    0    0  0.32985311484E+02 -0.95545057097E+01 -0.12774759774E+03  0.15815212173E+03  0.86679441209E+02 0.  0.
        -24    2    1    2    0    0 -0.18062441978E+02 -0.14133746964E+02 -0.11785723825E+02  0.90675927573E+02  0.86932191630E+02 0.  0.
         11    1    4    4    0    0 -0.49173550578E+02 -0.23673612863E+02  0.35736528945E+01  0.54692312233E+02  0.00000000000E+00 0. -1.
        -12    1    4    4    0    0  0.31111108600E+02  0.95398658988E+01 -0.15359376719E+02  0.35983615339E+02  0.00000000000E+00 0.  1.
        -13    1    3    3    0    0  0.15474015884E+02  0.38042129161E+02 -0.43551236670E+02  0.59861164157E+02  0.00000000000E+00 0.  1.
         13    1    3    3    0    0  0.17511295600E+02 -0.47596634870E+02 -0.84196361067E+02  0.98290957578E+02  0.00000000000E+00 0. -1.
          2    1    1    2  501    0 -0.14922869506E+02  0.23688252674E+02 -0.55641950008E+01  0.28544449812E+02  0.00000000000E+00 0. -1.
<scales pt_clust_5="13000.00000" pt_clust_6="13000.00000" pt_clust_7="13000.00000" pt_clust_8="13000.00000" pt_clust_9="27.99688"></scales>
<clustering>
<clus scale="   27.997">  1  9  2 -1</clus>
<clus scale="   86.679">  7  8 -1 -1</clus>
<clus scale="   86.932">  5  6 -1 -1</clus>
<clus scale="   91.398">  2  7  1 -1</clus>
<clus scale="   27.997">  1  5  2 -1</clus>
</clustering>
</event>
<event>
 9    1  0.6345107E-005  0.1533615E+03  0.7546771E-02  0.1197646E+00
          1   -1    0    0  502    0 -0.00000000000E+00  0.00000000000E+00  0.44089849583E+03  0.44089849583E+03  0.00000000000E+00 0. -1.
         21   -1    0    0  501  502  0.00000000000E+00 -0.00000000000E+00 -0.81972464800E+02  0.81972464800E+02  0.00000000000E+00 0. -1.
         23    2    1    2    0    0  0.84105058051E+02 -0.11222971371E+03  0.23899983270E+03  0.29053461506E+03  0.87294175572E+02 0.  0.
        -24    2    1    2    0    0 -0.42825658785E+02  0.10335702635E+03  0.12971213045E+03  0.18899493521E+03  0.79856977171E+02 0.  0.
         13    1    4    4    0    0  0.72647195994E+01  0.69857823152E+02  0.39712589410E+02  0.80684455529E+02  0.00000000000E+00 0. -1.
        -14    1    4    4    0    0 -0.50090378385E+02  0.33499203203E+02  0.89999541040E+02  0.10831047968E+03  0.00000000000E+00 0.  1.
        -11    1    3    3    0    0  0.89838086671E+01 -0.66760658001E+02  0.15505161389E+03  0.16905235060E+03  0.00000000000E+00 0. -1.
         11    1    3    3    0    0  0.75121249384E+02 -0.45469055706E+02  0.83948218806E+02  0.12148226445E+03  0.00000000000E+00 0.  1.
          2    1    1    2  501    0 -0.41279399266E+02  0.88726873534E+01 -0.97859321175E+01  0.43341410360E+02  0.00000000000E+00 0. -1.
<scales pt_clust_5="13000.00000" pt_clust_6="13000.00000" pt_clust_7="13000.00000" pt_clust_8="13000.00000" pt_clust_9="42.22219"></scales>
<clustering>
<clus scale="   42.222">  2  9  1 -1</clus>
<clus scale="   79.857">  5  6 -1 -1</clus>
<clus scale="   87.294">  7  8 -1 -1</clus>
<clus scale="  149.254">  2  5  1 -1</clus>
<clus scale="   42.222">  2  5  1 -1</clus>
</clustering>
</event>
<event>
 9    1  0.6345107E-005  0.9862849E+02  0.7546771E-02  0.1289218E+00
         -4   -1    0    0    0  501 -0.00000000000E+00  0.00000000000E+00  0.39221587969E+03  0.39221587969E+03  0.00000000000E+00 0.  1.
         21   -1    0    0  501  502  0.00000000000E+00 -0.00000000000E+00 -0.55760696925E+02  0.55760696925E+02  0.00000000000E+00 0. -1.
        -24    2    1    2    0    0  0.16861056743E+02  0.14025430952E+02  0.11213915244E+03  0.14019055659E+03  0.81223116786E+02 0.  0.
         23    2    1    2    0    0  0.13854737328E+02 -0.78679329842E+02  0.78380373992E+02  0.14524124946E+03  0.92569686328E+02 0.  0.
         11    1    3    3    0    0 -0.25273281139E+02 -0.14849142607E+02  0.22243786819E+02  0.36797035584E+02  0.00000000000E+00 0. -1.
        -12    1    3    3    0    0  0.42134337882E+02  0.28874573559E+02  0.89895365619E+02  0.10339352101E+03  0.00000000000E+00 0.  1.
        -13    1    4    4    0    0  0.49412840932E+01 -0.33829290715E+02  0.91492335649E+02  0.97671309407E+02  0.00000000000E+00 0.  1.
         13    1    4    4    0    0  0.89134532350E+01 -0.44850039127E+02 -0.13111961657E+02  0.47569940054E+02  0.00000000000E+00 0. -1.
         -3    1    1    2    0  502 -0.30715794071E+02  0.64653898890E+02  0.14593565634E+03  0.16254477056E+03  0.00000000000E+00 0.  1.
<scales pt_clust_5="13000.00000" pt_clust_6="13000.00000" pt_clust_7="13000.00000" pt_clust_8="13000.00000" pt_clust_9="71.57927"></scales>
<clustering>
<clus scale="   71.579">  2  9  1 -1</clus>
<clus scale="   81.223">  5  6 -1 -1</clus>
<clus scale="   88.066">  1  5  2 -1</clus>
<clus scale="   92.570">  7  8 -1 -1</clus>
<clus scale="   71.579">  2  5  1 -1</clus>
</clustering>
</event>
<event>
 9    1  0.6345107E-005  0.2256360E+03  0.7546771E-02  0.1142740E+00
         -4   -1    0    0    0  501 -0.00000000000E+00  0.00000000000E+00  0.48826216897E+03  0.48826216897E+03  0.00000000000E+00 0.  1.
         21   -1    0    0  501  502  0.00000000000E+00 -0.00000000000E+00 -0.30397535808E+03  0.30397535808E+03  0.00000000000E+00 0.  1.
         23    2    1    2    0    0  0.13285050257E+03 -0.34023654862E+02 -0.85701395922E+02  0.18556614370E+03  0.91012083266E+02 0.  0.
        -24    2    1    2    0    0 -0.31384758852E+03  0.56056187337E+02  0.26830234937E+03  0.42433043972E+03  0.80172105083E+02 0.  0.
         11    1    4    4    0    0 -0.22543966733E+03  0.71593174572E+02  0.21670121691E+03  0.32079283605E+03  0.00000000000E+00 0. -1.
        -12    1    4    4    0    0 -0.88407921195E+02 -0.15536987234E+02  0.51601132458E+02  0.10353760367E+03  0.00000000000E+00 0.  1.
        -13    1    3    3    0    0  0.84814039952E+02  0.10344528786E+02 -0.84491686989E+02  0.12016353781E+03  0.00000000000E+00 0.  1.
         13    1    3    3    0    0  0.48036462620E+02 -0.44368183649E+02 -0.12097089331E+01  0.65402605889E+02  0.00000000000E+00 0. -1.
         -3    1    1    2    0  502  0.18099708595E+03 -0.22032532475E+02  0.16858574396E+01  0.18234094363E+03  0.00000000000E+00 0.  1.
<scales pt_clust_5="13000.00000" pt_clust_6="13000.00000" pt_clust_7="13000.00000" pt_clust_8="13000.00000" pt_clust_9="210.91238"></scales>
<clustering>
<clus scale="   80.172">  5  6 -1 -1</clus>
<clus scale="   91.012">  7  8 -1 -1</clus>
<clus scale="  164.591">  1  7  2 -1</clus>
<clus scale="  210.912">  2  9  1 -1</clus>
<clus scale="  210.912">  2  5  1 -1</clus>
</clustering>
</event>
<event>
 9    1  0.6345107E-005  0.4238425E+03  0.7546771E-02  0.1035961E+00
         21   -1    0    0  501  502  0.00000000000E+00  0.00000000000E+00  0.20870660615E+03  0.20870660615E+03  0.00000000000E+00 0. -1.
          1   -1    0    0  502    0 -0.00000000000E+00 -0.00000000000E+00 -0.15028960891E+04  0.15028960891E+04  0.00000000000E+00 0. -1.
         23    2    1    2    0    0 -0.36155032611E+03 -0.28920214211E+03 -0.65330441603E+03  0.80598898891E+03  0.91951470502E+02 0.  0.
        -24    2    1    2    0    0  0.29420701625E+03  0.16540461353E+03 -0.12293641952E+03  0.36883465420E+03  0.83720871405E+02 0.  0.
         11    1    4    4    0    0  0.28203437305E+03  0.15129086245E+03 -0.13421121049E+03  0.34705181409E+03  0.00000000000E+00 0. -1.
        -12    1    4    4    0    0  0.12172643196E+02  0.14113751080E+02  0.11274790967E+02  0.21782840110E+02  0.00000000000E+00 0.  1.
        -13    1    3    3    0    0 -0.31127769675E+03 -0.27486700615E+03 -0.61089492266E+03  0.73867332570E+03  0.00000000000E+00 0. -1.
         13    1    3    3    0    0 -0.50272629362E+02 -0.14335135967E+02 -0.42409493363E+02  0.67315663211E+02  0.00000000000E+00 0.  1.
          2    1    1    2  501    0  0.67343309863E+02  0.12379752858E+03 -0.51794864737E+03  0.53677905211E+03  0.00000000000E+00 0. -1.
<scales pt_clust_5="13000.00000" pt_clust_6="13000.00000" pt_clust_7="13000.00000" pt_clust_8="13000.00000" pt_clust_9="140.92895"></scales>
<clustering>
<clus scale="   83.721">  5  6 -1 -1</clus>
<clus scale="   91.951">  7  8 -1 -1</clus>
<clus scale="  140.929">  1  9  2 -1</clus>
<clus scale="  422.133">  1  5  2 -1</clus>
<clus scale="  140.929">  1  5  2 -1</clus>
</clustering>
</event>
<event>
 9    1  0.6345107E-005  0.1346770E+03  0.7546771E-02  0.1223850E+00
         -2   -1    0    0    0  501 -0.00000000000E+00  0.00000000000E+00  0.68680734952E+02  0.68680734952E+02  0.00000000000E+00 0.  1.
         21   -1    0    0  501  502  0.00000000000E+00 -0.00000000000E+00 -0.53698732419E+03  0.53698732419E+03  0.00000000000E+00 0.  1.
        -24    2    1    2    0    0 -0.10041229500E+03 -0.19232479959E+02 -0.26064354942E+02  0.13332436062E+03  0.81507774252E+02 0.  0.
         23    2    1    2    0    0  0.76869182275E+02 -0.34584565186E+01 -0.25869355483E+03  0.28590530524E+03  0.94332688667E+02 0.  0.
         11    1    3    3    0    0 -0.40056154484E+02 -0.17147397145E+02 -0.51790105887E+02  0.67681192429E+02  0.00000000000E+00 0. -1.
        -12    1    3    3    0    0 -0.60356140514E+02 -0.20850828142E+01  0.25725750945E+02  0.65643168188E+02  0.00000000000E+00 0.  1.
        -11    1    4    4    0    0  0.90319365127E+01  0.38120965256E+02 -0.57767138030E+02  0.69798467787E+02  0.00000000000E+00 0. -1.
         11    1    4    4    0    0  0.67837245763E+02 -0.41579421775E+02 -0.20092641680E+03  0.21610683746E+03  0.00000000000E+00 0.  1.
         -1    1    1    2    0  502  0.23543112722E+02  0.22690936477E+02 -0.18354867947E+03  0.18643839328E+03  0.00000000000E+00 0.  1.
<scales pt_clust_5="13000.00000" pt_clust_6="13000.00000" pt_clust_7="13000.00000" pt_clust_8="13000.00000" pt_clust_9="32.69796"></scales>
<clustering>
<clus scale="   32.698">  2  9  1 -1</clus>
<clus scale="   81.508">  5  6 -1 -1</clus>
<clus scale="   94.333">  7  8 -1 -1</clus>
<clus scale="  126.027">  1  5  2 -1</clus>
<clus scale="   32.698">  2  5  1 -1</clus>
</clustering>
</event>
<event>
 9    1  0.6345107E-005  0.1108378E+03  0.7546771E-02  0.1265593E+00
         -2   -1    0    0    0  501 -0.00000000000E+00  0.00000000000E+00  0.22618577448E+03  0.22618577448E+03  0.00000000000E+00 0.  1.
         21   -1    0    0  501  502  0.00000000000E+00 -0.00000000000E+00 -0.85166825538E+02  0.85166825538E+02  0.00000000000E+00 0. -1.
        -24    2    1    2    0    0 -0.57422536678E+02  0.52588979130E+02  0.10212198239E+03  0.15119544406E+03  0.79801093801E+02 0.  0.
         23    2    1    2    0    0  0.17055727262E+02 -0.11928519423E+02  0.21095656382E+02  0.10016016496E+03  0.95675725854E+02 0.  0.
         13    1    3    3    0    0 -0.95417082609E+00  0.30716539684E+02  0.81699271432E+02  0.87287955667E+02  0.00000000000E+00 0. -1.
        -14    1    3    3    0    0 -0.56468365852E+02  0.21872439446E+02  0.20422710957E+02  0.63907488389E+02  0.00000000000E+00 0.  1.
        -13    1    4    4    0    0 -0.14587045209E+02 -0.39708765304E+02 -0.14812049559E+02  0.44821476348E+02  0.00000000000E+00 0. -1.
         13    1    4    4    0    0  0.31642772471E+02  0.27780245881E+02  0.35907705940E+02  0.55338688607E+02  0.00000000000E+00 0.  1.
         -1    1    1    2    0  502  0.40366809416E+02 -0.40660459707E+02  0.17801310171E+02  0.59996991006E+02  0.00000000000E+00 0.  1.
<scales pt_clust_5="13000.00000" pt_clust_6="13000.00000" pt_clust_7="13000.00000" pt_clust_8="13000.00000" pt_clust_9="57.29531"></scales>
<clustering>
<clus scale="   57.295">  2  9  1 -1</clus>
<clus scale="   79.801">  5  6 -1 -1</clus>
<clus scale="   95.676">  7  8 -1 -1</clus>
<clus scale="   97.465">  1  5  2 -1</clus>
<clus scale="   57.295">  2  5  1 -1</clus>
</clustering>
</event>
<event>
 9    1  0.6345107E-005  0.1200540E+03  0.7546771E-02  0.1250057E+00
         21   -1    0    0  501  502  0.00000000000E+00  0.00000000000E+00  0.43208896941E+03  0.43208896941E+03  0.00000000000E+00 0.  1.
          1   -1    0    0  502    0 -0.00000000000E+00 -0.00000000000E+00 -0.12774384754E+03  0.12774384754E+03  0.00000000000E+00 0. -1.
         23    2    1    2    0    0 -0.82836256149E+02 -0.36017820155E+02 -0.64285375802E+02  0.14378761863E+03  0.91559494477E+02 0.  0.
        -24    2    1    2    0    0  0.12389754172E+02  0.61388997032E+02  0.98959114969E+02  0.13617190393E+03  0.69482127336E+02 0.  0.
         13    1    4    4    0    0 -0.16347718200E+02  0.36550470202E+02  0.12840203495E+02  0.42048253092E+02  0.00000000000E+00 0. -1.
        -14    1    4    4    0    0  0.28737472372E+02  0.24838526831E+02  0.86118911473E+02  0.94123650837E+02  0.00000000000E+00 0.  1.
        -13    1    3    3    0    0 -0.23606027853E+01 -0.25286560749E+02  0.15667505382E+02  0.29840464556E+02  0.00000000000E+00 0.  1.
         13    1    3    3    0    0 -0.80475653364E+02 -0.10731259406E+02 -0.79952881185E+02  0.11394715408E+03  0.00000000000E+00 0. -1.
          2    1    1    2  501    0  0.70446501977E+02 -0.25371176878E+02  0.26967138271E+03  0.27987329438E+03  0.00000000000E+00 0. -1.
<scales pt_clust_5="13000.00000" pt_clust_6="13000.00000" pt_clust_7="13000.00000" pt_clust_8="13000.00000" pt_clust_9="74.87594"></scales>
<clustering>
<clus scale="   69.482">  5  6 -1 -1</clus>
<clus scale="   74.876">  1  9  2 -1</clus>
<clus scale="   91.559">  7  8 -1 -1</clus>
<clus scale="  104.200">  1  5  2 -1</clus>
<clus scale="   74.876">  1  5  2 -1</clus>
</clustering>
</event>
<event>
 9    1  0.6345107E-005  0.1791742E+03  0.7546771E-02  0.1170208E+00
         21   -1    0    0  501  502  0.00000000000E+00  0.00000000000E+00  0.81698291571E+02  0.81698291571E+02  0.00000000000E+00 0. -1.
         -2   -1    0    0    0  501 -0.00000000000E+00 -0.00000000000E+00 -0.83018460297E+03  0.83018460297E+03  0.00000000000E+00 0.  1.
        -24    2    1    2    0    0  0.17651000834E+02 -0.17794712184E+03 -0.30644555906E+03  0.36377487819E+03  0.80290381326E+02 0.  0.
         23    2    1    2    0    0 -0.38151302936E+02  0.10421906750E+03 -0.57494196589E+02  0.15602111026E+03  0.93380234848E+02 0.  0.
         11    1    3    3    0    0 -0.71904827204E+01 -0.14871687669E+03 -0.19133410554E+03  0.24243999752E+03  0.00000000000E+00 0. -1.
        -12    1    3    3    0    0  0.24841483555E+02 -0.29230245157E+02 -0.11511145352E+03  0.12133488067E+03  0.00000000000E+00 0.  1.
        -13    1    4    4    0    0 -0.11505766009E+02  0.85665257794E+02  0.39510445413E+01  0.86524735177E+02  0.00000000000E+00 0. -1.
         13    1    4    4    0    0 -0.26645536927E+02  0.18553809707E+02 -0.61445241131E+02  0.69496375088E+02  0.00000000000E+00 0.  1.
         -1    1    1    2    0  502  0.20500302102E+02  0.73728054343E+02 -0.38454655575E+03  0.39208690608E+03  0.00000000000E+00 0.  1.
<scales pt_clust_5="13000.00000" pt_clust_6="13000.00000" pt_clust_7="13000.00000" pt_clust_8="13000.00000" pt_clust_9="76.52512"></scales>
<clustering>
<clus scale="   76.525">  1  9  2 -1</clus>
<clus scale="   80.290">  5  6 -1 -1</clus>
<clus scale="   93.380">  7  8 -1 -1</clus>
<clus scale="  172.714">  2  5  1 -1</clus>
<clus scale="   76.525">  1  5  2 -1</clus>
</clustering>
</event>
<event>
 9    1  0.6345107E-005  0.1783925E+03  0.7546771E-02  0.1185756E+00
         21   -1    0    0  501  502  0.00000000000E+00  0.00000000000E+00  0.25861954123E+03  0.25861954123E+03  0.00000000000E+00 0. -1.
          1   -1    0    0  502    0 -0.00000000000E+00 -0.00000000000E+00 -0.30654112001E+03  0.30654112001E+03  0.00000000000E+00 0. -1.
         23    2    1    2    0    0 -0.80239590792E+02 -0.22289471374E+02  0.98634090214E+02  0.15783922682E+03  0.90825796478E+02 0.  0.
        -24    2    1    2    0    0  0.11779941095E+03  0.16382032531E+03 -0.14413491114E+03  0.26087150177E+03  0.81026339042E+02 0.  0.
         11    1    4    4    0    0  0.38556141074E+02  0.12078188364E+03 -0.75686430401E+02  0.14765932134E+03  0.00000000000E+00 0. -1.
        -12    1    4    4    0    0  0.79243269878E+02  0.43038441672E+02 -0.68448480743E+02  0.11321218043E+03  0.00000000000E+00 0.  1.
        -13    1    3    3    0    0 -0.37459563685E+02 -0.67985322222E+01 -0.10590589768E+02  0.39517079137E+02  0.00000000000E+00 0.  1.
         13    1    3    3    0    0 -0.42780027107E+02 -0.15490939151E+02  0.10922467998E+03  0.11832214768E+03  0.00000000000E+00 0. -1.
          2    1    1    2  501    0 -0.37559820160E+02 -0.14153085394E+03 -0.24207578504E+01  0.14644993266E+03  0.00000000000E+00 0. -1.
<scales pt_clust_5="13000.00000" pt_clust_6="13000.00000" pt_clust_7="13000.00000" pt_clust_8="13000.00000" pt_clust_9="158.92965"></scales>
<clustering>
<clus scale="   81.026">  5  6 -1 -1</clus>
<clus scale="   90.826">  7  8 -1 -1</clus>
<clus scale="  123.226">  2  7  1 -1</clus>
<clus scale="  158.930">  1  9  2 -1</clus>
<clus scale="  158.930">  1  5  2 -1</clus>
</clustering>
</event>
<event>
 9    1  0.6345107E-005  0.1833281E+03  0.7546771E-02  0.1191690E+00
         21   -1    0    0  501  502  0.00000000000E+00  0.00000000000E+00  0.43928754047E+03  0.43928754047E+03  0.00000000000E+00 0. -1.
          3   -1    0    0  502    0 -0.00000000000E+00 -0.00000000000E+00 -0.13947299669E+03  0.13947299669E+03  0.00000000000E+00 0. -1.
        -24    2    1    2    0    0 -0.59333276447E+02 -0.99651144328E+01 -0.14357636321E+02  0.10058815690E+03  0.79322723023E+02 0.  0.
         23    2    1    2    0    0  0.11176479091E+02  0.16330794404E+03  0.10593253134E+03  0.21511943533E+03  0.90886038488E+02 0.  0.
         11    1    3    3    0    0 -0.45610483728E+02  0.65926577837E+01 -0.44166584760E+02  0.63831548406E+02  0.00000000000E+00 0. -1.
        -12    1    3    3    0    0 -0.13722792718E+02 -0.16557772216E+02  0.29808948439E+02  0.36756608491E+02  0.00000000000E+00 0.  1.
        -11    1    4    4    0    0  0.20776192334E+02 -0.24865916517E+01  0.15338466308E+02  0.25944206571E+02  0.00000000000E+00 0.  1.
         11    1    4    4    0    0 -0.95997132424E+01  0.16579453569E+03  0.90594065029E+02  0.18917522876E+03  0.00000000000E+00 0. -1.
          4    1    1    2  501    0  0.48156797355E+02 -0.15334282960E+03  0.20823964876E+03  0.26305294493E+03  0.00000000000E+00 0. -1.
<scales pt_clust_5="13000.00000" pt_clust_6="13000.00000" pt_clust_7="13000.00000" pt_clust_8="13000.00000" pt_clust_9="159.21347"></scales>
<clustering>
<clus scale="   79.323">  5  6 -1 -1</clus>
<clus scale="   90.886">  7  8 -1 -1</clus>
<clus scale="   99.558">  2  5  1 -1</clus>
<clus scale="  159.213">  1  9  2 -1</clus>
<clus scale="  159.213">  1  5  2 -1</clus>
</clustering>
</event>
<event>
 9    1  0.6345107E-005  0.1437257E+03  0.7546771E-02  0.1225799E+00
          1   -1    0    0  502    0 -0.00000000000E+00  0.00000000000E+00  0.10788984962E+04  0.10788984962E+04  0.00000000000E+00 0. -1.
         21   -1    0    0  501  502  0.00000000000E+00 -0.00000000000E+00 -0.51730604352E+02  0.51730604352E+02  0.00000000000E+00 0. -1.
        -24    2    1    2    0    0  0.18485225379E+02  0.57875963779E+02  0.69811957405E+03  0.70518388212E+03  0.78879890864E+02 0.  0.
         23    2    1    2    0    0  0.64901702335E+02 -0.11889992086E+03  0.23148591949E+03  0.28333355595E+03  0.91338660262E+02 0.  0.
         11    1    3    3    0    0  0.13335001296E+02  0.60130271862E+02  0.26638019373E+03  0.27340789942E+03  0.00000000000E+00 0. -1.
        -12    1    3    3    0    0  0.51502240829E+01 -0.22543080834E+01  0.43173938032E+03  0.43177598270E+03  0.00000000000E+00 0.  1.
        -11    1    4    4    0    0  0.59234559473E+02 -0.17731380171E+02  0.94911246285E+02  0.11327523803E+03  0.00000000000E+00 0.  1.
         11    1    4    4    0    0  0.56671428613E+01 -0.10116854069E+03  0.13657467320E+03  0.17005831792E+03  0.00000000000E+00 0. -1.
          2    1    1    2  501    0 -0.83386927713E+02  0.61023957084E+02  0.97562398319E+02  0.14211166250E+03  0.00000000000E+00 0. -1.
<scales pt_clust_5="13000.00000" pt_clust_6="13000.00000" pt_clust_7="13000.00000" pt_clust_8="13000.00000" pt_clust_9="110.96999"></scales>
<clustering>
<clus scale="   78.880">  5  6 -1 -1</clus>
<clus scale="   91.339">  7  8 -1 -1</clus>
<clus scale="   99.566">  1  5  2 -1</clus>
<clus scale="  110.970">  2  9  1 -1</clus>
<clus scale="  110.970">  2  5  1 -1</clus>
</clustering>
</event>
<event>
 9    1  0.6345107E-005  0.2014756E+03  0.7546771E-02  0.1156719E+00
         21   -1    0    0  501  502  0.00000000000E+00  0.00000000000E+00  0.30178785174E+03  0.30178785174E+03  0.00000000000E+00 0.  1.
         -2   -1    0    0    0  501 -0.00000000000E+00 -0.00000000000E+00 -0.71872745066E+03  0.71872745066E+03  0.00000000000E+00 0.  1.
         23    2    1    2    0    0  0.10810863743E+03 -0.87141405107E+02 -0.49488476007E+03  0.52197475336E+03  0.90915430023E+02 0.  0.
        -24    2    1    2    0    0 -0.48854642486E+02  0.25079425704E+03 -0.62375034305E+02  0.27497165783E+03  0.80213666236E+02 0.  0.
         13    1    4    4    0    0 -0.27218629915E+02  0.16712949773E+02 -0.14451531899E+02  0.35057428297E+02  0.00000000000E+00 0. -1.
        -14    1    4    4    0    0 -0.21636012571E+02  0.23408130726E+03 -0.47923502405E+02  0.23991422953E+03  0.00000000000E+00 0.  1.
        -13    1    3    3    0    0  0.96792916946E+02 -0.10618770331E+03 -0.43565194963E+03  0.45873447475E+03  0.00000000000E+00 0.  1.
         13    1    3    3    0    0  0.11315720487E+02  0.19046298204E+02 -0.59232810443E+02  0.63240278608E+02  0.00000000000E+00 0. -1.
         -1    1    1    2    0  502 -0.59253994947E+02 -0.16365285193E+03  0.14032019546E+03  0.22356889121E+03  0.00000000000E+00 0.  1.
<scales pt_clust_5="13000.00000" pt_clust_6="13000.00000" pt_clust_7="13000.00000" pt_clust_8="13000.00000" pt_clust_9="184.81931"></scales>
<clustering>
<clus scale="   80.214">  5  6 -1 -1</clus>
<clus scale="   90.915">  7  8 -1 -1</clus>
<clus scale="  165.972">  2  7  1 -1</clus>
<clus scale="  184.819">  1  9  2 -1</clus>
<clus scale="  184.819">  1  5  2 -1</clus>
</clustering>
</event>
<event>
 9    1  0.6345107E-005  0.3512526E+03  0.7546771E-02  0.1107310E+00
         21   -1    0    0  501  502  0.00000000000E+00  0.00000000000E+00  0.48678066675E+03  0.48678066675E+03  0.00000000000E+00 0. -1.
          1   -1    0    0  502    0 -0.00000000000E+00 -0.00000000000E+00 -0.67684255094E+03  0.67684255094E+03  0.00000000000E+00 0. -1.
        -24    2    1    2    0    0 -0.66610253782E+02  0.97448522980E+01 -0.40224355736E+03  0.41572171549E+03  0.80577771398E+02 0.  0.
         23    2    1    2    0    0 -0.46079087144E+02  0.32122508127E+03 -0.33845571197E+01  0.33715975350E+03  0.91413396399E+02 0.  0.
         11    1    3    3    0    0 -0.74992775807E+02  0.69026668090E+01 -0.20693601963E+03  0.22021371314E+03  0.00000000000E+00 0. -1.
        -12    1    3    3    0    0  0.83825220249E+01  0.28421854890E+01 -0.19530753773E+03  0.19550800236E+03  0.00000000000E+00 0.  1.
        -11    1    4    4    0    0 -0.13185157006E+01  0.52677595264E+02  0.33468759319E+02  0.62424557482E+02  0.00000000000E+00 0.  1.
         11    1    4    4    0    0 -0.44760571444E+02  0.26854748601E+03 -0.36853316438E+02  0.27473519602E+03  0.00000000000E+00 0. -1.
          2    1    1    2  501    0  0.11268934093E+03 -0.33096993357E+03  0.21556623028E+03  0.41074174870E+03  0.00000000000E+00 0. -1.
<scales pt_clust_5="13000.00000" pt_clust_6="13000.00000" pt_clust_7="13000.00000" pt_clust_8="13000.00000" pt_clust_9="339.14896"></scales>
<clustering>
<clus scale="   80.578">  5  6 -1 -1</clus>
<clus scale="   91.413">  7  8 -1 -1</clus>
<clus scale="  104.998">  2  5  1 -1</clus>
<clus scale="  339.149">  1  9  2 -1</clus>
<clus scale="  339.149">  1  5  2 -1</clus>
</clustering>
</event>
<event>
 9    1  0.6345107E-005  0.1004215E+03  0.7546771E-02  0.1287708E+00
         -2   -1    0    0    0  501 -0.00000000000E+00  0.00000000000E+00  0.17576296859E+02  0.17576296859E+02  0.00000000000E+00 0.  1.
         21   -1    0    0  501  502  0.00000000000E+00 -0.00000000000E+00 -0.86569325237E+03  0.86569325237E+03  0.00000000000E+00 0.  1.
         23    2    1    2    0    0  0.62103784424E+02 -0.76025449104E+01 -0.38578136789E+03  0.40150298341E+03  0.91992951593E+02 0.  0.
        -24    2    1    2    0    0 -0.16210413450E+02  0.15262887487E+02 -0.37035846183E+03  0.37869050645E+03  0.75798259781E+02 0.  0.
         11    1    4    4    0    0  0.14738441803E+02  0.32619687925E+02 -0.10418992394E+03  0.11016717278E+03  0.00000000000E+00 0. -1.
        -12    1    4    4    0    0 -0.30948855254E+02 -0.17356800438E+02 -0.26616853789E+03  0.26852333367E+03  0.00000000000E+00 0.  1.
        -11    1    3    3    0    0  0.68962742345E+02  0.23264534702E+02 -0.32430438585E+03  0.33237092696E+03  0.00000000000E+00 0.  1.
         11    1    3    3    0    0 -0.68589579205E+01 -0.30867079612E+02 -0.61476982043E+02  0.69132056447E+02  0.00000000000E+00 0. -1.
         -1    1    1    2    0  502 -0.45893370974E+02 -0.76603425764E+01 -0.91977125788E+02  0.10307605937E+03  0.00000000000E+00 0.  1.
<scales pt_clust_5="13000.00000" pt_clust_6="13000.00000" pt_clust_7="13000.00000" pt_clust_8="13000.00000" pt_clust_9="46.52832"></scales>
<clustering>
<clus scale="   46.528">  2  9  1 -1</clus>
<clus scale="   75.798">  5  6 -1 -1</clus>
<clus scale="   85.832">  2  5  1 -1</clus>
<clus scale="   91.993">  7  8 -1 -1</clus>
<clus scale="   46.528">  2  5  1 -1</clus>
</clustering>
</event>
<event>
 9    1  0.6345107E-005  0.9230227E+02  0.7546771E-02  0.1303284E+00
         21   -1    0    0  501  502  0.00000000000E+00  0.00000000000E+00  0.22368341134E+02  0.22368341134E+02  0.00000000000E+00 0.  1.
         -2   -1    0    0    0  501 -0.00000000000E+00 -0.00000000000E+00 -0.47119378104E+03  0.47119378104E+03  0.00000000000E+00 0.  1.
        -24    2    1    2    0    0 -0.22089007459E+02  0.14349548515E+02 -0.24500288336E+03  0.25920243147E+03  0.80409289456E+02 0.  0.
         23    2    1    2    0    0  0.16094462612E+01 -0.91968676135E+01 -0.13705994929E+03  0.16433677821E+03  0.90188548503E+02 0.  0.
         11    1    3    3    0    0 -0.25724928488E+02  0.11569235010E+02 -0.21031829891E+02  0.35184613299E+02  0.00000000000E+00 0. -1.
        -12    1    3    3    0    0  0.36359210295E+01  0.27803135052E+01 -0.22397105347E+03  0.22401781817E+03  0.00000000000E+00 0.  1.
        -11    1    4    4    0    0 -0.38868012447E+02  0.16779100207E+02 -0.58225768803E+02  0.71989587775E+02  0.00000000000E+00 0.  1.
         11    1    4    4    0    0  0.40477458708E+02 -0.25975967820E+02 -0.78834180489E+02  0.92347190434E+02  0.00000000000E+00 0. -1.
         -1    1    1    2    0  502  0.20479561198E+02 -0.51526809015E+01 -0.66762607259E+02  0.70022912502E+02  0.00000000000E+00 0.  1.
<scales pt_clust_5="13000.00000" pt_clust_6="13000.00000" pt_clust_7="13000.00000" pt_clust_8="13000.00000" pt_clust_9="21.11784"></scales>
<clustering>
<clus scale="   21.118">  1  9  2 -1</clus>
<clus scale="   80.409">  5  6 -1 -1</clus>
<clus scale="   82.773">  2  5  1 -1</clus>
<clus scale="   90.189">  7  8 -1 -1</clus>
<clus scale="   21.118">  1  5  2 -1</clus>
</clustering>
</event>
<event>
 9    1  0.6345107E-005  0.1426912E+03  0.7546771E-02  0.1233734E+00
          1   -1    0    0  502    0 -0.00000000000E+00  0.00000000000E+00  0.19200267871E+03  0.19200267871E+03  0.00000000000E+00 0. -1.
         21   -1    0    0  501  502  0.00000000000E+00 -0.00000000000E+00 -0.17309431172E+03  0.17309431172E+03  0.00000000000E+00 0. -1.
        -24    2    1    2    0    0  0.48778027959E+01  0.29763919647E+02 -0.32765501013E+02  0.92371088999E+02  0.80926856811E+02 0.  0.
         23    2    1    2    0    0  0.10560389439E+03  0.39661844216E+01 -0.11838587924E+02  0.14090117920E+03  0.92439585715E+02 0.  0.
         13    1    3    3    0    0  0.17688639261E+02  0.46824754463E+02  0.36270819593E+01  0.50185668402E+02  0.00000000000E+00 0. -1.
        -14    1    3    3    0    0 -0.12810836465E+02 -0.17060834816E+02 -0.36392582972E+02  0.42185420597E+02  0.00000000000E+00 0.  1.
        -13    1    4    4    0    0  0.34087658619E+02  0.17264439655E+02  0.37076745325E+02  0.53242035936E+02  0.00000000000E+00 0.  1.
         13    1    4    4    0    0  0.71516235772E+02 -0.13298255234E+02 -0.48915333249E+02  0.87659143266E+02  0.00000000000E+00 0. -1.
          2    1    1    2  501    0 -0.11048169719E+03 -0.33730104069E+02  0.63512455922E+02  0.13182472223E+03  0.00000000000E+00 0. -1.
<scales pt_clust_5="13000.00000" pt_clust_6="13000.00000" pt_clust_7="13000.00000" pt_clust_8="13000.00000" pt_clust_9="108.70015"></scales>
<clustering>
<clus scale="   80.927">  5  6 -1 -1</clus>
<clus scale="   86.365">  1  5  2 -1</clus>
<clus scale="   92.440">  7  8 -1 -1</clus>
<clus scale="  108.700">  2  9  1 -1</clus>
<clus scale="  108.700">  2  5  1 -1</clus>
</clustering>
</event>
<event>
 9    1  0.6345107E-005  0.1467048E+03  0.7546771E-02  0.1226535E+00
         21   -1    0    0  501  502  0.00000000000E+00  0.00000000000E+00  0.49543214432E+03  0.49543214432E+03  0.00000000000E+00 0.  1.
         -4   -1    0    0    0  501 -0.00000000000E+00 -0.00000000000E+00 -0.14719749564E+03  0.14719749564E+03  0.00000000000E+00 0.  1.
         23    2    1    2    0    0 -0.35368010473E+02 -0.13009060495E+02  0.22163378095E+02  0.94827534580E+02  0.84148167931E+02 0.  0.
        -24    2    1    2    0    0  0.12679134676E+03 -0.10756086904E+02  0.40036644440E+03  0.42762398133E+03  0.79857626994E+02 0.  0.
         13    1    4    4    0    0  0.42664650071E+02 -0.34415193487E+02  0.91790305537E+02  0.10691182394E+03  0.00000000000E+00 0. -1.
        -14    1    4    4    0    0  0.84126696686E+02  0.23659106583E+02  0.30857613886E+03  0.32071215739E+03  0.00000000000E+00 0.  1.
        -13    1    3    3    0    0 -0.22732275460E+02  0.28742418441E+02 -0.12911540997E+02  0.38853453596E+02  0.00000000000E+00 0. -1.
         13    1    3    3    0    0 -0.12635735013E+02 -0.41751478936E+02  0.35074919091E+02  0.55974080984E+02  0.00000000000E+00 0.  1.
         -3    1    1    2    0  502 -0.91423336285E+02  0.23765147399E+02 -0.74295173816E+02  0.12017812405E+03  0.00000000000E+00 0.  1.
<scales pt_clust_5="13000.00000" pt_clust_6="13000.00000" pt_clust_7="13000.00000" pt_clust_8="13000.00000" pt_clust_9="123.06538"></scales>
<clustering>
<clus scale="   79.858">  5  6 -1 -1</clus>
<clus scale="   84.148">  7  8 -1 -1</clus>
<clus scale="   92.201">  2  7  1 -1</clus>
<clus scale="  123.065">  1  9  2 -1</clus>
<clus scale="  123.065">  1  5  2 -1</clus>
</clustering>
</event>
<event>
 9    1  0.6345107E-005  0.1312290E+03  0.7546771E-02  0.1230581E+00
          1   -1    0    0  502    0 -0.00000000000E+00  0.00000000000E+00  0.82520054006E+03  0.82520054006E+03  0.00000000000E+00 0. -1.
         21   -1    0    0  501  502  0.00000000000E+00 -0.00000000000E+00 -0.56525115532E+02  0.56525115532E+02  0.00000000000E+00 0. -1.
        -24    2    1    2    0    0 -0.68266484283E+02  0.53603832307E+02  0.97657925961E+02  0.15353217222E+03  0.80631096294E+02 0.  0.
         23    2    1    2    0    0  0.52731496400E+02  0.70223812022E+02  0.17757552815E+03  0.21921450589E+03  0.93861264145E+02 0.  0.
         13    1    3    3    0    0 -0.80977482902E+02  0.43463597820E+02  0.10139503306E+03  0.13684805370E+03  0.00000000000E+00 0. -1.
        -14    1    3    3    0    0  0.12710998620E+02  0.10140234487E+02 -0.37371070969E+01  0.16684118521E+02  0.00000000000E+00 0.  1.
        -11    1    4    4    0    0  0.38899772822E+02  0.30350412677E+02  0.15473546504E+02  0.51708514934E+02  0.00000000000E+00 0.  1.
         11    1    4    4    0    0  0.13831723578E+02  0.39873399345E+02  0.16210198164E+03  0.16750599095E+03  0.00000000000E+00 0. -1.
          2    1    1    2  501    0  0.15534987882E+02 -0.12382764433E+03  0.49344197042E+03  0.50897897748E+03  0.00000000000E+00 0. -1.
<scales pt_clust_5="13000.00000" pt_clust_6="13000.00000" pt_clust_7="13000.00000" pt_clust_8="13000.00000" pt_clust_9="91.71222"></scales>
<clustering>
<clus scale="   80.631">  5  6 -1 -1</clus>
<clus scale="   93.861">  7  8 -1 -1</clus>
<clus scale="  118.470">  1  5  2 -1</clus>
<clus scale="   91.712">  2  9  1 -1</clus>
<clus scale="   91.712">  2  5  1 -1</clus>
</clustering>
</event>
<event>
 9    1  0.6345107E-005  0.9536910E+02  0.7546771E-02  0.1292215E+00
         21   -1    0    0  501  502  0.00000000000E+00  0.00000000000E+00  0.68910621087E+03  0.68910621087E+03  0.00000000000E+00 0.  1.
         -4   -1    0    0    0  501 -0.00000000000E+00 -0.00000000000E+00 -0.47793146607E+02  0.47793146607E+02  0.00000000000E+00 0.  1.
         23    2    1    2    0    0 -0.23093261790E+02 -0.78479054283E+01  0.37862589130E+02  0.10006436489E+03  0.89355543230E+02 0.  0.
        -24    2    1    2    0    0  0.33307276829E+02  0.75888316021E+02  0.25344893713E+03  0.28013497831E+03  0.85853544741E+02 0.  0.
         13    1    4    4    0    0  0.28377323842E+02 -0.12308365838E+02  0.61829330278E+02  0.69134900453E+02  0.00000000000E+00 0. -1.
        -14    1    4    4    0    0  0.49299529869E+01  0.88196681858E+02  0.19161960685E+03  0.21100007786E+03  0.00000000000E+00 0.  1.
        -13    1    3    3    0    0  0.26270557178E+02  0.16599716793E+02  0.32099927291E+02  0.44677713730E+02  0.00000000000E+00 0.  1.
         13    1    3    3    0    0 -0.49363818969E+02 -0.24447622221E+02  0.57626618394E+01  0.55386651162E+02  0.00000000000E+00 0. -1.
         -3    1    1    2    0  502 -0.10214015039E+02 -0.68040410592E+02  0.35000153801E+03  0.35670001428E+03  0.00000000000E+00 0.  1.
<scales pt_clust_5="13000.00000" pt_clust_6="13000.00000" pt_clust_7="13000.00000" pt_clust_8="13000.00000" pt_clust_9="68.80279"></scales>
<clustering>
<clus scale="   68.803">  1  9  2 -1</clus>
<clus scale="   85.854">  5  6 -1 -1</clus>
<clus scale="   89.356">  7  8 -1 -1</clus>
<clus scale="   92.096">  1  5  2 -1</clus>
<clus scale="   68.803">  1  5  2 -1</clus>
</clustering>
</event>
<event>
 9    1  0.6345107E-005  0.1717493E+03  0.7546771E-02  0.1195915E+00
          1   -1    0    0  502    0 -0.00000000000E+00  0.00000000000E+00  0.17749637473E+03  0.17749637473E+03  0.00000000000E+00 0. -1.
         21   -1    0    0  501  502  0.00000000000E+00 -0.00000000000E+00 -0.31619503126E+03  0.31619503126E+03  0.00000000000E+00 0.  1.
         23    2    1    2    0    0 -0.27857640335E+02 -0.54140990329E+02 -0.78507008204E+02  0.13543387818E+03  0.92041784337E+02 0.  0.
        -24    2    1    2    0    0 -0.61568132121E+02  0.15097544552E+03 -0.11438134679E+03  0.21574295343E+03  0.82931956542E+02 0.  0.
         13    1    4    4    0    0 -0.71414544022E+02  0.81154170425E+02 -0.45879494658E+02  0.11743493733E+03  0.00000000000E+00 0. -1.
        -14    1    4    4    0    0  0.98464119011E+01  0.69821275100E+02 -0.68501852130E+02  0.98308016098E+02  0.00000000000E+00 0.  1.
        -13    1    3    3    0    0 -0.56854685644E+02 -0.51134237551E+02 -0.73095501922E+02  0.10578335375E+03  0.00000000000E+00 0.  1.
         13    1    3    3    0    0  0.28997045309E+02 -0.30067527784E+01 -0.54115062817E+01  0.29650524433E+02  0.00000000000E+00 0. -1.
          2    1    1    2  501    0  0.89425772455E+02 -0.96834455195E+02  0.54189698466E+02  0.14251457438E+03  0.00000000000E+00 0. -1.
<scales pt_clust_5="13000.00000" pt_clust_6="13000.00000" pt_clust_7="13000.00000" pt_clust_8="13000.00000" pt_clust_9="150.39993"></scales>
<clustering>
<clus scale="   82.932">  5  6 -1 -1</clus>
<clus scale="   92.042">  7  8 -1 -1</clus>
<clus scale="  110.358">  1  7  2 -1</clus>
<clus scale="  150.400">  2  9  1 -1</clus>
<clus scale="  150.400">  2  5  1 -1</clus>
</clustering>
</event>
<event>
 9    1  0.6345107E-005  0.1976419E+03  0.7546771E-02  0.1152764E+00
          1   -1    0    0  502    0 -0.00000000000E+00  0.00000000000E+00  0.13315436285E+04  0.13315436285E+04  0.00000000000E+00 0. -1.
         21   -1    0    0  501  502  0.00000000000E+00 -0.00000000000E+00 -0.55763469303E+02  0.55763469303E+02  0.00000000000E+00 0. -1.
        -24    2    1    2    0    0  0.35642378370E+02  0.11865761005E+03  0.28237742545E+03  0.31873082176E+03  0.80636956646E+02 0.  0.
         23    2    1    2    0    0 -0.12991963631E+03 -0.20868910271E+03  0.70039352121E+03  0.74787661956E+03  0.91313197528E+02 0.  0.
         13    1    3    3    0    0  0.20333696230E+02  0.14660597464E+01  0.95236991148E+02  0.97394522518E+02  0.00000000000E+00 0. -1.
        -14    1    3    3    0    0  0.15308682140E+02  0.11719155030E+03  0.18714043430E+03  0.22133629924E+03  0.00000000000E+00 0.  1.
        -11    1    4    4    0    0 -0.47018438193E+02 -0.13837478328E+03  0.48601714926E+03  0.50751451560E+03  0.00000000000E+00 0. -1.
         11    1    4    4    0    0 -0.82901198114E+02 -0.70314319434E+02  0.21437637195E+03  0.24036210396E+03  0.00000000000E+00 0.  1.
          2    1    1    2  501    0  0.94277257936E+02  0.90031492662E+02  0.29300921249E+03  0.32069965644E+03  0.00000000000E+00 0. -1.
<scales pt_clust_5="13000.00000" pt_clust_6="13000.00000" pt_clust_7="13000.00000" pt_clust_8="13000.00000" pt_clust_9="130.36054"></scales>
<clustering>
<clus scale="   80.637">  5  6 -1 -1</clus>
<clus scale="   91.313">  7  8 -1 -1</clus>
<clus scale="  130.361">  2  9  1 -1</clus>
<clus scale="  192.942">  1  5  2 -1</clus>
<clus scale="  130.361">  2  5  1 -1</clus>
</clustering>
</event>
<event>
 9    1  0.6345107E-005  0.1127145E+03  0.7546771E-02  0.1257398E+00
         -2   -1    0    0    0  501 -0.00000000000E+00  0.00000000000E+00  0.28472176342E+02  0.28472176342E+02  0.00000000000E+00 0.  1.
         21   -1    0    0  501  502  0.00000000000E+00 -0.00000000000E+00 -0.77556656609E+03  0.77556656609E+03  0.00000000000E+00 0.  1.
        -24    2    1    2    0    0  0.59175453937E+02  0.44559012532E+02 -0.13797430456E+03  0.17747937249E+03  0.83515142310E+02 0.  0.
         23    2    1    2    0    0 -0.24597210875E+02 -0.59128882984E+02 -0.45791946660E+03  0.47077245432E+03  0.88516768269E+02 0.  0.
         13    1    3    3    0    0  0.28836010280E+02 -0.17527490926E+02 -0.81586173347E+02  0.88289479036E+02  0.00000000000E+00 0. -1.
        -14    1    3    3    0    0  0.30339443658E+02  0.62086503459E+02 -0.56388131214E+02  0.89189893457E+02  0.00000000000E+00 0.  1.
        -13    1    4    4    0    0 -0.23162642961E+02 -0.79209766992E+02 -0.41794225060E+03  0.42601222993E+03  0.00000000000E+00 0.  1.
         13    1    4    4    0    0 -0.14345679143E+01  0.20080884008E+02 -0.39977216006E+02  0.44760224388E+02  0.00000000000E+00 0. -1.
         -1    1    1    2    0  502 -0.34578243062E+02  0.14569870451E+02 -0.15120061858E+03  0.15578691561E+03  0.00000000000E+00 0.  1.
<scales pt_clust_5="13000.00000" pt_clust_6="13000.00000" pt_clust_7="13000.00000" pt_clust_8="13000.00000" pt_clust_9="37.52247"></scales>
<clustering>
<clus scale="   37.522">  2  9  1 -1</clus>
<clus scale="   83.515">  5  6 -1 -1</clus>
<clus scale="   88.517">  7  8 -1 -1</clus>
<clus scale="  108.831">  1  5  2 -1</clus>
<clus scale="   37.522">  2  5  1 -1</clus>
</clustering>
</event>
<event>
 9    1  0.6345107E-005  0.1016331E+03  0.7546771E-02  0.1282285E+00
          3   -1    0    0  502    0 -0.00000000000E+00  0.00000000000E+00  0.54914578376E+02  0.54914578376E+02  0.00000000000E+00 0. -1.
         21   -1    0    0  501  502  0.00000000000E+00 -0.00000000000E+00 -0.62990875051E+03  0.62990875051E+03  0.00000000000E+00 0.  1.
         23    2    1    2    0    0  0.29091127629E+02 -0.39658612776E+02 -0.50500782570E+02  0.11590568408E+03  0.92003800394E+02 0.  0.
        -24    2    1    2    0    0  0.90113675602E+01  0.13320932814E+02 -0.51508664330E+03  0.52165285452E+03  0.80924647219E+02 0.  0.
         13    1    4    4    0    0  0.11057524046E+02  0.28911905971E+02 -0.73063772962E+02  0.79350375326E+02  0.00000000000E+00 0. -1.
        -14    1    4    4    0    0 -0.20461564854E+01 -0.15590973157E+02 -0.44202287034E+03  0.44230247920E+03  0.00000000000E+00 0.  1.
        -13    1    3    3    0    0  0.57214064780E+02 -0.69699958999E+01 -0.43522216402E+02  0.72223357524E+02  0.00000000000E+00 0.  1.
         13    1    3    3    0    0 -0.28122937151E+02 -0.32688616876E+02 -0.69785661681E+01  0.43682326552E+02  0.00000000000E+00 0. -1.
          4    1    1    2  501    0 -0.38102495190E+02  0.26337679963E+02 -0.94067462598E+01  0.47264790285E+02  0.00000000000E+00 0. -1.
<scales pt_clust_5="13000.00000" pt_clust_6="13000.00000" pt_clust_7="13000.00000" pt_clust_8="13000.00000" pt_clust_9="46.31928"></scales>
<clustering>
<clus scale="   46.319">  2  9  1 -1</clus>
<clus scale="   80.925">  5  6 -1 -1</clus>
<clus scale="   91.725">  2  5  1 -1</clus>
<clus scale="   92.004">  7  8 -1 -1</clus>
<clus scale="   46.319">  2  5  1 -1</clus>
</clustering>
</event>
<event>
 9    1  0.6345107E-005  0.1193551E+03  0.7546771E-02  0.1249407E+00
         21   -1    0    0  501  502  0.00000000000E+00  0.00000000000E+00  0.73679580042E+02  0.73679580042E+02  0.00000000000E+00 0.  1.
          1   -1    0    0  502    0 -0.00000000000E+00 -0.00000000000E+00 -0.37201007030E+03  0.37201007030E+03  0.00000000000E+00 0. -1.
        -24    2    1    2    0    0 -0.44102883640E+02 -0.51615541362E+02 -0.13253241364E+03  0.16745511377E+03  0.76597297659E+02 0.  0.
         23    2    1    2    0    0  0.77565789205E+02  0.62279882759E+02 -0.31603659647E+02  0.13952031317E+03  0.92584507518E+02 0.  0.
         13    1    3    3    0    0 -0.17656637253E+02  0.18906936882E+02 -0.45653328865E+02  0.52473379326E+02  0.00000000000E+00 0. -1.
        -14    1    3    3    0    0 -0.26446246387E+02 -0.70522478245E+02 -0.86879084774E+02  0.11498173445E+03  0.00000000000E+00 0.  1.
        -13    1    4    4    0    0  0.27136129053E+02  0.87708586389E+01  0.31596618046E+02  0.42563408383E+02  0.00000000000E+00 0.  1.
         13    1    4    4    0    0  0.50429660152E+02  0.53509024120E+02 -0.63200277693E+02  0.96956904786E+02  0.00000000000E+00 0. -1.
          2    1    1    2  501    0 -0.33462905565E+02 -0.10664341397E+02 -0.13419441698E+03  0.13871422340E+03  0.00000000000E+00 0. -1.
<scales pt_clust_5="13000.00000" pt_clust_6="13000.00000" pt_clust_7="13000.00000" pt_clust_8="13000.00000" pt_clust_9="35.12115"></scales>
<clustering>
<clus scale="   35.121">  1  9  2 -1</clus>
<clus scale="   76.597">  5  6 -1 -1</clus>
<clus scale="   92.585">  7  8 -1 -1</clus>
<clus scale="  107.429">  2  5  1 -1</clus>
<clus scale="   35.121">  1  5  2 -1</clus>
</clustering>
</event>
<event>
 9    1  0.6345107E-005  0.1577057E+03  0.7546771E-02  0.1193119E+00
         21   -1    0    0  501  502  0.00000000000E+00  0.00000000000E+00  0.34851454480E+03  0.34851454480E+03  0.00000000000E+00 0. -1.
          1   -1    0    0  502    0 -0.00000000000E+00 -0.00000000000E+00 -0.14008092563E+03  0.14008092563E+03  0.00000000000E+00 0. -1.
         23    2    1    2    0    0  0.15576022673E+02  0.14109051058E+03 -0.43797134291E+02  0.17527081903E+03  0.93018957069E+02 0.  0.
        -24    2    1    2    0    0  0.50078115901E+01 -0.80452024518E+02  0.19970869195E+03  0.23050383778E+03  0.82163563475E+02 0.  0.
         13    1    4    4    0    0 -0.24675012534E+02 -0.22980906257E+02  0.13447274269E+03  0.13863584249E+03  0.00000000000E+00 0. -1.
        -14    1    4    4    0    0  0.29682824124E+02 -0.57471118262E+02  0.65235949261E+02  0.91867995288E+02  0.00000000000E+00 0.  1.
        -13    1    3    3    0    0 -0.32086019674E+02  0.45459044636E+02 -0.39679253865E+02  0.68340914429E+02  0.00000000000E+00 0. -1.
         13    1    3    3    0    0  0.47662042347E+02  0.95631465942E+02 -0.41178804268E+01  0.10692990460E+03  0.00000000000E+00 0.  1.
          2    1    1    2  501    0 -0.20583834264E+02 -0.60638486059E+02  0.52522061499E+02  0.82820813620E+02  0.00000000000E+00 0. -1.
<scales pt_clust_5="13000.00000" pt_clust_6="13000.00000" pt_clust_7="13000.00000" pt_clust_8="13000.00000" pt_clust_9="64.03687"></scales>
<clustering>
<clus scale="   64.037">  1  9  2 -1</clus>
<clus scale="   82.164">  5  6 -1 -1</clus>
<clus scale="   93.019">  7  8 -1 -1</clus>
<clus scale="  151.557">  1  5  2 -1</clus>
<clus scale="   64.037">  1  5  2 -1</clus>
</clustering>
</event>
<event>
 9    1  0.6345107E-005  0.9451435E+02  0.7546771E-02  0.1298973E+00
          1   -1    0    0  502    0 -0.00000000000E+00  0.00000000000E+00  0.39564573107E+03  0.39564573107E+03  0.00000000000E+00 0. -1.
         21   -1    0    0  501  502  0.00000000000E+00 -0.00000000000E+00 -0.10528184669E+03  0.10528184669E+03  0.00000000000E+00 0. -1.
         23    2    1    2    0    0  0.45103547480E+01  0.21423195217E+02  0.30720849384E+03  0.32097197691E+03  0.90369545091E+02 0.  0.
        -24    2    1    2    0    0  0.27019185572E+02 -0.63042209421E+02  0.31219008698E+02  0.10898824464E+03  0.78736614153E+02 0.  0.
         11    1    4    4    0    0 -0.26466569303E+02 -0.13343429278E+02  0.18323742493E+02  0.34846605782E+02  0.00000000000E+00 0. -1.
        -12    1    4    4    0    0  0.53485754875E+02 -0.49698780142E+02  0.12895266206E+02  0.74141638859E+02  0.00000000000E+00 0.  1.
        -11    1    3    3    0    0  0.36277268116E+02 -0.19087191189E+02  0.15306890631E+03  0.15846277521E+03  0.00000000000E+00 0.  1.
         11    1    3    3    0    0 -0.31766913368E+02  0.40510386405E+02  0.15413958754E+03  0.16250920170E+03  0.00000000000E+00 0. -1.
          2    1    1    2  501    0 -0.31529540320E+02  0.41619014204E+02 -0.48063618161E+02  0.70967356206E+02  0.00000000000E+00 0. -1.
<scales pt_clust_5="13000.00000" pt_clust_6="13000.00000" pt_clust_7="13000.00000" pt_clust_8="13000.00000" pt_clust_9="52.21354"></scales>
<clustering>
<clus scale="   52.214">  2  9  1 -1</clus>
<clus scale="   78.737">  5  6 -1 -1</clus>
<clus scale="   83.461">  2  5  1 -1</clus>
<clus scale="   90.370">  7  8 -1 -1</clus>
<clus scale="   52.214">  2  5  1 -1</clus>
</clustering>
</event>
<event>
 9    1  0.6345107E-005  0.9443456E+02  0.7546771E-02  0.1297749E+00
         21   -1    0    0  501  502  0.00000000000E+00  0.00000000000E+00  0.15093121346E+03  0.15093121346E+03  0.00000000000E+00 0.  1.
          1   -1    0    0  502    0 -0.00000000000E+00 -0.00000000000E+00 -0.14868291736E+03  0.14868291736E+03  0.00000000000E+00 0. -1.
         23    2    1    2    0    0 -0.27903090327E+01  0.27949715989E+02 -0.84193468040E+02  0.12712937053E+03  0.91018483518E+02 0.  0.
        -24    2    1    2    0    0  0.25539029098E+02 -0.44738098925E+01  0.10443583745E+03  0.13516976188E+03  0.81803199208E+02 0.  0.
         13    1    4    4    0    0  0.50556493240E+02  0.15050831300E+02  0.53315326611E+02  0.75000070554E+02  0.00000000000E+00 0. -1.
        -14    1    4    4    0    0 -0.25017464142E+02 -0.19524641192E+02  0.51120510842E+02  0.60169691328E+02  0.00000000000E+00 0.  1.
        -13    1    3    3    0    0  0.10484280367E+02 -0.31694721284E+02 -0.37644083921E+02  0.50314536133E+02  0.00000000000E+00 0.  1.
         13    1    3    3    0    0 -0.13274589399E+02  0.59644437272E+02 -0.46549384120E+02  0.76814834396E+02  0.00000000000E+00 0. -1.
          2    1    1    2  501    0 -0.22748720065E+02 -0.23475906096E+02 -0.17994073311E+02  0.37314998405E+02  0.00000000000E+00 0. -1.
<scales pt_clust_5="13000.00000" pt_clust_6="13000.00000" pt_clust_7="13000.00000" pt_clust_8="13000.00000" pt_clust_9="32.68981"></scales>
<clustering>
<clus scale="   32.690">  1  9  2 -1</clus>
<clus scale="   81.803">  5  6 -1 -1</clus>
<clus scale="   85.588">  1  5  2 -1</clus>
<clus scale="   91.018">  7  8 -1 -1</clus>
<clus scale="   32.690">  1  5  2 -1</clus>
</clustering>
</event>
<event>
 9    1  0.6345107E-005  0.1199732E+03  0.7546771E-02  0.1247667E+00
          1   -1    0    0  502    0 -0.00000000000E+00  0.00000000000E+00  0.34853590468E+03  0.34853590468E+03  0.00000000000E+00 0. -1.
         21   -1    0    0  501  502  0.00000000000E+00 -0.00000000000E+00 -0.48176083332E+02  0.48176083332E+02  0.00000000000E+00 0. -1.
         23    2    1    2    0    0  0.52228374968E+02  0.67624684599E+02  0.17053639815E+03  0.21285336578E+03  0.94461585371E+02 0.  0.
        -24    2    1    2    0    0 -0.48927228700E+02 -0.40526650383E+02  0.10574653557E+03  0.14745948017E+03  0.80781714561E+02 0.  0.
         13    1    4    4    0    0 -0.31471225319E+02 -0.30912194044E+02  0.45821115473E+01  0.44350845650E+02  0.00000000000E+00 0. -1.
        -14    1    4    4    0    0 -0.17456003380E+02 -0.96144563399E+01  0.10116442402E+03  0.10310863452E+03  0.00000000000E+00 0.  1.
        -13    1    3    3    0    0  0.26002942921E+02  0.65996935241E+02  0.17248877878E+03  0.18650503293E+03  0.00000000000E+00 0. -1.
         13    1    3    3    0    0  0.26225432048E+02  0.16277493573E+01 -0.19523806289E+01  0.26348332854E+02  0.00000000000E+00 0.  1.
          2    1    1    2  501    0 -0.33011462688E+01 -0.27098034215E+02  0.24076887629E+02  0.36399142063E+02  0.00000000000E+00 0. -1.
<scales pt_clust_5="13000.00000" pt_clust_6="13000.00000" pt_clust_7="13000.00000" pt_clust_8="13000.00000" pt_clust_9="27.29837"></scales>
<clustering>
<clus scale="   27.298">  2  9  1 -1</clus>
<clus scale="   80.782">  5  6 -1 -1</clus>
<clus scale="   94.462">  7  8 -1 -1</clus>
<clus scale="  109.527">  2  5  1 -1</clus>
<clus scale="   27.298">  2  5  1 -1</clus>
</clustering>
</event>
<event>
 9    1  0.6345107E-005  0.1156019E+03  0.7546771E-02  0.1254749E+00
          1   -1    0    0  502    0 -0.00000000000E+00  0.00000000000E+00  0.54069198981E+03  0.54069198981E+03  0.00000000000E+00 0. -1.
         21   -1    0    0  501  502  0.00000000000E+00 -0.00000000000E+00 -0.62926387977E+02  0.62926387977E+02  0.00000000000E+00 0.  1.
        -24    2    1    2    0    0  0.63429101940E+02 -0.10196532267E+02  0.37444449278E+03  0.38827676935E+03  0.80143316605E+02 0.  0.
         23    2    1    2    0    0 -0.97451708210E+02 -0.10381780998E+02  0.11154736674E+03  0.17473771664E+03  0.92118607131E+02 0.  0.
         11    1    3    3    0    0  0.81258316874E+02 -0.55263913937E+00  0.32075568354E+03  0.33088884537E+03  0.00000000000E+00 0. -1.
        -12    1    3    3    0    0 -0.17829214934E+02 -0.96438931281E+01  0.53688809245E+02  0.57387923974E+02  0.00000000000E+00 0.  1.
        -13    1    4    4    0    0 -0.52040190837E+02 -0.41753563003E+01 -0.20446264169E+01  0.52247445486E+02  0.00000000000E+00 0.  1.
         13    1    4    4    0    0 -0.45411517373E+02 -0.62064246977E+01  0.11359199316E+03  0.12249027115E+03  0.00000000000E+00 0. -1.
          2    1    1    2  501    0  0.34022606270E+02  0.20578313265E+02 -0.82262576862E+01  0.40603891806E+02  0.00000000000E+00 0. -1.
<scales pt_clust_5="13000.00000" pt_clust_6="13000.00000" pt_clust_7="13000.00000" pt_clust_8="13000.00000" pt_clust_9="39.76185"></scales>
<clustering>
<clus scale="   39.762">  2  9  1 -1</clus>
<clus scale="   80.143">  5  6 -1 -1</clus>
<clus scale="   92.119">  7  8 -1 -1</clus>
<clus scale="  106.306">  1  5  2 -1</clus>
<clus scale="   39.762">  2  5  1 -1</clus>
</clustering>
</event>
<event>
 9    1  0.6345107E-005  0.1455590E+03  0.7546771E-02  0.1216583E+00
         21   -1    0    0  501  502  0.00000000000E+00  0.00000000000E+00  0.49757703620E+02  0.49757703620E+02  0.00000000000E+00 0. -1.
          1   -1    0    0  502    0 -0.00000000000E+00 -0.00000000000E+00 -0.95746792759E+03  0.95746792759E+03  0.00000000000E+00 0. -1.
         23    2    1    2    0    0  0.20712280439E+02  0.68186583539E+02 -0.13867381177E+03  0.18096782573E+03  0.91872298011E+02 0.  0.
        -24    2    1    2    0    0 -0.85295045665E+02  0.73988867891E+02 -0.25230623048E+03  0.28644777107E+03  0.75128518050E+02 0.  0.
         13    1    4    4    0    0 -0.49332192030E+02  0.25394573309E+02 -0.47937410653E+02  0.73324926622E+02  0.00000000000E+00 0. -1.
        -14    1    4    4    0    0 -0.35962853635E+02  0.48594294582E+02 -0.20436881983E+03  0.21312284445E+03  0.00000000000E+00 0.  1.
        -13    1    3    3    0    0 -0.22193711399E+02 -0.11502668296E+02 -0.21953446843E+02  0.33268995054E+02  0.00000000000E+00 0.  1.
         13    1    3    3    0    0  0.42905991838E+02  0.79689251834E+02 -0.11672036493E+03  0.14769883067E+03  0.00000000000E+00 0. -1.
          2    1    1    2  501    0  0.64582765225E+02 -0.14217545143E+03 -0.51673018172E+03  0.53981003442E+03  0.00000000000E+00 0. -1.
<scales pt_clust_5="13000.00000" pt_clust_6="13000.00000" pt_clust_7="13000.00000" pt_clust_8="13000.00000" pt_clust_9="124.67210"></scales>
<clustering>
<clus scale="   75.129">  5  6 -1 -1</clus>
<clus scale="   91.872">  7  8 -1 -1</clus>
<clus scale="  116.271">  2  7  1 -1</clus>
<clus scale="  124.672">  1  9  2 -1</clus>
<clus scale="  124.672">  1  5  2 -1</clus>
</clustering>
</event>
<event>
 9    1  0.6345107E-005  0.9218043E+02  0.7546771E-02  0.1297825E+00
          1   -1    0    0  502    0 -0.00000000000E+00  0.00000000000E+00  0.41041726523E+03  0.41041726523E+03  0.00000000000E+00 0. -1.
         21   -1    0    0  501  502  0.00000000000E+00 -0.00000000000E+00 -0.64419648702E+02  0.64419648702E+02  0.00000000000E+00 0. -1.
         23    2    1    2    0    0  0.27147558220E+02  0.47351013577E+02  0.32385359526E+03  0.33809323476E+03  0.80291816687E+02 0.  0.
        -24    2    1    2    0    0  0.41294669592E+01 -0.52835080643E+01  0.23700846845E+02  0.84299889931E+02  0.80621171824E+02 0.  0.
         11    1    4    4    0    0  0.14049276349E+02  0.28850497549E+02 -0.11677831482E+02  0.34148281405E+02  0.00000000000E+00 0. -1.
        -12    1    4    4    0    0 -0.99198093902E+01 -0.34134005614E+02  0.35378678327E+02  0.50151608526E+02  0.00000000000E+00 0.  1.
        -11    1    3    3    0    0 -0.20225337518E+02  0.83548954804E+01  0.25991066134E+02  0.33976522409E+02  0.00000000000E+00 0.  1.
         11    1    3    3    0    0  0.47372895737E+02  0.38996118096E+02  0.29786252912E+03  0.30411671236E+03  0.00000000000E+00 0. -1.
          2    1    1    2  501    0 -0.31277025179E+02 -0.42067505512E+02 -0.15568255732E+01  0.52443789241E+02  0.00000000000E+00 0. -1.
<scales pt_clust_5="13000.00000" pt_clust_6="13000.00000" pt_clust_7="13000.00000" pt_clust_8="13000.00000" pt_clust_9="52.42068"></scales>
<clustering>
<clus scale="   52.421">  2  9  1 -1</clus>
<clus scale="   80.292">  7  8 -1 -1</clus>
<clus scale="   80.621">  5  6 -1 -1</clus>
<clus scale="   91.893">  1  7  2 -1</clus>
<clus scale="   52.421">  2  5  1 -1</clus>
</clustering>
</event>
<event>
 9    1  0.6345107E-005  0.1180772E+03  0.7546771E-02  0.1248733E+00
          1   -1    0    0  502    0 -0.00000000000E+00  0.00000000000E+00  0.27367445173E+03  0.27367445173E+03  0.00000000000E+00 0. -1.
         21   -1    0    0  501  502  0.00000000000E+00 -0.00000000000E+00 -0.10708174427E+03  0.10708174427E+03  0.00000000000E+00 0. -1.
         23    2    1    2    0    0  0.85781136796E+02 -0.24399641952E+01  0.20359494713E+03  0.23859077966E+03  0.90057208398E+02 0.  0.
        -24    2    1    2    0    0 -0.44917125033E+02  0.11197493198E+02 -0.18395059605E+02  0.96418406367E+02  0.82554217902E+02 0.  0.
         11    1    4    4    0    0  0.18867077990E+02 -0.11777064952E+02  0.80421483406E+01  0.23650413119E+02  0.00000000000E+00 0. -1.
        -12    1    4    4    0    0 -0.63784203023E+02  0.22974558150E+02 -0.26437207946E+02  0.72767993249E+02  0.00000000000E+00 0.  1.
        -13    1    3    3    0    0  0.40012424686E+02  0.43688193012E+02  0.90816565709E+02  0.10843108846E+03  0.00000000000E+00 0.  1.
         13    1    3    3    0    0  0.45768712110E+02 -0.46128157207E+02  0.11277838142E+03  0.13015969119E+03  0.00000000000E+00 0. -1.
          2    1    1    2  501    0 -0.40864011763E+02 -0.87575290027E+01 -0.18607180065E+02  0.45747009974E+02  0.00000000000E+00 0. -1.
<scales pt_clust_5="13000.00000" pt_clust_6="13000.00000" pt_clust_7="13000.00000" pt_clust_8="13000.00000" pt_clust_9="41.79189"></scales>
<clustering>
<clus scale="   41.792">  2  9  1 -1</clus>
<clus scale="   82.554">  5  6 -1 -1</clus>
<clus scale="   90.057">  7  8 -1 -1</clus>
<clus scale="  112.459">  2  5  1 -1</clus>
<clus scale="   41.792">  2  5  1 -1</clus>
</clustering>
</event>
<event>
 9    1  0.6345107E-005  0.2239468E+03  0.7546771E-02  0.1144441E+00
          1   -1    0    0  502    0 -0.00000000000E+00  0.00000000000E+00  0.11965872926E+04  0.11965872926E+04  0.00000000000E+00 0. -1.
         21   -1    0    0  501  502  0.00000000000E+00 -0.00000000000E+00 -0.15279161523E+03  0.15279161523E+03  0.00000000000E+00 0. -1.
        -24    2    1    2    0    0  0.72545762337E+02 -0.11988777583E+03 -0.40135813336E+02  0.16652605144E+03  0.80523759647E+02 0.  0.
         23    2    1    2    0    0  0.14617687314E+03 -0.67488690726E+02  0.38846768552E+03  0.43011157559E+03  0.90368264044E+02 0.  0.
         11    1    3    3    0    0  0.57117276880E+02 -0.20795260161E+02 -0.21807334823E+02  0.64578525962E+02  0.00000000000E+00 0. -1.
        -12    1    3    3    0    0  0.15428485456E+02 -0.99092515672E+02 -0.18328478513E+02  0.10194752547E+03  0.00000000000E+00 0.  1.
        -13    1    4    4    0    0  0.80201299288E+02 -0.63312242907E+02  0.31558158573E+03  0.33171135911E+03  0.00000000000E+00 0. -1.
         13    1    4    4    0    0  0.65975573848E+02 -0.41764478193E+01  0.72886099793E+02  0.98400216484E+02  0.00000000000E+00 0.  1.
          2    1    1    2  501    0 -0.21872263547E+03  0.18737646656E+03  0.69546380515E+03  0.75274128076E+03  0.00000000000E+00 0. -1.
<scales pt_clust_5="13000.00000" pt_clust_6="13000.00000" pt_clust_7="13000.00000" pt_clust_8="13000.00000" pt_clust_9="204.90431"></scales>
<clustering>
<clus scale="   80.524">  5  6 -1 -1</clus>
<clus scale="   90.368">  7  8 -1 -1</clus>
<clus scale="  161.617">  1  5  2 -1</clus>
<clus scale="  204.904">  2  9  1 -1</clus>
<clus scale="  204.904">  2  5  1 -1</clus>
</clustering>
</event>
<event>
 9    1  0.6345107E-005  0.3167401E+03  0.7546771E-02  0.1109423E+00
         21   -1    0    0  501  502  0.00000000000E+00  0.00000000000E+00  0.28545392787E+03  0.28545392787E+03  0.00000000000E+00 0. -1.
          1   -1    0    0  502    0 -0.00000000000E+00 -0.00000000000E+00 -0.91831318837E+03  0.91831318837E+03  0.00000000000E+00 0. -1.
        -24    2    1    2    0    0  0.10542963309E+03  0.26704628602E+02 -0.20907349898E+03  0.24923533017E+03  0.81104729262E+02 0.  0.
         23    2    1    2    0    0  0.36202976127E+01  0.26284735626E+03 -0.55201264614E+03  0.61960735689E+03  0.10046629270E+03 0.  0.
         13    1    3    3    0    0  0.90970078077E+02 -0.12627965871E+02 -0.16190310741E+03  0.18613875689E+03  0.00000000000E+00 0. -1.
        -14    1    3    3    0    0  0.14459555010E+02  0.39332594473E+02 -0.47170391563E+02  0.63096573277E+02  0.00000000000E+00 0.  1.
        -13    1    4    4    0    0  0.19827862121E+02  0.93562230155E+01 -0.18399031593E+02  0.28621799192E+02  0.00000000000E+00 0.  1.
         13    1    4    4    0    0 -0.16207564508E+02  0.25349113324E+03 -0.53361361455E+03  0.59098555770E+03  0.00000000000E+00 0. -1.
          2    1    1    2  501    0 -0.10904993070E+03 -0.28955198486E+03  0.12822688462E+03  0.33492442918E+03  0.00000000000E+00 0. -1.
<scales pt_clust_5="13000.00000" pt_clust_6="13000.00000" pt_clust_7="13000.00000" pt_clust_8="13000.00000" pt_clust_9="300.38443"></scales>
<clustering>
<clus scale="   81.105">  5  6 -1 -1</clus>
<clus scale="  100.466">  7  8 -1 -1</clus>
<clus scale="  135.671">  2  5  1 -1</clus>
<clus scale="  300.384">  1  9  2 -1</clus>
<clus scale="  300.384">  1  5  2 -1</clus>
</clustering>
</event>
<event>
 9    1  0.6345107E-005  0.1031318E+03  0.7546771E-02  0.1278180E+00
         21   -1    0    0  501  502  0.00000000000E+00  0.00000000000E+00  0.59421540385E+02  0.59421540385E+02  0.00000000000E+00 0. -1.
          3   -1    0    0  502    0 -0.00000000000E+00 -0.00000000000E+00 -0.32571059307E+03  0.32571059307E+03  0.00000000000E+00 0. -1.
         23    2    1    2    0    0 -0.47408431008E+02 -0.43989787437E+01 -0.22851299457E+03  0.25063336989E+03  0.91279718835E+02 0.  0.
        -24    2    1    2    0    0  0.50346691066E+02 -0.19242190259E+02 -0.10975940302E+02  0.98640925388E+02  0.81881070514E+02 0.  0.
         13    1    4    4    0    0  0.37000603978E+02 -0.14151563395E+02  0.33529576839E+02  0.51899363813E+02  0.00000000000E+00 0. -1.
        -14    1    4    4    0    0  0.13346087088E+02 -0.50906268648E+01 -0.44505517141E+02  0.46741561574E+02  0.00000000000E+00 0.  1.
        -11    1    3    3    0    0  0.11689240667E+02  0.31606138699E+02 -0.71186717881E+02  0.78759984468E+02  0.00000000000E+00 0.  1.
         11    1    3    3    0    0 -0.59097671675E+02 -0.36005117443E+02 -0.15732627669E+03  0.17187338542E+03  0.00000000000E+00 0. -1.
          4    1    1    2  501    0 -0.29382600576E+01  0.23641169003E+02 -0.26800117815E+02  0.35857838179E+02  0.00000000000E+00 0. -1.
<scales pt_clust_5="13000.00000" pt_clust_6="13000.00000" pt_clust_7="13000.00000" pt_clust_8="13000.00000" pt_clust_9="23.82307"></scales>
<clustering>
<clus scale="   23.823">  1  9  2 -1</clus>
<clus scale="   81.881">  5  6 -1 -1</clus>
<clus scale="   91.280">  7  8 -1 -1</clus>
<clus scale="   94.914">  1  5  2 -1</clus>
<clus scale="   23.823">  1  5  2 -1</clus>
</clustering>
</event>
<event>
 9    1  0.6345107E-005  0.1459174E+03  0.7546771E-02  0.1222669E+00
          1   -1    0    0  502    0 -0.00000000000E+00  0.00000000000E+00  0.53045225446E+03  0.53045225446E+03  0.00000000000E+00 0. -1.
         21   -1    0    0  501  502  0.00000000000E+00 -0.00000000000E+00 -0.16169188662E+03  0.16169188662E+03  0.00000000000E+00 0. -1.
         23    2    1    2    0    0 -0.39975777899E+02 -0.19261068842E+02  0.83907577095E+02  0.13173919951E+03  0.91354713081E+02 0.  0.
        -24    2    1    2    0    0 -0.36929453015E+02 -0.78750097149E+02  0.38357378453E+03  0.40145074120E+03  0.80426905523E+02 0.  0.
         13    1    4    4    0    0 -0.49208696800E+02 -0.25284418890E+02  0.26622463707E+03  0.27191240329E+03  0.00000000000E+00 0. -1.
        -14    1    4    4    0    0  0.12279243785E+02 -0.53465678259E+02  0.11734914746E+03  0.12953833791E+03  0.00000000000E+00 0.  1.
        -13    1    3    3    0    0 -0.49217785478E+02 -0.49296235116E+02  0.51769128383E+02  0.86790275132E+02  0.00000000000E+00 0. -1.
         13    1    3    3    0    0  0.92420075787E+01  0.30035166274E+02  0.32138448712E+02  0.44948924378E+02  0.00000000000E+00 0.  1.
          2    1    1    2  501    0  0.76905230915E+02  0.98011165992E+02 -0.98720993788E+02  0.15895420037E+03  0.00000000000E+00 0. -1.
<scales pt_clust_5="13000.00000" pt_clust_6="13000.00000" pt_clust_7="13000.00000" pt_clust_8="13000.00000" pt_clust_9="121.75137"></scales>
<clustering>
<clus scale="   80.427">  5  6 -1 -1</clus>
<clus scale="   91.355">  7  8 -1 -1</clus>
<clus scale="  101.561">  1  7  2 -1</clus>
<clus scale="  121.751">  2  9  1 -1</clus>
<clus scale="  121.751">  2  5  1 -1</clus>
</clustering>
</event>
<event>
 9    1  0.6345107E-005  0.9214057E+02  0.7546771E-02  0.1304729E+00
         -2   -1    0    0    0  501 -0.00000000000E+00  0.00000000000E+00  0.32802329448E+03  0.32802329448E+03  0.00000000000E+00 0.  1.
         21   -1    0    0  501  502  0.00000000000E+00 -0.00000000000E+00 -0.86857935584E+02  0.86857935584E+02  0.00000000000E+00 0.  1.
         23    2    1    2    0    0 -0.71731517994E+01 -0.13948769075E+02  0.24049978088E+03  0.25775182168E+03  0.91377429970E+02 0.  0.
        -24    2    1    2    0    0 -0.16369158079E+02  0.63675561119E+01  0.54068014443E+02  0.98277599916E+02  0.80166335531E+02 0.  0.
         13    1    4    4    0    0  0.29125173468E+02  0.19038374822E+02  0.24574267092E+02  0.42598474721E+02  0.00000000000E+00 0. -1.
        -14    1    4    4    0    0 -0.45494331547E+02 -0.12670818710E+02  0.29493747351E+02  0.55679125195E+02  0.00000000000E+00 0.  1.
        -11    1    3    3    0    0  0.15596604978E+01 -0.52387693006E+02  0.11935627319E+03  0.13035652216E+03  0.00000000000E+00 0.  1.
         11    1    3    3    0    0 -0.87328122972E+01  0.38438923931E+02  0.12114350769E+03  0.12739529952E+03  0.00000000000E+00 0. -1.
         -1    1    1    2    0  502  0.23542309878E+02  0.75812129632E+01 -0.53402436426E+02  0.58851808474E+02  0.00000000000E+00 0.  1.
<scales pt_clust_5="13000.00000" pt_clust_6="13000.00000" pt_clust_7="13000.00000" pt_clust_8="13000.00000" pt_clust_9="24.73288"></scales>
<clustering>
<clus scale="   24.733">  2  9  1 -1</clus>
<clus scale="   80.166">  5  6 -1 -1</clus>
<clus scale="   81.035">  2  5  1 -1</clus>
<clus scale="   91.377">  7  8 -1 -1</clus>
<clus scale="   24.733">  2  5  1 -1</clus>
</clustering>
</event>
<event>
 9    1  0.6345107E-005  0.1065145E+03  0.7546771E-02  0.1272114E+00
         21   -1    0    0  501  502  0.00000000000E+00  0.00000000000E+00  0.35592928731E+02  0.35592928731E+02  0.00000000000E+00 0. -1.
          3   -1    0    0  502    0 -0.00000000000E+00 -0.00000000000E+00 -0.69569524383E+03  0.69569524383E+03  0.00000000000E+00 0. -1.
        -24    2    1    2    0    0 -0.26563082135E+02 -0.44464319202E+02 -0.49073505539E+03  0.49992421575E+03  0.80128982798E+02 0.  0.
         23    2    1    2    0    0  0.19595957414E+01  0.72378167684E+02 -0.14772708592E+03  0.18831965869E+03  0.91643672780E+02 0.  0.
         11    1    3    3    0    0 -0.12051894071E+02 -0.66886681830E+02 -0.37864285687E+03  0.38469402051E+03  0.00000000000E+00 0. -1.
        -12    1    3    3    0    0 -0.14511188065E+02  0.22422362628E+02 -0.11209219853E+03  0.11523019524E+03  0.00000000000E+00 0.  1.
        -13    1    4    4    0    0  0.44461763132E+02  0.50874802196E+02 -0.10158756706E+03  0.12200462147E+03  0.00000000000E+00 0.  1.
         13    1    4    4    0    0 -0.42502167391E+02  0.21503365488E+02 -0.46139518862E+02  0.66315037217E+02  0.00000000000E+00 0. -1.
          4    1    1    2  501    0  0.24603486394E+02 -0.27913848482E+02 -0.21640173787E+02  0.43044298129E+02  0.00000000000E+00 0. -1.
<scales pt_clust_5="13000.00000" pt_clust_6="13000.00000" pt_clust_7="13000.00000" pt_clust_8="13000.00000" pt_clust_9="37.20906"></scales>
<clustering>
<clus scale="   37.209">  1  9  2 -1</clus>
<clus scale="   80.129">  5  6 -1 -1</clus>
<clus scale="   91.644">  7  8 -1 -1</clus>
<clus scale="   96.786">  2  5  1 -1</clus>
<clus scale="   37.209">  1  5  2 -1</clus>
</clustering>
</event>
<event>
 9    1  0.6345107E-005  0.1325687E+03  0.7546771E-02  0.1226850E+00
         21   -1    0    0  501  502  0.00000000000E+00  0.00000000000E+00  0.40558711075E+03  0.40558711075E+03  0.00000000000E+00 0.  1.
         -4   -1    0    0    0  501 -0.00000000000E+00 -0.00000000000E+00 -0.33743678718E+03  0.33743678718E+03  0.00000000000E+00 0.  1.
        -24    2    1    2    0    0  0.80343117805E+02  0.63923545094E+02 -0.23847644041E+03  0.27183662190E+03  0.80516459068E+02 0.  0.
         23    2    1    2    0    0 -0.92943251252E+02  0.21302451640E+02 -0.18836598786E+02  0.13451438674E+03  0.92989571394E+02 0.  0.
         11    1    3    3    0    0 -0.54891573305E+01  0.34669589254E+02 -0.37584667028E+02  0.51426826296E+02  0.00000000000E+00 0. -1.
        -12    1    3    3    0    0  0.85832275135E+02  0.29253955840E+02 -0.20089177338E+03  0.22040979560E+03  0.00000000000E+00 0.  1.
        -11    1    4    4    0    0 -0.47550957557E+02  0.56560598661E+02  0.42963837960E+00  0.73894380535E+02  0.00000000000E+00 0.  1.
         11    1    4    4    0    0 -0.45392293695E+02 -0.35258147021E+02 -0.19266237166E+02  0.60620006209E+02  0.00000000000E+00 0. -1.
         -3    1    1    2    0  502  0.12600133447E+02 -0.85225996734E+02  0.32546336276E+03  0.33667288929E+03  0.00000000000E+00 0.  1.
<scales pt_clust_5="13000.00000" pt_clust_6="13000.00000" pt_clust_7="13000.00000" pt_clust_8="13000.00000" pt_clust_9="86.15239"></scales>
<clustering>
<clus scale="   80.516">  5  6 -1 -1</clus>
<clus scale="   86.152">  1  9  2 -1</clus>
<clus scale="   92.990">  7  8 -1 -1</clus>
<clus scale="  124.138">  2  5  1 -1</clus>
<clus scale="   86.152">  1  5  2 -1</clus>
</clustering>
</event>
<event>
 9    1  0.6345107E-005  0.2170147E+03  0.7546771E-02  0.1136657E+00
          3   -1    0    0  502    0 -0.00000000000E+00  0.00000000000E+00  0.75360698691E+03  0.75360698691E+03  0.00000000000E+00 0. -1.
         21   -1    0    0  501  502  0.00000000000E+00 -0.00000000000E+00 -0.87700211003E+02  0.87700211003E+02  0.00000000000E+00 0.  1.
         23    2    1    2    0    0 -0.15788053483E+03  0.97880676909E+02  0.24639463289E+03  0.32057247067E+03  0.86887879729E+02 0.  0.
        -24    2    1    2    0    0  0.13607725140E+03 -0.17074892026E+03  0.31532827152E+03  0.39174076173E+03  0.79728874737E+02 0.  0.
         13    1    4    4    0    0  0.87076086967E+02 -0.65975784752E+02  0.10402587864E+03  0.15085235338E+03  0.00000000000E+00 0. -1.
        -14    1    4    4    0    0  0.49001164428E+02 -0.10477313551E+03  0.21130239288E+03  0.24088840835E+03  0.00000000000E+00 0.  1.
        -11    1    3    3    0    0 -0.21452190584E+02  0.24987754308E+02  0.42030100334E+01  0.33200145174E+02  0.00000000000E+00 0.  1.
         11    1    3    3    0    0 -0.13642834424E+03  0.72892922602E+02  0.24219162285E+03  0.28737232549E+03  0.00000000000E+00 0. -1.
          4    1    1    2  501    0  0.21803283430E+02  0.72868243354E+02  0.10418387150E+03  0.12899396552E+03  0.00000000000E+00 0. -1.
<scales pt_clust_5="13000.00000" pt_clust_6="13000.00000" pt_clust_7="13000.00000" pt_clust_8="13000.00000" pt_clust_9="76.06030"></scales>
<clustering>
<clus scale="   76.060">  2  9  1 -1</clus>
<clus scale="   79.729">  5  6 -1 -1</clus>
<clus scale="   86.888">  7  8 -1 -1</clus>
<clus scale="  214.249">  2  5  1 -1</clus>
<clus scale="   76.060">  2  5  1 -1</clus>
</clustering>
</event>
<event>
 9    1  0.6345107E-005  0.1081516E+03  0.7546771E-02  0.1266788E+00
         21   -1    0    0  501  502  0.00000000000E+00  0.00000000000E+00  0.10727251960E+03  0.10727251960E+03  0.00000000000E+00 0. -1.
         -4   -1    0    0    0  501 -0.00000000000E+00 -0.00000000000E+00 -0.40229612089E+03  0.40229612089E+03  0.00000000000E+00 0.  1.
        -24    2    1    2    0    0  0.39597850010E+02 -0.45829318137E+02 -0.22564237880E+03  0.24706309150E+03  0.80357774657E+02 0.  0.
         23    2    1    2    0    0 -0.11592365373E+03  0.37293352883E+01  0.86440672885E+01  0.14551844407E+03  0.87456824937E+02 0.  0.
         13    1    3    3    0    0  0.48368934903E+02 -0.63899340161E+02 -0.18870145972E+03  0.20501443958E+03  0.00000000000E+00 0. -1.
        -14    1    3    3    0    0 -0.87710848938E+01  0.18070022024E+02 -0.36940919082E+02  0.42048651926E+02  0.00000000000E+00 0.  1.
        -11    1    4    4    0    0 -0.64656260755E+02 -0.11558822487E+02 -0.36831849441E+02  0.75303542848E+02  0.00000000000E+00 0.  1.
         11    1    4    4    0    0 -0.51267392980E+02  0.15288157775E+02  0.45475916730E+02  0.70214901221E+02  0.00000000000E+00 0. -1.
         -3    1    1    2    0  502  0.76325803725E+02  0.42099982849E+02 -0.78025289788E+02  0.11698710492E+03  0.00000000000E+00 0.  1.
<scales pt_clust_5="13000.00000" pt_clust_6="13000.00000" pt_clust_7="13000.00000" pt_clust_8="13000.00000" pt_clust_9="87.16676"></scales>
<clustering>
<clus scale="   80.358">  5  6 -1 -1</clus>
<clus scale="   87.167">  1  9  2 -1</clus>
<clus scale="   87.457">  7  8 -1 -1</clus>
<clus scale="  102.496">  2  5  1 -1</clus>
<clus scale="   87.167">  1  5  2 -1</clus>
</clustering>
</event>
<event>
 9    1  0.6345107E-005  0.2208301E+03  0.7546771E-02  0.1133266E+00
          1   -1    0    0  502    0 -0.00000000000E+00  0.00000000000E+00  0.37387506562E+02  0.37387506562E+02  0.00000000000E+00 0. -1.
         21   -1    0    0  501  502  0.00000000000E+00 -0.00000000000E+00 -0.85436133506E+03  0.85436133506E+03  0.00000000000E+00 0. -1.
        -24    2    1    2    0    0  0.55803178888E+02  0.75239479278E+02 -0.14631089349E+03  0.19148583729E+03  0.80529338206E+02 0.  0.
         23    2    1    2    0    0 -0.49924440350E+00  0.41043150360E+01 -0.19619909971E+03  0.21604209001E+03  0.90349340235E+02 0.  0.
         11    1    3    3    0    0  0.46664321688E+02  0.89920200650E+02 -0.10129011605E+03  0.14325812023E+03  0.00000000000E+00 0. -1.
        -12    1    3    3    0    0  0.91388571998E+01 -0.14680721371E+02 -0.45020777443E+02  0.48227717056E+02  0.00000000000E+00 0.  1.
        -11    1    4    4    0    0  0.29409285360E+02 -0.30360272957E+02 -0.69138424750E+02  0.81035634238E+02  0.00000000000E+00 0.  1.
         11    1    4    4    0    0 -0.29908529763E+02  0.34464587993E+02 -0.12706067496E+03  0.13500645577E+03  0.00000000000E+00 0. -1.
          2    1    1    2  501    0 -0.55303934484E+02 -0.79343794314E+02 -0.47446383529E+03  0.48422091432E+03  0.00000000000E+00 0. -1.
<scales pt_clust_5="13000.00000" pt_clust_6="13000.00000" pt_clust_7="13000.00000" pt_clust_8="13000.00000" pt_clust_9="96.71589"></scales>
<clustering>
<clus scale="   80.529">  5  6 -1 -1</clus>
<clus scale="   90.349">  7  8 -1 -1</clus>
<clus scale="   90.405">  5  7 -1 -1</clus>
<clus scale="   96.716">  2  9  1 -1</clus>
<clus scale="   96.716">  2  5  1 -1</clus>
</clustering>
</event>
<event>
 9    1  0.6345107E-005  0.9799834E+02  0.7546771E-02  0.1292461E+00
         21   -1    0    0  501  502  0.00000000000E+00  0.00000000000E+00  0.39388675398E+03  0.39388675398E+03  0.00000000000E+00 0.  1.
         -2   -1    0    0    0  501 -0.00000000000E+00 -0.00000000000E+00 -0.93162512659E+02  0.93162512659E+02  0.00000000000E+00 0.  1.
        -24    2    1    2    0    0  0.17917873479E+02  0.74638913156E+01 -0.30719163972E+02  0.10417852062E+03  0.97635737616E+02 0.  0.
         23    2    1    2    0    0  0.10998775092E+02  0.12266721830E+02  0.49866821218E+02  0.99126420332E+02  0.84070814386E+02 0.  0.
         13    1    3    3    0    0  0.20618505709E+02 -0.43692731590E+02 -0.15445739521E+02  0.50722267702E+02  0.00000000000E+00 0. -1.
        -14    1    3    3    0    0 -0.27006322306E+01  0.51156622906E+02 -0.15273424451E+02  0.53456252918E+02  0.00000000000E+00 0.  1.
        -13    1    4    4    0    0 -0.93278347008E+01 -0.20596940632E+02  0.55637173899E+02  0.60056120280E+02  0.00000000000E+00 0. -1.
         13    1    4    4    0    0  0.20326609793E+02  0.32863662462E+02 -0.57703526810E+01  0.39070300052E+02  0.00000000000E+00 0.  1.
         -1    1    1    2    0  502 -0.28916648570E+02 -0.19730613146E+02  0.28157658407E+03  0.28374432568E+03  0.00000000000E+00 0.  1.
<scales pt_clust_5="13000.00000" pt_clust_6="13000.00000" pt_clust_7="13000.00000" pt_clust_8="13000.00000" pt_clust_9="35.00671"></scales>
<clustering>
<clus scale="   35.007">  1  9  2 -1</clus>
<clus scale="   84.071">  7  8 -1 -1</clus>
<clus scale="   84.492">  1  7  2 -1</clus>
<clus scale="   97.636">  5  6 -1 -1</clus>
<clus scale="   35.007">  1  5  2 -1</clus>
</clustering>
</event>
<event>
 9    1  0.6345107E-005  0.1984649E+03  0.7546771E-02  0.1182684E+00
         21   -1    0    0  501  502  0.00000000000E+00  0.00000000000E+00  0.14542173954E+03  0.14542173954E+03  0.00000000000E+00 0. -1.
          1   -1    0    0  502    0 -0.00000000000E+00 -0.00000000000E+00 -0.53643823803E+03  0.53643823803E+03  0.00000000000E+00 0. -1.
        -24    2    1    2    0    0 -0.49208806705E+02  0.17540792851E+02 -0.18981240374E+03  0.21263644775E+03  0.80351255276E+02 0.  0.
         23    2    1    2    0    0 -0.70157317021E+02 -0.15268142809E+03 -0.21554614622E+03  0.28834523585E+03  0.91919346569E+02 0.  0.
         11    1    3    3    0    0 -0.55038147521E+02  0.21053874078E+02 -0.19523504216E+03  0.20393426633E+03  0.00000000000E+00 0. -1.
        -12    1    3    3    0    0  0.58293408159E+01 -0.35130812265E+01  0.54226384156E+01  0.87021814183E+01  0.00000000000E+00 0.  1.
        -13    1    4    4    0    0  0.13090724898E+02 -0.51144845069E+02 -0.10159167702E+03  0.11449031005E+03  0.00000000000E+00 0.  1.
         13    1    4    4    0    0 -0.83248041920E+02 -0.10153658302E+03 -0.11395446919E+03  0.17385492580E+03  0.00000000000E+00 0. -1.
          2    1    1    2  501    0  0.11936612373E+03  0.13514063524E+03  0.14342051470E+02  0.18087829396E+03  0.00000000000E+00 0. -1.
<scales pt_clust_5="13000.00000" pt_clust_6="13000.00000" pt_clust_7="13000.00000" pt_clust_8="13000.00000" pt_clust_9="175.89531"></scales>
<clustering>
<clus scale="   80.351">  5  6 -1 -1</clus>
<clus scale="   91.919">  7  8 -1 -1</clus>
<clus scale="   95.841">  2  5  1 -1</clus>
<clus scale="  175.895">  1  9  2 -1</clus>
<clus scale="  175.895">  1  5  2 -1</clus>
</clustering>
</event>
<event>
 9    1  0.6345107E-005  0.1144065E+03  0.7546771E-02  0.1256997E+00
         21   -1    0    0  501  502  0.00000000000E+00  0.00000000000E+00  0.28471190668E+03  0.28471190668E+03  0.00000000000E+00 0. -1.
         -2   -1    0    0    0  501 -0.00000000000E+00 -0.00000000000E+00 -0.22398219988E+03  0.22398219988E+03  0.00000000000E+00 0.  1.
         23    2    1    2    0    0  0.33139416531E+02  0.59770916318E+02 -0.19242829319E+03  0.22386104763E+03  0.91729696735E+02 0.  0.
        -24    2    1    2    0    0 -0.13878445413E+02 -0.70606403709E+02  0.19401527369E+03  0.22169626405E+03  0.79557724793E+02 0.  0.
         13    1    4    4    0    0 -0.43475953751E+02 -0.61617313802E+02  0.12363965846E+03  0.14482270906E+03  0.00000000000E+00 0. -1.
        -14    1    4    4    0    0  0.29597508338E+02 -0.89890899072E+01  0.70375615233E+02  0.76873554989E+02  0.00000000000E+00 0.  1.
        -13    1    3    3    0    0 -0.11659674069E+02  0.27233450679E+02 -0.15311712731E+03  0.15595660778E+03  0.00000000000E+00 0.  1.
         13    1    3    3    0    0  0.44799090600E+02  0.32537465639E+02 -0.39311165875E+02  0.67904439849E+02  0.00000000000E+00 0. -1.
         -1    1    1    2    0  502 -0.19260971119E+02  0.10835487392E+02  0.59142726294E+02  0.63136794890E+02  0.00000000000E+00 0.  1.
<scales pt_clust_5="13000.00000" pt_clust_6="13000.00000" pt_clust_7="13000.00000" pt_clust_8="13000.00000" pt_clust_9="22.09961"></scales>
<clustering>
<clus scale="   22.100">  1  9  2 -1</clus>
<clus scale="   79.558">  5  6 -1 -1</clus>
<clus scale="   91.730">  7  8 -1 -1</clus>
<clus scale="  104.900">  1  5  2 -1</clus>
<clus scale="   22.100">  1  5  2 -1</clus>
</clustering>
</event>
<event>
 9    1  0.6345107E-005  0.1026967E+03  0.7546771E-02  0.1279477E+00
         21   -1    0    0  501  502  0.00000000000E+00  0.00000000000E+00  0.40017051986E+02  0.40017051986E+02  0.00000000000E+00 0. -1.
          3   -1    0    0  502    0 -0.00000000000E+00 -0.00000000000E+00 -0.36319136625E+03  0.36319136625E+03  0.00000000000E+00 0. -1.
        -24    2    1    2    0    0 -0.33018691229E+01 -0.54611397213E+02 -0.20820426798E+03  0.22987460222E+03  0.80622630184E+02 0.  0.
         23    2    1    2    0    0 -0.19379840219E+02  0.33543790868E+02 -0.87097881262E+02  0.13167854553E+03  0.90842910126E+02 0.  0.
         13    1    3    3    0    0  0.20989812427E+02  0.13342757790E+01 -0.12473678463E+03  0.12649750178E+03  0.00000000000E+00 0. -1.
        -14    1    3    3    0    0 -0.24291681550E+02 -0.55945672992E+02 -0.83467483349E+02  0.10337710044E+03  0.00000000000E+00 0.  1.
        -11    1    4    4    0    0 -0.41565553686E+02 -0.53759288038E+01 -0.10931098506E+02  0.43313794319E+02  0.00000000000E+00 0. -1.
         11    1    4    4    0    0  0.22185713468E+02  0.38919719672E+02 -0.76166782756E+02  0.88364751212E+02  0.00000000000E+00 0.  1.
          4    1    1    2  501    0  0.22681709341E+02  0.21067606345E+02 -0.27872165027E+02  0.41655270484E+02  0.00000000000E+00 0. -1.
<scales pt_clust_5="13000.00000" pt_clust_6="13000.00000" pt_clust_7="13000.00000" pt_clust_8="13000.00000" pt_clust_9="30.95649"></scales>
<clustering>
<clus scale="   30.956">  1  9  2 -1</clus>
<clus scale="   80.623">  5  6 -1 -1</clus>
<clus scale="   90.843">  7  8 -1 -1</clus>
<clus scale="   93.777">  2  5  1 -1</clus>
<clus scale="   30.956">  1  5  2 -1</clus>
</clustering>
</event>
<event>
 9    1  0.6345107E-005  0.1159114E+03  0.7546771E-02  0.1255901E+00
          1   -1    0    0  502    0 -0.00000000000E+00  0.00000000000E+00  0.49590267231E+03  0.49590267231E+03  0.00000000000E+00 0. -1.
         21   -1    0    0  501  502  0.00000000000E+00 -0.00000000000E+00 -0.67589217167E+02  0.67589217167E+02  0.00000000000E+00 0. -1.
        -24    2    1    2    0    0  0.21156502883E+02 -0.79787039314E+02  0.21925611129E+03  0.24627246215E+03  0.75916493741E+02 0.  0.
         23    2    1    2    0    0 -0.84267670838E+02 -0.57323816134E+00  0.66331924157E+02  0.14168783716E+03  0.92596706673E+02 0.  0.
         13    1    3    3    0    0  0.39435882434E+02 -0.59980049954E+02  0.20173397877E+03  0.21412471461E+03  0.00000000000E+00 0. -1.
        -14    1    3    3    0    0 -0.18279379550E+02 -0.19806989360E+02  0.17522132515E+02  0.32147747543E+02  0.00000000000E+00 0.  1.
        -13    1    4    4    0    0 -0.25673192310E+02  0.15734471886E+02 -0.19952222214E+02  0.36121705112E+02  0.00000000000E+00 0.  1.
         13    1    4    4    0    0 -0.58594478528E+02 -0.16307710048E+02  0.86284146371E+02  0.10556613205E+03  0.00000000000E+00 0. -1.
          2    1    1    2  501    0  0.63111167955E+02  0.80360277475E+02  0.14272541970E+03  0.17553159016E+03  0.00000000000E+00 0. -1.
<scales pt_clust_5="13000.00000" pt_clust_6="13000.00000" pt_clust_7="13000.00000" pt_clust_8="13000.00000" pt_clust_9="102.18025"></scales>
<clustering>
<clus scale="   75.916">  5  6 -1 -1</clus>
<clus scale="   92.597">  7  8 -1 -1</clus>
<clus scale="  102.180">  2  9  1 -1</clus>
<clus scale="  103.076">  1  5  2 -1</clus>
<clus scale="  102.180">  2  5  1 -1</clus>
</clustering>
</event>
<event>
 9    1  0.6345107E-005  0.1201513E+03  0.7546771E-02  0.1248397E+00
          1   -1    0    0  502    0 -0.00000000000E+00  0.00000000000E+00  0.90121002774E+02  0.90121002774E+02  0.00000000000E+00 0. -1.
         21   -1    0    0  501  502  0.00000000000E+00 -0.00000000000E+00 -0.41545349519E+03  0.41545349519E+03  0.00000000000E+00 0.  1.
         23    2    1    2    0    0  0.71877529116E+02  0.16940289488E+02  0.18313057346E+02  0.12194170660E+03  0.95294591343E+02 0.  0.
        -24    2    1    2    0    0 -0.53242911253E+02 -0.65113654271E+02 -0.27133679873E+03  0.29477066482E+03  0.78686027504E+02 0.  0.
         11    1    4    4    0    0  0.11665448800E+02 -0.30127173358E+02 -0.37065120809E+02  0.49168612456E+02  0.00000000000E+00 0. -1.
        -12    1    4    4    0    0 -0.64908360053E+02 -0.34986480913E+02 -0.23427167792E+03  0.24560205236E+03  0.00000000000E+00 0.  1.
        -11    1    3    3    0    0 -0.76668648294E+01 -0.27047273559E+02 -0.38679504471E+01  0.28377752976E+02  0.00000000000E+00 0.  1.
         11    1    3    3    0    0  0.79544393946E+02  0.43987563047E+02  0.22181007794E+02  0.93563953624E+02  0.00000000000E+00 0. -1.
          2    1    1    2  501    0 -0.18634617863E+02  0.48173364783E+02 -0.72308751037E+02  0.88862126544E+02  0.00000000000E+00 0. -1.
<scales pt_clust_5="13000.00000" pt_clust_6="13000.00000" pt_clust_7="13000.00000" pt_clust_8="13000.00000" pt_clust_9="51.65193"></scales>
<clustering>
<clus scale="   51.652">  2  9  1 -1</clus>
<clus scale="   78.686">  5  6 -1 -1</clus>
<clus scale="   95.295">  7  8 -1 -1</clus>
<clus scale="  107.456">  2  5  1 -1</clus>
<clus scale="   51.652">  2  5  1 -1</clus>
</clustering>
</event>
<event>
 9    1  0.6345107E-005  0.1392382E+03  0.7546771E-02  0.1216216E+00
         21   -1    0    0  501  502  0.00000000000E+00  0.00000000000E+00  0.26745915833E+03  0.26745915833E+03  0.00000000000E+00 0. -1.
         -4   -1    0    0    0  501 -0.00000000000E+00 -0.00000000000E+00 -0.19485279730E+03  0.19485279730E+03  0.00000000000E+00 0.  1.
        -24    2    1    2    0    0 -0.98114765875E+02 -0.73896186143E+02 -0.12259587798E+03  0.19125631825E+03  0.80387041022E+02 0.  0.
         23    2    1    2    0    0  0.19901077781E+02  0.39178235850E+02  0.12940635265E+03  0.16311206073E+03  0.89042423534E+02 0.  0.
         13    1    3    3    0    0 -0.74388579842E+02 -0.85959276686E+01 -0.80855110644E+02  0.11020480797E+03  0.00000000000E+00 0. -1.
        -14    1    3    3    0    0 -0.23726186034E+02 -0.65300258475E+02 -0.41740767339E+02  0.81051510280E+02  0.00000000000E+00 0.  1.
        -13    1    4    4    0    0  0.11341836183E+02  0.64555578966E+02  0.60555731590E+02  0.89235960532E+02  0.00000000000E+00 0.  1.
         13    1    4    4    0    0  0.85592415982E+01 -0.25377343116E+02  0.68850621064E+02  0.73876100203E+02  0.00000000000E+00 0. -1.
         -3    1    1    2    0  502  0.78213688094E+02  0.34717950293E+02  0.65795886358E+02  0.10794357665E+03  0.00000000000E+00 0.  1.
<scales pt_clust_5="13000.00000" pt_clust_6="13000.00000" pt_clust_7="13000.00000" pt_clust_8="13000.00000" pt_clust_9="85.57288"></scales>
<clustering>
<clus scale="   80.387">  5  6 -1 -1</clus>
<clus scale="   85.573">  1  9  2 -1</clus>
<clus scale="   89.042">  7  8 -1 -1</clus>
<clus scale="  133.869">  2  5  1 -1</clus>
<clus scale="   85.573">  1  5  2 -1</clus>
</clustering>
</event>
<event>
 9    1  0.6345107E-005  0.1275916E+03  0.7546771E-02  0.1233895E+00
         21   -1    0    0  501  502  0.00000000000E+00  0.00000000000E+00  0.42285788655E+03  0.42285788655E+03  0.00000000000E+00 0.  1.
          1   -1    0    0  502    0 -0.00000000000E+00 -0.00000000000E+00 -0.61536659906E+02  0.61536659906E+02  0.00000000000E+00 0. -1.
         23    2    1    2    0    0  0.71156203156E+02  0.17257688323E+02  0.16863842513E+03  0.20559931840E+03  0.92038732288E+02 0.  0.
        -24    2    1    2    0    0 -0.94010712339E+02 -0.52233674583E+02  0.19467775815E+03  0.23696667254E+03  0.81776546641E+02 0.  0.
         13    1    4    4    0    0 -0.18862102894E+02  0.19890573337E+02  0.65651757251E+02  0.71144691041E+02  0.00000000000E+00 0. -1.
        -14    1    4    4    0    0 -0.75148609444E+02 -0.72124247920E+02  0.12902600090E+03  0.16582198150E+03  0.00000000000E+00 0.  1.
        -13    1    3    3    0    0  0.52833612282E+02 -0.32190482237E+02  0.11373438756E+03  0.12947250151E+03  0.00000000000E+00 0.  1.
         13    1    3    3    0    0  0.18322590874E+02  0.49448170560E+02  0.54904037571E+02  0.76126816889E+02  0.00000000000E+00 0. -1.
          2    1    1    2  501    0  0.22854509182E+02  0.34975986260E+02 -0.19949566367E+01  0.41828555519E+02  0.00000000000E+00 0. -1.
<scales pt_clust_5="13000.00000" pt_clust_6="13000.00000" pt_clust_7="13000.00000" pt_clust_8="13000.00000" pt_clust_9="41.78098"></scales>
<clustering>
<clus scale="   41.781">  1  9  2 -1</clus>
<clus scale="   81.777">  5  6 -1 -1</clus>
<clus scale="   92.039">  7  8 -1 -1</clus>
<clus scale="  120.399">  1  5  2 -1</clus>
<clus scale="   41.781">  1  5  2 -1</clus>
</clustering>
</event>
<event>
 9    1  0.6345107E-005  0.2357474E+03  0.7546771E-02  0.1155246E+00
         21   -1    0    0  501  502  0.00000000000E+00  0.00000000000E+00  0.91485096805E+03  0.91485096805E+03  0.00000000000E+00 0.  1.
         -2   -1    0    0    0  501 -0.00000000000E+00 -0.00000000000E+00 -0.14879464572E+03  0.14879464572E+03  0.00000000000E+00 0.  1.
        -24    2    1    2    0    0 -0.17569244581E+02 -0.68474606824E+02  0.52398934452E+02  0.11935755372E+03  0.80641968990E+02 0.  0.
         23    2    1    2    0    0  0.14903980338E+03  0.17334582095E+03  0.73474636852E+03  0.77479698510E+03  0.90534553828E+02 0.  0.
         11    1    3    3    0    0 -0.43734910327E+02 -0.67718265197E+02  0.44152581728E+02  0.91912764597E+02  0.00000000000E+00 0. -1.
        -12    1    3    3    0    0  0.26165665745E+02 -0.75634162635E+00  0.82463527245E+01  0.27444789119E+02  0.00000000000E+00 0.  1.
        -11    1    4    4    0    0  0.28308198824E+02  0.56871103342E+02  0.10179084232E+03  0.11998771644E+03  0.00000000000E+00 0. -1.
         11    1    4    4    0    0  0.12073160455E+03  0.11647471761E+03  0.63295552620E+03  0.65480926866E+03  0.00000000000E+00 0.  1.
         -1    1    1    2    0  502 -0.13147055880E+03 -0.10487121413E+03 -0.21088980635E+02  0.16949107495E+03  0.00000000000E+00 0.  1.
<scales pt_clust_5="13000.00000" pt_clust_6="13000.00000" pt_clust_7="13000.00000" pt_clust_8="13000.00000" pt_clust_9="217.67040"></scales>
<clustering>
<clus scale="   80.642">  5  6 -1 -1</clus>
<clus scale="   90.535">  7  8 -1 -1</clus>
<clus scale="  107.241">  2  5  1 -1</clus>
<clus scale="  217.670">  1  9  2 -1</clus>
<clus scale="  217.670">  1  5  2 -1</clus>
</clustering>
</event>
<event>
 9    1  0.6345107E-005  0.1108651E+03  0.7546771E-02  0.1263382E+00
         -2   -1    0    0    0  501 -0.00000000000E+00  0.00000000000E+00  0.45228951670E+03  0.45228951670E+03  0.00000000000E+00 0.  1.
         21   -1    0    0  501  502  0.00000000000E+00 -0.00000000000E+00 -0.22853807143E+03  0.22853807143E+03  0.00000000000E+00 0.  1.
        -24    2    1    2    0    0  0.99316008916E+02 -0.87350805803E+01  0.25123690598E+03  0.28192892325E+03  0.80149632433E+02 0.  0.
         23    2    1    2    0    0 -0.43557938286E+01  0.56413228695E+02  0.15443508243E+03  0.18821944836E+03  0.91514702337E+02 0.  0.
         13    1    3    3    0    0  0.64781542751E+02 -0.44146903049E+02  0.14965891070E+03  0.16894788215E+03  0.00000000000E+00 0. -1.
        -14    1    3    3    0    0  0.34534466165E+02  0.35411822468E+02  0.10157799528E+03  0.11298104111E+03  0.00000000000E+00 0.  1.
        -11    1    4    4    0    0  0.31691462889E+02  0.99822796858E+01  0.14144168597E+02  0.36111663394E+02  0.00000000000E+00 0.  1.
         11    1    4    4    0    0 -0.36047256718E+02  0.46430949010E+02  0.14029091384E+03  0.15210778497E+03  0.00000000000E+00 0. -1.
         -1    1    1    2    0  502 -0.94960215088E+02 -0.47678148115E+02 -0.18192054314E+03  0.21067921652E+03  0.00000000000E+00 0.  1.
<scales pt_clust_5="13000.00000" pt_clust_6="13000.00000" pt_clust_7="13000.00000" pt_clust_8="13000.00000" pt_clust_9="106.25746"></scales>
<clustering>
<clus scale="   80.150">  5  6 -1 -1</clus>
<clus scale="   91.515">  7  8 -1 -1</clus>
<clus scale="  106.257">  2  9  1 -1</clus>
<clus scale="  101.686">  1  5  2 -1</clus>
<clus scale="  106.257">  2  5  1 -1</clus>
</clustering>
</event>
<event>
 9    1  0.6345107E-005  0.1326555E+03  0.7546771E-02  0.1246890E+00
          1   -1    0    0  502    0 -0.00000000000E+00  0.00000000000E+00  0.27459679826E+03  0.27459679826E+03  0.00000000000E+00 0. -1.
         21   -1    0    0  501  502  0.00000000000E+00 -0.00000000000E+00 -0.19599721108E+03  0.19599721108E+03  0.00000000000E+00 0. -1.
        -24    2    1    2    0    0 -0.27518102402E+02  0.10012086031E+02  0.16625682599E+03  0.18550936592E+03  0.76908418470E+02 0.  0.
         23    2    1    2    0    0 -0.69324230800E+02 -0.20761552100E+02  0.39001567760E+02  0.12528338622E+03  0.94540539204E+02 0.  0.
         11    1    3    3    0    0 -0.19090297472E+02  0.24770523312E+02  0.16557277251E+03  0.16850033021E+03  0.00000000000E+00 0. -1.
        -12    1    3    3    0    0 -0.84278049294E+01 -0.14758437281E+02  0.68405347683E+00  0.17009035718E+02  0.00000000000E+00 0.  1.
        -13    1    4    4    0    0 -0.80669984670E+02 -0.14345854518E+01  0.55089036898E+02  0.97695989930E+02  0.00000000000E+00 0. -1.
         13    1    4    4    0    0  0.11345753870E+02 -0.19326966648E+02 -0.16087469138E+02  0.27587396288E+02  0.00000000000E+00 0.  1.
          2    1    1    2  501    0  0.96842333202E+02  0.10749466068E+02 -0.12665880657E+03  0.15980125720E+03  0.00000000000E+00 0. -1.
<scales pt_clust_5="13000.00000" pt_clust_6="13000.00000" pt_clust_7="13000.00000" pt_clust_8="13000.00000" pt_clust_9="93.05676"></scales>
<clustering>
<clus scale="   76.908">  5  6 -1 -1</clus>
<clus scale="   82.295">  1  5  2 -1</clus>
<clus scale="   93.057">  2  9  1 -1</clus>
<clus scale="   94.541">  7  8 -1 -1</clus>
<clus scale="   93.057">  2  5  1 -1</clus>
</clustering>
</event>
<event>
 9    1  0.6345107E-005  0.1682311E+03  0.7546771E-02  0.1182133E+00
          1   -1    0    0  502    0 -0.00000000000E+00  0.00000000000E+00  0.25232906397E+03  0.25232906397E+03  0.00000000000E+00 0. -1.
         21   -1    0    0  501  502  0.00000000000E+00 -0.00000000000E+00 -0.16811558850E+03  0.16811558850E+03  0.00000000000E+00 0. -1.
         23    2    1    2    0    0 -0.14530206752E+02 -0.12915998296E+03  0.38886385431E+02  0.16518943579E+03  0.94244207342E+02 0.  0.
        -24    2    1    2    0    0  0.87016064803E+02  0.13097077311E+03  0.51226904165E+02  0.18250711441E+03  0.77197876627E+02 0.  0.
         13    1    4    4    0    0  0.53880393911E+02  0.10938860933E+03  0.55132743244E+01  0.12206293824E+03  0.00000000000E+00 0. -1.
        -14    1    4    4    0    0  0.33135670892E+02  0.21582163785E+02  0.45713629841E+02  0.60444176166E+02  0.00000000000E+00 0.  1.
        -11    1    3    3    0    0 -0.25027195609E+02 -0.10801819015E+03 -0.95678036714E+01  0.11129165643E+03  0.00000000000E+00 0.  1.
         11    1    3    3    0    0  0.10496988857E+02 -0.21141792807E+02  0.48454189102E+02  0.53897779358E+02  0.00000000000E+00 0. -1.
          2    1    1    2  501    0 -0.72485858052E+02 -0.18107901521E+01 -0.58998141180E+01  0.72748102278E+02  0.00000000000E+00 0. -1.
<scales pt_clust_5="13000.00000" pt_clust_6="13000.00000" pt_clust_7="13000.00000" pt_clust_8="13000.00000" pt_clust_9="72.50847"></scales>
<clustering>
<clus scale="   72.508">  2  9  1 -1</clus>
<clus scale="   77.198">  5  6 -1 -1</clus>
<clus scale="   94.244">  7  8 -1 -1</clus>
<clus scale="  159.309">  2  5  1 -1</clus>
<clus scale="   72.508">  2  5  1 -1</clus>
</clustering>
</event>
<event>
 9    1  0.6345107E-005  0.9375238E+02  0.7546771E-02  0.1301133E+00
         -4   -1    0    0    0  501 -0.00000000000E+00  0.00000000000E+00  0.88786875766E+03  0.88786875766E+03  0.00000000000E+00 0.  1.
         21   -1    0    0  501  502  0.00000000000E+00 -0.00000000000E+00 -0.46820721388E+02  0.46820721388E+02  0.00000000000E+00 0. -1.
        -24    2    1    2    0    0 -0.15505563537E+02  0.14878238951E+02  0.20644785911E+03  0.22213962564E+03  0.79142341711E+02 0.  0.
         23    2    1    2    0    0  0.51795804309E+02  0.53256387758E+02  0.58512238458E+02  0.13131270555E+03  0.91105962534E+02 0.  0.
         13    1    3    3    0    0  0.12518467275E+02  0.38079478621E+02  0.14766465601E+03  0.15300852705E+03  0.00000000000E+00 0. -1.
        -14    1    3    3    0    0 -0.28024030812E+02 -0.23201239670E+02  0.58783203103E+02  0.69131098590E+02  0.00000000000E+00 0.  1.
        -13    1    4    4    0    0  0.90712611587E+01 -0.19136248440E+02  0.39967442660E+02  0.45231407850E+02  0.00000000000E+00 0.  1.
         13    1    4    4    0    0  0.42724543151E+02  0.72392636198E+02  0.18544795798E+02  0.86081297703E+02  0.00000000000E+00 0. -1.
         -3    1    1    2    0  502 -0.36290240773E+02 -0.68134626709E+02  0.57608793870E+03  0.58123714786E+03  0.00000000000E+00 0.  1.
<scales pt_clust_5="13000.00000" pt_clust_6="13000.00000" pt_clust_7="13000.00000" pt_clust_8="13000.00000" pt_clust_9="77.19660"></scales>
<clustering>
<clus scale="   77.197">  2  9  1 -1</clus>
<clus scale="   79.142">  5  6 -1 -1</clus>
<clus scale="   82.175">  1  5  2 -1</clus>
<clus scale="   91.106">  7  8 -1 -1</clus>
<clus scale="   77.197">  2  5  1 -1</clus>
</clustering>
</event>
<event>
 9    1  0.6345107E-005  0.1485294E+03  0.7546771E-02  0.1202663E+00
          1   -1    0    0  502    0 -0.00000000000E+00  0.00000000000E+00  0.52832358724E+03  0.52832358724E+03  0.00000000000E+00 0. -1.
         21   -1    0    0  501  502  0.00000000000E+00 -0.00000000000E+00 -0.14313837876E+03  0.14313837876E+03  0.00000000000E+00 0.  1.
        -24    2    1    2    0    0  0.78849420850E+02  0.31960925475E+02 -0.41029165821E+01  0.12285206031E+03  0.88527187195E+02 0.  0.
         23    2    1    2    0    0 -0.16164672934E+03  0.34119039312E+02  0.52487507003E+02  0.19554247252E+03  0.90488376157E+02 0.  0.
         13    1    3    3    0    0  0.40023686059E+02  0.55178439574E+02  0.20727573860E+02  0.71247371585E+02  0.00000000000E+00 0. -1.
        -14    1    3    3    0    0  0.38825734791E+02 -0.23217514099E+02 -0.24830490442E+02  0.51604688727E+02  0.00000000000E+00 0.  1.
        -11    1    4    4    0    0 -0.10881855292E+03 -0.15772533612E+02  0.77880900365E+01  0.11023114180E+03  0.00000000000E+00 0. -1.
         11    1    4    4    0    0 -0.52828176419E+02  0.49891572924E+02  0.44699416966E+02  0.85311330723E+02  0.00000000000E+00 0.  1.
          2    1    1    2  501    0  0.82797308488E+02 -0.66079964787E+02  0.33680061805E+03  0.35306743316E+03  0.00000000000E+00 0. -1.
<scales pt_clust_5="13000.00000" pt_clust_6="13000.00000" pt_clust_7="13000.00000" pt_clust_8="13000.00000" pt_clust_9="105.93379"></scales>
<clustering>
<clus scale="   88.527">  5  6 -1 -1</clus>
<clus scale="   90.488">  7  8 -1 -1</clus>
<clus scale="  105.934">  2  9  1 -1</clus>
<clus scale="  147.343">  1  5  2 -1</clus>
<clus scale="  105.934">  2  5  1 -1</clus>
</clustering>
</event>
<event>
 9    1  0.6345107E-005  0.9879670E+02  0.7546771E-02  0.1294118E+00
         21   -1    0    0  501  502  0.00000000000E+00  0.00000000000E+00  0.97024162581E+02  0.97024162581E+02  0.00000000000E+00 0.  1.
         -4   -1    0    0    0  501 -0.00000000000E+00 -0.00000000000E+00 -0.56103091275E+03  0.56103091275E+03  0.00000000000E+00 0.  1.
        -24    2    1    2    0    0  0.13875148752E+02  0.39530526831E+02 -0.45232389029E+03  0.46001102579E+03  0.72512480440E+02 0.  0.
         23    2    1    2    0    0  0.14867574419E+02  0.16346322465E+02 -0.65115231995E+02  0.11556141614E+03  0.92877340806E+02 0.  0.
         11    1    3    3    0    0 -0.26047193103E+02  0.69209198158E+01 -0.87302330032E+02  0.91367676060E+02  0.00000000000E+00 0. -1.
        -12    1    3    3    0    0  0.39922341855E+02  0.32609607015E+02 -0.36502156025E+03  0.36864334973E+03  0.00000000000E+00 0.  1.
        -13    1    4    4    0    0 -0.14343903976E+02 -0.33510483995E+02 -0.16350317025E+02  0.39950381545E+02  0.00000000000E+00 0. -1.
         13    1    4    4    0    0  0.29211478395E+02  0.49856806460E+02 -0.48764914970E+02  0.75611034594E+02  0.00000000000E+00 0.  1.
         -3    1    1    2    0  502 -0.28742723171E+02 -0.55876849296E+02  0.53432372116E+02  0.82482633399E+02  0.00000000000E+00 0.  1.
<scales pt_clust_5="13000.00000" pt_clust_6="13000.00000" pt_clust_7="13000.00000" pt_clust_8="13000.00000" pt_clust_9="62.83603"></scales>
<clustering>
<clus scale="   62.836">  1  9  2 -1</clus>
<clus scale="   72.512">  5  6 -1 -1</clus>
<clus scale="   79.954">  2  5  1 -1</clus>
<clus scale="   92.877">  7  8 -1 -1</clus>
<clus scale="   62.836">  1  5  2 -1</clus>
</clustering>
</event>
<event>
 9    1  0.6345107E-005  0.1526324E+03  0.7546771E-02  0.1211906E+00
         -4   -1    0    0    0  501 -0.00000000000E+00  0.00000000000E+00  0.42498400439E+03  0.42498400439E+03  0.00000000000E+00 0.  1.
         21   -1    0    0  501  502  0.00000000000E+00 -0.00000000000E+00 -0.10607874264E+03  0.10607874264E+03  0.00000000000E+00 0.  1.
         23    2    1    2    0    0 -0.45850382196E+02  0.44100011719E+02  0.82687473454E+02  0.13869746822E+03  0.91393111568E+02 0.  0.
        -24    2    1    2    0    0  0.44733439850E+02 -0.16056243295E+03  0.19357912180E+03  0.26833786653E+03  0.82164217898E+02 0.  0.
         13    1    4    4    0    0 -0.22118815217E+02 -0.19926433281E+02  0.37285695797E+02  0.47712973508E+02  0.00000000000E+00 0. -1.
        -14    1    4    4    0    0  0.66852255067E+02 -0.14063599966E+03  0.15629342600E+03  0.22062489302E+03  0.00000000000E+00 0.  1.
        -11    1    3    3    0    0 -0.29736827449E+02  0.18598492163E+02  0.98557051156E+02  0.10461202201E+03  0.00000000000E+00 0.  1.
         11    1    3    3    0    0 -0.16113554747E+02  0.25501519556E+02 -0.15869577702E+02  0.34085446201E+02  0.00000000000E+00 0. -1.
         -3    1    1    2    0  502  0.11169423462E+01  0.11646242123E+03  0.42638666503E+02  0.12402741229E+03  0.00000000000E+00 0.  1.
<scales pt_clust_5="13000.00000" pt_clust_6="13000.00000" pt_clust_7="13000.00000" pt_clust_8="13000.00000" pt_clust_9="128.63000"></scales>
<clustering>
<clus scale="   82.164">  5  6 -1 -1</clus>
<clus scale="   91.393">  7  8 -1 -1</clus>
<clus scale="  111.354">  1  7  2 -1</clus>
<clus scale="  128.630">  2  9  1 -1</clus>
<clus scale="  128.630">  2  5  1 -1</clus>
</clustering>
</event>
<event>
 9    1  0.6345107E-005  0.1082195E+03  0.7546771E-02  0.1266806E+00
          1   -1    0    0  502    0 -0.00000000000E+00  0.00000000000E+00  0.50482913598E+03  0.50482913598E+03  0.00000000000E+00 0. -1.
         21   -1    0    0  501  502  0.00000000000E+00 -0.00000000000E+00 -0.34057897967E+02  0.34057897967E+02  0.00000000000E+00 0.  1.
         23    2    1    2    0    0  0.53958890273E+02  0.32721466225E+02  0.25736007159E+03  0.27974557330E+03  0.89672309772E+02 0.  0.
        -24    2    1    2    0    0 -0.23169518557E+02 -0.60919926289E+02  0.14654541374E+03  0.18031146989E+03  0.82392984393E+02 0.  0.
         13    1    4    4    0    0 -0.48218331593E+02 -0.40390419589E+02  0.12890396320E+03  0.14343160469E+03  0.00000000000E+00 0. -1.
        -14    1    4    4    0    0  0.25048813036E+02 -0.20529506700E+02  0.17641450539E+02  0.36879865198E+02  0.00000000000E+00 0.  1.
        -13    1    3    3    0    0  0.52850866065E+02  0.59601141382E+02  0.21775123569E+03  0.23186442319E+03  0.00000000000E+00 0.  1.
         13    1    3    3    0    0  0.11080242083E+01 -0.26879675156E+02  0.39608835903E+02  0.47881150109E+02  0.00000000000E+00 0. -1.
          2    1    1    2  501    0 -0.30789371717E+02  0.28198460064E+02  0.66865752681E+02  0.78829990754E+02  0.00000000000E+00 0. -1.
<scales pt_clust_5="13000.00000" pt_clust_6="13000.00000" pt_clust_7="13000.00000" pt_clust_8="13000.00000" pt_clust_9="41.75091"></scales>
<clustering>
<clus scale="   41.751">  2  9  1 -1</clus>
<clus scale="   82.393">  5  6 -1 -1</clus>
<clus scale="   89.672">  7  8 -1 -1</clus>
<clus scale="  102.269">  2  5  1 -1</clus>
<clus scale="   41.751">  2  5  1 -1</clus>
</clustering>
</event>
<event>
 9    1  0.6345107E-005  0.1123571E+03  0.7546771E-02  0.1258044E+00
          1   -1    0    0  502    0 -0.00000000000E+00  0.00000000000E+00  0.20182895488E+03  0.20182895488E+03  0.00000000000E+00 0. -1.
         21   -1    0    0  501  502  0.00000000000E+00 -0.00000000000E+00 -0.14113880327E+03  0.14113880327E+03  0.00000000000E+00 0.  1.
         23    2    1    2    0    0  0.67675790804E+02  0.19463550738E+02  0.13976212913E+03  0.17801852592E+03  0.84842797950E+02 0.  0.
        -24    2    1    2    0    0 -0.87840769931E+02 -0.16089256417E+02 -0.50640658076E+02  0.12992992084E+03  0.79639456585E+02 0.  0.
         13    1    4    4    0    0 -0.67518101656E+02 -0.47280498364E+02 -0.35082545625E+02  0.89581943405E+02  0.00000000000E+00 0. -1.
        -14    1    4    4    0    0 -0.20322668275E+02  0.31191241948E+02 -0.15558112451E+02  0.40347977435E+02  0.00000000000E+00 0.  1.
        -13    1    3    3    0    0  0.71567789793E+02 -0.16514450096E+02  0.84469514843E+02  0.11193647545E+03  0.00000000000E+00 0. -1.
         13    1    3    3    0    0 -0.38919989895E+01  0.35978000834E+02  0.55292614284E+02  0.66082050471E+02  0.00000000000E+00 0.  1.
          2    1    1    2  501    0  0.20164979127E+02 -0.33742943214E+01 -0.28431319434E+02  0.35019311389E+02  0.00000000000E+00 0. -1.
<scales pt_clust_5="13000.00000" pt_clust_6="13000.00000" pt_clust_7="13000.00000" pt_clust_8="13000.00000" pt_clust_9="20.44535"></scales>
<clustering>
<clus scale="   20.445">  2  9  1 -1</clus>
<clus scale="   79.639">  5  6 -1 -1</clus>
<clus scale="   84.843">  7  8 -1 -1</clus>
<clus scale="  108.482">  2  5  1 -1</clus>
<clus scale="   20.445">  2  5  1 -1</clus>
</clustering>
</event>
<event>
 9    1  0.6345107E-005  0.1129445E+03  0.7546771E-02  0.1258529E+00
         -2   -1    0    0    0  501 -0.00000000000E+00  0.00000000000E+00  0.17035680037E+03  0.17035680037E+03  0.00000000000E+00 0.  1.
         21   -1    0    0  501  502  0.00000000000E+00 -0.00000000000E+00 -0.12394251012E+03  0.12394251012E+03  0.00000000000E+00 0. -1.
         23    2    1    2    0    0 -0.20430403085E+02  0.63453659166E+02  0.99572886197E+02  0.15044120414E+03  0.90961684278E+02 0.  0.
        -24    2    1    2    0    0 -0.32369262925E+01 -0.71100765121E+02 -0.39414345630E+02  0.11544111977E+03  0.81898504260E+02 0.  0.
         11    1    4    4    0    0 -0.38377655453E+01 -0.89756376687E+02 -0.32497852697E+02  0.95535574684E+02  0.00000000000E+00 0. -1.
        -12    1    4    4    0    0  0.60083925274E+00  0.18655611566E+02 -0.69164929327E+01  0.19905545087E+02  0.00000000000E+00 0.  1.
        -11    1    3    3    0    0 -0.23000219687E+02 -0.17899011416E+02  0.40384847265E+02  0.49802817228E+02  0.00000000000E+00 0. -1.
         11    1    3    3    0    0  0.25698166012E+01  0.81352670582E+02  0.59188038932E+02  0.10063838691E+03  0.00000000000E+00 0.  1.
         -1    1    1    2    0  502  0.23667329378E+02  0.76471059543E+01 -0.13744250312E+02  0.28416986575E+02  0.00000000000E+00 0.  1.
<scales pt_clust_5="13000.00000" pt_clust_6="13000.00000" pt_clust_7="13000.00000" pt_clust_8="13000.00000" pt_clust_9="24.87209"></scales>
<clustering>
<clus scale="   24.872">  2  9  1 -1</clus>
<clus scale="   81.899">  5  6 -1 -1</clus>
<clus scale="   90.962">  7  8 -1 -1</clus>
<clus scale="  105.782">  2  5  1 -1</clus>
<clus scale="   24.872">  2  5  1 -1</clus>
</clustering>
</event>
<event>
 9    1  0.6345107E-005  0.4677700E+03  0.7546771E-02  0.1022551E+00
          3   -1    0    0  502    0 -0.00000000000E+00  0.00000000000E+00  0.36779614596E+03  0.36779614596E+03  0.00000000000E+00 0. -1.
         21   -1    0    0  501  502  0.00000000000E+00 -0.00000000000E+00 -0.52136602590E+03  0.52136602590E+03  0.00000000000E+00 0. -1.
        -24    2    1    2    0    0 -0.10251169803E+03  0.11261720272E+03  0.32214844390E+02  0.17466941352E+03  0.79248503064E+02 0.  0.
         23    2    1    2    0    0 -0.15674329739E+03  0.20017680668E+03 -0.14250278919E+03  0.30592627553E+03  0.92976480489E+02 0.  0.
         13    1    3    3    0    0 -0.11497663165E+03  0.10945839292E+03  0.31071710833E+02  0.16175975031E+03  0.00000000000E+00 0. -1.
        -14    1    3    3    0    0  0.12464933628E+02  0.31588098023E+01  0.11431335569E+01  0.12909663204E+02  0.00000000000E+00 0.  1.
        -11    1    4    4    0    0 -0.12688018194E+03  0.89565827550E+02 -0.93775962281E+02  0.18142367303E+03  0.00000000000E+00 0.  1.
         11    1    4    4    0    0 -0.29863115445E+02  0.11061097913E+03 -0.48726826909E+02  0.12450260250E+03  0.00000000000E+00 0. -1.
          4    1    1    2  501    0  0.25925499541E+03 -0.31279400940E+03 -0.43281935145E+02  0.40856648281E+03  0.00000000000E+00 0. -1.
<scales pt_clust_5="13000.00000" pt_clust_6="13000.00000" pt_clust_7="13000.00000" pt_clust_8="13000.00000" pt_clust_9="406.26766"></scales>
<clustering>
<clus scale="   79.249">  5  6 -1 -1</clus>
<clus scale="   92.976">  7  8 -1 -1</clus>
<clus scale="  150.510">  5  7 -1 -1</clus>
<clus scale="  406.268">  2  9  1 -1</clus>
<clus scale="  406.268">  2  5  1 -1</clus>
</clustering>
</event>
<event>
 9    1  0.6345107E-005  0.1369879E+03  0.7546771E-02  0.1239246E+00
         -2   -1    0    0    0  501 -0.00000000000E+00  0.00000000000E+00  0.34629680342E+03  0.34629680342E+03  0.00000000000E+00 0.  1.
         21   -1    0    0  501  502  0.00000000000E+00 -0.00000000000E+00 -0.15279650894E+03  0.15279650894E+03  0.00000000000E+00 0.  1.
        -24    2    1    2    0    0 -0.10795028748E+02 -0.31281905424E+02 -0.29794789160E+02  0.92162074371E+02  0.80690942730E+02 0.  0.
         23    2    1    2    0    0  0.10008443705E+03 -0.23448290093E+02 -0.23058389633E+02  0.13924106908E+03  0.91047620174E+02 0.  0.
         13    1    3    3    0    0  0.33262757813E+01 -0.48195770767E+02  0.74562214878E+01  0.48882426998E+02  0.00000000000E+00 0. -1.
        -14    1    3    3    0    0 -0.14121304530E+02  0.16913865343E+02 -0.37251010648E+02  0.43279647373E+02  0.00000000000E+00 0.  1.
        -13    1    4    4    0    0  0.25089394953E+02 -0.62948250836E+01  0.34528827698E+02  0.43143278783E+02  0.00000000000E+00 0. -1.
         13    1    4    4    0    0  0.74995042097E+02 -0.17153465009E+02 -0.57587217331E+02  0.96097790302E+02  0.00000000000E+00 0.  1.
         -1    1    1    2    0  502 -0.89289408302E+02  0.54730195517E+02  0.24635347327E+03  0.26769016891E+03  0.00000000000E+00 0.  1.
<scales pt_clust_5="13000.00000" pt_clust_6="13000.00000" pt_clust_7="13000.00000" pt_clust_8="13000.00000" pt_clust_9="102.35252"></scales>
<clustering>
<clus scale="   80.691">  5  6 -1 -1</clus>
<clus scale="   87.213">  1  5  2 -1</clus>
<clus scale="   91.048">  7  8 -1 -1</clus>
<clus scale="  102.353">  2  9  1 -1</clus>
<clus scale="  102.353">  2  5  1 -1</clus>
</clustering>
</event>
<event>
 9    1  0.6345107E-005  0.9999932E+02  0.7546771E-02  0.1285136E+00
         21   -1    0    0  501  502  0.00000000000E+00  0.00000000000E+00  0.39106638092E+03  0.39106638092E+03  0.00000000000E+00 0. -1.
         -4   -1    0    0    0  501 -0.00000000000E+00 -0.00000000000E+00 -0.16525698626E+03  0.16525698626E+03  0.00000000000E+00 0.  1.
         23    2    1    2    0    0  0.26066384278E+01  0.41665068940E+02 -0.10522797927E+03  0.14449000141E+03  0.89786749312E+02 0.  0.
        -24    2    1    2    0    0 -0.11390600655E+02 -0.84745616979E+02  0.34610364045E+03  0.36535666195E+03  0.79913672909E+02 0.  0.
         11    1    4    4    0    0 -0.64513264541E+01 -0.10010569531E+03  0.28417080177E+03  0.30135662333E+03  0.00000000000E+00 0. -1.
        -12    1    4    4    0    0 -0.49392742009E+01  0.15360078336E+02  0.61932838673E+02  0.64000038611E+02  0.00000000000E+00 0.  1.
        -11    1    3    3    0    0 -0.27676042306E+02 -0.87234485945E+01 -0.67400681438E+01  0.29790776957E+02  0.00000000000E+00 0. -1.
         11    1    3    3    0    0  0.30282680734E+02  0.50388517535E+02 -0.98487911129E+02  0.11469922445E+03  0.00000000000E+00 0.  1.
         -3    1    1    2    0  502  0.87839622272E+01  0.43080548039E+02 -0.15066266518E+02  0.46476703826E+02  0.00000000000E+00 0.  1.
<scales pt_clust_5="13000.00000" pt_clust_6="13000.00000" pt_clust_7="13000.00000" pt_clust_8="13000.00000" pt_clust_9="43.96696"></scales>
<clustering>
<clus scale="   43.967">  1  9  2 -1</clus>
<clus scale="   79.914">  5  6 -1 -1</clus>
<clus scale="   89.787">  7  8 -1 -1</clus>
<clus scale="   91.238">  1  5  2 -1</clus>
<clus scale="   43.967">  1  5  2 -1</clus>
</clustering>
</event>
<event>
 9    1  0.6345107E-005  0.1517855E+03  0.7546771E-02  0.1199848E+00
         21   -1    0    0  501  502  0.00000000000E+00  0.00000000000E+00  0.23529229128E+03  0.23529229128E+03  0.00000000000E+00 0.  1.
         -2   -1    0    0    0  501 -0.00000000000E+00 -0.00000000000E+00 -0.20527458946E+03  0.20527458946E+03  0.00000000000E+00 0.  1.
        -24    2    1    2    0    0 -0.15843637415E+03 -0.40066778135E+02 -0.62116016265E+02  0.19335026367E+03  0.82574170414E+02 0.  0.
         23    2    1    2    0    0  0.48282634396E+02  0.56980394771E+02  0.50161668922E+02  0.12813022104E+03  0.91231476708E+02 0.  0.
         11    1    3    3    0    0 -0.11077810582E+03 -0.60753892609E+02 -0.23246367332E+02  0.12846485041E+03  0.00000000000E+00 0. -1.
        -12    1    3    3    0    0 -0.47658268329E+02  0.20687114475E+02 -0.38869648933E+02  0.64885413257E+02  0.00000000000E+00 0.  1.
        -13    1    4    4    0    0  0.46342482517E+01 -0.23249557791E+02 -0.44776935709E+00  0.23711151211E+02  0.00000000000E+00 0.  1.
         13    1    4    4    0    0  0.43648386144E+02  0.80229952562E+02  0.50609438279E+02  0.10441906983E+03  0.00000000000E+00 0. -1.
         -1    1    1    2    0  502  0.11015373976E+03 -0.16913616637E+02  0.41972049160E+02  0.11908639604E+03  0.00000000000E+00 0.  1.
<scales pt_clust_5="13000.00000" pt_clust_6="13000.00000" pt_clust_7="13000.00000" pt_clust_8="13000.00000" pt_clust_9="111.44468"></scales>
<clustering>
<clus scale="   82.574">  5  6 -1 -1</clus>
<clus scale="   91.231">  7  8 -1 -1</clus>
<clus scale="  111.445">  1  9  2 -1</clus>
<clus scale="  146.745">  2  5  1 -1</clus>
<clus scale="  111.445">  1  5  2 -1</clus>
</clustering>
</event>
<event>
 9    1  0.6345107E-005  0.1062693E+03  0.7546771E-02  0.1270908E+00
          1   -1    0    0  502    0 -0.00000000000E+00  0.00000000000E+00  0.27536081967E+03  0.27536081967E+03  0.00000000000E+00 0. -1.
         21   -1    0    0  501  502  0.00000000000E+00 -0.00000000000E+00 -0.91490183867E+02  0.91490183867E+02  0.00000000000E+00 0. -1.
         23    2    1    2    0    0  0.42663806042E+02  0.39572369355E+02  0.21679856590E+03  0.24255976456E+03  0.91910001887E+02 0.  0.
        -24    2    1    2    0    0 -0.28692798085E+02 -0.13490868385E+02 -0.27906658478E+02  0.94280458830E+02  0.84289638378E+02 0.  0.
         11    1    4    4    0    0 -0.36968241490E+02  0.95873312580E+01 -0.48869997543E+02  0.62022934947E+02  0.00000000000E+00 0. -1.
        -12    1    4    4    0    0  0.82754434047E+01 -0.23078199643E+02  0.20963339065E+02  0.32257523883E+02  0.00000000000E+00 0.  1.
        -13    1    3    3    0    0  0.30309860751E+02  0.64566838480E+01  0.97084758275E+01  0.32475081646E+02  0.00000000000E+00 0.  1.
         13    1    3    3    0    0  0.12353945292E+02  0.33115685507E+02  0.20709009007E+03  0.21008468291E+03  0.00000000000E+00 0. -1.
          2    1    1    2  501    0 -0.13971007957E+02 -0.26081500970E+02 -0.50212716183E+01  0.30010780144E+02  0.00000000000E+00 0. -1.
<scales pt_clust_5="13000.00000" pt_clust_6="13000.00000" pt_clust_7="13000.00000" pt_clust_8="13000.00000" pt_clust_9="29.58773"></scales>
<clustering>
<clus scale="   29.588">  2  9  1 -1</clus>
<clus scale="   84.290">  5  6 -1 -1</clus>
<clus scale="   91.910">  7  8 -1 -1</clus>
<clus scale="   99.752">  2  5  1 -1</clus>
<clus scale="   29.588">  2  5  1 -1</clus>
</clustering>
</event>
<event>
 9    1  0.6345107E-005  0.2139133E+03  0.7546771E-02  0.1158170E+00
          3   -1    0    0  502    0 -0.00000000000E+00  0.00000000000E+00  0.57804759136E+03  0.57804759136E+03  0.00000000000E+00 0. -1.
         21   -1    0    0  501  502  0.00000000000E+00 -0.00000000000E+00 -0.14268182280E+03  0.14268182280E+03  0.00000000000E+00 0. -1.
        -24    2    1    2    0    0 -0.46511610711E+02  0.74584365756E+02  0.32623271278E+02  0.13795858185E+03  0.10120343340E+03 0.  0.
         23    2    1    2    0    0 -0.13920393967E+03 -0.14213147342E+03  0.16800215574E+03  0.27592248971E+03  0.91265565471E+02 0.  0.
         11    1    3    3    0    0 -0.24437073159E+01  0.56503212924E+02  0.60459309044E+02  0.82788361659E+02  0.00000000000E+00 0. -1.
        -12    1    3    3    0    0 -0.44067903395E+02  0.18081152832E+02 -0.27836037766E+02  0.55170220191E+02  0.00000000000E+00 0.  1.
        -11    1    4    4    0    0 -0.10089876386E+03 -0.10975451977E+03  0.67612561938E+02  0.16370117193E+03  0.00000000000E+00 0. -1.
         11    1    4    4    0    0 -0.38305175808E+02 -0.32376953642E+02  0.10038959380E+03  0.11222131778E+03  0.00000000000E+00 0.  1.
          4    1    1    2  501    0  0.18571555038E+03  0.67547107661E+02  0.23474034154E+03  0.30684834259E+03  0.00000000000E+00 0. -1.
<scales pt_clust_5="13000.00000" pt_clust_6="13000.00000" pt_clust_7="13000.00000" pt_clust_8="13000.00000" pt_clust_9="193.46712"></scales>
<clustering>
<clus scale="   91.266">  7  8 -1 -1</clus>
<clus scale="  101.203">  5  6 -1 -1</clus>
<clus scale="  134.046">  1  5  2 -1</clus>
<clus scale="  193.467">  2  9  1 -1</clus>
<clus scale="  193.467">  2  5  1 -1</clus>
</clustering>
</event>
<event>
 9    1  0.6345107E-005  0.1045272E+03  0.7546771E-02  0.1279037E+00
         21   -1    0    0  501  502  0.00000000000E+00  0.00000000000E+00  0.92518617740E+02  0.92518617740E+02  0.00000000000E+00 0. -1.
          1   -1    0    0  502    0 -0.00000000000E+00 -0.00000000000E+00 -0.42051614774E+03  0.42051614774E+03  0.00000000000E+00 0. -1.
         23    2    1    2    0    0 -0.26308693024E+02 -0.20570886265E+02 -0.16524182732E+03  0.19436708849E+03  0.96738797301E+02 0.  0.
        -24    2    1    2    0    0  0.91941812389E+02 -0.29602044276E+02  0.11072845007E+02  0.12620626967E+03  0.80472583627E+02 0.  0.
         13    1    4    4    0    0  0.75010759676E+02  0.95055492316E+01  0.27611102679E+02  0.80494363309E+02  0.00000000000E+00 0. -1.
        -14    1    4    4    0    0  0.16931052712E+02 -0.39107593508E+02 -0.16538257671E+02  0.45711906356E+02  0.00000000000E+00 0.  1.
        -11    1    3    3    0    0 -0.17229860126E+02 -0.49420995107E+02 -0.40967503145E+02  0.66465322923E+02  0.00000000000E+00 0. -1.
         11    1    3    3    0    0 -0.90788328985E+01  0.28850108842E+02 -0.12427432418E+03  0.12790176557E+03  0.00000000000E+00 0.  1.
          2    1    1    2  501    0 -0.65633119364E+02  0.50172930541E+02 -0.17382854769E+03  0.19246140732E+03  0.00000000000E+00 0. -1.
<scales pt_clust_5="13000.00000" pt_clust_6="13000.00000" pt_clust_7="13000.00000" pt_clust_8="13000.00000" pt_clust_9="82.61378"></scales>
<clustering>
<clus scale="   80.473">  5  6 -1 -1</clus>
<clus scale="   82.614">  1  9  2 -1</clus>
<clus scale="   89.685">  1  5  2 -1</clus>
<clus scale="   96.739">  7  8 -1 -1</clus>
<clus scale="   82.614">  1  5  2 -1</clus>
</clustering>
</event>
<event>
 9    1  0.6345107E-005  0.1213815E+03  0.7546771E-02  0.1243821E+00
          1   -1    0    0  502    0 -0.00000000000E+00  0.00000000000E+00  0.56805636325E+03  0.56805636325E+03  0.00000000000E+00 0. -1.
         21   -1    0    0  501  502  0.00000000000E+00 -0.00000000000E+00 -0.96404562210E+02  0.96404562210E+02  0.00000000000E+00 0.  1.
        -24    2    1    2    0    0  0.75468445906E+02 -0.45112401058E+02  0.12379540839E+03  0.17197871769E+03  0.80751229986E+02 0.  0.
         23    2    1    2    0    0 -0.87622548218E+02 -0.54214898754E+02  0.71137232926E+01  0.13734955451E+03  0.90539101281E+02 0.  0.
         11    1    3    3    0    0  0.92330046641E+02 -0.44483036963E+02  0.10734516865E+03  0.14841348767E+03  0.00000000000E+00 0. -1.
        -12    1    3    3    0    0 -0.16861600735E+02 -0.62936409495E+00  0.16450239743E+02  0.23565230024E+02  0.00000000000E+00 0.  1.
        -11    1    4    4    0    0 -0.53107151210E+01 -0.48999918388E+02  0.21245224284E+02  0.53670804465E+02  0.00000000000E+00 0.  1.
         11    1    4    4    0    0 -0.82311833097E+02 -0.52149803660E+01 -0.14131500991E+02  0.83678750040E+02  0.00000000000E+00 0. -1.
          2    1    1    2  501    0  0.12154102312E+02  0.99327299812E+02  0.34074266935E+03  0.35513265326E+03  0.00000000000E+00 0. -1.
<scales pt_clust_5="13000.00000" pt_clust_6="13000.00000" pt_clust_7="13000.00000" pt_clust_8="13000.00000" pt_clust_9="100.06820"></scales>
<clustering>
<clus scale="   80.751">  5  6 -1 -1</clus>
<clus scale="   90.539">  7  8 -1 -1</clus>
<clus scale="  100.068">  2  9  1 -1</clus>
<clus scale="  114.267">  1  5  2 -1</clus>
<clus scale="  100.068">  2  5  1 -1</clus>
</clustering>
</event>
<event>
 9    1  0.6345107E-005  0.1373206E+03  0.7546771E-02  0.1235109E+00
         21   -1    0    0  501  502  0.00000000000E+00  0.00000000000E+00  0.69172853324E+02  0.69172853324E+02  0.00000000000E+00 0. -1.
         -4   -1    0    0    0  501 -0.00000000000E+00 -0.00000000000E+00 -0.52368824356E+03  0.52368824356E+03  0.00000000000E+00 0.  1.
         23    2    1    2    0    0  0.30139677807E+02  0.98935875442E+00 -0.26367834367E+03  0.28000215761E+03  0.89249987883E+02 0.  0.
        -24    2    1    2    0    0 -0.61207247004E+02 -0.98427279589E+02 -0.12512362210E+03  0.19129580166E+03  0.86625091459E+02 0.  0.
         11    1    4    4    0    0 -0.17132392560E+02 -0.98919611277E+02 -0.91840722054E+02  0.13606368581E+03  0.00000000000E+00 0. -1.
        -12    1    4    4    0    0 -0.44074854444E+02  0.49233168836E+00 -0.33282900050E+02  0.55232115843E+02  0.00000000000E+00 0.  1.
        -11    1    3    3    0    0  0.52912950520E+02  0.21165786945E+01 -0.24461611407E+03  0.25028244745E+03  0.00000000000E+00 0.  1.
         11    1    3    3    0    0 -0.22773272713E+02 -0.11272199400E+01 -0.19062229603E+02  0.29719710165E+02  0.00000000000E+00 0. -1.
         -3    1    1    2    0  502  0.31067569198E+02  0.97437920835E+02 -0.65713424460E+02  0.12156313761E+03  0.00000000000E+00 0.  1.
<scales pt_clust_5="13000.00000" pt_clust_6="13000.00000" pt_clust_7="13000.00000" pt_clust_8="13000.00000" pt_clust_9="106.55060"></scales>
<clustering>
<clus scale="   86.625">  5  6 -1 -1</clus>
<clus scale="   89.250">  7  8 -1 -1</clus>
<clus scale="   94.207">  2  7  1 -1</clus>
<clus scale="  106.551">  1  9  2 -1</clus>
<clus scale="  106.551">  1  5  2 -1</clus>
</clustering>
</event>
<event>
 9    1  0.6345107E-005  0.1137373E+03  0.7546771E-02  0.1257855E+00
         21   -1    0    0  501  502  0.00000000000E+00  0.00000000000E+00  0.98867363720E+02  0.98867363720E+02  0.00000000000E+00 0. -1.
          1   -1    0    0  502    0 -0.00000000000E+00 -0.00000000000E+00 -0.28537021524E+03  0.28537021524E+03  0.00000000000E+00 0. -1.
        -24    2    1    2    0    0 -0.44890060414E+02  0.58460560669E+02 -0.21016812043E+03  0.23641542628E+03  0.79302334498E+02 0.  0.
         23    2    1    2    0    0  0.46018129061E+02 -0.26833241104E+02 -0.48798451849E+01  0.10520310272E+03  0.90588017428E+02 0.  0.
         11    1    3    3    0    0 -0.54539202110E+02  0.33269832392E+02 -0.19557636846E+03  0.20574625687E+03  0.00000000000E+00 0. -1.
        -12    1    3    3    0    0  0.96491416957E+01  0.25190728278E+02 -0.14591751973E+02  0.30669169409E+02  0.00000000000E+00 0.  1.
        -11    1    4    4    0    0 -0.26803159362E+02 -0.12612254882E+02  0.59678680636E+01  0.30217441557E+02  0.00000000000E+00 0.  1.
         11    1    4    4    0    0  0.72821288423E+02 -0.14220986222E+02 -0.10847713248E+02  0.74985661159E+02  0.00000000000E+00 0. -1.
          2    1    1    2  501    0 -0.11280686476E+01 -0.31627319565E+02  0.28545114096E+02  0.42619049972E+02  0.00000000000E+00 0. -1.
<scales pt_clust_5="13000.00000" pt_clust_6="13000.00000" pt_clust_7="13000.00000" pt_clust_8="13000.00000" pt_clust_9="31.64743"></scales>
<clustering>
<clus scale="   31.647">  1  9  2 -1</clus>
<clus scale="   79.302">  5  6 -1 -1</clus>
<clus scale="   90.588">  7  8 -1 -1</clus>
<clus scale="  104.971">  2  5  1 -1</clus>
<clus scale="   31.647">  1  5  2 -1</clus>
</clustering>
</event>
<event>
 9    1  0.6345107E-005  0.9822840E+02  0.7546771E-02  0.1289737E+00
         -2   -1    0    0    0  501 -0.00000000000E+00  0.00000000000E+00  0.31073556663E+03  0.31073556663E+03  0.00000000000E+00 0.  1.
         21   -1    0    0  501  502  0.00000000000E+00 -0.00000000000E+00 -0.13019594101E+03  0.13019594101E+03  0.00000000000E+00 0.  1.
        -24    2    1    2    0    0 -0.20599016176E+02 -0.32584591869E+02  0.21734731392E+03  0.23460175980E+03  0.79448447061E+02 0.  0.
         23    2    1    2    0    0 -0.39952922208E+02  0.64296249735E+02 -0.62351772505E+02  0.13335943384E+03  0.90370079875E+02 0.  0.
         11    1    3    3    0    0  0.30682571050E+02 -0.10105402859E+02  0.77736714972E+02  0.84181566793E+02  0.00000000000E+00 0. -1.
        -12    1    3    3    0    0 -0.51281587225E+02 -0.22479189010E+02  0.13961059895E+03  0.15042019301E+03  0.00000000000E+00 0.  1.
        -13    1    4    4    0    0 -0.54510021002E+02  0.29253032683E+02 -0.71274890182E+02  0.94377922637E+02  0.00000000000E+00 0.  1.
         13    1    4    4    0    0  0.14557098794E+02  0.35043217052E+02  0.89231176764E+01  0.38981511204E+02  0.00000000000E+00 0. -1.
         -1    1    1    2    0  502  0.60551938384E+02 -0.31711657866E+02  0.25544084210E+02  0.72970313997E+02  0.00000000000E+00 0.  1.
<scales pt_clust_5="13000.00000" pt_clust_6="13000.00000" pt_clust_7="13000.00000" pt_clust_8="13000.00000" pt_clust_9="68.35325"></scales>
<clustering>
<clus scale="   68.353">  2  9  1 -1</clus>
<clus scale="   79.448">  5  6 -1 -1</clus>
<clus scale="   88.284">  1  5  2 -1</clus>
<clus scale="   90.370">  7  8 -1 -1</clus>
<clus scale="   68.353">  2  5  1 -1</clus>
</clustering>
</event>
<event>
 9    1  0.6345107E-005  0.1968234E+03  0.7546771E-02  0.1153827E+00
         21   -1    0    0  501  502  0.00000000000E+00  0.00000000000E+00  0.13204772484E+03  0.13204772484E+03  0.00000000000E+00 0. -1.
          1   -1    0    0  502    0 -0.00000000000E+00 -0.00000000000E+00 -0.55484057231E+03  0.55484057231E+03  0.00000000000E+00 0. -1.
        -24    2    1    2    0    0  0.11951252127E+03 -0.13672492028E+03 -0.37312985116E+03  0.42262764403E+03  0.80070550774E+02 0.  0.
         23    2    1    2    0    0 -0.15500052806E+03  0.93871266077E+02 -0.71138602686E+02  0.20461976133E+03  0.63020374799E+02 0.  0.
         13    1    3    3    0    0  0.12557708156E+03 -0.98324004941E+02 -0.29463474363E+03  0.33503260366E+03  0.00000000000E+00 0. -1.
        -14    1    3    3    0    0 -0.60645602909E+01 -0.38400915341E+02 -0.78495107532E+02  0.87595040368E+02  0.00000000000E+00 0.  1.
        -13    1    4    4    0    0 -0.39793768838E+02  0.46373155310E+02  0.46799328668E-01  0.61106593441E+02  0.00000000000E+00 0.  1.
         13    1    4    4    0    0 -0.11520675922E+03  0.47498110767E+02 -0.71185402014E+02  0.14351316789E+03  0.00000000000E+00 0. -1.
          2    1    1    2  501    0  0.35488006795E+02  0.42853654206E+02  0.21475606379E+02  0.59640891797E+02  0.00000000000E+00 0. -1.
<scales pt_clust_5="13000.00000" pt_clust_6="13000.00000" pt_clust_7="13000.00000" pt_clust_8="13000.00000" pt_clust_9="55.64022"></scales>
<clustering>
<clus scale="   55.640">  1  9  2 -1</clus>
<clus scale="   63.020">  7  8 -1 -1</clus>
<clus scale="   80.071">  5  6 -1 -1</clus>
<clus scale="  190.525">  1  7  2 -1</clus>
<clus scale="   55.640">  1  5  2 -1</clus>
</clustering>
</event>
<event>
 9    1  0.6345107E-005  0.1298733E+03  0.7546771E-02  0.1229252E+00
          3   -1    0    0  502    0 -0.00000000000E+00  0.00000000000E+00  0.28386515243E+03  0.28386515243E+03  0.00000000000E+00 0. -1.
         21   -1    0    0  501  502  0.00000000000E+00 -0.00000000000E+00 -0.18437026111E+03  0.18437026111E+03  0.00000000000E+00 0. -1.
         23    2    1    2    0    0  0.47258701941E+02 -0.90250025381E+02  0.19289335016E+03  0.23630528012E+03  0.90850915721E+02 0.  0.
        -24    2    1    2    0    0 -0.97701374174E+01  0.75178889679E+02  0.16504984247E+02  0.11483487987E+03  0.84659991089E+02 0.  0.
         11    1    4    4    0    0 -0.12575110363E+02  0.45629095250E+02  0.50831283457E+02  0.69454784658E+02  0.00000000000E+00 0. -1.
        -12    1    4    4    0    0  0.28049729458E+01  0.29549794429E+02 -0.34326299210E+02  0.45380095212E+02  0.00000000000E+00 0.  1.
        -13    1    3    3    0    0  0.25820029816E+02 -0.28183813204E+02  0.66138693594E+01  0.38791036778E+02  0.00000000000E+00 0. -1.
         13    1    3    3    0    0  0.21438672125E+02 -0.62066212177E+02  0.18627948080E+03  0.19751424334E+03  0.00000000000E+00 0.  1.
          4    1    1    2  501    0 -0.37488564524E+02  0.15071135702E+02 -0.10990344308E+03  0.11709525355E+03  0.00000000000E+00 0. -1.
<scales pt_clust_5="13000.00000" pt_clust_6="13000.00000" pt_clust_7="13000.00000" pt_clust_8="13000.00000" pt_clust_9="40.40460"></scales>
<clustering>
<clus scale="   40.405">  2  9  1 -1</clus>
<clus scale="   84.660">  5  6 -1 -1</clus>
<clus scale="   90.851">  7  8 -1 -1</clus>
<clus scale="  125.620">  2  5  1 -1</clus>
<clus scale="   40.405">  2  5  1 -1</clus>
</clustering>
</event>
<event>
 9    1  0.6345107E-005  0.1177722E+03  0.7546771E-02  0.1247561E+00
         -2   -1    0    0    0  501 -0.00000000000E+00  0.00000000000E+00  0.10731518812E+03  0.10731518812E+03  0.00000000000E+00 0.  1.
         21   -1    0    0  501  502  0.00000000000E+00 -0.00000000000E+00 -0.81762314504E+03  0.81762314504E+03  0.00000000000E+00 0.  1.
         23    2    1    2    0    0  0.73599261463E+02  0.44012156410E+02 -0.83053406326E+01  0.12577070723E+03  0.91626256691E+02 0.  0.
        -24    2    1    2    0    0 -0.74434106399E+02  0.72013342295E+02 -0.55424207123E+02  0.14226104770E+03  0.80249643576E+02 0.  0.
         13    1    4    4    0    0 -0.29186040695E+02 -0.13985901911E+02 -0.48931180528E+01  0.32731835084E+02  0.00000000000E+00 0. -1.
        -14    1    4    4    0    0 -0.45248065704E+02  0.85999244206E+02 -0.50531089071E+02  0.10952921262E+03  0.00000000000E+00 0.  1.
        -11    1    3    3    0    0 -0.63167729777E+01 -0.21044453444E+02 -0.56564218733E+01  0.22688449705E+02  0.00000000000E+00 0. -1.
         11    1    3    3    0    0  0.79916034440E+02  0.65056609855E+02 -0.26489187592E+01  0.10308225753E+03  0.00000000000E+00 0.  1.
         -1    1    1    2    0  502  0.83484493637E+00 -0.11602549871E+03 -0.64657840917E+03  0.65690657823E+03  0.00000000000E+00 0.  1.
<scales pt_clust_5="13000.00000" pt_clust_6="13000.00000" pt_clust_7="13000.00000" pt_clust_8="13000.00000" pt_clust_9="116.02850"></scales>
<clustering>
<clus scale="   80.250">  5  6 -1 -1</clus>
<clus scale="   91.626">  7  8 -1 -1</clus>
<clus scale="  116.029">  2  9  1 -1</clus>
<clus scale="  116.029">  2  5  1 -1</clus>
<clus scale="  116.029">  2  5  1 -1</clus>
</clustering>
</event>
<event>
 9    1  0.6345107E-005  0.1868523E+03  0.7546771E-02  0.1162439E+00
          1   -1    0    0  502    0 -0.00000000000E+00  0.00000000000E+00  0.19369701416E+04  0.19369701416E+04  0.00000000000E+00 0. -1.
         21   -1    0    0  501  502  0.00000000000E+00 -0.00000000000E+00 -0.27642531974E+02  0.27642531974E+02  0.00000000000E+00 0.  1.
         23    2    1    2    0    0  0.12156589984E+03 -0.82736292487E+02  0.61892560701E+03  0.64256721369E+03  0.90554707174E+02 0.  0.
        -24    2    1    2    0    0 -0.10358109635E+03  0.15674895503E+03  0.79578591064E+03  0.82159925317E+03  0.80317114108E+02 0.  0.
         11    1    4    4    0    0 -0.61289062205E+02  0.98445450611E+02  0.63380097143E+03  0.64432253358E+03  0.00000000000E+00 0. -1.
        -12    1    4    4    0    0 -0.42292034145E+02  0.58303504417E+02  0.16198493921E+03  0.17727671960E+03  0.00000000000E+00 0.  1.
        -13    1    3    3    0    0  0.12360153856E+03 -0.55320112733E+02  0.57513647884E+03  0.59086345673E+03  0.00000000000E+00 0. -1.
         13    1    3    3    0    0 -0.20356387193E+01 -0.27416179754E+02  0.43789128172E+02  0.51703756956E+02  0.00000000000E+00 0.  1.
          2    1    1    2  501    0 -0.17984803494E+02 -0.74012662541E+02  0.49461609193E+03  0.50044620667E+03  0.00000000000E+00 0. -1.
<scales pt_clust_5="13000.00000" pt_clust_6="13000.00000" pt_clust_7="13000.00000" pt_clust_8="13000.00000" pt_clust_9="76.16648"></scales>
<clustering>
<clus scale="   76.166">  2  9  1 -1</clus>
<clus scale="   80.317">  5  6 -1 -1</clus>
<clus scale="   90.555">  7  8 -1 -1</clus>
<clus scale="  182.111">  2  5  1 -1</clus>
<clus scale="   76.166">  2  5  1 -1</clus>
</clustering>
</event>
<event>
 9    1  0.6345107E-005  0.2077628E+03  0.7546771E-02  0.1144604E+00
         -2   -1    0    0    0  501 -0.00000000000E+00  0.00000000000E+00  0.18951877134E+03  0.18951877134E+03  0.00000000000E+00 0.  1.
         21   -1    0    0  501  502  0.00000000000E+00 -0.00000000000E+00 -0.39928356974E+03  0.39928356974E+03  0.00000000000E+00 0. -1.
        -24    2    1    2    0    0  0.18301356825E+03  0.57623557703E+02  0.61287349813E+02  0.21565935340E+03  0.77060864859E+02 0.  0.
         23    2    1    2    0    0 -0.15878432287E+03 -0.68821835154E+02 -0.14366428006E+03  0.24298874572E+03  0.91952156020E+02 0.  0.
         13    1    3    3    0    0  0.46519781058E+01  0.22551512053E+02  0.16839974043E+02  0.28527115556E+02  0.00000000000E+00 0. -1.
        -14    1    3    3    0    0  0.17836159015E+03  0.35072045650E+02  0.44447375770E+02  0.18713223784E+03  0.00000000000E+00 0.  1.
        -11    1    4    4    0    0 -0.51851899710E+02  0.98588267798E+01 -0.83754178128E+01  0.53441216234E+02  0.00000000000E+00 0.  1.
         11    1    4    4    0    0 -0.10693242316E+03 -0.78680661934E+02 -0.13528886225E+03  0.18954752949E+03  0.00000000000E+00 0. -1.
         -1    1    1    2    0  502 -0.24229245379E+02  0.11198277451E+02 -0.12738786815E+03  0.13015424196E+03  0.00000000000E+00 0.  1.
<scales pt_clust_5="13000.00000" pt_clust_6="13000.00000" pt_clust_7="13000.00000" pt_clust_8="13000.00000" pt_clust_9="26.69190"></scales>
<clustering>
<clus scale="   26.692">  2  9  1 -1</clus>
<clus scale="   77.061">  5  6 -1 -1</clus>
<clus scale="   91.952">  7  8 -1 -1</clus>
<clus scale="  201.615">  1  5  2 -1</clus>
<clus scale="   26.692">  2  5  1 -1</clus>
</clustering>
</event>
<event>
 9    1  0.6345107E-005  0.2028573E+03  0.7546771E-02  0.1181726E+00
         -4   -1    0    0    0  501 -0.00000000000E+00  0.00000000000E+00  0.12311132941E+03  0.12311132941E+03  0.00000000000E+00 0.  1.
         21   -1    0    0  501  502  0.00000000000E+00 -0.00000000000E+00 -0.78108263477E+03  0.78108263477E+03  0.00000000000E+00 0.  1.
        -24    2    1    2    0    0  0.43342324751E+02 -0.94412918733E+01 -0.32713945317E+03  0.33974769644E+03  0.80253226132E+02 0.  0.
         23    2    1    2    0    0  0.96346183744E+02  0.13125628028E+03 -0.29797375676E+01  0.18783137177E+03  0.93599931365E+02 0.  0.
         11    1    3    3    0    0  0.27562458765E+02  0.32387293992E+02 -0.10753897386E+03  0.11564279849E+03  0.00000000000E+00 0. -1.
        -12    1    3    3    0    0  0.15779865986E+02 -0.41828585865E+02 -0.21960047932E+03  0.22410489795E+03  0.00000000000E+00 0.  1.
        -11    1    4    4    0    0  0.49110780097E+02  0.13098882467E+03  0.47177774198E+01  0.13997213414E+03  0.00000000000E+00 0.  1.
         11    1    4    4    0    0  0.47235403646E+02  0.26745560600E+00 -0.76975149874E+01  0.47859237636E+02  0.00000000000E+00 0. -1.
         -3    1    1    2    0  502 -0.13968850850E+03 -0.12181498841E+03 -0.32785211461E+03  0.37661489597E+03  0.00000000000E+00 0.  1.
<scales pt_clust_5="13000.00000" pt_clust_6="13000.00000" pt_clust_7="13000.00000" pt_clust_8="13000.00000" pt_clust_9="179.97255"></scales>
<clustering>
<clus scale="   80.253">  5  6 -1 -1</clus>
<clus scale="   91.697">  1  5  2 -1</clus>
<clus scale="   93.600">  7  8 -1 -1</clus>
<clus scale="  179.973">  2  9  1 -1</clus>
<clus scale="  179.973">  2  5  1 -1</clus>
</clustering>
</event>
<event>
 9    1  0.6345107E-005  0.1606750E+03  0.7546771E-02  0.1189674E+00
         21   -1    0    0  501  502  0.00000000000E+00  0.00000000000E+00  0.10655865198E+03  0.10655865198E+03  0.00000000000E+00 0. -1.
          1   -1    0    0  502    0 -0.00000000000E+00 -0.00000000000E+00 -0.56605200261E+03  0.56605200261E+03  0.00000000000E+00 0. -1.
         23    2    1    2    0    0  0.12542269502E+03 -0.66820096618E+02 -0.33808815608E+03  0.37787828653E+03  0.91063826023E+02 0.  0.
        -24    2    1    2    0    0 -0.12551437984E+03 -0.36345793552E+02 -0.28260292563E+02  0.15573890754E+03  0.79881705856E+02 0.  0.
         13    1    4    4    0    0 -0.84033626138E+02 -0.60289273196E+02 -0.79927347907E+01  0.10373201335E+03  0.00000000000E+00 0. -1.
        -14    1    4    4    0    0 -0.41480753704E+02  0.23943479644E+02 -0.20267557773E+02  0.52006894191E+02  0.00000000000E+00 0.  1.
        -11    1    3    3    0    0  0.23695429404E+02 -0.36000240883E+02 -0.31488632766E+02  0.53376256067E+02  0.00000000000E+00 0.  1.
         11    1    3    3    0    0  0.10172726562E+03 -0.30819855734E+02 -0.30659952331E+03  0.32450203046E+03  0.00000000000E+00 0. -1.
          2    1    1    2  501    0  0.91684817776E-01  0.10316589017E+03 -0.93144901996E+02  0.13899346052E+03  0.00000000000E+00 0. -1.
<scales pt_clust_5="13000.00000" pt_clust_6="13000.00000" pt_clust_7="13000.00000" pt_clust_8="13000.00000" pt_clust_9="103.16593"></scales>
<clustering>
<clus scale="   79.882">  5  6 -1 -1</clus>
<clus scale="   91.064">  7  8 -1 -1</clus>
<clus scale="  103.166">  1  9  2 -1</clus>
<clus scale="  154.612">  1  5  2 -1</clus>
<clus scale="  103.166">  1  5  2 -1</clus>
</clustering>
</event>
<event>
 9    1  0.6345107E-005  0.1905605E+03  0.7546771E-02  0.1159732E+00
          1   -1    0    0  502    0 -0.00000000000E+00  0.00000000000E+00  0.22086815113E+03  0.22086815113E+03  0.00000000000E+00 0. -1.
         21   -1    0    0  501  502  0.00000000000E+00 -0.00000000000E+00 -0.18251191659E+03  0.18251191659E+03  0.00000000000E+00 0. -1.
         23    2    1    2    0    0  0.86555800852E+02 -0.14221987595E+03  0.34120803605E+02  0.19576479616E+03  0.97165973472E+02 0.  0.
        -24    2    1    2    0    0 -0.64103397844E+02  0.14854085692E+03 -0.83633580177E+01  0.18110499649E+03  0.80965685376E+02 0.  0.
         11    1    4    4    0    0 -0.50757187819E+02  0.37213727480E+02 -0.25062055688E+02  0.67744079177E+02  0.00000000000E+00 0. -1.
        -12    1    4    4    0    0 -0.13346210025E+02  0.11132712944E+03  0.16698697671E+02  0.11336091731E+03  0.00000000000E+00 0.  1.
        -13    1    3    3    0    0  0.24461047049E+01 -0.89997743870E+02  0.35434219427E+02  0.96753094195E+02  0.00000000000E+00 0.  1.
         13    1    3    3    0    0  0.84109696147E+02 -0.52222132078E+02 -0.13134158215E+01  0.99011701964E+02  0.00000000000E+00 0. -1.
          2    1    1    2  501    0 -0.22452403008E+02 -0.63209809683E+01  0.12598788946E+02  0.26510275067E+02  0.00000000000E+00 0. -1.
<scales pt_clust_5="13000.00000" pt_clust_6="13000.00000" pt_clust_7="13000.00000" pt_clust_8="13000.00000" pt_clust_9="23.32522"></scales>
<clustering>
<clus scale="   23.325">  2  9  1 -1</clus>
<clus scale="   80.966">  5  6 -1 -1</clus>
<clus scale="   97.166">  7  8 -1 -1</clus>
<clus scale="  182.832">  2  5  1 -1</clus>
<clus scale="   23.325">  2  5  1 -1</clus>
</clustering>
</event>
<event>
 9    1  0.8085279E-005  0.9275202E+02  0.7546771E-02  0.1304577E+00
          3   -1    0    0  502    0 -0.00000000000E+00  0.00000000000E+00  0.21653035790E+03  0.21653035790E+03  0.00000000000E+00 0. -1.
         21   -1    0    0  501  502  0.00000000000E+00 -0.00000000000E+00 -0.29718096047E+03  0.29718096047E+03  0.00000000000E+00 0.  1.
        -24    2    1    2    0    0  0.20146919243E+01 -0.62859469533E+00  0.19663901760E+03  0.21216248565E+03  0.79633930946E+02 0.  0.
         23    2    1    2    0    0 -0.73875630850E+01 -0.20707937293E+02 -0.20671125299E+03  0.22762034528E+03  0.92725857873E+02 0.  0.
         13    1    3    3    0    0 -0.12038393692E+02  0.35602166730E+02  0.12665135890E+03  0.13210981762E+03  0.00000000000E+00 0. -1.
        -14    1    3    3    0    0  0.14053085616E+02 -0.36230761426E+02  0.69987658698E+02  0.80052668031E+02  0.00000000000E+00 0.  1.
        -11    1    4    4    0    0  0.38809681102E+02  0.54396474081E+01 -0.11690329219E+03  0.12329704309E+03  0.00000000000E+00 0. -1.
         11    1    4    4    0    0 -0.46197244187E+02 -0.26147584701E+02 -0.89807960804E+02  0.10432330219E+03  0.00000000000E+00 0.  1.
          4    1    1    2  501    0  0.53728711606E+01  0.21336531988E+02 -0.70578367184E+02  0.73928487446E+02  0.00000000000E+00 0. -1.
<scales pt_clust_5="13000.00000" pt_clust_6="13000.00000" pt_clust_7="13000.00000" pt_clust_8="13000.00000" pt_clust_9="22.00262"></scales>
<clustering>
<clus scale="   22.003">  2  9  1 -1</clus>
<clus scale="   79.634">  5  6 -1 -1</clus>
<clus scale="   79.664">  1  5  2 -1</clus>
<clus scale="   92.726">  7  8 -1 -1</clus>
<clus scale="   22.003">  2  5  1 -1</clus>
</clustering>
</event>
<event>
 9    1  0.6345107E-005  0.1692226E+03  0.7546771E-02  0.1178714E+00
          1   -1    0    0  502    0 -0.00000000000E+00  0.00000000000E+00  0.46669046157E+03  0.46669046157E+03  0.00000000000E+00 0. -1.
         21   -1    0    0  501  502  0.00000000000E+00 -0.00000000000E+00 -0.86697975514E+02  0.86697975514E+02  0.00000000000E+00 0. -1.
        -24    2    1    2    0    0  0.13857176675E+03 -0.23127929163E+02  0.18741901573E+03  0.25101486539E+03  0.90252642845E+02 0.  0.
         23    2    1    2    0    0 -0.14703780362E+03 -0.11514834172E+02  0.20146340723E+03  0.26561998943E+03  0.90629836335E+02 0.  0.
         11    1    3    3    0    0  0.67097758359E+02 -0.46126196589E+02  0.14076508835E+03  0.16261778897E+03  0.00000000000E+00 0. -1.
        -12    1    3    3    0    0  0.71474008393E+02  0.22998267426E+02  0.46653927372E+02  0.88397076420E+02  0.00000000000E+00 0.  1.
        -13    1    4    4    0    0 -0.11966705732E+03 -0.22942080447E+02  0.20205832292E+03  0.23595361731E+03  0.00000000000E+00 0.  1.
         13    1    4    4    0    0 -0.27370746293E+02  0.11427246275E+02 -0.59491568373E+00  0.29666372119E+02  0.00000000000E+00 0. -1.
          2    1    1    2  501    0  0.84660368630E+01  0.34642763336E+02 -0.88899368982E+01  0.36753582271E+02  0.00000000000E+00 0. -1.
<scales pt_clust_5="13000.00000" pt_clust_6="13000.00000" pt_clust_7="13000.00000" pt_clust_8="13000.00000" pt_clust_9="35.66223"></scales>
<clustering>
<clus scale="   35.662">  2  9  1 -1</clus>
<clus scale="   90.253">  5  6 -1 -1</clus>
<clus scale="   90.630">  7  8 -1 -1</clus>
<clus scale="  169.021">  1  5  2 -1</clus>
<clus scale="   35.662">  2  5  1 -1</clus>
</clustering>
</event>
<event>
 9    1  0.6345107E-005  0.1405287E+03  0.7546771E-02  0.1214440E+00
         -2   -1    0    0    0  501 -0.00000000000E+00  0.00000000000E+00  0.22827214415E+03  0.22827214415E+03  0.00000000000E+00 0.  1.
         21   -1    0    0  501  502  0.00000000000E+00 -0.00000000000E+00 -0.20804863254E+03  0.20804863254E+03  0.00000000000E+00 0.  1.
         23    2    1    2    0    0 -0.10093412885E+02  0.10409549687E+03  0.11950896024E+03  0.18186171650E+03  0.88620217201E+02 0.  0.
        -24    2    1    2    0    0 -0.80046285666E+01 -0.11961966041E+03  0.82506627225E+01  0.14431118685E+03  0.79904367705E+02 0.  0.
         13    1    4    4    0    0  0.27932644804E+02 -0.35382502045E+02 -0.18761858231E+02  0.48827875451E+02  0.00000000000E+00 0. -1.
        -14    1    4    4    0    0 -0.35937273371E+02 -0.84237158365E+02  0.27012520953E+02  0.95483311395E+02  0.00000000000E+00 0.  1.
        -13    1    3    3    0    0  0.18882814675E+02  0.33761930048E+02  0.93969299395E+02  0.10162016453E+03  0.00000000000E+00 0.  1.
         13    1    3    3    0    0 -0.28976227560E+02  0.70333566823E+02  0.25539660845E+02  0.80241551964E+02  0.00000000000E+00 0. -1.
         -1    1    1    2    0  502  0.18098041451E+02  0.15524163539E+02 -0.10753611135E+03  0.11014787334E+03  0.00000000000E+00 0.  1.
<scales pt_clust_5="13000.00000" pt_clust_6="13000.00000" pt_clust_7="13000.00000" pt_clust_8="13000.00000" pt_clust_9="23.84405"></scales>
<clustering>
<clus scale="   23.844">  2  9  1 -1</clus>
<clus scale="   79.904">  5  6 -1 -1</clus>
<clus scale="   88.620">  7  8 -1 -1</clus>
<clus scale="  135.202">  2  5  1 -1</clus>
<clus scale="   23.844">  2  5  1 -1</clus>
</clustering>
</event>
<event>
 9    1  0.6345107E-005  0.5756265E+03  0.7546771E-02  0.1009213E+00
         -2   -1    0    0    0  501 -0.00000000000E+00  0.00000000000E+00  0.14301687713E+04  0.14301687713E+04  0.00000000000E+00 0.  1.
         21   -1    0    0  501  502  0.00000000000E+00 -0.00000000000E+00 -0.45158166742E+03  0.45158166742E+03  0.00000000000E+00 0.  1.
         23    2    1    2    0    0 -0.35389175024E+03 -0.97009860914E+02  0.38893255135E+03  0.54176471065E+03  0.87121686192E+02 0.  0.
        -24    2    1    2    0    0 -0.14122920262E+02  0.58576460100E+03  0.30627314244E+03  0.66572982913E+03  0.77931655603E+02 0.  0.
         13    1    4    4    0    0  0.17124998325E+02  0.38625881462E+02  0.13253935293E+02  0.44281949902E+02  0.00000000000E+00 0. -1.
        -14    1    4    4    0    0 -0.31247918587E+02  0.54713871954E+03  0.29301920715E+03  0.62144787923E+03  0.00000000000E+00 0.  1.
        -13    1    3    3    0    0 -0.21527158945E+03 -0.15287689811E+02  0.21013094586E+03  0.30121518071E+03  0.00000000000E+00 0.  1.
         13    1    3    3    0    0 -0.13862016079E+03 -0.81722171103E+02  0.17880160549E+03  0.24054952994E+03  0.00000000000E+00 0. -1.
         -1    1    1    2    0  502  0.36801467050E+03 -0.48875474009E+03  0.28338141009E+03  0.67425589894E+03  0.00000000000E+00 0.  1.
<scales pt_clust_5="13000.00000" pt_clust_6="13000.00000" pt_clust_7="13000.00000" pt_clust_8="13000.00000" pt_clust_9="570.32665"></scales>
<clustering>
<clus scale="   77.932">  5  6 -1 -1</clus>
<clus scale="   87.122">  7  8 -1 -1</clus>
<clus scale="  377.148">  1  7  2 -1</clus>
<clus scale="  570.327">  2  9  1 -1</clus>
<clus scale="  570.327">  2  5  1 -1</clus>
</clustering>
</event>
<event>
 9    1  0.6345107E-005  0.9496653E+02  0.7546771E-02  0.1298045E+00
         21   -1    0    0  501  502  0.00000000000E+00  0.00000000000E+00  0.42736399178E+03  0.42736399178E+03  0.00000000000E+00 0. -1.
          3   -1    0    0  502    0 -0.00000000000E+00 -0.00000000000E+00 -0.35643776651E+02  0.35643776651E+02  0.00000000000E+00 0. -1.
         23    2    1    2    0    0  0.13793365354E+02 -0.25230084914E+02  0.74059784028E+02  0.12255963026E+03  0.93323079922E+02 0.  0.
        -24    2    1    2    0    0  0.32495481082E+01 -0.94594739511E-01  0.15870590504E+03  0.17858912034E+03  0.81828730272E+02 0.  0.
         13    1    4    4    0    0  0.35266172248E+02 -0.37096037265E+01  0.13218233532E+03  0.13685625245E+03  0.00000000000E+00 0. -1.
        -14    1    4    4    0    0 -0.32016624139E+02  0.36150089870E+01  0.26523569718E+02  0.41732867884E+02  0.00000000000E+00 0.  1.
        -11    1    3    3    0    0  0.18968894190E+02  0.33536153067E+02  0.32367077658E+02  0.50320177120E+02  0.00000000000E+00 0.  1.
         11    1    3    3    0    0 -0.51755288362E+01 -0.58766237980E+02  0.41692706371E+02  0.72239453138E+02  0.00000000000E+00 0. -1.
          4    1    1    2  501    0 -0.17042913462E+02  0.25324679653E+02  0.15895452606E+03  0.16185901783E+03  0.00000000000E+00 0. -1.
<scales pt_clust_5="13000.00000" pt_clust_6="13000.00000" pt_clust_7="13000.00000" pt_clust_8="13000.00000" pt_clust_9="30.52540"></scales>
<clustering>
<clus scale="   30.525">  1  9  2 -1</clus>
<clus scale="   81.829">  5  6 -1 -1</clus>
<clus scale="   83.698">  1  5  2 -1</clus>
<clus scale="   93.323">  7  8 -1 -1</clus>
<clus scale="   30.525">  1  5  2 -1</clus>
</clustering>
</event>
<event>
 9    1  0.6345107E-005  0.1124263E+03  0.7546771E-02  0.1266443E+00
         21   -1    0    0  501  502  0.00000000000E+00  0.00000000000E+00  0.33131065288E+03  0.33131065288E+03  0.00000000000E+00 0. -1.
         -2   -1    0    0    0  501 -0.00000000000E+00 -0.00000000000E+00 -0.11060931168E+03  0.11060931168E+03  0.00000000000E+00 0.  1.
         23    2    1    2    0    0 -0.71909059039E+02 -0.53181161802E+00  0.14466538094E+03  0.19268384744E+03  0.10501331833E+03 0.  0.
        -24    2    1    2    0    0  0.68047744953E+01  0.28774454247E+02  0.13224205815E+03  0.15870799902E+03  0.82619566905E+02 0.  0.
         13    1    4    4    0    0 -0.18637156127E+02 -0.22650855995E+02  0.56805908322E+02  0.63932120927E+02  0.00000000000E+00 0. -1.
        -14    1    4    4    0    0  0.25441930623E+02  0.51425310242E+02  0.75436149824E+02  0.94775878089E+02  0.00000000000E+00 0.  1.
        -13    1    3    3    0    0 -0.44410054185E+02 -0.52150988190E+01 -0.64535701974E+00  0.44719868673E+02  0.00000000000E+00 0.  1.
         13    1    3    3    0    0 -0.27499004854E+02  0.46832872010E+01  0.14531073796E+03  0.14796397877E+03  0.00000000000E+00 0. -1.
         -1    1    1    2    0  502  0.65104284544E+02 -0.28242642629E+02 -0.56206097888E+02  0.90528118109E+02  0.00000000000E+00 0.  1.
<scales pt_clust_5="13000.00000" pt_clust_6="13000.00000" pt_clust_7="13000.00000" pt_clust_8="13000.00000" pt_clust_9="70.96633"></scales>
<clustering>
<clus scale="   70.966">  1  9  2 -1</clus>
<clus scale="   82.620">  5  6 -1 -1</clus>
<clus scale="   91.858">  1  5  2 -1</clus>
<clus scale="  105.013">  7  8 -1 -1</clus>
<clus scale="   70.966">  1  5  2 -1</clus>
</clustering>
</event>
<event>
 9    1  0.6345107E-005  0.1021326E+03  0.7546771E-02  0.1280274E+00
         -2   -1    0    0    0  501 -0.00000000000E+00  0.00000000000E+00  0.28215881489E+03  0.28215881489E+03  0.00000000000E+00 0.  1.
         21   -1    0    0  501  502  0.00000000000E+00 -0.00000000000E+00 -0.13762522504E+03  0.13762522504E+03  0.00000000000E+00 0.  1.
         23    2    1    2    0    0 -0.22153568613E+02  0.39562446870E+02  0.16724760703E+03  0.19535648625E+03  0.90202144413E+02 0.  0.
        -24    2    1    2    0    0 -0.57446886845E+02 -0.85868183701E+02 -0.15641998275E+02  0.13206702518E+03  0.80768417407E+02 0.  0.
         11    1    4    4    0    0 -0.98173434210E+01 -0.48342299465E+02  0.28587092715E+02  0.57013858133E+02  0.00000000000E+00 0. -1.
        -12    1    4    4    0    0 -0.47629543424E+02 -0.37525884236E+02 -0.44229090989E+02  0.75053167050E+02  0.00000000000E+00 0.  1.
        -11    1    3    3    0    0  0.24213528401E+02 -0.19356874486E+01  0.10043754394E+02  0.26285335186E+02  0.00000000000E+00 0. -1.
         11    1    3    3    0    0 -0.46367097013E+02  0.41498134318E+02  0.15720385264E+03  0.16907115106E+03  0.00000000000E+00 0.  1.
         -1    1    1    2    0  502  0.79600455457E+02  0.46305736831E+02 -0.70720189017E+01  0.92360528495E+02  0.00000000000E+00 0.  1.
<scales pt_clust_5="13000.00000" pt_clust_6="13000.00000" pt_clust_7="13000.00000" pt_clust_8="13000.00000" pt_clust_9="92.08938"></scales>
<clustering>
<clus scale="   80.768">  5  6 -1 -1</clus>
<clus scale="   90.202">  7  8 -1 -1</clus>
<clus scale="   92.089">  2  9  1 -1</clus>
<clus scale="   93.905">  2  5  1 -1</clus>
<clus scale="   92.089">  2  5  1 -1</clus>
</clustering>
</event>
<event>
 9    1  0.6345107E-005  0.1381240E+03  0.7546771E-02  0.1218146E+00
         21   -1    0    0  501  502  0.00000000000E+00  0.00000000000E+00  0.11668541548E+03  0.11668541548E+03  0.00000000000E+00 0.  1.
          1   -1    0    0  502    0 -0.00000000000E+00 -0.00000000000E+00 -0.39995189795E+03  0.39995189795E+03  0.00000000000E+00 0. -1.
         23    2    1    2    0    0  0.92727405168E+02  0.58878092562E+02 -0.23661374351E+03  0.27685745139E+03  0.92730703218E+02 0.  0.
        -24    2    1    2    0    0 -0.83579749193E+02 -0.39989600277E+02 -0.11437231684E+03  0.16888278184E+03  0.82798698885E+02 0.  0.
         11    1    4    4    0    0 -0.18005328450E+01 -0.31766883798E+02 -0.52160458792E+01  0.32242579912E+02  0.00000000000E+00 0. -1.
        -12    1    4    4    0    0 -0.81779216348E+02 -0.82227164792E+01 -0.10915627096E+03  0.13664020193E+03  0.00000000000E+00 0.  1.
        -13    1    3    3    0    0  0.33242258678E+02 -0.96027608499E+00 -0.15824597430E+03  0.16170268481E+03  0.00000000000E+00 0. -1.
         13    1    3    3    0    0  0.59485146489E+02  0.59838368647E+02 -0.78367769209E+02  0.11515476658E+03  0.00000000000E+00 0.  1.
          2    1    1    2  501    0 -0.91476559743E+01 -0.18888492285E+02  0.67719577892E+02  0.70897080197E+02  0.00000000000E+00 0. -1.
<scales pt_clust_5="13000.00000" pt_clust_6="13000.00000" pt_clust_7="13000.00000" pt_clust_8="13000.00000" pt_clust_9="20.98701"></scales>
<clustering>
<clus scale="   20.987">  1  9  2 -1</clus>
<clus scale="   82.799">  5  6 -1 -1</clus>
<clus scale="   92.731">  7  8 -1 -1</clus>
<clus scale="  131.662">  1  5  2 -1</clus>
<clus scale="   20.987">  1  5  2 -1</clus>
</clustering>
</event>
<event>
 9    1  0.6345107E-005  0.1178226E+03  0.7546771E-02  0.1250980E+00
          1   -1    0    0  502    0 -0.00000000000E+00  0.00000000000E+00  0.40417146691E+03  0.40417146691E+03  0.00000000000E+00 0. -1.
         21   -1    0    0  501  502  0.00000000000E+00 -0.00000000000E+00 -0.66297176003E+02  0.66297176003E+02  0.00000000000E+00 0.  1.
        -24    2    1    2    0    0  0.79003173043E+02  0.23754664181E+02  0.25832864270E+03  0.28262702023E+03  0.79615070832E+02 0.  0.
         23    2    1    2    0    0 -0.38264835658E+02 -0.18739229041E+01  0.48626275232E+01  0.10000124159E+03  0.92243666118E+02 0.  0.
         11    1    3    3    0    0  0.75424786812E+02  0.40697504697E+02  0.24816688845E+03  0.26254902376E+03  0.00000000000E+00 0. -1.
        -12    1    3    3    0    0  0.35783862308E+01 -0.16942840516E+02  0.10161754247E+02  0.20077996467E+02  0.00000000000E+00 0.  1.
        -13    1    4    4    0    0 -0.22150241076E+01 -0.30640789952E+02 -0.29418974368E+02  0.42535166551E+02  0.00000000000E+00 0. -1.
         13    1    4    4    0    0 -0.36049811550E+02  0.28766867048E+02  0.34281601891E+02  0.57466075043E+02  0.00000000000E+00 0.  1.
          2    1    1    2  501    0 -0.40738337385E+02 -0.21880741277E+02  0.74683020690E+02  0.87840381096E+02  0.00000000000E+00 0. -1.
<scales pt_clust_5="13000.00000" pt_clust_6="13000.00000" pt_clust_7="13000.00000" pt_clust_8="13000.00000" pt_clust_9="46.24263"></scales>
<clustering>
<clus scale="   46.243">  2  9  1 -1</clus>
<clus scale="   79.615">  5  6 -1 -1</clus>
<clus scale="   92.244">  7  8 -1 -1</clus>
<clus scale="  108.221">  1  5  2 -1</clus>
<clus scale="   46.243">  2  5  1 -1</clus>
</clustering>
</event>
<event>
 9    1  0.6345107E-005  0.1523142E+03  0.7546771E-02  0.1199637E+00
          1   -1    0    0  502    0 -0.00000000000E+00  0.00000000000E+00  0.22893374866E+03  0.22893374866E+03  0.00000000000E+00 0. -1.
         21   -1    0    0  501  502  0.00000000000E+00 -0.00000000000E+00 -0.34699843436E+03  0.34699843436E+03  0.00000000000E+00 0. -1.
        -24    2    1    2    0    0 -0.12307108815E+02 -0.10181623535E+03 -0.13593656839E+03  0.18754927628E+03  0.78600061709E+02 0.  0.
         23    2    1    2    0    0  0.76897377756E+02  0.12967997900E+03 -0.13409863848E+03  0.22092147728E+03  0.89965274530E+02 0.  0.
         11    1    3    3    0    0  0.15914535212E+02 -0.33943273249E+02 -0.97799282263E+02  0.10473833033E+03  0.00000000000E+00 0. -1.
        -12    1    3    3    0    0 -0.28221644027E+02 -0.67872962100E+02 -0.38137286124E+02  0.82810945948E+02  0.00000000000E+00 0.  1.
        -13    1    4    4    0    0 -0.16903484380E+02  0.38970467784E+02 -0.50331048996E+02  0.65860759459E+02  0.00000000000E+00 0.  1.
         13    1    4    4    0    0  0.93800862136E+02  0.90709511215E+02 -0.83767589482E+02  0.15506071782E+03  0.00000000000E+00 0. -1.
          2    1    1    2  501    0 -0.64590268941E+02 -0.27863743650E+02  0.15197052117E+03  0.16746142946E+03  0.00000000000E+00 0. -1.
<scales pt_clust_5="13000.00000" pt_clust_6="13000.00000" pt_clust_7="13000.00000" pt_clust_8="13000.00000" pt_clust_9="70.34413"></scales>
<clustering>
<clus scale="   70.344">  2  9  1 -1</clus>
<clus scale="   78.600">  5  6 -1 -1</clus>
<clus scale="   89.965">  7  8 -1 -1</clus>
<clus scale="  145.890">  1  5  2 -1</clus>
<clus scale="   70.344">  2  5  1 -1</clus>
</clustering>
</event>
<event>
 9    1  0.6345107E-005  0.1496819E+03  0.7546771E-02  0.1201586E+00
         21   -1    0    0  501  502  0.00000000000E+00  0.00000000000E+00  0.10652465941E+03  0.10652465941E+03  0.00000000000E+00 0. -1.
          3   -1    0    0  502    0 -0.00000000000E+00 -0.00000000000E+00 -0.81415543528E+03  0.81415543528E+03  0.00000000000E+00 0. -1.
        -24    2    1    2    0    0  0.15823108491E+02 -0.11962124526E+03 -0.62287876923E+03  0.63960900150E+03  0.81006793310E+02 0.  0.
         23    2    1    2    0    0 -0.43809225987E+02  0.12828885548E+03 -0.14377521825E+03  0.21517655815E+03  0.85160783643E+02 0.  0.
         13    1    3    3    0    0  0.45091541403E+02 -0.92645657649E+02 -0.49772684202E+03  0.50827991722E+03  0.00000000000E+00 0. -1.
        -14    1    3    3    0    0 -0.29268432912E+02 -0.26975587610E+02 -0.12515192722E+03  0.13132908428E+03  0.00000000000E+00 0.  1.
        -13    1    4    4    0    0  0.20477552090E+02  0.55909316351E+02 -0.33048424657E+02  0.68098312510E+02  0.00000000000E+00 0.  1.
         13    1    4    4    0    0 -0.64286778077E+02  0.72379539131E+02 -0.11072679359E+03  0.14707824563E+03  0.00000000000E+00 0. -1.
          4    1    1    2  501    0  0.27986117497E+02 -0.86676102226E+01  0.59023211613E+02  0.65894535044E+02  0.00000000000E+00 0. -1.
<scales pt_clust_5="13000.00000" pt_clust_6="13000.00000" pt_clust_7="13000.00000" pt_clust_8="13000.00000" pt_clust_9="29.29761"></scales>
<clustering>
<clus scale="   29.298">  1  9  2 -1</clus>
<clus scale="   81.007">  5  6 -1 -1</clus>
<clus scale="   85.161">  7  8 -1 -1</clus>
<clus scale="  147.358">  2  5  1 -1</clus>
<clus scale="   29.298">  1  5  2 -1</clus>
</clustering>
</event>
<event>
 9    1  0.6345107E-005  0.1034760E+03  0.7546771E-02  0.1275974E+00
          3   -1    0    0  502    0 -0.00000000000E+00  0.00000000000E+00  0.73347140757E+02  0.73347140757E+02  0.00000000000E+00 0. -1.
         21   -1    0    0  501  502  0.00000000000E+00 -0.00000000000E+00 -0.47974623653E+03  0.47974623653E+03  0.00000000000E+00 0.  1.
         23    2    1    2    0    0  0.59372774594E+02  0.19223580212E+02 -0.26666666811E+02  0.10947312562E+03  0.85898671201E+02 0.  0.
        -24    2    1    2    0    0 -0.22669082375E+02 -0.26307738391E+02 -0.39416640985E+03  0.40354923816E+03  0.79239160627E+02 0.  0.
         13    1    4    4    0    0 -0.24728398380E+02 -0.44192003200E+02 -0.14233302776E+03  0.15107321942E+03  0.00000000000E+00 0. -1.
        -14    1    4    4    0    0  0.20593160056E+01  0.17884264809E+02 -0.25183338208E+03  0.25247601875E+03  0.00000000000E+00 0.  1.
        -13    1    3    3    0    0  0.54775338527E+02 -0.25725374425E+02 -0.20376061009E+02  0.63853868030E+02  0.00000000000E+00 0.  1.
         13    1    3    3    0    0  0.45974360665E+01  0.44948954637E+02 -0.62906058024E+01  0.45619257586E+02  0.00000000000E+00 0. -1.
          4    1    1    2  501    0 -0.36703692219E+02  0.70841581790E+01  0.14433980882E+02  0.40071013510E+02  0.00000000000E+00 0. -1.
<scales pt_clust_5="13000.00000" pt_clust_6="13000.00000" pt_clust_7="13000.00000" pt_clust_8="13000.00000" pt_clust_9="37.38111"></scales>
<clustering>
<clus scale="   37.381">  2  9  1 -1</clus>
<clus scale="   79.239">  5  6 -1 -1</clus>
<clus scale="   85.899">  7  8 -1 -1</clus>
<clus scale="   98.018">  2  5  1 -1</clus>
<clus scale="   37.381">  2  5  1 -1</clus>
</clustering>
</event>
<event>
 9    1  0.6345107E-005  0.8525199E+02  0.7546771E-02  0.1316771E+00
         -2   -1    0    0    0  501 -0.00000000000E+00  0.00000000000E+00  0.20782270097E+03  0.20782270097E+03  0.00000000000E+00 0.  1.
         21   -1    0    0  501  502  0.00000000000E+00 -0.00000000000E+00 -0.29187617521E+03  0.29187617521E+03  0.00000000000E+00 0.  1.
        -24    2    1    2    0    0  0.18151433134E+02 -0.21422122169E+01  0.16541398070E+03  0.18511959124E+03  0.81076596216E+02 0.  0.
         23    2    1    2    0    0  0.12372039201E+02 -0.14081616239E+02 -0.28283079824E+02  0.90710075864E+02  0.84125061599E+02 0.  0.
         11    1    3    3    0    0  0.35437261624E+02 -0.10187923982E+02  0.16149955750E+03  0.16565536628E+03  0.00000000000E+00 0. -1.
        -12    1    3    3    0    0 -0.17285828490E+02  0.80457117647E+01  0.39144232015E+01  0.19464224962E+02  0.00000000000E+00 0.  1.
        -13    1    4    4    0    0  0.33145859306E+02 -0.37753958644E+02 -0.31104662136E+02  0.59088995499E+02  0.00000000000E+00 0. -1.
         13    1    4    4    0    0 -0.20773820105E+02  0.23672342405E+02  0.28215823115E+01  0.31621080365E+02  0.00000000000E+00 0.  1.
         -1    1    1    2    0  502 -0.30523472335E+02  0.16223828456E+02 -0.22118437512E+03  0.22386920907E+03  0.00000000000E+00 0.  1.
<scales pt_clust_5="13000.00000" pt_clust_6="13000.00000" pt_clust_7="13000.00000" pt_clust_8="13000.00000" pt_clust_9="34.56725"></scales>
<clustering>
<clus scale="   34.567">  2  9  1 -1</clus>
<clus scale="   81.077">  5  6 -1 -1</clus>
<clus scale="   82.245">  1  5  2 -1</clus>
<clus scale="   84.125">  7  8 -1 -1</clus>
<clus scale="   34.567">  2  5  1 -1</clus>
</clustering>
</event>
<event>
 9    1  0.6345107E-005  0.1042558E+03  0.7546771E-02  0.1275777E+00
          3   -1    0    0  502    0 -0.00000000000E+00  0.00000000000E+00  0.18504205736E+03  0.18504205736E+03  0.00000000000E+00 0. -1.
         21   -1    0    0  501  502  0.00000000000E+00 -0.00000000000E+00 -0.23626068156E+03  0.23626068156E+03  0.00000000000E+00 0. -1.
         23    2    1    2    0    0 -0.25221742366E+02 -0.46055151518E+02  0.10794566556E+03  0.14997945185E+03  0.89913046860E+02 0.  0.
        -24    2    1    2    0    0  0.45256459684E+02  0.34092613306E+02  0.11514815143E+02  0.99056490876E+02  0.80430989000E+02 0.  0.
         11    1    4    4    0    0  0.30888870982E+02  0.16879423003E+01  0.42096441700E+02  0.52240615459E+02  0.00000000000E+00 0. -1.
        -12    1    4    4    0    0  0.14367588703E+02  0.32404671006E+02 -0.30581626557E+02  0.46815875417E+02  0.00000000000E+00 0.  1.
        -13    1    3    3    0    0  0.30634452977E+02 -0.10471345332E+02  0.60139409376E+02  0.68299834131E+02  0.00000000000E+00 0. -1.
         13    1    3    3    0    0 -0.55856195343E+02 -0.35583806185E+02  0.47806256181E+02  0.81679617720E+02  0.00000000000E+00 0.  1.
          4    1    1    2  501    0 -0.20034717318E+02  0.11962538211E+02 -0.17067910490E+03  0.17226679619E+03  0.00000000000E+00 0. -1.
<scales pt_clust_5="13000.00000" pt_clust_6="13000.00000" pt_clust_7="13000.00000" pt_clust_8="13000.00000" pt_clust_9="23.33436"></scales>
<clustering>
<clus scale="   23.334">  2  9  1 -1</clus>
<clus scale="   80.431">  5  6 -1 -1</clus>
<clus scale="   89.913">  7  8 -1 -1</clus>
<clus scale="   96.198">  2  5  1 -1</clus>
<clus scale="   23.334">  2  5  1 -1</clus>
</clustering>
</event>
<event>
 9    1  0.6345107E-005  0.2319657E+03  0.7546771E-02  0.1126186E+00
         21   -1    0    0  501  502  0.00000000000E+00  0.00000000000E+00  0.67440634396E+03  0.67440634396E+03  0.00000000000E+00 0.  1.
          1   -1    0    0  502    0 -0.00000000000E+00 -0.00000000000E+00 -0.16349428152E+03  0.16349428152E+03  0.00000000000E+00 0. -1.
         23    2    1    2    0    0  0.13431200202E+03 -0.15853567718E+03 -0.20793501153E+02  0.22874766932E+03  0.93380146195E+02 0.  0.
        -24    2    1    2    0    0 -0.15668069346E+03  0.16784715166E+03  0.35140016615E+03  0.42722687705E+03  0.79493532278E+02 0.  0.
         13    1    4    4    0    0 -0.11964442573E+03  0.13886523861E+03  0.32543910325E+03  0.37350897316E+03  0.00000000000E+00 0. -1.
        -14    1    4    4    0    0 -0.37036267727E+02  0.28981913052E+02  0.25961062900E+02  0.53717903888E+02  0.00000000000E+00 0.  1.
        -13    1    3    3    0    0  0.14390734398E+03 -0.11786918836E+03 -0.17044925768E+02  0.18679667746E+03  0.00000000000E+00 0.  1.
         13    1    3    3    0    0 -0.95953419623E+01 -0.40666488821E+02 -0.37485753849E+01  0.41950991858E+02  0.00000000000E+00 0. -1.
          2    1    1    2  501    0  0.22368691441E+02 -0.93114744856E+01  0.18030539745E+03  0.18192607912E+03  0.00000000000E+00 0. -1.
<scales pt_clust_5="13000.00000" pt_clust_6="13000.00000" pt_clust_7="13000.00000" pt_clust_8="13000.00000" pt_clust_9="24.22936"></scales>
<clustering>
<clus scale="   24.229">  1  9  2 -1</clus>
<clus scale="   79.494">  5  6 -1 -1</clus>
<clus scale="   93.380">  7  8 -1 -1</clus>
<clus scale="  226.732">  1  5  2 -1</clus>
<clus scale="   24.229">  1  5  2 -1</clus>
</clustering>
</event>
<event>
 9    1  0.6345107E-005  0.1060710E+03  0.7546771E-02  0.1271415E+00
         -4   -1    0    0    0  501 -0.00000000000E+00  0.00000000000E+00  0.38113313848E+03  0.38113313848E+03  0.00000000000E+00 0.  1.
         21   -1    0    0  501  502  0.00000000000E+00 -0.00000000000E+00 -0.22567072223E+03  0.22567072223E+03  0.00000000000E+00 0.  1.
         23    2    1    2    0    0 -0.77377360601E+01 -0.62534367047E+02  0.21472343317E+03  0.24075961283E+03  0.88817896830E+02 0.  0.
        -24    2    1    2    0    0 -0.22604769661E+02 -0.16833780336E+02 -0.19102426370E+03  0.20925928789E+03  0.80652516863E+02 0.  0.
         11    1    4    4    0    0 -0.19009052798E+02  0.16274699445E+02 -0.13101210732E+02  0.28246267947E+02  0.00000000000E+00 0. -1.
        -12    1    4    4    0    0 -0.35957168633E+01 -0.33108479781E+02 -0.17792305297E+03  0.18101301995E+03  0.00000000000E+00 0.  1.
        -13    1    3    3    0    0 -0.44234837170E+02 -0.55700959428E+02  0.15305374903E+03  0.16877431023E+03  0.00000000000E+00 0.  1.
         13    1    3    3    0    0  0.36497101110E+02 -0.68334076188E+01  0.61669684140E+02  0.71985302604E+02  0.00000000000E+00 0. -1.
         -3    1    1    2    0  502  0.30342505722E+02  0.79368147383E+02  0.13176324678E+03  0.15678495998E+03  0.00000000000E+00 0.  1.
<scales pt_clust_5="13000.00000" pt_clust_6="13000.00000" pt_clust_7="13000.00000" pt_clust_8="13000.00000" pt_clust_9="84.97045"></scales>
<clustering>
<clus scale="   80.653">  5  6 -1 -1</clus>
<clus scale="   84.970">  2  9  1 -1</clus>
<clus scale="   88.818">  7  8 -1 -1</clus>
<clus scale="   99.334">  2  5  1 -1</clus>
<clus scale="   84.970">  2  5  1 -1</clus>
</clustering>
</event>
<event>
 9    1  0.6345107E-005  0.1290509E+03  0.7546771E-02  0.1244190E+00
         21   -1    0    0  501  502  0.00000000000E+00  0.00000000000E+00  0.15653454418E+03  0.15653454418E+03  0.00000000000E+00 0. -1.
          1   -1    0    0  502    0 -0.00000000000E+00 -0.00000000000E+00 -0.24499016658E+03  0.24499016658E+03  0.00000000000E+00 0. -1.
        -24    2    1    2    0    0  0.52783443201E+02 -0.24373054236E+02  0.19554839105E+02  0.96379889828E+02  0.74340794870E+02 0.  0.
         23    2    1    2    0    0  0.41503743521E+02  0.33027517231E+02 -0.16301813077E+03  0.19564223197E+03  0.94274038565E+02 0.  0.
         13    1    3    3    0    0  0.12582117524E+02 -0.45860918504E+02  0.17750899235E+02  0.50760495969E+02  0.00000000000E+00 0. -1.
        -14    1    3    3    0    0  0.40201325677E+02  0.21487864268E+02  0.18039398701E+01  0.45619393859E+02  0.00000000000E+00 0.  1.
        -13    1    4    4    0    0 -0.35172494578E+01  0.37215160181E+02 -0.14000092608E+03  0.14490548124E+03  0.00000000000E+00 0. -1.
         13    1    4    4    0    0  0.45020992978E+02 -0.41876429502E+01 -0.23017204697E+02  0.50736750727E+02  0.00000000000E+00 0.  1.
          2    1    1    2  501    0 -0.94287186721E+02 -0.86544629956E+01  0.55007669269E+02  0.10950258896E+03  0.00000000000E+00 0. -1.
<scales pt_clust_5="13000.00000" pt_clust_6="13000.00000" pt_clust_7="13000.00000" pt_clust_8="13000.00000" pt_clust_9="88.12803"></scales>
<clustering>
<clus scale="   74.341">  5  6 -1 -1</clus>
<clus scale="   94.274">  7  8 -1 -1</clus>
<clus scale="   94.375">  2  5  1 -1</clus>
<clus scale="   88.128">  1  9  2 -1</clus>
<clus scale="   88.128">  1  5  2 -1</clus>
</clustering>
</event>
<event>
 9    1  0.6345107E-005  0.3432885E+03  0.7546771E-02  0.1117014E+00
         21   -1    0    0  501  502  0.00000000000E+00  0.00000000000E+00  0.79437342489E+03  0.79437342489E+03  0.00000000000E+00 0. -1.
          1   -1    0    0  502    0 -0.00000000000E+00 -0.00000000000E+00 -0.25948618921E+03  0.25948618921E+03  0.00000000000E+00 0. -1.
        -24    2    1    2    0    0  0.97031038951E+01 -0.31645043460E+02  0.13818254199E+02  0.89010079288E+02  0.81463433913E+02 0.  0.
         23    2    1    2    0    0  0.91299684319E+02 -0.29119918752E+03 -0.28410817990E+02  0.31959143860E+03  0.90547854062E+02 0.  0.
         13    1    3    3    0    0 -0.31362923269E+02  0.52291632769E+01 -0.11767475591E+01  0.31817634094E+02  0.00000000000E+00 0. -1.
        -14    1    3    3    0    0  0.41066027164E+02 -0.36874206737E+02  0.14995001758E+02  0.57192445194E+02  0.00000000000E+00 0.  1.
        -11    1    4    4    0    0  0.23079178158E+02 -0.18576126512E+03 -0.46062463678E+02  0.19277356313E+03  0.00000000000E+00 0. -1.
         11    1    4    4    0    0  0.68220506161E+02 -0.10543792240E+03  0.17651645687E+02  0.12681787546E+03  0.00000000000E+00 0.  1.
          2    1    1    2  501    0 -0.10100278821E+03  0.32284423098E+03  0.54947979947E+03  0.64525809621E+03  0.00000000000E+00 0. -1.
<scales pt_clust_5="13000.00000" pt_clust_6="13000.00000" pt_clust_7="13000.00000" pt_clust_8="13000.00000" pt_clust_9="331.13150"></scales>
<clustering>
<clus scale="   81.463">  5  6 -1 -1</clus>
<clus scale="   87.931">  2  5  1 -1</clus>
<clus scale="   90.548">  7  8 -1 -1</clus>
<clus scale="  331.132">  1  9  2 -1</clus>
<clus scale="  331.132">  1  5  2 -1</clus>
</clustering>
</event>
<event>
 9    1  0.6345107E-005  0.9423329E+02  0.7546771E-02  0.1297815E+00
          1   -1    0    0  502    0 -0.00000000000E+00  0.00000000000E+00  0.27392591079E+03  0.27392591079E+03  0.00000000000E+00 0. -1.
         21   -1    0    0  501  502  0.00000000000E+00 -0.00000000000E+00 -0.33575272727E+03  0.33575272727E+03  0.00000000000E+00 0. -1.
         23    2    1    2    0    0  0.22490021636E+02  0.10211442287E+01  0.21320211808E+03  0.23266256272E+03  0.90387394753E+02 0.  0.
        -24    2    1    2    0    0 -0.45450033233E+02  0.28699863926E+02  0.15543193462E+01  0.97894602138E+02  0.81801891842E+02 0.  0.
         11    1    4    4    0    0 -0.60055952903E+02  0.40196525593E+02  0.16402015062E+02  0.74104684379E+02  0.00000000000E+00 0. -1.
        -12    1    4    4    0    0  0.14605919670E+02 -0.11496661667E+02 -0.14847695716E+02  0.23789917759E+02  0.00000000000E+00 0.  1.
        -13    1    3    3    0    0  0.53565366574E+01 -0.41525828188E+02  0.63253688366E+02  0.75855889578E+02  0.00000000000E+00 0.  1.
         13    1    3    3    0    0  0.17133484979E+02  0.42546972416E+02  0.14994842971E+03  0.15680667314E+03  0.00000000000E+00 0. -1.
          2    1    1    2  501    0  0.22960011597E+02 -0.29721008154E+02 -0.27658325391E+03  0.27912147320E+03  0.00000000000E+00 0. -1.
<scales pt_clust_5="13000.00000" pt_clust_6="13000.00000" pt_clust_7="13000.00000" pt_clust_8="13000.00000" pt_clust_9="37.55663"></scales>
<clustering>
<clus scale="   37.557">  2  9  1 -1</clus>
<clus scale="   81.802">  5  6 -1 -1</clus>
<clus scale="   86.032">  2  5  1 -1</clus>
<clus scale="   90.387">  7  8 -1 -1</clus>
<clus scale="   37.557">  2  5  1 -1</clus>
</clustering>
</event>
<event>
 9    1  0.6345107E-005  0.1002598E+03  0.7546771E-02  0.1288441E+00
          3   -1    0    0  502    0 -0.00000000000E+00  0.00000000000E+00  0.25526186181E+03  0.25526186181E+03  0.00000000000E+00 0. -1.
         21   -1    0    0  501  502  0.00000000000E+00 -0.00000000000E+00 -0.79670214615E+02  0.79670214615E+02  0.00000000000E+00 0.  1.
         23    2    1    2    0    0 -0.25653594198E+02 -0.85819193375E+01  0.20009347254E+03  0.22400247036E+03  0.96994601611E+02 0.  0.
        -24    2    1    2    0    0  0.22271991178E+02 -0.13180003740E+02 -0.13399613188E+02  0.86266361145E+02  0.81194712524E+02 0.  0.
         11    1    4    4    0    0  0.52426107933E+02 -0.29339563948E+00 -0.81788657275E+01  0.53061065939E+02  0.00000000000E+00 0. -1.
        -12    1    4    4    0    0 -0.30154116755E+02 -0.12886608101E+02 -0.52207474608E+01  0.33205295205E+02  0.00000000000E+00 0.  1.
        -11    1    3    3    0    0 -0.27594698877E+02  0.30409739466E+02  0.33792014619E+02  0.53180070633E+02  0.00000000000E+00 0. -1.
         11    1    3    3    0    0  0.19411046796E+01 -0.38991658803E+02  0.16630145792E+03  0.17082239973E+03  0.00000000000E+00 0.  1.
          4    1    1    2  501    0  0.33816030194E+01  0.21761923078E+02 -0.11102212156E+02  0.24663244916E+02  0.00000000000E+00 0. -1.
<scales pt_clust_5="13000.00000" pt_clust_6="13000.00000" pt_clust_7="13000.00000" pt_clust_8="13000.00000" pt_clust_9="22.02309"></scales>
<clustering>
<clus scale="   22.023">  2  9  1 -1</clus>
<clus scale="   81.195">  5  6 -1 -1</clus>
<clus scale="   85.069">  2  5  1 -1</clus>
<clus scale="   96.995">  7  8 -1 -1</clus>
<clus scale="   22.023">  2  5  1 -1</clus>
</clustering>
</event>
<event>
 9    1  0.6345107E-005  0.1888158E+03  0.7546771E-02  0.1160002E+00
         21   -1    0    0  501  502  0.00000000000E+00  0.00000000000E+00  0.30815847617E+03  0.30815847617E+03  0.00000000000E+00 0.  1.
          1   -1    0    0  502    0 -0.00000000000E+00 -0.00000000000E+00 -0.16740804515E+03  0.16740804515E+03  0.00000000000E+00 0. -1.
         23    2    1    2    0    0  0.16375205532E+03  0.77093561559E+00 -0.39848202899E+02  0.19199514304E+03  0.91972418217E+02 0.  0.
        -24    2    1    2    0    0 -0.15852474447E+03 -0.30837958410E+02  0.15106734448E+03  0.24110435938E+03  0.96067139305E+02 0.  0.
         13    1    4    4    0    0 -0.98140062823E+02 -0.65444257659E+02  0.87811182156E+02  0.14705518183E+03  0.00000000000E+00 0. -1.
        -14    1    4    4    0    0 -0.60384681643E+02  0.34606299249E+02  0.63256162326E+02  0.94049177546E+02  0.00000000000E+00 0.  1.
        -11    1    3    3    0    0  0.15818837315E+03  0.23692315548E+02 -0.20057803349E+02  0.16120546731E+03  0.00000000000E+00 0. -1.
         11    1    3    3    0    0  0.55636821762E+01 -0.22921379933E+02 -0.19790399550E+02  0.30789675733E+02  0.00000000000E+00 0.  1.
          2    1    1    2  501    0 -0.52273108561E+01  0.30067022795E+02  0.29531289439E+02  0.42467018902E+02  0.00000000000E+00 0. -1.
<scales pt_clust_5="13000.00000" pt_clust_6="13000.00000" pt_clust_7="13000.00000" pt_clust_8="13000.00000" pt_clust_9="30.51804"></scales>
<clustering>
<clus scale="   30.518">  1  9  2 -1</clus>
<clus scale="   91.972">  7  8 -1 -1</clus>
<clus scale="   96.067">  5  6 -1 -1</clus>
<clus scale="  186.766">  2  7  1 -1</clus>
<clus scale="   30.518">  1  5  2 -1</clus>
</clustering>
</event>
<event>
 9    1  0.6345107E-005  0.9088213E+02  0.7546771E-02  0.1307782E+00
         21   -1    0    0  501  502  0.00000000000E+00  0.00000000000E+00  0.14038785394E+03  0.14038785394E+03  0.00000000000E+00 0.  1.
          1   -1    0    0  502    0 -0.00000000000E+00 -0.00000000000E+00 -0.23684514460E+03  0.23684514460E+03  0.00000000000E+00 0. -1.
        -24    2    1    2    0    0  0.30946436510E+01 -0.30681400393E+01 -0.15291968765E+03  0.17252019358E+03  0.79748329244E+02 0.  0.
         23    2    1    2    0    0  0.34427690739E+02 -0.66277648330E+02  0.39973683227E+02  0.12416069994E+03  0.90774398926E+02 0.  0.
         13    1    3    3    0    0 -0.18042291316E+02 -0.33873654695E+02 -0.10475790951E+03  0.11156687844E+03  0.00000000000E+00 0. -1.
        -14    1    3    3    0    0  0.21136934967E+02  0.30805514656E+02 -0.48161778140E+02  0.60953315140E+02  0.00000000000E+00 0.  1.
        -11    1    4    4    0    0 -0.10890024615E+02 -0.23216455415E+02  0.54278471035E+02  0.60031232339E+02  0.00000000000E+00 0.  1.
         11    1    4    4    0    0  0.45317715355E+02 -0.43061192915E+02 -0.14304787808E+02  0.64129467599E+02  0.00000000000E+00 0. -1.
          2    1    1    2  501    0 -0.37522334390E+02  0.69345788370E+02  0.16488713764E+02  0.80552105027E+02  0.00000000000E+00 0. -1.
<scales pt_clust_5="13000.00000" pt_clust_6="13000.00000" pt_clust_7="13000.00000" pt_clust_8="13000.00000" pt_clust_9="78.84646"></scales>
<clustering>
<clus scale="   78.846">  1  9  2 -1</clus>
<clus scale="   79.748">  5  6 -1 -1</clus>
<clus scale="   79.871">  2  5  1 -1</clus>
<clus scale="   90.774">  7  8 -1 -1</clus>
<clus scale="   78.846">  1  5  2 -1</clus>
</clustering>
</event>
<event>
 9    1  0.6345107E-005  0.1406093E+03  0.7546771E-02  0.1230286E+00
         21   -1    0    0  501  502  0.00000000000E+00  0.00000000000E+00  0.13392923405E+03  0.13392923405E+03  0.00000000000E+00 0. -1.
          1   -1    0    0  502    0 -0.00000000000E+00 -0.00000000000E+00 -0.26773513164E+03  0.26773513164E+03  0.00000000000E+00 0. -1.
        -24    2    1    2    0    0 -0.64172321379E+00  0.54281573050E+02  0.92118793588E+01  0.97332841071E+02  0.80261586380E+02 0.  0.
         23    2    1    2    0    0 -0.39681714370E+02  0.59180714680E+02 -0.14266149779E+03  0.18391642054E+03  0.91629424022E+02 0.  0.
         11    1    3    3    0    0  0.11931042541E+02  0.57175632931E+02  0.35288017392E+02  0.68239628872E+02  0.00000000000E+00 0. -1.
        -12    1    3    3    0    0 -0.12572765754E+02 -0.28940598809E+01 -0.26076138034E+02  0.29093212199E+02  0.00000000000E+00 0.  1.
        -11    1    4    4    0    0 -0.31112611256E+02  0.88129453593E+01  0.48197445857E-01  0.32336742385E+02  0.00000000000E+00 0.  1.
         11    1    4    4    0    0 -0.85691031133E+01  0.50367769321E+02 -0.14270969524E+03  0.15157967816E+03  0.00000000000E+00 0. -1.
          2    1    1    2  501    0  0.40323437583E+02 -0.11346228773E+03 -0.35627915044E+00  0.12041510408E+03  0.00000000000E+00 0. -1.
<scales pt_clust_5="13000.00000" pt_clust_6="13000.00000" pt_clust_7="13000.00000" pt_clust_8="13000.00000" pt_clust_9="106.65376"></scales>
<clustering>
<clus scale="   80.262">  5  6 -1 -1</clus>
<clus scale="   91.629">  7  8 -1 -1</clus>
<clus scale="   96.896">  2  5  1 -1</clus>
<clus scale="  106.654">  1  9  2 -1</clus>
<clus scale="  106.654">  1  5  2 -1</clus>
</clustering>
</event>
<event>
 9    1  0.6345107E-005  0.2752880E+03  0.7546771E-02  0.1098897E+00
         21   -1    0    0  501  502  0.00000000000E+00  0.00000000000E+00  0.42263072928E+03  0.42263072928E+03  0.00000000000E+00 0. -1.
          1   -1    0    0  502    0 -0.00000000000E+00 -0.00000000000E+00 -0.29155067238E+03  0.29155067238E+03  0.00000000000E+00 0. -1.
        -24    2    1    2    0    0  0.18637137511E+03  0.19174171259E+03 -0.77750252525E+02  0.28947193901E+03  0.79055220574E+02 0.  0.
         23    2    1    2    0    0 -0.97943564670E+02 -0.23238080493E+03  0.17922919532E+03  0.32298808120E+03  0.92759990224E+02 0.  0.
         11    1    3    3    0    0  0.14359304623E+03  0.14911720124E+03 -0.93368469854E+02  0.22709595724E+03  0.00000000000E+00 0. -1.
        -12    1    3    3    0    0  0.42778328876E+02  0.42624511350E+02  0.15618217329E+02  0.62375981770E+02  0.00000000000E+00 0.  1.
        -11    1    4    4    0    0 -0.23553820409E+02  0.10012591873E+01  0.19094864915E+02  0.30338075779E+02  0.00000000000E+00 0.  1.
         11    1    4    4    0    0 -0.74389744260E+02 -0.23338206412E+03  0.16013433040E+03  0.29265000542E+03  0.00000000000E+00 0. -1.
          2    1    1    2  501    0 -0.88427810440E+02  0.40639092335E+02  0.29601114110E+02  0.10172138144E+03  0.00000000000E+00 0. -1.
<scales pt_clust_5="13000.00000" pt_clust_6="13000.00000" pt_clust_7="13000.00000" pt_clust_8="13000.00000" pt_clust_9="97.31913"></scales>
<clustering>
<clus scale="   79.055">  5  6 -1 -1</clus>
<clus scale="   92.760">  7  8 -1 -1</clus>
<clus scale="   97.319">  1  9  2 -1</clus>
<clus scale="  270.977">  2  5  1 -1</clus>
<clus scale="   97.319">  1  5  2 -1</clus>
</clustering>
</event>
<event>
 9    1  0.6345107E-005  0.1495512E+03  0.7546771E-02  0.1223780E+00
          1   -1    0    0  502    0 -0.00000000000E+00  0.00000000000E+00  0.34755858128E+03  0.34755858128E+03  0.00000000000E+00 0. -1.
         21   -1    0    0  501  502  0.00000000000E+00 -0.00000000000E+00 -0.20225598350E+03  0.20225598350E+03  0.00000000000E+00 0. -1.
         23    2    1    2    0    0 -0.85641671951E+00 -0.10589390652E+02  0.13757241463E+02  0.93194072649E+02  0.91558750757E+02 0.  0.
        -24    2    1    2    0    0 -0.10201811441E+03 -0.64808109259E+02  0.24597213375E+03  0.28526869161E+03  0.79171643535E+02 0.  0.
         11    1    4    4    0    0 -0.64981995373E+02 -0.60970779766E+02  0.22618236413E+03  0.24310194888E+03  0.00000000000E+00 0. -1.
        -12    1    4    4    0    0 -0.37036119033E+02 -0.38373294926E+01  0.19789769619E+02  0.42166742727E+02  0.00000000000E+00 0.  1.
        -11    1    3    3    0    0 -0.35477098250E+02 -0.24074805225E+02 -0.15824589700E+02  0.45701623451E+02  0.00000000000E+00 0.  1.
         11    1    3    3    0    0  0.34620681530E+02  0.13485414573E+02  0.29581831163E+02  0.47492449198E+02  0.00000000000E+00 0. -1.
          2    1    1    2  501    0  0.10287453112E+03  0.75397499910E+02 -0.11442677743E+03  0.17135180052E+03  0.00000000000E+00 0. -1.
<scales pt_clust_5="13000.00000" pt_clust_6="13000.00000" pt_clust_7="13000.00000" pt_clust_8="13000.00000" pt_clust_9="126.87556"></scales>
<clustering>
<clus scale="   79.172">  5  6 -1 -1</clus>
<clus scale="   91.559">  7  8 -1 -1</clus>
<clus scale="   92.173">  1  7  2 -1</clus>
<clus scale="  126.876">  2  9  1 -1</clus>
<clus scale="  126.876">  2  5  1 -1</clus>
</clustering>
</event>
<event>
 9    1  0.6345107E-005  0.1413834E+03  0.7546771E-02  0.1214127E+00
         21   -1    0    0  501  502  0.00000000000E+00  0.00000000000E+00  0.41472243644E+03  0.41472243644E+03  0.00000000000E+00 0. -1.
          1   -1    0    0  502    0 -0.00000000000E+00 -0.00000000000E+00 -0.12920408435E+03  0.12920408435E+03  0.00000000000E+00 0. -1.
         23    2    1    2    0    0 -0.98128293866E+02  0.47848461925E+02 -0.69900610900E+02  0.15943678133E+03  0.92818933790E+02 0.  0.
        -24    2    1    2    0    0  0.77875018100E+02 -0.47965934801E+02  0.26283315318E+03  0.28971452563E+03  0.80548063926E+02 0.  0.
         11    1    4    4    0    0  0.31639398525E+02  0.19615605758E+02  0.55816481253E+02  0.67091751414E+02  0.00000000000E+00 0. -1.
        -12    1    4    4    0    0  0.46235619574E+02 -0.67581540559E+02  0.20701667193E+03  0.22262277421E+03  0.00000000000E+00 0.  1.
        -13    1    3    3    0    0 -0.75959267341E+02 -0.13588840615E-01 -0.74619092536E+02  0.10647919727E+03  0.00000000000E+00 0. -1.
         13    1    3    3    0    0 -0.22169026525E+02  0.47862050765E+02  0.47184816359E+01  0.52957584060E+02  0.00000000000E+00 0.  1.
          2    1    1    2  501    0  0.20253275766E+02  0.11747287644E+00  0.92585809807E+02  0.94775213831E+02  0.00000000000E+00 0. -1.
<scales pt_clust_5="13000.00000" pt_clust_6="13000.00000" pt_clust_7="13000.00000" pt_clust_8="13000.00000" pt_clust_9="20.25362"></scales>
<clustering>
<clus scale="   20.254">  1  9  2 -1</clus>
<clus scale="   80.548">  5  6 -1 -1</clus>
<clus scale="   92.819">  7  8 -1 -1</clus>
<clus scale="  133.648">  1  5  2 -1</clus>
<clus scale="   20.254">  1  5  2 -1</clus>
</clustering>
</event>
<event>
 9    1  0.6345107E-005  0.9977144E+02  0.7546771E-02  0.1288529E+00
          3   -1    0    0  502    0 -0.00000000000E+00  0.00000000000E+00  0.12525525781E+03  0.12525525781E+03  0.00000000000E+00 0. -1.
         21   -1    0    0  501  502  0.00000000000E+00 -0.00000000000E+00 -0.22542032650E+03  0.22542032650E+03  0.00000000000E+00 0. -1.
         23    2    1    2    0    0  0.66867958910E+01 -0.17165156623E+02  0.78632492290E+02  0.12634777227E+03  0.97166531645E+02 0.  0.
        -24    2    1    2    0    0 -0.13540872855E+02  0.37774539512E+02 -0.76951896852E+02  0.12019201448E+03  0.83151998426E+02 0.  0.
         13    1    4    4    0    0 -0.28368825576E+02  0.58302309139E+02 -0.66255877728E+02  0.92702701411E+02  0.00000000000E+00 0. -1.
        -14    1    4    4    0    0  0.14827952721E+02 -0.20527769627E+02 -0.10696019124E+02  0.27489313066E+02  0.00000000000E+00 0.  1.
        -11    1    3    3    0    0  0.31698618873E+02 -0.37681030237E+02  0.96792043949E+01  0.50183159285E+02  0.00000000000E+00 0.  1.
         11    1    3    3    0    0 -0.25011822982E+02  0.20515873614E+02  0.68953287895E+02  0.76164612981E+02  0.00000000000E+00 0. -1.
          4    1    1    2  501    0  0.68540769640E+01 -0.20609382889E+02 -0.10184566413E+03  0.10413579757E+03  0.00000000000E+00 0. -1.
<scales pt_clust_5="13000.00000" pt_clust_6="13000.00000" pt_clust_7="13000.00000" pt_clust_8="13000.00000" pt_clust_9="21.71923"></scales>
<clustering>
<clus scale="   21.719">  2  9  1 -1</clus>
<clus scale="   83.152">  5  6 -1 -1</clus>
<clus scale="   86.182">  2  5  1 -1</clus>
<clus scale="   97.167">  7  8 -1 -1</clus>
<clus scale="   21.719">  2  5  1 -1</clus>
</clustering>
</event>
<event>
 9    1  0.6345107E-005  0.1511232E+03  0.7546771E-02  0.1201297E+00
          3   -1    0    0  502    0 -0.00000000000E+00  0.00000000000E+00  0.12182953311E+03  0.12182953311E+03  0.00000000000E+00 0. -1.
         21   -1    0    0  501  502  0.00000000000E+00 -0.00000000000E+00 -0.30499844743E+03  0.30499844743E+03  0.00000000000E+00 0.  1.
        -24    2    1    2    0    0 -0.12393246920E+03 -0.51148801708E+02 -0.47535391131E+02  0.16493943219E+03  0.83486202704E+02 0.  0.
         23    2    1    2    0    0  0.71555783496E+02  0.57397367275E+02 -0.15679368024E+03  0.20505445626E+03  0.95122993796E+02 0.  0.
         11    1    3    3    0    0 -0.49660514595E+02  0.21136023892E+02 -0.21359465908E+02  0.58044164218E+02  0.00000000000E+00 0. -1.
        -12    1    3    3    0    0 -0.74271954608E+02 -0.72284825601E+02 -0.26175925223E+02  0.10689526797E+03  0.00000000000E+00 0.  1.
        -11    1    4    4    0    0  0.51707606671E+02 -0.79847626505E+01 -0.11124912703E+03  0.12293820109E+03  0.00000000000E+00 0.  1.
         11    1    4    4    0    0  0.19848176825E+02  0.65382129925E+02 -0.45544553211E+02  0.82116255175E+02  0.00000000000E+00 0. -1.
          4    1    1    2  501    0  0.52376685707E+02 -0.62485655661E+01  0.21160157051E+02  0.56834092090E+02  0.00000000000E+00 0. -1.
<scales pt_clust_5="13000.00000" pt_clust_6="13000.00000" pt_clust_7="13000.00000" pt_clust_8="13000.00000" pt_clust_9="52.74812"></scales>
<clustering>
<clus scale="   52.748">  2  9  1 -1</clus>
<clus scale="   83.486">  5  6 -1 -1</clus>
<clus scale="   95.123">  7  8 -1 -1</clus>
<clus scale="  144.083">  1  5  2 -1</clus>
<clus scale="   52.748">  2  5  1 -1</clus>
</clustering>
</event>
<event>
 9    1  0.6345107E-005  0.1666010E+03  0.7546771E-02  0.1182914E+00
         21   -1    0    0  501  502  0.00000000000E+00  0.00000000000E+00  0.21396218089E+03  0.21396218089E+03  0.00000000000E+00 0.  1.
          1   -1    0    0  502    0 -0.00000000000E+00 -0.00000000000E+00 -0.51830061507E+03  0.51830061507E+03  0.00000000000E+00 0. -1.
         23    2    1    2    0    0  0.99646105476E+01 -0.13732804589E+03 -0.25805636007E+03  0.30625181331E+03  0.90767849653E+02 0.  0.
        -24    2    1    2    0    0  0.84365090464E+02  0.15711012357E+03  0.12310066794E+03  0.23112656460E+03  0.80403078296E+02 0.  0.
         11    1    4    4    0    0  0.19066856621E+02  0.75049448697E+02  0.94993111600E+02  0.12255470624E+03  0.00000000000E+00 0. -1.
        -12    1    4    4    0    0  0.65298233843E+02  0.82060674875E+02  0.28107556342E+02  0.10857185836E+03  0.00000000000E+00 0.  1.
        -11    1    3    3    0    0  0.35476199307E+02 -0.58783382230E+02 -0.17986565054E+03  0.19252454126E+03  0.00000000000E+00 0.  1.
         11    1    3    3    0    0 -0.25511588759E+02 -0.78544663657E+02 -0.78190709529E+02  0.11372727204E+03  0.00000000000E+00 0. -1.
          2    1    1    2  501    0 -0.94329701011E+02 -0.19782077685E+02 -0.16938274206E+03  0.19488441805E+03  0.00000000000E+00 0. -1.
<scales pt_clust_5="13000.00000" pt_clust_6="13000.00000" pt_clust_7="13000.00000" pt_clust_8="13000.00000" pt_clust_9="96.38170"></scales>
<clustering>
<clus scale="   80.403">  5  6 -1 -1</clus>
<clus scale="   90.768">  7  8 -1 -1</clus>
<clus scale="   96.382">  1  9  2 -1</clus>
<clus scale="  161.189">  1  5  2 -1</clus>
<clus scale="   96.382">  1  5  2 -1</clus>
</clustering>
</event>
<event>
 9    1  0.6345107E-005  0.1918724E+03  0.7546771E-02  0.1157974E+00
          1   -1    0    0  502    0 -0.00000000000E+00  0.00000000000E+00  0.31274302611E+03  0.31274302611E+03  0.00000000000E+00 0. -1.
         21   -1    0    0  501  502  0.00000000000E+00 -0.00000000000E+00 -0.90672900810E+03  0.90672900810E+03  0.00000000000E+00 0. -1.
         23    2    1    2    0    0 -0.37675122631E+02  0.21898297908E+03  0.19527789539E+03  0.30984664928E+03  0.92187470126E+02 0.  0.
        -24    2    1    2    0    0 -0.62685541657E+01 -0.99594490416E+02 -0.19934493717E+02  0.12984826387E+03  0.80652528158E+02 0.  0.
         11    1    4    4    0    0 -0.25095458661E+02 -0.51042674825E+01  0.12087562975E+02  0.28318629392E+02  0.00000000000E+00 0. -1.
        -12    1    4    4    0    0  0.18826904496E+02 -0.94490222933E+02 -0.32022056692E+02  0.10152963448E+03  0.00000000000E+00 0.  1.
        -13    1    3    3    0    0 -0.29562507514E+02  0.14383038966E+03  0.18074496636E+03  0.23287306780E+03  0.00000000000E+00 0. -1.
         13    1    3    3    0    0 -0.81126151170E+01  0.75152589415E+02  0.14532929035E+02  0.76973581482E+02  0.00000000000E+00 0.  1.
          2    1    1    2  501    0  0.43943676797E+02 -0.11938848866E+03 -0.76932938367E+03  0.77977712106E+03  0.00000000000E+00 0. -1.
<scales pt_clust_5="13000.00000" pt_clust_6="13000.00000" pt_clust_7="13000.00000" pt_clust_8="13000.00000" pt_clust_9="127.21894"></scales>
<clustering>
<clus scale="   80.653">  5  6 -1 -1</clus>
<clus scale="   92.187">  7  8 -1 -1</clus>
<clus scale="  127.219">  2  9  1 -1</clus>
<clus scale="  186.605">  2  5  1 -1</clus>
<clus scale="  127.219">  2  5  1 -1</clus>
</clustering>
</event>
<event>
 9    1  0.6345107E-005  0.2123362E+03  0.7546771E-02  0.1140623E+00
          1   -1    0    0  502    0 -0.00000000000E+00  0.00000000000E+00  0.90294807607E+03  0.90294807607E+03  0.00000000000E+00 0. -1.
         21   -1    0    0  501  502  0.00000000000E+00 -0.00000000000E+00 -0.96522473485E+02  0.96522473485E+02  0.00000000000E+00 0. -1.
         23    2    1    2    0    0  0.33582315859E+01 -0.19362508986E+03  0.31520800638E+03  0.38108468812E+03  0.91474035074E+02 0.  0.
        -24    2    1    2    0    0  0.48412303645E+02  0.18625453399E+03  0.11425156435E+03  0.23781011000E+03  0.80409737500E+02 0.  0.
         13    1    4    4    0    0  0.58151835506E+02  0.16522897984E+03  0.12190368772E+03  0.21340749947E+03  0.00000000000E+00 0. -1.
        -14    1    4    4    0    0 -0.97395318608E+01  0.21025554150E+02 -0.76521233738E+01  0.24402610523E+02  0.00000000000E+00 0.  1.
        -11    1    3    3    0    0 -0.18696136613E+02 -0.52228648063E+02  0.32689828172E+02  0.64389456192E+02  0.00000000000E+00 0.  1.
         11    1    3    3    0    0  0.22054368199E+02 -0.14139644179E+03  0.28251817821E+03  0.31669523193E+03  0.00000000000E+00 0. -1.
          2    1    1    2  501    0 -0.51770535231E+02  0.73705558702E+01  0.37696603185E+03  0.38057575143E+03  0.00000000000E+00 0. -1.
<scales pt_clust_5="13000.00000" pt_clust_6="13000.00000" pt_clust_7="13000.00000" pt_clust_8="13000.00000" pt_clust_9="52.29260"></scales>
<clustering>
<clus scale="   52.293">  2  9  1 -1</clus>
<clus scale="   80.410">  5  6 -1 -1</clus>
<clus scale="   91.474">  7  8 -1 -1</clus>
<clus scale="  207.810">  2  5  1 -1</clus>
<clus scale="   52.293">  2  5  1 -1</clus>
</clustering>
</event>
<event>
 9    1  0.6345107E-005  0.9475822E+02  0.7546771E-02  0.1298002E+00
         -2   -1    0    0    0  501 -0.00000000000E+00  0.00000000000E+00  0.68048794082E+02  0.68048794082E+02  0.00000000000E+00 0.  1.
         21   -1    0    0  501  502  0.00000000000E+00 -0.00000000000E+00 -0.17634377503E+03  0.17634377503E+03  0.00000000000E+00 0. -1.
        -24    2    1    2    0    0  0.14704361808E+02 -0.28862525165E+02 -0.99873416841E+01  0.86960819968E+02  0.80082292678E+02 0.  0.
         23    2    1    2    0    0 -0.17651198802E+02  0.37167800034E+01 -0.93386370800E+02  0.13164005995E+03  0.91009405338E+02 0.  0.
         11    1    3    3    0    0 -0.25661115450E+02  0.48625754318E+00 -0.23984342923E+02  0.35128022973E+02  0.00000000000E+00 0. -1.
        -12    1    3    3    0    0  0.40365477258E+02 -0.29348782708E+02  0.13997001238E+02  0.51832796996E+02  0.00000000000E+00 0.  1.
        -11    1    4    4    0    0 -0.44019918864E+02  0.31524291959E+02 -0.49295231103E+02  0.73222633453E+02  0.00000000000E+00 0. -1.
         11    1    4    4    0    0  0.26368720062E+02 -0.27807511955E+02 -0.44091139697E+02  0.58417426498E+02  0.00000000000E+00 0.  1.
         -1    1    1    2    0  502  0.29468369938E+01  0.25145745162E+02 -0.49212684611E+01  0.25791689190E+02  0.00000000000E+00 0.  1.
<scales pt_clust_5="13000.00000" pt_clust_6="13000.00000" pt_clust_7="13000.00000" pt_clust_8="13000.00000" pt_clust_9="25.31784"></scales>
<clustering>
<clus scale="   25.318">  2  9  1 -1</clus>
<clus scale="   80.082">  5  6 -1 -1</clus>
<clus scale="   84.318">  1  5  2 -1</clus>
<clus scale="   91.009">  7  8 -1 -1</clus>
<clus scale="   25.318">  2  5  1 -1</clus>
</clustering>
</event>
<event>
 9    1  0.6345107E-005  0.1790541E+03  0.7546771E-02  0.1170349E+00
         21   -1    0    0  501  502  0.00000000000E+00  0.00000000000E+00  0.43265444987E+03  0.43265444987E+03  0.00000000000E+00 0.  1.
         -4   -1    0    0    0  501 -0.00000000000E+00 -0.00000000000E+00 -0.94555112019E+02  0.94555112019E+02  0.00000000000E+00 0.  1.
        -24    2    1    2    0    0 -0.15601307250E+03 -0.40073981103E+02  0.10652584536E+03  0.20889668782E+03  0.79649656006E+02 0.  0.
         23    2    1    2    0    0  0.13827765963E+03  0.21346315708E+02  0.23838702845E+03  0.29163526936E+03  0.92985905664E+02 0.  0.
         13    1    3    3    0    0 -0.28926057001E+02 -0.43505703262E+02  0.36739476677E+02  0.63869023293E+02  0.00000000000E+00 0. -1.
        -14    1    3    3    0    0 -0.12708701550E+03  0.34317221592E+01  0.69786368687E+02  0.14502766453E+03  0.00000000000E+00 0.  1.
        -11    1    4    4    0    0  0.82660580874E+02 -0.29982520340E+02  0.94652846719E+02  0.12919320628E+03  0.00000000000E+00 0. -1.
         11    1    4    4    0    0  0.55617078756E+02  0.51328836047E+02  0.14373418173E+03  0.16244206308E+03  0.00000000000E+00 0.  1.
         -3    1    1    2    0  502  0.17735412867E+02  0.18727665395E+02 -0.68135359625E+01  0.26677604709E+02  0.00000000000E+00 0.  1.
<scales pt_clust_5="13000.00000" pt_clust_6="13000.00000" pt_clust_7="13000.00000" pt_clust_8="13000.00000" pt_clust_9="25.79285"></scales>
<clustering>
<clus scale="   25.793">  1  9  2 -1</clus>
<clus scale="   79.650">  5  6 -1 -1</clus>
<clus scale="   92.986">  7  8 -1 -1</clus>
<clus scale="  172.505">  2  5  1 -1</clus>
<clus scale="   25.793">  1  5  2 -1</clus>
</clustering>
</event>
<event>
 9    1  0.6345107E-005  0.2040611E+03  0.7546771E-02  0.1154735E+00
         21   -1    0    0  501  502  0.00000000000E+00  0.00000000000E+00  0.11065824118E+04  0.11065824118E+04  0.00000000000E+00 0.  1.
         -4   -1    0    0    0  501 -0.00000000000E+00 -0.00000000000E+00 -0.56895937699E+03  0.56895937699E+03  0.00000000000E+00 0.  1.
        -24    2    1    2    0    0 -0.75365933879E+02  0.12410231357E+03  0.93967446092E+01  0.16761551486E+03  0.83218109731E+02 0.  0.
         23    2    1    2    0    0  0.13627551331E+03  0.12063175869E+03  0.97438665555E+03  0.99541889384E+03  0.91139360099E+02 0.  0.
         11    1    3    3    0    0 -0.81002661166E+02  0.54904825975E+02  0.78561176789E+01  0.98171735323E+02  0.00000000000E+00 0. -1.
        -12    1    3    3    0    0  0.56367272863E+01  0.69197487598E+02  0.15406269303E+01  0.69443779533E+02  0.00000000000E+00 0.  1.
        -13    1    4    4    0    0  0.82579646040E+02  0.13463640040E+02  0.39727982104E+03  0.40599497996E+03  0.00000000000E+00 0. -1.
         13    1    4    4    0    0  0.53695867275E+02  0.10716811865E+03  0.57710683451E+03  0.58942391388E+03  0.00000000000E+00 0.  1.
         -3    1    1    2    0  502 -0.60909579435E+02 -0.24473407226E+03 -0.44616036538E+03  0.51250738007E+03  0.00000000000E+00 0.  1.
<scales pt_clust_5="13000.00000" pt_clust_6="13000.00000" pt_clust_7="13000.00000" pt_clust_8="13000.00000" pt_clust_9="182.57763"></scales>
<clustering>
<clus scale="   83.218">  5  6 -1 -1</clus>
<clus scale="   91.139">  7  8 -1 -1</clus>
<clus scale="  167.352">  2  5  1 -1</clus>
<clus scale="  182.578">  1  9  2 -1</clus>
<clus scale="  182.578">  1  5  2 -1</clus>
</clustering>
</event>
<event>
 9    1  0.6345107E-005  0.3023428E+03  0.7546771E-02  0.1084405E+00
          1   -1    0    0  502    0 -0.00000000000E+00  0.00000000000E+00  0.88839204790E+03  0.88839204790E+03  0.00000000000E+00 0. -1.
         21   -1    0    0  501  502  0.00000000000E+00 -0.00000000000E+00 -0.24408175704E+03  0.24408175704E+03  0.00000000000E+00 0.  1.
         23    2    1    2    0    0 -0.22400621252E+03 -0.16119737920E+03  0.52022314201E+03  0.59574444774E+03  0.90088574315E+02 0.  0.
        -24    2    1    2    0    0  0.18151676422E+03  0.30923807597E+03  0.99278062490E+02  0.38072649863E+03  0.80746577296E+02 0.  0.
         13    1    4    4    0    0  0.12635061189E+03  0.22857780412E+03  0.34402068355E+02  0.26343081059E+03  0.00000000000E+00 0. -1.
        -14    1    4    4    0    0  0.55166152333E+02  0.80660271850E+02  0.64875994135E+02  0.11729568804E+03  0.00000000000E+00 0.  1.
        -13    1    3    3    0    0 -0.90994062238E+02 -0.11889333520E+03  0.29401725104E+03  0.32994194705E+03  0.00000000000E+00 0.  1.
         13    1    3    3    0    0 -0.13301215029E+03 -0.42304044009E+02  0.22620589097E+03  0.26580250069E+03  0.00000000000E+00 0. -1.
          2    1    1    2  501    0  0.42489448304E+02 -0.14804069676E+03  0.24809086366E+02  0.15600285857E+03  0.00000000000E+00 0. -1.
<scales pt_clust_5="13000.00000" pt_clust_6="13000.00000" pt_clust_7="13000.00000" pt_clust_8="13000.00000" pt_clust_9="154.01754"></scales>
<clustering>
<clus scale="   80.747">  5  6 -1 -1</clus>
<clus scale="   90.089">  7  8 -1 -1</clus>
<clus scale="  154.018">  2  9  1 -1</clus>
<clus scale="  299.692">  2  5  1 -1</clus>
<clus scale="  154.018">  2  5  1 -1</clus>
</clustering>
</event>
<event>
 9    1  0.6345107E-005  0.1119733E+03  0.7546771E-02  0.1259889E+00
          3   -1    0    0  502    0 -0.00000000000E+00  0.00000000000E+00  0.18640979258E+03  0.18640979258E+03  0.00000000000E+00 0. -1.
         21   -1    0    0  501  502  0.00000000000E+00 -0.00000000000E+00 -0.11329303019E+03  0.11329303019E+03  0.00000000000E+00 0. -1.
        -24    2    1    2    0    0  0.25801249995E+02  0.37122367738E+02  0.27456192984E+02  0.96278346397E+02  0.80448137106E+02 0.  0.
         23    2    1    2    0    0 -0.37056836721E+02 -0.96518488088E+02  0.43620487848E+02  0.14293688031E+03  0.88539127522E+02 0.  0.
         11    1    3    3    0    0  0.40811230719E+02  0.45020199821E+02 -0.36223866431E+01  0.60872790553E+02  0.00000000000E+00 0. -1.
        -12    1    3    3    0    0 -0.15009980724E+02 -0.78978320827E+01  0.31078579627E+02  0.35405555843E+02  0.00000000000E+00 0.  1.
        -13    1    4    4    0    0 -0.59131650584E+02 -0.35723449573E+02  0.92748304487E+01  0.69704658597E+02  0.00000000000E+00 0. -1.
         13    1    4    4    0    0  0.22074813863E+02 -0.60795038515E+02  0.34345657399E+02  0.73232221715E+02  0.00000000000E+00 0.  1.
          4    1    1    2  501    0  0.11255586726E+02  0.59396120350E+02  0.20400815599E+01  0.60487596067E+02  0.00000000000E+00 0. -1.
<scales pt_clust_5="13000.00000" pt_clust_6="13000.00000" pt_clust_7="13000.00000" pt_clust_8="13000.00000" pt_clust_9="60.45318"></scales>
<clustering>
<clus scale="   60.453">  2  9  1 -1</clus>
<clus scale="   80.448">  5  6 -1 -1</clus>
<clus scale="   88.539">  7  8 -1 -1</clus>
<clus scale="  105.692">  1  5  2 -1</clus>
<clus scale="   60.453">  2  5  1 -1</clus>
</clustering>
</event>
<event>
 9    1  0.6345107E-005  0.1028457E+03  0.7546771E-02  0.1279819E+00
         21   -1    0    0  501  502  0.00000000000E+00  0.00000000000E+00  0.22808667321E+03  0.22808667321E+03  0.00000000000E+00 0.  1.
          3   -1    0    0  502    0 -0.00000000000E+00 -0.00000000000E+00 -0.68525131721E+02  0.68525131721E+02  0.00000000000E+00 0. -1.
         23    2    1    2    0    0  0.30315867961E+02  0.24247911502E+02  0.14972403158E+02  0.10154982126E+03  0.92634660249E+02 0.  0.
        -24    2    1    2    0    0 -0.51231180037E+02 -0.22815002206E+02  0.79825463082E+02  0.12698969019E+03  0.81296486540E+02 0.  0.
         11    1    4    4    0    0 -0.24324098783E+01  0.26186852558E+02  0.84911316699E+01  0.27636338067E+02  0.00000000000E+00 0. -1.
        -12    1    4    4    0    0 -0.48798770159E+02 -0.49001854764E+02  0.71334331412E+02  0.99353352119E+02  0.00000000000E+00 0.  1.
        -13    1    3    3    0    0 -0.19908799801E+02 -0.20797982535E+02 -0.86591058065E+01  0.30064871535E+02  0.00000000000E+00 0.  1.
         13    1    3    3    0    0  0.50224667762E+02  0.45045894037E+02  0.23631508964E+02  0.71484949726E+02  0.00000000000E+00 0. -1.
          4    1    1    2  501    0  0.20915312076E+02 -0.14329092959E+01  0.64763675251E+02  0.68072293485E+02  0.00000000000E+00 0. -1.
<scales pt_clust_5="13000.00000" pt_clust_6="13000.00000" pt_clust_7="13000.00000" pt_clust_8="13000.00000" pt_clust_9="20.96434"></scales>
<clustering>
<clus scale="   20.964">  1  9  2 -1</clus>
<clus scale="   81.296">  5  6 -1 -1</clus>
<clus scale="   92.635">  7  8 -1 -1</clus>
<clus scale="   92.764">  1  5  2 -1</clus>
<clus scale="   20.964">  1  5  2 -1</clus>
</clustering>
</event>
<event>
 9    1  0.6345107E-005  0.1526794E+03  0.7546771E-02  0.1214699E+00
         21   -1    0    0  501  502  0.00000000000E+00  0.00000000000E+00  0.10884854712E+03  0.10884854712E+03  0.00000000000E+00 0.  1.
          1   -1    0    0  502    0 -0.00000000000E+00 -0.00000000000E+00 -0.61921186345E+03  0.61921186345E+03  0.00000000000E+00 0. -1.
        -24    2    1    2    0    0 -0.56844618000E+02 -0.31175041342E+02 -0.36781575326E+03  0.38246706921E+03  0.82398039333E+02 0.  0.
         23    2    1    2    0    0  0.16410482945E+03  0.39601534596E+02 -0.13960360519E+03  0.23796237168E+03  0.92942171065E+02 0.  0.
         13    1    3    3    0    0 -0.32853984183E+01 -0.44118388334E+02 -0.10503986414E+03  0.11397630934E+03  0.00000000000E+00 0. -1.
        -14    1    3    3    0    0 -0.53559219582E+02  0.12943346992E+02 -0.26277588912E+03  0.26849075987E+03  0.00000000000E+00 0.  1.
        -13    1    4    4    0    0  0.11820743189E+03 -0.75459398190E+01 -0.12157999167E+03  0.16973989671E+03  0.00000000000E+00 0. -1.
         13    1    4    4    0    0  0.45897397558E+02  0.47147474415E+02 -0.18023613525E+02  0.68222474968E+02  0.00000000000E+00 0.  1.
          2    1    1    2  501    0 -0.10726021144E+03 -0.84264932541E+01 -0.29439578844E+01  0.10763096969E+03  0.00000000000E+00 0. -1.
<scales pt_clust_5="13000.00000" pt_clust_6="13000.00000" pt_clust_7="13000.00000" pt_clust_8="13000.00000" pt_clust_9="121.13108"></scales>
<clustering>
<clus scale="   82.398">  5  6 -1 -1</clus>
<clus scale="   92.942">  7  8 -1 -1</clus>
<clus scale="  104.846">  2  5  1 -1</clus>
<clus scale="  121.131">  1  9  2 -1</clus>
<clus scale="  121.131">  1  5  2 -1</clus>
</clustering>
</event>
<event>
 9    1  0.6345107E-005  0.2077673E+03  0.7546771E-02  0.1161613E+00
          1   -1    0    0  502    0 -0.00000000000E+00  0.00000000000E+00  0.11315833527E+03  0.11315833527E+03  0.00000000000E+00 0. -1.
         21   -1    0    0  501  502  0.00000000000E+00 -0.00000000000E+00 -0.67997022372E+03  0.67997022372E+03  0.00000000000E+00 0. -1.
         23    2    1    2    0    0  0.61918876992E+02  0.74862979079E+02 -0.20324824441E+03  0.24401319575E+03  0.93777278054E+02 0.  0.
        -24    2    1    2    0    0  0.14305250368E+03 -0.11632175014E+03 -0.15383709012E+03  0.25294425727E+03  0.79499551100E+02 0.  0.
         13    1    4    4    0    0  0.14941168282E+03 -0.91617612943E+02 -0.13520023544E+03  0.22135207618E+03  0.00000000000E+00 0. -1.
        -14    1    4    4    0    0 -0.63591791411E+01 -0.24704137195E+02 -0.18636854682E+02  0.31592181095E+02  0.00000000000E+00 0.  1.
        -11    1    3    3    0    0  0.18982488290E+02  0.40527688272E+02 -0.13925123735E+02  0.46869365788E+02  0.00000000000E+00 0. -1.
         11    1    3    3    0    0  0.42936388703E+02  0.34335290807E+02 -0.18932312068E+03  0.19714382996E+03  0.00000000000E+00 0.  1.
          2    1    1    2  501    0 -0.20497138067E+03  0.41458771059E+02 -0.20972655392E+03  0.29617110597E+03  0.00000000000E+00 0. -1.
<scales pt_clust_5="13000.00000" pt_clust_6="13000.00000" pt_clust_7="13000.00000" pt_clust_8="13000.00000" pt_clust_9="191.95591"></scales>
<clustering>
<clus scale="   79.500">  5  6 -1 -1</clus>
<clus scale="   93.777">  7  8 -1 -1</clus>
<clus scale="  135.028">  1  7  2 -1</clus>
<clus scale="  191.956">  2  9  1 -1</clus>
<clus scale="  191.956">  2  5  1 -1</clus>
</clustering>
</event>
<event>
 9    1  0.6345107E-005  0.2138700E+03  0.7546771E-02  0.1138902E+00
         -2   -1    0    0    0  501 -0.00000000000E+00  0.00000000000E+00  0.40820364663E+03  0.40820364663E+03  0.00000000000E+00 0.  1.
         21   -1    0    0  501  502  0.00000000000E+00 -0.00000000000E+00 -0.30908324400E+03  0.30908324400E+03  0.00000000000E+00 0. -1.
         23    2    1    2    0    0  0.10085206424E+02 -0.17680684205E+03  0.90053025046E+02  0.21838895346E+03  0.90674234981E+02 0.  0.
        -24    2    1    2    0    0  0.53014209148E+02  0.25420721788E+03 -0.14929589320E+03  0.31167806654E+03  0.86151827835E+02 0.  0.
         13    1    4    4    0    0  0.24057415456E+02  0.22207478410E+03 -0.14884128237E+03  0.26842074493E+03  0.00000000000E+00 0. -1.
        -14    1    4    4    0    0  0.28956793692E+02  0.32132433781E+02 -0.45461083193E+00  0.43257321607E+02  0.00000000000E+00 0.  1.
        -13    1    3    3    0    0  0.27439068042E+02 -0.82763569744E+01  0.60769081285E+01  0.29297258441E+02  0.00000000000E+00 0.  1.
         13    1    3    3    0    0 -0.17353861618E+02 -0.16853048507E+03  0.83976116917E+02  0.18909169502E+03  0.00000000000E+00 0. -1.
         -1    1    1    2    0  502 -0.63099415571E+02 -0.77400375835E+02  0.15836327079E+03  0.18721987063E+03  0.00000000000E+00 0.  1.
<scales pt_clust_5="13000.00000" pt_clust_6="13000.00000" pt_clust_7="13000.00000" pt_clust_8="13000.00000" pt_clust_9="99.86173"></scales>
<clustering>
<clus scale="   86.152">  5  6 -1 -1</clus>
<clus scale="   90.674">  7  8 -1 -1</clus>
<clus scale="   99.862">  2  9  1 -1</clus>
<clus scale="  211.992">  2  5  1 -1</clus>
<clus scale="   99.862">  2  5  1 -1</clus>
</clustering>
</event>
<event>
 9    1  0.6345107E-005  0.1630277E+03  0.7546771E-02  0.1186968E+00
         -2   -1    0    0    0  501 -0.00000000000E+00  0.00000000000E+00  0.36335856294E+03  0.36335856294E+03  0.00000000000E+00 0.  1.
         21   -1    0    0  501  502  0.00000000000E+00 -0.00000000000E+00 -0.16093519889E+03  0.16093519889E+03  0.00000000000E+00 0.  1.
        -24    2    1    2    0    0  0.14261314674E+03  0.21201959516E+02  0.15895366670E+03  0.22937858850E+03  0.80995283781E+02 0.  0.
         23    2    1    2    0    0 -0.99720582703E+02 -0.20817356414E+02 -0.83710598269E+02  0.16069614501E+03  0.91859837882E+02 0.  0.
         13    1    3    3    0    0  0.79574565986E+02  0.46756214504E+02  0.62943623684E+02  0.11171461368E+03  0.00000000000E+00 0. -1.
        -14    1    3    3    0    0  0.63038580758E+02 -0.25554254988E+02  0.96010043012E+02  0.11766397482E+03  0.00000000000E+00 0.  1.
        -11    1    4    4    0    0 -0.37624751327E+02 -0.54379296206E+02 -0.33937780773E+02  0.74326998676E+02  0.00000000000E+00 0. -1.
         11    1    4    4    0    0 -0.62095831376E+02  0.33561939793E+02 -0.49772817496E+02  0.86369146334E+02  0.00000000000E+00 0.  1.
         -1    1    1    2    0  502 -0.42892564041E+02 -0.38460310238E+00  0.12718029562E+03  0.13421902832E+03  0.00000000000E+00 0.  1.
<scales pt_clust_5="13000.00000" pt_clust_6="13000.00000" pt_clust_7="13000.00000" pt_clust_8="13000.00000" pt_clust_9="42.89431"></scales>
<clustering>
<clus scale="   42.894">  2  9  1 -1</clus>
<clus scale="   80.995">  5  6 -1 -1</clus>
<clus scale="   91.860">  7  8 -1 -1</clus>
<clus scale="  157.162">  1  5  2 -1</clus>
<clus scale="   42.894">  2  5  1 -1</clus>
</clustering>
</event>
<event>
 9    1  0.6345107E-005  0.1514557E+03  0.7546771E-02  0.1201165E+00
         21   -1    0    0  501  502  0.00000000000E+00  0.00000000000E+00  0.11976886179E+03  0.11976886179E+03  0.00000000000E+00 0.  1.
         -2   -1    0    0    0  501 -0.00000000000E+00 -0.00000000000E+00 -0.32728970092E+03  0.32728970092E+03  0.00000000000E+00 0.  1.
         23    2    1    2    0    0  0.39845912656E+01  0.89917775792E+02 -0.61600274649E+02  0.14432538305E+03  0.94520574405E+02 0.  0.
        -24    2    1    2    0    0 -0.96777357523E+01 -0.16240199193E+03 -0.63001174970E+02  0.19245172773E+03  0.81243177595E+02 0.  0.
         11    1    4    4    0    0  0.29635396201E+02 -0.26263702072E+02 -0.76895049017E+01  0.40338161090E+02  0.00000000000E+00 0. -1.
        -12    1    4    4    0    0 -0.39313131953E+02 -0.13613828986E+03 -0.55311670068E+02  0.15211356664E+03  0.00000000000E+00 0.  1.
        -11    1    3    3    0    0 -0.34972233545E+02  0.16530141842E+02 -0.45452080584E+02  0.59684121321E+02  0.00000000000E+00 0.  1.
         11    1    3    3    0    0  0.38956824811E+02  0.73387633950E+02 -0.16148194065E+02  0.84641261733E+02  0.00000000000E+00 0. -1.
         -1    1    1    2    0  502  0.56931444867E+01  0.72484216138E+02 -0.82919389513E+02  0.11028145193E+03  0.00000000000E+00 0.  1.
<scales pt_clust_5="13000.00000" pt_clust_6="13000.00000" pt_clust_7="13000.00000" pt_clust_8="13000.00000" pt_clust_9="72.70749"></scales>
<clustering>
<clus scale="   72.707">  1  9  2 -1</clus>
<clus scale="   81.243">  5  6 -1 -1</clus>
<clus scale="   94.521">  7  8 -1 -1</clus>
<clus scale="  143.545">  1  5  2 -1</clus>
<clus scale="   72.707">  1  5  2 -1</clus>
</clustering>
</event>
<event>
 9    1  0.6345107E-005  0.1121445E+03  0.7546771E-02  0.1259606E+00
          1   -1    0    0  502    0 -0.00000000000E+00  0.00000000000E+00  0.84479433881E+03  0.84479433881E+03  0.00000000000E+00 0. -1.
         21   -1    0    0  501  502  0.00000000000E+00 -0.00000000000E+00 -0.24811303190E+02  0.24811303190E+02  0.00000000000E+00 0. -1.
         23    2    1    2    0    0  0.76208146466E+02 -0.43931061691E+02  0.34463526714E+03  0.36681326979E+03  0.89670997373E+02 0.  0.
        -24    2    1    2    0    0 -0.51371785591E+02 -0.19832331011E+01  0.19404899901E+03  0.21669105276E+03  0.81590469776E+02 0.  0.
         13    1    4    4    0    0 -0.54829326309E+02 -0.33804752664E+02  0.12783131995E+03  0.14314280522E+03  0.00000000000E+00 0. -1.
        -14    1    4    4    0    0  0.34575407173E+01  0.31821519563E+02  0.66217679060E+02  0.73548247534E+02  0.00000000000E+00 0.  1.
        -11    1    3    3    0    0  0.18992511383E+02 -0.58066439480E+02  0.22920972172E+03  0.23721197991E+03  0.00000000000E+00 0.  1.
         11    1    3    3    0    0  0.57215635084E+02  0.14135377789E+02  0.11542554542E+03  0.12960128988E+03  0.00000000000E+00 0. -1.
          2    1    1    2  501    0 -0.24836360875E+02  0.45914294792E+02  0.28129876947E+03  0.28610131945E+03  0.00000000000E+00 0. -1.
<scales pt_clust_5="13000.00000" pt_clust_6="13000.00000" pt_clust_7="13000.00000" pt_clust_8="13000.00000" pt_clust_9="52.20125"></scales>
<clustering>
<clus scale="   52.201">  2  9  1 -1</clus>
<clus scale="   81.590">  5  6 -1 -1</clus>
<clus scale="   89.671">  7  8 -1 -1</clus>
<clus scale="  105.795">  2  5  1 -1</clus>
<clus scale="   52.201">  2  5  1 -1</clus>
</clustering>
</event>
<event>
 9    1  0.6345107E-005  0.1382176E+03  0.7546771E-02  0.1217692E+00
         21   -1    0    0  501  502  0.00000000000E+00  0.00000000000E+00  0.25029382121E+02  0.25029382121E+02  0.00000000000E+00 0. -1.
          1   -1    0    0  502    0 -0.00000000000E+00 -0.00000000000E+00 -0.99244109932E+03  0.99244109932E+03  0.00000000000E+00 0. -1.
        -24    2    1    2    0    0 -0.84132295617E+02 -0.24330904576E+02 -0.36435224766E+03  0.38335292957E+03  0.80849688615E+02 0.  0.
         23    2    1    2    0    0  0.11995338981E+03  0.41025372398E+02 -0.50693755878E+03  0.53018835592E+03  0.89677797336E+02 0.  0.
         11    1    3    3    0    0 -0.79963953423E+02 -0.12190652911E+02 -0.36118549148E+03  0.37013214548E+03  0.00000000000E+00 0. -1.
        -12    1    3    3    0    0 -0.41683421940E+01 -0.12140251665E+02 -0.31667561850E+01  0.13220784087E+02  0.00000000000E+00 0.  1.
        -13    1    4    4    0    0  0.10200045711E+03 -0.62453703058E+01 -0.29141450440E+03  0.30881306849E+03  0.00000000000E+00 0. -1.
         13    1    4    4    0    0  0.17952932707E+02  0.47270742703E+02 -0.21552305439E+03  0.22137528742E+03  0.00000000000E+00 0.  1.
          2    1    1    2  501    0 -0.35821094197E+02 -0.16694467821E+02 -0.96121910748E+02  0.10392919595E+03  0.00000000000E+00 0. -1.
<scales pt_clust_5="13000.00000" pt_clust_6="13000.00000" pt_clust_7="13000.00000" pt_clust_8="13000.00000" pt_clust_9="39.52032"></scales>
<clustering>
<clus scale="   39.520">  1  9  2 -1</clus>
<clus scale="   80.850">  5  6 -1 -1</clus>
<clus scale="   89.678">  7  8 -1 -1</clus>
<clus scale="  132.660">  2  5  1 -1</clus>
<clus scale="   39.520">  1  5  2 -1</clus>
</clustering>
</event>
<event>
 9    1  0.6345107E-005  0.1358556E+03  0.7546771E-02  0.1221299E+00
          1   -1    0    0  502    0 -0.00000000000E+00  0.00000000000E+00  0.21103798823E+03  0.21103798823E+03  0.00000000000E+00 0. -1.
         21   -1    0    0  501  502  0.00000000000E+00 -0.00000000000E+00 -0.21876626377E+03  0.21876626377E+03  0.00000000000E+00 0. -1.
         23    2    1    2    0    0 -0.72207936024E+02  0.35797359557E+02  0.27941016563E+02  0.12297389209E+03  0.88580137468E+02 0.  0.
        -24    2    1    2    0    0  0.61651297074E+02 -0.15192351134E+03  0.89168071384E+01  0.18199188027E+03  0.78485025983E+02 0.  0.
         13    1    4    4    0    0  0.45364949707E+02 -0.13098415207E+03 -0.22975906786E+02  0.14050878638E+03  0.00000000000E+00 0. -1.
        -14    1    4    4    0    0  0.16286347367E+02 -0.20939359269E+02  0.31892713924E+02  0.41483093889E+02  0.00000000000E+00 0.  1.
        -11    1    3    3    0    0  0.24496395316E+01  0.31937354135E+02 -0.16472568149E+02  0.36018617747E+02  0.00000000000E+00 0.  1.
         11    1    3    3    0    0 -0.74657575555E+02  0.38600054222E+01  0.44413584711E+02  0.86955274346E+02  0.00000000000E+00 0. -1.
          2    1    1    2  501    0  0.10556638950E+02  0.11612615179E+03 -0.44586099238E+02  0.12483847964E+03  0.00000000000E+00 0. -1.
<scales pt_clust_5="13000.00000" pt_clust_6="13000.00000" pt_clust_7="13000.00000" pt_clust_8="13000.00000" pt_clust_9="116.60500"></scales>
<clustering>
<clus scale="   78.485">  5  6 -1 -1</clus>
<clus scale="   88.580">  7  8 -1 -1</clus>
<clus scale="  116.605">  2  9  1 -1</clus>
<clus scale="  129.500">  2  5  1 -1</clus>
<clus scale="  116.605">  2  5  1 -1</clus>
</clustering>
</event>
<event>
 9    1  0.6345107E-005  0.2015021E+03  0.7546771E-02  0.1148672E+00
         -2   -1    0    0    0  501 -0.00000000000E+00  0.00000000000E+00  0.12147433719E+04  0.12147433719E+04  0.00000000000E+00 0.  1.
         21   -1    0    0  501  502  0.00000000000E+00 -0.00000000000E+00 -0.51103433416E+02  0.51103433416E+02  0.00000000000E+00 0. -1.
        -24    2    1    2    0    0 -0.19396716524E+02  0.19015323260E+03  0.92238209406E+03  0.94539870236E+03  0.80346091937E+02 0.  0.
         23    2    1    2    0    0  0.71171893284E+01 -0.16619288357E+03  0.21554966243E+03  0.28322182548E+03  0.77988566634E+02 0.  0.
         13    1    3    3    0    0 -0.20692008083E+02  0.12918038437E+02  0.56146449023E+02  0.61216490045E+02  0.00000000000E+00 0. -1.
        -14    1    3    3    0    0  0.12952915593E+01  0.17723519416E+03  0.86623564504E+03  0.88418221231E+03  0.00000000000E+00 0.  1.
        -13    1    4    4    0    0 -0.36446687414E+01 -0.71071330875E+02  0.15335763469E+03  0.16906502240E+03  0.00000000000E+00 0.  1.
         13    1    4    4    0    0  0.10761858070E+02 -0.95121552692E+02  0.62192027739E+02  0.11415680308E+03  0.00000000000E+00 0. -1.
         -1    1    1    2    0  502  0.12279527195E+02 -0.23960349029E+02  0.25708182014E+02  0.37226277495E+02  0.00000000000E+00 0.  1.
<scales pt_clust_5="13000.00000" pt_clust_6="13000.00000" pt_clust_7="13000.00000" pt_clust_8="13000.00000" pt_clust_9="26.92369"></scales>
<clustering>
<clus scale="   26.924">  2  9  1 -1</clus>
<clus scale="   77.989">  7  8 -1 -1</clus>
<clus scale="   80.346">  5  6 -1 -1</clus>
<clus scale="  200.574">  2  7  1 -1</clus>
<clus scale="   26.924">  2  5  1 -1</clus>
</clustering>
</event>
<event>
 9    1  0.6345107E-005  0.1915475E+03  0.7546771E-02  0.1158315E+00
         -2   -1    0    0    0  501 -0.00000000000E+00  0.00000000000E+00  0.44147641376E+03  0.44147641376E+03  0.00000000000E+00 0.  1.
         21   -1    0    0  501  502  0.00000000000E+00 -0.00000000000E+00 -0.50520484411E+03  0.50520484411E+03  0.00000000000E+00 0. -1.
        -24    2    1    2    0    0  0.10259476564E+03 -0.13500093634E+03  0.39053167350E+03  0.43329144033E+03  0.80470774253E+02 0.  0.
         23    2    1    2    0    0 -0.10370530378E+03  0.10389379570E+03 -0.23588251944E+03  0.29280501102E+03  0.92441877322E+02 0.  0.
         11    1    3    3    0    0  0.34465443569E+02 -0.23459341354E+02  0.34795261943E+02  0.54303938632E+02  0.00000000000E+00 0. -1.
        -12    1    3    3    0    0  0.68129322069E+02 -0.11154159499E+03  0.35573641155E+03  0.37898750170E+03  0.00000000000E+00 0.  1.
        -11    1    4    4    0    0 -0.92105779441E+02  0.56974614397E+02 -0.21380211979E+03  0.23966837029E+03  0.00000000000E+00 0. -1.
         11    1    4    4    0    0 -0.11599524335E+02  0.46919181306E+02 -0.22080399658E+02  0.53136640732E+02  0.00000000000E+00 0.  1.
         -1    1    1    2    0  502  0.11105381374E+01  0.31107140640E+02 -0.21837758441E+03  0.22058480651E+03  0.00000000000E+00 0.  1.
<scales pt_clust_5="13000.00000" pt_clust_6="13000.00000" pt_clust_7="13000.00000" pt_clust_8="13000.00000" pt_clust_9="31.12696"></scales>
<clustering>
<clus scale="   31.127">  2  9  1 -1</clus>
<clus scale="   80.471">  5  6 -1 -1</clus>
<clus scale="   92.442">  7  8 -1 -1</clus>
<clus scale="  186.066">  1  5  2 -1</clus>
<clus scale="   31.127">  2  5  1 -1</clus>
</clustering>
</event>
<event>
 9    1  0.6345107E-005  0.1080541E+03  0.7546771E-02  0.1265752E+00
         -2   -1    0    0    0  501 -0.00000000000E+00  0.00000000000E+00  0.34771443790E+03  0.34771443790E+03  0.00000000000E+00 0.  1.
         21   -1    0    0  501  502  0.00000000000E+00 -0.00000000000E+00 -0.85070823628E+02  0.85070823628E+02  0.00000000000E+00 0. -1.
        -24    2    1    2    0    0 -0.43260561069E+02  0.26344479481E+02  0.14798630019E+03  0.17730779618E+03  0.83502106569E+02 0.  0.
         23    2    1    2    0    0  0.10585913343E+03 -0.46643988439E+02  0.29739648787E+02  0.14804534163E+03  0.87470901915E+02 0.  0.
         11    1    3    3    0    0 -0.55925569489E+02  0.46983291720E+02  0.10383373519E+03  0.12695094953E+03  0.00000000000E+00 0. -1.
        -12    1    3    3    0    0  0.12665008420E+02 -0.20638812240E+02  0.44152564994E+02  0.50356846649E+02  0.00000000000E+00 0.  1.
        -11    1    4    4    0    0  0.86558569835E+02  0.51633551628E+01  0.32717530915E+02  0.92679464163E+02  0.00000000000E+00 0.  1.
         11    1    4    4    0    0  0.19300563593E+02 -0.51807343602E+02 -0.29778821280E+01  0.55365877470E+02  0.00000000000E+00 0. -1.
         -1    1    1    2    0  502 -0.62598572359E+02  0.20299508958E+02  0.84917665299E+02  0.10743212371E+03  0.00000000000E+00 0.  1.
<scales pt_clust_5="13000.00000" pt_clust_6="13000.00000" pt_clust_7="13000.00000" pt_clust_8="13000.00000" pt_clust_9="65.80772"></scales>
<clustering>
<clus scale="   65.808">  2  9  1 -1</clus>
<clus scale="   83.502">  5  6 -1 -1</clus>
<clus scale="   87.471">  7  8 -1 -1</clus>
<clus scale="  104.867">  1  5  2 -1</clus>
<clus scale="   65.808">  2  5  1 -1</clus>
</clustering>
</event>
<event>
 9    1  0.6345107E-005  0.1673973E+03  0.7546771E-02  0.1207395E+00
         21   -1    0    0  501  502  0.00000000000E+00  0.00000000000E+00  0.30811180449E+03  0.30811180449E+03  0.00000000000E+00 0. -1.
          1   -1    0    0  502    0 -0.00000000000E+00 -0.00000000000E+00 -0.25549908769E+03  0.25549908769E+03  0.00000000000E+00 0. -1.
         23    2    1    2    0    0  0.11943391425E+02 -0.96766069387E+01 -0.12716885708E+03  0.15751890341E+03  0.91673362534E+02 0.  0.
        -24    2    1    2    0    0 -0.47025438480E+02  0.14695152835E+03 -0.14600441505E+01  0.17604052023E+03  0.84746619325E+02 0.  0.
         13    1    4    4    0    0 -0.42234290034E+02  0.15691861460E+03 -0.88436048133E+01  0.16274334459E+03  0.00000000000E+00 0. -1.
        -14    1    4    4    0    0 -0.47911484461E+01 -0.99670862567E+01  0.73835606628E+01  0.13297175638E+02  0.00000000000E+00 0.  1.
        -13    1    3    3    0    0 -0.62680867902E+01 -0.48776844213E+02 -0.58470662318E+02  0.76402145227E+02  0.00000000000E+00 0.  1.
         13    1    3    3    0    0  0.18211478216E+02  0.39100237274E+02 -0.68698194764E+02  0.81116758179E+02  0.00000000000E+00 0. -1.
          2    1    1    2  501    0  0.35082047055E+02 -0.13727492141E+03  0.18124161804E+03  0.23005146855E+03  0.00000000000E+00 0. -1.
<scales pt_clust_5="13000.00000" pt_clust_6="13000.00000" pt_clust_7="13000.00000" pt_clust_8="13000.00000" pt_clust_9="144.36021"></scales>
<clustering>
<clus scale="   84.747">  5  6 -1 -1</clus>
<clus scale="   91.673">  7  8 -1 -1</clus>
<clus scale="   92.953">  2  7  1 -1</clus>
<clus scale="  144.360">  1  9  2 -1</clus>
<clus scale="  144.360">  1  5  2 -1</clus>
</clustering>
</event>
<event>
 9    1  0.6345107E-005  0.1431939E+03  0.7546771E-02  0.1210912E+00
         21   -1    0    0  501  502  0.00000000000E+00  0.00000000000E+00  0.41164599240E+03  0.41164599240E+03  0.00000000000E+00 0.  1.
         -2   -1    0    0    0  501 -0.00000000000E+00 -0.00000000000E+00 -0.15041871512E+03  0.15041871512E+03  0.00000000000E+00 0.  1.
         23    2    1    2    0    0 -0.35715417992E+02 -0.74865491612E+02 -0.21625280782E+01  0.12210233827E+03  0.89576065812E+02 0.  0.
        -24    2    1    2    0    0  0.10835519860E+03  0.12392378924E+03  0.23770301878E+02  0.18481386201E+03  0.80580281329E+02 0.  0.
         13    1    4    4    0    0  0.49575118958E+02  0.13160331901E+02 -0.15211783175E+02  0.53500328063E+02  0.00000000000E+00 0. -1.
        -14    1    4    4    0    0  0.58780079638E+02  0.11076345734E+03  0.38982085053E+02  0.13131353395E+03  0.00000000000E+00 0.  1.
        -13    1    3    3    0    0 -0.19285487304E+02 -0.88522076222E+02 -0.21689369703E+02  0.93158557081E+02  0.00000000000E+00 0. -1.
         13    1    3    3    0    0 -0.16429930688E+02  0.13656584610E+02  0.19526841625E+02  0.28943781188E+02  0.00000000000E+00 0.  1.
         -1    1    1    2    0  502 -0.72639780605E+02 -0.49058297627E+02  0.23961950349E+03  0.25514850724E+03  0.00000000000E+00 0.  1.
<scales pt_clust_5="13000.00000" pt_clust_6="13000.00000" pt_clust_7="13000.00000" pt_clust_8="13000.00000" pt_clust_9="87.65417"></scales>
<clustering>
<clus scale="   80.580">  5  6 -1 -1</clus>
<clus scale="   87.654">  1  9  2 -1</clus>
<clus scale="   89.576">  7  8 -1 -1</clus>
<clus scale="  137.745">  1  5  2 -1</clus>
<clus scale="   87.654">  1  5  2 -1</clus>
</clustering>
</event>
<event>
 9    1  0.6345107E-005  0.1030260E+03  0.7546771E-02  0.1278936E+00
          3   -1    0    0  502    0 -0.00000000000E+00  0.00000000000E+00  0.99062073181E+02  0.99062073181E+02  0.00000000000E+00 0. -1.
         21   -1    0    0  501  502  0.00000000000E+00 -0.00000000000E+00 -0.45925892609E+03  0.45925892609E+03  0.00000000000E+00 0.  1.
         23    2    1    2    0    0  0.75982629477E+02  0.15801020565E+02 -0.18516322780E+03  0.22052876585E+03  0.91238606982E+02 0.  0.
        -24    2    1    2    0    0 -0.99799345002E+01 -0.11077502675E+02 -0.23473078683E+03  0.24867198610E+03  0.80727344980E+02 0.  0.
         13    1    4    4    0    0  0.35941440711E+01  0.33372182708E+02 -0.72089875591E+02  0.79520881617E+02  0.00000000000E+00 0. -1.
        -14    1    4    4    0    0 -0.13574078571E+02 -0.44449685383E+02 -0.16264091124E+03  0.16915110448E+03  0.00000000000E+00 0.  1.
        -11    1    3    3    0    0  0.91854500300E+02  0.28839312389E+02 -0.16855986332E+03  0.19411693045E+03  0.00000000000E+00 0.  1.
         11    1    3    3    0    0 -0.15871870823E+02 -0.13038291824E+02 -0.16603364481E+02  0.26411835400E+02  0.00000000000E+00 0. -1.
          4    1    1    2  501    0 -0.66002694977E+02 -0.47235178901E+01  0.59697161720E+02  0.89120247323E+02  0.00000000000E+00 0. -1.
<scales pt_clust_5="13000.00000" pt_clust_6="13000.00000" pt_clust_7="13000.00000" pt_clust_8="13000.00000" pt_clust_9="66.17153"></scales>
<clustering>
<clus scale="   66.172">  2  9  1 -1</clus>
<clus scale="   80.727">  5  6 -1 -1</clus>
<clus scale="   91.239">  7  8 -1 -1</clus>
<clus scale="   93.844">  2  5  1 -1</clus>
<clus scale="   66.172">  2  5  1 -1</clus>
</clustering>
</event>
<event>
 9    1  0.6345107E-005  0.1601845E+03  0.7546771E-02  0.1219137E+00
         21   -1    0    0  501  502  0.00000000000E+00  0.00000000000E+00  0.27225862192E+03  0.27225862192E+03  0.00000000000E+00 0.  1.
         -4   -1    0    0    0  501 -0.00000000000E+00 -0.00000000000E+00 -0.13945127805E+03  0.13945127805E+03  0.00000000000E+00 0.  1.
        -24    2    1    2    0    0  0.28839354833E+01 -0.20426562470E+02 -0.14780748078E+02  0.83982182950E+02  0.80056074105E+02 0.  0.
         23    2    1    2    0    0 -0.87398566831E+02  0.11038021021E+03  0.10005549175E+03  0.19546385296E+03  0.91502546943E+02 0.  0.
         11    1    3    3    0    0 -0.28832687558E+01 -0.48571854143E+02  0.52777571629E+01  0.48942752010E+02  0.00000000000E+00 0. -1.
        -12    1    3    3    0    0  0.57672042391E+01  0.28145291673E+02 -0.20058505241E+02  0.35039430940E+02  0.00000000000E+00 0.  1.
        -11    1    4    4    0    0 -0.68121137543E+02  0.66335298216E+02  0.12937613623E+02  0.95959590536E+02  0.00000000000E+00 0.  1.
         11    1    4    4    0    0 -0.19277429288E+02  0.44044911992E+02  0.87117878126E+02  0.99504262429E+02  0.00000000000E+00 0. -1.
         -3    1    1    2    0  502  0.84514631348E+02 -0.89953647738E+02  0.47532600196E+02  0.13226386405E+03  0.00000000000E+00 0.  1.
<scales pt_clust_5="13000.00000" pt_clust_6="13000.00000" pt_clust_7="13000.00000" pt_clust_8="13000.00000" pt_clust_9="131.47766"></scales>
<clustering>
<clus scale="   80.056">  5  6 -1 -1</clus>
<clus scale="   82.671">  2  5  1 -1</clus>
<clus scale="   91.503">  7  8 -1 -1</clus>
<clus scale="  131.478">  1  9  2 -1</clus>
<clus scale="  131.478">  1  5  2 -1</clus>
</clustering>
</event>
<event>
 9    1  0.6345107E-005  0.9989034E+02  0.7546771E-02  0.1286062E+00
         -4   -1    0    0    0  501 -0.00000000000E+00  0.00000000000E+00  0.40339460582E+03  0.40339460582E+03  0.00000000000E+00 0.  1.
         21   -1    0    0  501  502  0.00000000000E+00 -0.00000000000E+00 -0.45543530509E+02  0.45543530509E+02  0.00000000000E+00 0. -1.
         23    2    1    2    0    0 -0.46211019997E+01  0.45766782600E+02  0.26754462992E+03  0.28630081899E+03  0.90950959210E+02 0.  0.
        -24    2    1    2    0    0 -0.33846957820E+02 -0.28945367053E+02  0.73744149865E+02  0.11750350207E+03  0.79908838887E+02 0.  0.
         11    1    4    4    0    0 -0.57237296216E+02 -0.31672650645E+02  0.41114141316E+02  0.77263429210E+02  0.00000000000E+00 0. -1.
        -12    1    4    4    0    0  0.23390338396E+02  0.27272835920E+01  0.32630008549E+02  0.40240072862E+02  0.00000000000E+00 0.  1.
        -11    1    3    3    0    0  0.41101172699E+02  0.37078532573E+02  0.14207237646E+03  0.15247519184E+03  0.00000000000E+00 0.  1.
         11    1    3    3    0    0 -0.45722274699E+02  0.86882500269E+01  0.12547225346E+03  0.13382562715E+03  0.00000000000E+00 0. -1.
         -3    1    1    2    0  502  0.38468059820E+02 -0.16821415547E+02  0.16562295521E+02  0.45133815264E+02  0.00000000000E+00 0.  1.
<scales pt_clust_5="13000.00000" pt_clust_6="13000.00000" pt_clust_7="13000.00000" pt_clust_8="13000.00000" pt_clust_9="41.98514"></scales>
<clustering>
<clus scale="   41.985">  2  9  1 -1</clus>
<clus scale="   79.909">  5  6 -1 -1</clus>
<clus scale="   89.952">  2  5  1 -1</clus>
<clus scale="   90.951">  7  8 -1 -1</clus>
<clus scale="   41.985">  2  5  1 -1</clus>
</clustering>
</event>
<event>
 9    1  0.6345107E-005  0.1341647E+03  0.7546771E-02  0.1245424E+00
          1   -1    0    0  502    0 -0.00000000000E+00  0.00000000000E+00  0.10806161943E+03  0.10806161943E+03  0.00000000000E+00 0. -1.
         21   -1    0    0  501  502  0.00000000000E+00 -0.00000000000E+00 -0.40680071582E+03  0.40680071582E+03  0.00000000000E+00 0.  1.
        -24    2    1    2    0    0  0.16388530988E+01  0.89981497997E+01  0.45168231424E+02  0.93553928400E+02  0.81415697809E+02 0.  0.
         23    2    1    2    0    0  0.92586489824E+02 -0.35123624416E+02 -0.25860132663E+03  0.29154681966E+03  0.91208414256E+02 0.  0.
         11    1    3    3    0    0 -0.32400096249E+02  0.14379784177E+02 -0.15721695629E+01  0.35482617534E+02  0.00000000000E+00 0. -1.
        -12    1    3    3    0    0  0.34038949348E+02 -0.53816343778E+01  0.46740400986E+02  0.58071310866E+02  0.00000000000E+00 0.  1.
        -11    1    4    4    0    0  0.71095962646E+02 -0.65205758221E+02 -0.16860060937E+03  0.19424878967E+03  0.00000000000E+00 0.  1.
         11    1    4    4    0    0  0.21490527178E+02  0.30082133805E+02 -0.90000717257E+02  0.97298029988E+02  0.00000000000E+00 0. -1.
          2    1    1    2  501    0 -0.94225342923E+02  0.26125474617E+02 -0.85306001179E+02  0.12976158719E+03  0.00000000000E+00 0. -1.
<scales pt_clust_5="13000.00000" pt_clust_6="13000.00000" pt_clust_7="13000.00000" pt_clust_8="13000.00000" pt_clust_9="98.39316"></scales>
<clustering>
<clus scale="   81.416">  5  6 -1 -1</clus>
<clus scale="   81.928">  1  5  2 -1</clus>
<clus scale="   91.208">  7  8 -1 -1</clus>
<clus scale="   98.393">  2  9  1 -1</clus>
<clus scale="   98.393">  2  5  1 -1</clus>
</clustering>
</event>
<event>
 9    1  0.6345107E-005  0.9965477E+02  0.7546771E-02  0.1288476E+00
         21   -1    0    0  501  502  0.00000000000E+00  0.00000000000E+00  0.38301669847E+03  0.38301669847E+03  0.00000000000E+00 0.  1.
          1   -1    0    0  502    0 -0.00000000000E+00 -0.00000000000E+00 -0.49435265455E+02  0.49435265455E+02  0.00000000000E+00 0. -1.
         23    2    1    2    0    0 -0.33913987738E+02 -0.66751538924E+01  0.21678526974E+02  0.10293991113E+03  0.94508997072E+02 0.  0.
        -24    2    1    2    0    0  0.15144587628E+02  0.17393402179E+02  0.26323025176E+03  0.27625608128E+03  0.80593846118E+02 0.  0.
         13    1    4    4    0    0 -0.14314067129E+01  0.35761459311E+02  0.49417361034E+02  0.61016444249E+02  0.00000000000E+00 0. -1.
        -14    1    4    4    0    0  0.16575994341E+02 -0.18368057132E+02  0.21381289072E+03  0.21523963703E+03  0.00000000000E+00 0.  1.
        -11    1    3    3    0    0  0.80640155816E+01  0.27900787664E+02 -0.19277848751E+02  0.34858539155E+02  0.00000000000E+00 0. -1.
         11    1    3    3    0    0 -0.41978003320E+02 -0.34575941556E+02  0.40956375725E+02  0.68081371973E+02  0.00000000000E+00 0.  1.
          2    1    1    2  501    0  0.18769400110E+02 -0.10718248287E+02  0.48672654287E+02  0.53255971516E+02  0.00000000000E+00 0. -1.
<scales pt_clust_5="13000.00000" pt_clust_6="13000.00000" pt_clust_7="13000.00000" pt_clust_8="13000.00000" pt_clust_9="21.61414"></scales>
<clustering>
<clus scale="   21.614">  1  9  2 -1</clus>
<clus scale="   80.594">  5  6 -1 -1</clus>
<clus scale="   86.571">  1  5  2 -1</clus>
<clus scale="   94.509">  7  8 -1 -1</clus>
<clus scale="   21.614">  1  5  2 -1</clus>
</clustering>
</event>
<event>
 9    1  0.6345107E-005  0.2285365E+03  0.7546771E-02  0.1128488E+00
          1   -1    0    0  502    0 -0.00000000000E+00  0.00000000000E+00  0.61573776642E+03  0.61573776642E+03  0.00000000000E+00 0. -1.
         21   -1    0    0  501  502  0.00000000000E+00 -0.00000000000E+00 -0.14855008833E+03  0.14855008833E+03  0.00000000000E+00 0. -1.
         23    2    1    2    0    0 -0.15606873643E+03  0.61114061876E+02  0.98268102575E+02  0.21481932635E+03  0.91642478911E+02 0.  0.
        -24    2    1    2    0    0  0.24818082322E+03 -0.95673844762E+02  0.16480993426E+03  0.32288573828E+03  0.79659776349E+02 0.  0.
         11    1    4    4    0    0  0.58936629998E+02 -0.59132712320E+02  0.35110847709E+02  0.90570280162E+02  0.00000000000E+00 0. -1.
        -12    1    4    4    0    0  0.18924419322E+03 -0.36541132443E+02  0.12969908655E+03  0.23231545811E+03  0.00000000000E+00 0.  1.
        -11    1    3    3    0    0 -0.49841476637E+02  0.10621876726E+02  0.81347491962E+02  0.95991726243E+02  0.00000000000E+00 0.  1.
         11    1    3    3    0    0 -0.10622725979E+03  0.50492185150E+02  0.16920610613E+02  0.11882760011E+03  0.00000000000E+00 0. -1.
          2    1    1    2  501    0 -0.92112086788E+02  0.34559782886E+02  0.20410964126E+03  0.22658279013E+03  0.00000000000E+00 0. -1.
<scales pt_clust_5="13000.00000" pt_clust_6="13000.00000" pt_clust_7="13000.00000" pt_clust_8="13000.00000" pt_clust_9="98.38203"></scales>
<clustering>
<clus scale="   79.660">  5  6 -1 -1</clus>
<clus scale="   91.642">  7  8 -1 -1</clus>
<clus scale="   98.382">  2  9  1 -1</clus>
<clus scale="  224.001">  2  5  1 -1</clus>
<clus scale="   98.382">  2  5  1 -1</clus>
</clustering>
</event>
<event>
 9    1  0.6345107E-005  0.1235852E+03  0.7546771E-02  0.1240633E+00
          1   -1    0    0  502    0 -0.00000000000E+00  0.00000000000E+00  0.27081671012E+03  0.27081671012E+03  0.00000000000E+00 0. -1.
         21   -1    0    0  501  502  0.00000000000E+00 -0.00000000000E+00 -0.83582561350E+02  0.83582561350E+02  0.00000000000E+00 0.  1.
        -24    2    1    2    0    0 -0.39918918574E+02 -0.79236190175E+02  0.10651280467E+03  0.16070152546E+03  0.81290275149E+02 0.  0.
         23    2    1    2    0    0  0.45509634333E+02  0.53271337836E+02  0.79943676588E+01  0.11627266763E+03  0.92447071728E+02 0.  0.
         13    1    3    3    0    0 -0.50968642252E+02 -0.45167429520E+02  0.10462357526E+03  0.12483585896E+03  0.00000000000E+00 0. -1.
        -14    1    3    3    0    0  0.11049723679E+02 -0.34068760654E+02  0.18892294119E+01  0.35865666503E+02  0.00000000000E+00 0.  1.
        -11    1    4    4    0    0  0.42954568189E+02  0.31997442115E+02 -0.37905250710E+02  0.65618132110E+02  0.00000000000E+00 0.  1.
         11    1    4    4    0    0  0.25550661445E+01  0.21273895721E+02  0.45899618369E+02  0.50654535518E+02  0.00000000000E+00 0. -1.
          2    1    1    2  501    0 -0.55907157597E+01  0.25964852339E+02  0.72726976442E+02  0.77425078379E+02  0.00000000000E+00 0. -1.
<scales pt_clust_5="13000.00000" pt_clust_6="13000.00000" pt_clust_7="13000.00000" pt_clust_8="13000.00000" pt_clust_9="26.55994"></scales>
<clustering>
<clus scale="   26.560">  2  9  1 -1</clus>
<clus scale="   81.290">  5  6 -1 -1</clus>
<clus scale="   92.447">  7  8 -1 -1</clus>
<clus scale="  115.477">  1  5  2 -1</clus>
<clus scale="   26.560">  2  5  1 -1</clus>
</clustering>
</event>
<event>
 9    1  0.6345107E-005  0.1234027E+03  0.7546771E-02  0.1257491E+00
         21   -1    0    0  501  502  0.00000000000E+00  0.00000000000E+00  0.21136112716E+03  0.21136112716E+03  0.00000000000E+00 0. -1.
          1   -1    0    0  502    0 -0.00000000000E+00 -0.00000000000E+00 -0.14392996892E+03  0.14392996892E+03  0.00000000000E+00 0. -1.
        -24    2    1    2    0    0 -0.13697980024E+02 -0.97911823564E+01  0.11549658506E+03  0.14209769063E+03  0.81048075943E+02 0.  0.
         23    2    1    2    0    0  0.20172319651E+02 -0.74466831961E+02 -0.13606178278E+02  0.12193131112E+03  0.93433853617E+02 0.  0.
         11    1    3    3    0    0 -0.16862958951E+02 -0.42168070074E+02  0.89840381820E+02  0.10066677567E+03  0.00000000000E+00 0. -1.
        -12    1    3    3    0    0  0.31649789270E+01  0.32376887718E+02  0.25656203239E+02  0.41430914961E+02  0.00000000000E+00 0.  1.
        -11    1    4    4    0    0 -0.22086253031E+01 -0.81577835172E+02 -0.36261258166E+02  0.89301176145E+02  0.00000000000E+00 0.  1.
         11    1    4    4    0    0  0.22380944955E+02  0.71110032112E+01  0.22655079888E+02  0.32630134975E+02  0.00000000000E+00 0. -1.
          2    1    1    2  501    0 -0.64743396278E+01  0.84258014317E+02 -0.34459248548E+02  0.91262094326E+02  0.00000000000E+00 0. -1.
<scales pt_clust_5="13000.00000" pt_clust_6="13000.00000" pt_clust_7="13000.00000" pt_clust_8="13000.00000" pt_clust_9="80.61235"></scales>
<clustering>
<clus scale="   81.048">  5  6 -1 -1</clus>
<clus scale="   82.779">  2  5  1 -1</clus>
<clus scale="   80.612">  1  9  2 -1</clus>
<clus scale="   93.434">  7  8 -1 -1</clus>
<clus scale="   80.612">  1  5  2 -1</clus>
</clustering>
</event>
<event>
 9    1  0.6345107E-005  0.1830080E+03  0.7546771E-02  0.1166144E+00
          1   -1    0    0  502    0 -0.00000000000E+00  0.00000000000E+00  0.58177675884E+03  0.58177675884E+03  0.00000000000E+00 0. -1.
         21   -1    0    0  501  502  0.00000000000E+00 -0.00000000000E+00 -0.10945312484E+03  0.10945312484E+03  0.00000000000E+00 0. -1.
        -24    2    1    2    0    0  0.17882011212E+03  0.11409049564E+03  0.25975699899E+03  0.34475354159E+03  0.79925166385E+02 0.  0.
         23    2    1    2    0    0 -0.60135717948E+02 -0.90503064750E+02  0.65261870931E+02  0.15584306631E+03  0.90668849211E+02 0.  0.
         13    1    3    3    0    0  0.18268303496E+02  0.41743705583E+02  0.27276435983E+02  0.53106231540E+02  0.00000000000E+00 0. -1.
        -14    1    3    3    0    0  0.16055180863E+03  0.72346790053E+02  0.23248056301E+03  0.29164731005E+03  0.00000000000E+00 0.  1.
        -13    1    4    4    0    0 -0.64702684558E+02 -0.20924221284E+02  0.14333125136E+02  0.69496035150E+02  0.00000000000E+00 0.  1.
         13    1    4    4    0    0  0.45669666095E+01 -0.69578843465E+02  0.50928745795E+02  0.86347031160E+02  0.00000000000E+00 0. -1.
          2    1    1    2  501    0 -0.11868439417E+03 -0.23587430887E+02  0.14730476408E+03  0.19063327579E+03  0.00000000000E+00 0. -1.
<scales pt_clust_5="13000.00000" pt_clust_6="13000.00000" pt_clust_7="13000.00000" pt_clust_8="13000.00000" pt_clust_9="121.00565"></scales>
<clustering>
<clus scale="   79.925">  5  6 -1 -1</clus>
<clus scale="   90.669">  7  8 -1 -1</clus>
<clus scale="  121.006">  2  9  1 -1</clus>
<clus scale="  177.930">  1  5  2 -1</clus>
<clus scale="  121.006">  2  5  1 -1</clus>
</clustering>
</event>
<event>
 9    1  0.6345107E-005  0.1029983E+03  0.7546771E-02  0.1276837E+00
          1   -1    0    0  502    0 -0.00000000000E+00  0.00000000000E+00  0.40924767072E+03  0.40924767072E+03  0.00000000000E+00 0. -1.
         21   -1    0    0  501  502  0.00000000000E+00 -0.00000000000E+00 -0.98416879228E+02  0.98416879228E+02  0.00000000000E+00 0.  1.
        -24    2    1    2    0    0 -0.41152618887E+02 -0.37355693883E+02  0.11648272665E+03  0.15227429299E+03  0.80809954784E+02 0.  0.
         23    2    1    2    0    0  0.90111254946E+02 -0.46548701424E+02 -0.48564040152E+01  0.13376147721E+03  0.87073120159E+02 0.  0.
         13    1    3    3    0    0  0.24209467305E+02 -0.79327953191E+01  0.21873183139E+02  0.33577726090E+02  0.00000000000E+00 0. -1.
        -14    1    3    3    0    0 -0.65362086192E+02 -0.29422898564E+02  0.94609543511E+02  0.11869656690E+03  0.00000000000E+00 0.  1.
        -13    1    4    4    0    0  0.52853961966E+02 -0.55551642101E+02 -0.35682477345E+02  0.84574023346E+02  0.00000000000E+00 0.  1.
         13    1    4    4    0    0  0.37257292980E+02  0.90029406761E+01  0.30826073330E+02  0.49187453867E+02  0.00000000000E+00 0. -1.
          2    1    1    2  501    0 -0.48958636059E+02  0.83904395307E+02  0.19920446886E+03  0.22162877974E+03  0.00000000000E+00 0. -1.
<scales pt_clust_5="13000.00000" pt_clust_6="13000.00000" pt_clust_7="13000.00000" pt_clust_8="13000.00000" pt_clust_9="97.14373"></scales>
<clustering>
<clus scale="   80.810">  5  6 -1 -1</clus>
<clus scale="   87.073">  7  8 -1 -1</clus>
<clus scale="   97.144">  2  9  1 -1</clus>
<clus scale="   97.761">  1  5  2 -1</clus>
<clus scale="   97.144">  2  5  1 -1</clus>
</clustering>
</event>
<event>
 9    1  0.6345107E-005  0.9596388E+02  0.7546771E-02  0.1293117E+00
         21   -1    0    0  501  502  0.00000000000E+00  0.00000000000E+00  0.32060897823E+03  0.32060897823E+03  0.00000000000E+00 0.  1.
          3   -1    0    0  502    0 -0.00000000000E+00 -0.00000000000E+00 -0.10036056212E+03  0.10036056212E+03  0.00000000000E+00 0. -1.
         23    2    1    2    0    0 -0.20323062614E+02  0.30875157758E+02 -0.56881175116E+02  0.11201881138E+03  0.89142827977E+02 0.  0.
        -24    2    1    2    0    0 -0.90310750758E+01 -0.37535114792E+02  0.12649123624E+03  0.15533453705E+03  0.81476011159E+02 0.  0.
         13    1    4    4    0    0  0.22228395948E+02 -0.89452242017E+01  0.22457142965E+01  0.24065781831E+02  0.00000000000E+00 0. -1.
        -14    1    4    4    0    0 -0.31259471024E+02 -0.28589890590E+02  0.12424552195E+03  0.13126875522E+03  0.00000000000E+00 0.  1.
        -11    1    3    3    0    0  0.25054715591E+02  0.28372615497E+02  0.16834879211E+01  0.37889024996E+02  0.00000000000E+00 0.  1.
         11    1    3    3    0    0 -0.45377778205E+02  0.25025422604E+01 -0.58564663037E+02  0.74129786384E+02  0.00000000000E+00 0. -1.
          4    1    1    2  501    0  0.29354137690E+02  0.66599570343E+01  0.15063835499E+03  0.15361619192E+03  0.00000000000E+00 0. -1.
<scales pt_clust_5="13000.00000" pt_clust_6="13000.00000" pt_clust_7="13000.00000" pt_clust_8="13000.00000" pt_clust_9="30.10017"></scales>
<clustering>
<clus scale="   30.100">  1  9  2 -1</clus>
<clus scale="   81.476">  5  6 -1 -1</clus>
<clus scale="   88.887">  1  5  2 -1</clus>
<clus scale="   89.143">  7  8 -1 -1</clus>
<clus scale="   30.100">  1  5  2 -1</clus>
</clustering>
</event>
<event>
 9    1  0.6345107E-005  0.2427460E+03  0.7546771E-02  0.1118701E+00
         -4   -1    0    0    0  501 -0.00000000000E+00  0.00000000000E+00  0.10274721707E+04  0.10274721707E+04  0.00000000000E+00 0.  1.
         21   -1    0    0  501  502  0.00000000000E+00 -0.00000000000E+00 -0.14462455723E+03  0.14462455723E+03  0.00000000000E+00 0.  1.
         23    2    1    2    0    0  0.12877613173E+03  0.15239080468E+03  0.22322078633E+03  0.31306887333E+03  0.91533330226E+02 0.  0.
        -24    2    1    2    0    0 -0.28965206116E+03 -0.81375326078E+02  0.20766877633E+03  0.37406358523E+03  0.79227425214E+02 0.  0.
         13    1    4    4    0    0 -0.88645554909E+02 -0.63151625658E+02  0.63231850606E+02  0.12587465654E+03  0.00000000000E+00 0. -1.
        -14    1    4    4    0    0 -0.20100650625E+03 -0.18223700420E+02  0.14443692572E+03  0.24818892869E+03  0.00000000000E+00 0.  1.
        -13    1    3    3    0    0  0.27702429553E+01  0.32492286331E+02  0.34429020744E+01  0.32791408810E+02  0.00000000000E+00 0. -1.
         13    1    3    3    0    0  0.12600588878E+03  0.11989851834E+03  0.21977788425E+03  0.28027746451E+03  0.00000000000E+00 0.  1.
         -3    1    1    2    0  502  0.16087592943E+03 -0.71015478598E+02  0.45195805084E+03  0.48496426939E+03  0.00000000000E+00 0.  1.
<scales pt_clust_5="13000.00000" pt_clust_6="13000.00000" pt_clust_7="13000.00000" pt_clust_8="13000.00000" pt_clust_9="175.85305"></scales>
<clustering>
<clus scale="   79.227">  5  6 -1 -1</clus>
<clus scale="   91.533">  7  8 -1 -1</clus>
<clus scale="  175.853">  2  9  1 -1</clus>
<clus scale="  238.378">  2  5  1 -1</clus>
<clus scale="  175.853">  2  5  1 -1</clus>
</clustering>
</event>
<event>
 9    1  0.6345107E-005  0.2741850E+03  0.7546771E-02  0.1134186E+00
         21   -1    0    0  501  502  0.00000000000E+00  0.00000000000E+00  0.31144234450E+03  0.31144234450E+03  0.00000000000E+00 0. -1.
          1   -1    0    0  502    0 -0.00000000000E+00 -0.00000000000E+00 -0.50639206016E+03  0.50639206016E+03  0.00000000000E+00 0. -1.
        -24    2    1    2    0    0 -0.71670418980E+02  0.31485643462E+02 -0.18025003078E+03  0.21264210417E+03  0.81231743604E+02 0.  0.
         23    2    1    2    0    0 -0.21963196718E+03 -0.10614726727E+03  0.10627067724E+03  0.28105457241E+03  0.90513935271E+02 0.  0.
         13    1    3    3    0    0 -0.74280199098E+02  0.48777708930E+02 -0.11641920491E+03  0.14645901863E+03  0.00000000000E+00 0. -1.
        -14    1    3    3    0    0  0.26097801182E+01 -0.17292065467E+02 -0.63830825866E+02  0.66183085537E+02  0.00000000000E+00 0.  1.
        -13    1    4    4    0    0 -0.12911923344E+02 -0.19451415766E+02  0.41675690955E+02  0.47769640530E+02  0.00000000000E+00 0.  1.
         13    1    4    4    0    0 -0.20672004384E+03 -0.86695851505E+02  0.64594986280E+02  0.23328493188E+03  0.00000000000E+00 0. -1.
          2    1    1    2  501    0  0.29130238616E+03  0.74661623808E+02 -0.12097036212E+03  0.32413772808E+03  0.00000000000E+00 0. -1.
<scales pt_clust_5="13000.00000" pt_clust_6="13000.00000" pt_clust_7="13000.00000" pt_clust_8="13000.00000" pt_clust_9="258.81403"></scales>
<clustering>
<clus scale="   81.232">  5  6 -1 -1</clus>
<clus scale="   90.514">  7  8 -1 -1</clus>
<clus scale="  112.812">  2  5  1 -1</clus>
<clus scale="  258.814">  1  9  2 -1</clus>
<clus scale="  258.814">  1  5  2 -1</clus>
</clustering>
</event>
<event>
 9    1  0.6345107E-005  0.1083751E+03  0.7546771E-02  0.1268523E+00
         21   -1    0    0  501  502  0.00000000000E+00  0.00000000000E+00  0.10383576259E+03  0.10383576259E+03  0.00000000000E+00 0.  1.
         -2   -1    0    0    0  501 -0.00000000000E+00 -0.00000000000E+00 -0.25161327514E+03  0.25161327514E+03  0.00000000000E+00 0.  1.
        -24    2    1    2    0    0  0.66743050596E+02  0.82183356949E+01 -0.16616749473E+03  0.19672093712E+03  0.81026631122E+02 0.  0.
         23    2    1    2    0    0 -0.13329825426E+02  0.19754258598E+02  0.22106810530E+02  0.98319049407E+02  0.92790136469E+02 0.  0.
         13    1    3    3    0    0  0.30350478799E+02 -0.12877762496E+02 -0.92205224914E+01  0.34234578503E+02  0.00000000000E+00 0. -1.
        -14    1    3    3    0    0  0.36392571797E+02  0.21096098191E+02 -0.15694697224E+03  0.16248635862E+03  0.00000000000E+00 0.  1.
        -11    1    4    4    0    0  0.32591334150E+02 -0.49749569859E+01  0.31181918254E+02  0.45379040148E+02  0.00000000000E+00 0.  1.
         11    1    4    4    0    0 -0.45921159577E+02  0.24729215583E+02 -0.90751077238E+01  0.52940009260E+02  0.00000000000E+00 0. -1.
         -1    1    1    2    0  502 -0.53413225169E+02 -0.27972594292E+02 -0.37168283568E+01  0.60409051205E+02  0.00000000000E+00 0.  1.
<scales pt_clust_5="13000.00000" pt_clust_6="13000.00000" pt_clust_7="13000.00000" pt_clust_8="13000.00000" pt_clust_9="60.29460"></scales>
<clustering>
<clus scale="   60.295">  1  9  2 -1</clus>
<clus scale="   81.027">  5  6 -1 -1</clus>
<clus scale="   92.790">  7  8 -1 -1</clus>
<clus scale="   98.491">  2  5  1 -1</clus>
<clus scale="   60.295">  1  5  2 -1</clus>
</clustering>
</event>
<event>
 9    1  0.6345107E-005  0.1338353E+03  0.7546771E-02  0.1242931E+00
         -4   -1    0    0    0  501 -0.00000000000E+00  0.00000000000E+00  0.26824209379E+03  0.26824209379E+03  0.00000000000E+00 0.  1.
         21   -1    0    0  501  502  0.00000000000E+00 -0.00000000000E+00 -0.11543031451E+03  0.11543031451E+03  0.00000000000E+00 0. -1.
        -24    2    1    2    0    0 -0.28584749501E+02  0.23479521255E+02 -0.12399425214E+02  0.87670876554E+02  0.78511534361E+02 0.  0.
         23    2    1    2    0    0 -0.73599550604E+02  0.39939324981E+02  0.61464515506E+02  0.13717157008E+03  0.89588556431E+02 0.  0.
         13    1    3    3    0    0  0.21134249429E+02  0.90678296030E+01 -0.25433948808E+02  0.34289470463E+02  0.00000000000E+00 0. -1.
        -14    1    3    3    0    0 -0.49718998931E+02  0.14411691652E+02  0.13034523594E+02  0.53381406091E+02  0.00000000000E+00 0.  1.
        -13    1    4    4    0    0 -0.13867489219E+02  0.43682954511E+02  0.62268742764E+02  0.77316906931E+02  0.00000000000E+00 0. -1.
         13    1    4    4    0    0 -0.59732061386E+02 -0.37436295303E+01 -0.80422725763E+00  0.59854663151E+02  0.00000000000E+00 0.  1.
         -3    1    1    2    0  502  0.10218430011E+03 -0.63418846236E+02  0.10374668899E+03  0.15882996166E+03  0.00000000000E+00 0.  1.
<scales pt_clust_5="13000.00000" pt_clust_6="13000.00000" pt_clust_7="13000.00000" pt_clust_8="13000.00000" pt_clust_9="99.42725"></scales>
<clustering>
<clus scale="   78.512">  5  6 -1 -1</clus>
<clus scale="   86.790">  1  5  2 -1</clus>
<clus scale="   89.589">  7  8 -1 -1</clus>
<clus scale="   99.427">  2  9  1 -1</clus>
<clus scale="   99.427">  2  5  1 -1</clus>
</clustering>
</event>
<event>
 9    1  0.6345107E-005  0.1420951E+03  0.7546771E-02  0.1211876E+00
         -4   -1    0    0    0  501 -0.00000000000E+00  0.00000000000E+00  0.69492078476E+02  0.69492078476E+02  0.00000000000E+00 0.  1.
         21   -1    0    0  501  502  0.00000000000E+00 -0.00000000000E+00 -0.11858959961E+04  0.11858959961E+04  0.00000000000E+00 0.  1.
         23    2    1    2    0    0 -0.33947720424E+02  0.12307023976E+03 -0.38879536279E+02  0.16021141713E+03  0.88641684329E+02 0.  0.
        -24    2    1    2    0    0  0.38695650264E+02 -0.36132059352E+02 -0.38487286947E+03  0.39707429607E+03  0.82085272035E+02 0.  0.
         11    1    4    4    0    0  0.46116662484E+02 -0.58256771359E+02 -0.28792210240E+03  0.29735456112E+03  0.00000000000E+00 0. -1.
        -12    1    4    4    0    0 -0.74210122208E+01  0.22124712006E+02 -0.96950767062E+02  0.99719734946E+02  0.00000000000E+00 0.  1.
        -13    1    3    3    0    0 -0.11660795786E+02  0.12302828190E+03 -0.10355261151E+02  0.12401275636E+03  0.00000000000E+00 0.  1.
         13    1    3    3    0    0 -0.22286924638E+02  0.41957862995E-01 -0.28524275128E+02  0.36198660775E+02  0.00000000000E+00 0. -1.
         -3    1    1    2    0  502 -0.47479298395E+01 -0.86938180412E+02 -0.69265151192E+03  0.69810236142E+03  0.00000000000E+00 0.  1.
<scales pt_clust_5="13000.00000" pt_clust_6="13000.00000" pt_clust_7="13000.00000" pt_clust_8="13000.00000" pt_clust_9="87.06773"></scales>
<clustering>
<clus scale="   82.085">  5  6 -1 -1</clus>
<clus scale="   87.068">  2  9  1 -1</clus>
<clus scale="   88.642">  7  8 -1 -1</clus>
<clus scale="  138.100">  2  5  1 -1</clus>
<clus scale="   87.068">  2  5  1 -1</clus>
</clustering>
</event>
<event>
 9    1  0.6345107E-005  0.9209574E+02  0.7546771E-02  0.1304050E+00
          1   -1    0    0  502    0 -0.00000000000E+00  0.00000000000E+00  0.41448721219E+03  0.41448721219E+03  0.00000000000E+00 0. -1.
         21   -1    0    0  501  502  0.00000000000E+00 -0.00000000000E+00 -0.55815415179E+02  0.55815415179E+02  0.00000000000E+00 0. -1.
        -24    2    1    2    0    0  0.21696568678E+00  0.21165186282E+01  0.26708149249E+03  0.27934394094E+03  0.81829010669E+02 0.  0.
         23    2    1    2    0    0  0.15659707896E+01  0.37362595848E+02  0.10939023811E+03  0.14761567110E+03  0.91791864162E+02 0.  0.
         13    1    3    3    0    0 -0.39274544541E+00  0.39580808794E+02  0.89654382919E+02  0.98003586926E+02  0.00000000000E+00 0. -1.
        -14    1    3    3    0    0  0.60971113219E+00 -0.37464290166E+02  0.17742710957E+03  0.18134035401E+03  0.00000000000E+00 0.  1.
        -11    1    4    4    0    0  0.13100289537E+02 -0.25074778461E+02  0.62749936542E+02  0.68832526009E+02  0.00000000000E+00 0.  1.
         11    1    4    4    0    0 -0.11534318748E+02  0.62437374309E+02  0.46640301573E+02  0.78783145090E+02  0.00000000000E+00 0. -1.
          2    1    1    2  501    0 -0.17829364764E+01 -0.39479114476E+02 -0.17799933587E+02  0.43343015331E+02  0.00000000000E+00 0. -1.
<scales pt_clust_5="13000.00000" pt_clust_6="13000.00000" pt_clust_7="13000.00000" pt_clust_8="13000.00000" pt_clust_9="39.51935"></scales>
<clustering>
<clus scale="   39.519">  2  9  1 -1</clus>
<clus scale="   81.829">  5  6 -1 -1</clus>
<clus scale="   82.170">  1  5  2 -1</clus>
<clus scale="   91.792">  7  8 -1 -1</clus>
<clus scale="   39.519">  2  5  1 -1</clus>
</clustering>
</event>
<event>
 9    1  0.6345107E-005  0.1849864E+03  0.7546771E-02  0.1164044E+00
         21   -1    0    0  501  502  0.00000000000E+00  0.00000000000E+00  0.27250589126E+03  0.27250589126E+03  0.00000000000E+00 0.  1.
         -2   -1    0    0    0  501 -0.00000000000E+00 -0.00000000000E+00 -0.35044022850E+03  0.35044022850E+03  0.00000000000E+00 0.  1.
         23    2    1    2    0    0 -0.62809869317E+02 -0.15979687276E+03 -0.25649333534E+03  0.32159273598E+03  0.90293612899E+02 0.  0.
        -24    2    1    2    0    0  0.60857055551E+02  0.81045799365E+02  0.18061991564E+03  0.22255114762E+03  0.81446034748E+02 0.  0.
         13    1    4    4    0    0  0.36688026883E+02  0.15972629083E+02  0.14585134481E+02  0.42589462831E+02  0.00000000000E+00 0. -1.
        -14    1    4    4    0    0  0.24169028668E+02  0.65073170282E+02  0.16603478116E+03  0.17996168479E+03  0.00000000000E+00 0.  1.
        -11    1    3    3    0    0  0.14287636532E+02 -0.42904970276E+02 -0.26754298990E+02  0.52542987606E+02  0.00000000000E+00 0.  1.
         11    1    3    3    0    0 -0.77097505849E+02 -0.11689190248E+03 -0.22973903635E+03  0.26904974837E+03  0.00000000000E+00 0. -1.
         -1    1    1    2    0  502  0.19528137662E+01  0.78751073392E+02 -0.20609175438E+01  0.78802236156E+02  0.00000000000E+00 0.  1.
<scales pt_clust_5="13000.00000" pt_clust_6="13000.00000" pt_clust_7="13000.00000" pt_clust_8="13000.00000" pt_clust_9="78.77528"></scales>
<clustering>
<clus scale="   78.775">  1  9  2 -1</clus>
<clus scale="   81.446">  5  6 -1 -1</clus>
<clus scale="   90.294">  7  8 -1 -1</clus>
<clus scale="  180.833">  1  5  2 -1</clus>
<clus scale="   78.775">  1  5  2 -1</clus>
</clustering>
</event>
<event>
 9    1  0.6345107E-005  0.2114321E+03  0.7546771E-02  0.1169234E+00
         21   -1    0    0  501  502  0.00000000000E+00  0.00000000000E+00  0.57628664542E+03  0.57628664542E+03  0.00000000000E+00 0. -1.
          3   -1    0    0  502    0 -0.00000000000E+00 -0.00000000000E+00 -0.15108478072E+03  0.15108478072E+03  0.00000000000E+00 0. -1.
        -24    2    1    2    0    0  0.66701573199E+02  0.19884924256E+02  0.19930856863E+03  0.22644112100E+03  0.81897287334E+02 0.  0.
         23    2    1    2    0    0 -0.21333965382E+03  0.50657522415E+01  0.26079701298E+03  0.34814440134E+03  0.87464121023E+02 0.  0.
         13    1    3    3    0    0  0.29502437343E+02 -0.42766563869E+01  0.17153550209E+03  0.17410661123E+03  0.00000000000E+00 0. -1.
        -14    1    3    3    0    0  0.37199135856E+02  0.24161580642E+02  0.27773066538E+02  0.52334509766E+02  0.00000000000E+00 0.  1.
        -13    1    4    4    0    0 -0.56098616260E+02  0.74925462591E+01  0.13625507811E+03  0.14754199167E+03  0.00000000000E+00 0.  1.
         13    1    4    4    0    0 -0.15724103756E+03 -0.24267940175E+01  0.12454193486E+03  0.20060240966E+03  0.00000000000E+00 0. -1.
          4    1    1    2  501    0  0.14663808062E+03 -0.24950676497E+02 -0.34903716903E+02  0.15278590380E+03  0.00000000000E+00 0. -1.
<scales pt_clust_5="13000.00000" pt_clust_6="13000.00000" pt_clust_7="13000.00000" pt_clust_8="13000.00000" pt_clust_9="192.49312"></scales>
<clustering>
<clus scale="   81.897">  5  6 -1 -1</clus>
<clus scale="   87.464">  7  8 -1 -1</clus>
<clus scale="  107.479">  2  5  1 -1</clus>
<clus scale="  192.493">  1  9  2 -1</clus>
<clus scale="  192.493">  1  5  2 -1</clus>
</clustering>
</event>
<event>
 9    1  0.6345107E-005  0.3470353E+03  0.7546771E-02  0.1097250E+00
          1   -1    0    0  502    0 -0.00000000000E+00  0.00000000000E+00  0.95883584904E+03  0.95883584904E+03  0.00000000000E+00 0. -1.
         21   -1    0    0  501  502  0.00000000000E+00 -0.00000000000E+00 -0.22214247617E+03  0.22214247617E+03  0.00000000000E+00 0. -1.
         23    2    1    2    0    0  0.86047136960E+02  0.63802768983E+02  0.18532561754E+03  0.23298044235E+03  0.91974990574E+02 0.  0.
        -24    2    1    2    0    0 -0.49625967548E+02  0.31835675375E+03  0.83130807736E+02  0.34250779913E+03  0.81160963239E+02 0.  0.
         13    1    4    4    0    0 -0.23950258892E+01  0.31518087473E+02 -0.15924329128E+02  0.35393646960E+02  0.00000000000E+00 0. -1.
        -14    1    4    4    0    0 -0.47230941659E+02  0.28683866628E+03  0.99055136863E+02  0.30711415217E+03  0.00000000000E+00 0.  1.
        -13    1    3    3    0    0  0.69124133208E+02  0.35971419645E+00  0.60161864675E+02  0.91639102719E+02  0.00000000000E+00 0.  1.
         13    1    3    3    0    0  0.16923003752E+02  0.63443054787E+02  0.12516375287E+03  0.14134133963E+03  0.00000000000E+00 0. -1.
          2    1    1    2  501    0 -0.36421169412E+02 -0.38215952273E+03  0.46823694759E+03  0.60549008373E+03  0.00000000000E+00 0. -1.
<scales pt_clust_5="13000.00000" pt_clust_6="13000.00000" pt_clust_7="13000.00000" pt_clust_8="13000.00000" pt_clust_9="337.41148"></scales>
<clustering>
<clus scale="   81.161">  5  6 -1 -1</clus>
<clus scale="   91.975">  7  8 -1 -1</clus>
<clus scale="  141.189">  1  7  2 -1</clus>
<clus scale="  337.411">  2  9  1 -1</clus>
<clus scale="  337.411">  2  5  1 -1</clus>
</clustering>
</event>
<event>
 9    1  0.6345107E-005  0.1016191E+03  0.7546771E-02  0.1277339E+00
          1   -1    0    0  502    0 -0.00000000000E+00  0.00000000000E+00  0.40773731347E+03  0.40773731347E+03  0.00000000000E+00 0. -1.
         21   -1    0    0  501  502  0.00000000000E+00 -0.00000000000E+00 -0.47046156014E+02  0.47046156014E+02  0.00000000000E+00 0.  1.
         23    2    1    2    0    0 -0.29081904482E+02  0.46407591080E+02  0.30825966153E+03  0.32499234770E+03  0.87158392922E+02 0.  0.
        -24    2    1    2    0    0  0.86114739198E+01 -0.43747565184E+02  0.36473164965E+02  0.10369931096E+03  0.86227886372E+02 0.  0.
         11    1    4    4    0    0  0.17485820441E+02 -0.38779996481E+02  0.62586729280E+02  0.75675231916E+02  0.00000000000E+00 0. -1.
        -12    1    4    4    0    0 -0.88743465210E+01 -0.49675687028E+01 -0.26113564315E+02  0.28024079043E+02  0.00000000000E+00 0.  1.
        -11    1    3    3    0    0  0.26123330684E+02  0.17235254470E+02  0.47661809826E+02  0.57018685697E+02  0.00000000000E+00 0.  1.
         11    1    3    3    0    0 -0.55205235166E+02  0.29172336610E+02  0.26059785171E+03  0.26797366200E+03  0.00000000000E+00 0. -1.
          2    1    1    2  501    0  0.20470430562E+02 -0.26600258961E+01  0.15958330958E+02  0.26091810825E+02  0.00000000000E+00 0. -1.
<scales pt_clust_5="13000.00000" pt_clust_6="13000.00000" pt_clust_7="13000.00000" pt_clust_8="13000.00000" pt_clust_9="20.64254"></scales>
<clustering>
<clus scale="   20.643">  2  9  1 -1</clus>
<clus scale="   86.228">  5  6 -1 -1</clus>
<clus scale="   87.158">  7  8 -1 -1</clus>
<clus scale="  100.822">  2  5  1 -1</clus>
<clus scale="   20.643">  2  5  1 -1</clus>
</clustering>
</event>
<event>
 9    1  0.6345107E-005  0.8378840E+02  0.7546771E-02  0.1320247E+00
         21   -1    0    0  501  502  0.00000000000E+00  0.00000000000E+00  0.29327609904E+03  0.29327609904E+03  0.00000000000E+00 0.  1.
         -2   -1    0    0    0  501 -0.00000000000E+00 -0.00000000000E+00 -0.58897805662E+02  0.58897805662E+02  0.00000000000E+00 0.  1.
        -24    2    1    2    0    0 -0.91091689998E+01  0.12259679991E+02 -0.65438706069E+01  0.83054042300E+02  0.81374903911E+02 0.  0.
         23    2    1    2    0    0  0.29019401967E+02 -0.33610658686E+02  0.18831553819E+03  0.20895559771E+03  0.78917031267E+02 0.  0.
         13    1    3    3    0    0  0.23687559565E+02  0.27948397064E+02  0.16319347996E+02  0.40106539312E+02  0.00000000000E+00 0. -1.
        -14    1    3    3    0    0 -0.32796728565E+02 -0.15688717073E+02 -0.22863218603E+02  0.42947502987E+02  0.00000000000E+00 0.  1.
        -11    1    4    4    0    0 -0.27615161873E+01 -0.52786147695E+02  0.98833360488E+02  0.11208049119E+03  0.00000000000E+00 0.  1.
         11    1    4    4    0    0  0.31780918154E+02  0.19175489009E+02  0.89482177698E+02  0.96875106519E+02  0.00000000000E+00 0. -1.
         -1    1    1    2    0  502 -0.19910232967E+02  0.21350978695E+02  0.52606625802E+02  0.60164264696E+02  0.00000000000E+00 0.  1.
<scales pt_clust_5="13000.00000" pt_clust_6="13000.00000" pt_clust_7="13000.00000" pt_clust_8="13000.00000" pt_clust_9="29.19386"></scales>
<clustering>
<clus scale="   29.194">  1  9  2 -1</clus>
<clus scale="   78.917">  7  8 -1 -1</clus>
<clus scale="   81.375">  5  6 -1 -1</clus>
<clus scale="   81.403">  1  7  2 -1</clus>
<clus scale="   29.194">  1  5  2 -1</clus>
</clustering>
</event>
<event>
 9    1  0.6345107E-005  0.1071759E+03  0.7546771E-02  0.1267081E+00
          1   -1    0    0  502    0 -0.00000000000E+00  0.00000000000E+00  0.26228911614E+03  0.26228911614E+03  0.00000000000E+00 0. -1.
         21   -1    0    0  501  502  0.00000000000E+00 -0.00000000000E+00 -0.15231024689E+03  0.15231024689E+03  0.00000000000E+00 0.  1.
         23    2    1    2    0    0  0.23060315610E+02 -0.54990675988E+02  0.11197869145E+03  0.15667384897E+03  0.91933209512E+02 0.  0.
        -24    2    1    2    0    0  0.81663172231E+02  0.54842449494E+02 -0.58776033114E+02  0.13880133934E+03  0.78323826316E+02 0.  0.
         13    1    4    4    0    0  0.36935022971E+02  0.15923043415E+01  0.12687288524E+02  0.39085785717E+02  0.00000000000E+00 0. -1.
        -14    1    4    4    0    0  0.44728149260E+02  0.53250145153E+02 -0.71463321637E+02  0.99715553623E+02  0.00000000000E+00 0.  1.
        -11    1    3    3    0    0  0.47356518194E+02 -0.37652599779E+02  0.11145961309E+03  0.12682114743E+03  0.00000000000E+00 0.  1.
         11    1    3    3    0    0 -0.24296202583E+02 -0.17338076209E+02  0.51907835249E+00  0.29852701535E+02  0.00000000000E+00 0. -1.
          2    1    1    2  501    0 -0.10472348784E+03  0.14822649401E+00  0.56776210919E+02  0.11912417472E+03  0.00000000000E+00 0. -1.
<scales pt_clust_5="13000.00000" pt_clust_6="13000.00000" pt_clust_7="13000.00000" pt_clust_8="13000.00000" pt_clust_9="104.72365"></scales>
<clustering>
<clus scale="   78.324">  5  6 -1 -1</clus>
<clus scale="   91.933">  7  8 -1 -1</clus>
<clus scale="  104.724">  2  9  1 -1</clus>
<clus scale="  104.724">  2  5  1 -1</clus>
<clus scale="  104.724">  2  5  1 -1</clus>
</clustering>
</event>
<event>
 9    1  0.6345107E-005  0.2976603E+03  0.7546771E-02  0.1086416E+00
          1   -1    0    0  502    0 -0.00000000000E+00  0.00000000000E+00  0.10651218821E+04  0.10651218821E+04  0.00000000000E+00 0. -1.
         21   -1    0    0  501  502  0.00000000000E+00 -0.00000000000E+00 -0.67427239598E+02  0.67427239598E+02  0.00000000000E+00 0. -1.
        -24    2    1    2    0    0  0.13511251061E+03 -0.28272867414E+02  0.29580008574E+03  0.33609276121E+03  0.80036915609E+02 0.  0.
         23    2    1    2    0    0  0.71055298342E+02 -0.62106164970E+02  0.39270789215E+03  0.41400384251E+03  0.90959671852E+02 0.  0.
         11    1    3    3    0    0  0.13347495835E+03 -0.12311796123E+02  0.28918093928E+03  0.31873619260E+03  0.00000000000E+00 0. -1.
        -12    1    3    3    0    0  0.16375522632E+01 -0.15961071291E+02  0.66191464591E+01  0.17356568613E+02  0.00000000000E+00 0.  1.
        -13    1    4    4    0    0  0.63751641805E+02 -0.34700540984E+02  0.37166932490E+03  0.37869048899E+03  0.00000000000E+00 0. -1.
         13    1    4    4    0    0  0.73036565372E+01 -0.27405623986E+02  0.21038567250E+02  0.35313353520E+02  0.00000000000E+00 0.  1.
          2    1    1    2  501    0 -0.20616780895E+03  0.90379032384E+02  0.30918666466E+03  0.38245251803E+03  0.00000000000E+00 0. -1.
<scales pt_clust_5="13000.00000" pt_clust_6="13000.00000" pt_clust_7="13000.00000" pt_clust_8="13000.00000" pt_clust_9="225.10783"></scales>
<clustering>
<clus scale="   80.037">  5  6 -1 -1</clus>
<clus scale="   90.960">  7  8 -1 -1</clus>
<clus scale="  117.541">  5  7 -1 -1</clus>
<clus scale="  225.108">  2  9  1 -1</clus>
<clus scale="  225.108">  2  5  1 -1</clus>
</clustering>
</event>
<event>
 9    1  0.6345107E-005  0.1043673E+03  0.7546771E-02  0.1275732E+00
         21   -1    0    0  501  502  0.00000000000E+00  0.00000000000E+00  0.30261695195E+02  0.30261695195E+02  0.00000000000E+00 0.  1.
         -4   -1    0    0    0  501 -0.00000000000E+00 -0.00000000000E+00 -0.80580436737E+03  0.80580436737E+03  0.00000000000E+00 0.  1.
        -24    2    1    2    0    0  0.21422393049E+02  0.53545321622E+02 -0.30701858067E+03  0.32223185745E+03  0.79037590336E+02 0.  0.
         23    2    1    2    0    0 -0.80902054160E+02  0.61277184263E+01 -0.33447059847E+03  0.35550214649E+03  0.89042145171E+02 0.  0.
         13    1    3    3    0    0 -0.15472931454E+02 -0.13809933595E+02 -0.76222950629E+02  0.78994076210E+02  0.00000000000E+00 0. -1.
        -14    1    3    3    0    0  0.36895324503E+02  0.67355255217E+02 -0.23079563004E+03  0.24323778124E+03  0.00000000000E+00 0.  1.
        -11    1    4    4    0    0 -0.15258255682E+02 -0.33343436642E+02 -0.58018635323E+02  0.68634985090E+02  0.00000000000E+00 0. -1.
         11    1    4    4    0    0 -0.65643798478E+02  0.39471155068E+02 -0.27645196315E+03  0.28686716140E+03  0.00000000000E+00 0.  1.
         -3    1    1    2    0  502  0.59479661111E+02 -0.59673040049E+02 -0.13405349304E+03  0.15833205863E+03  0.00000000000E+00 0.  1.
<scales pt_clust_5="13000.00000" pt_clust_6="13000.00000" pt_clust_7="13000.00000" pt_clust_8="13000.00000" pt_clust_9="84.25379"></scales>
<clustering>
<clus scale="   79.038">  5  6 -1 -1</clus>
<clus scale="   84.254">  1  9  2 -1</clus>
<clus scale="   89.042">  7  8 -1 -1</clus>
<clus scale="   95.974">  2  5  1 -1</clus>
<clus scale="   84.254">  1  5  2 -1</clus>
</clustering>
</event>
<event>
 9    1  0.6345107E-005  0.1819184E+03  0.7546771E-02  0.1199727E+00
         21   -1    0    0  501  502  0.00000000000E+00  0.00000000000E+00  0.15531191946E+03  0.15531191946E+03  0.00000000000E+00 0. -1.
          1   -1    0    0  502    0 -0.00000000000E+00 -0.00000000000E+00 -0.59248406948E+03  0.59248406948E+03  0.00000000000E+00 0. -1.
        -24    2    1    2    0    0 -0.18022749035E+02 -0.18616482576E+02 -0.40900068066E+02  0.94744237925E+02  0.81438701769E+02 0.  0.
         23    2    1    2    0    0  0.73020642952E+02  0.16374562534E+03 -0.44676298870E+03  0.48984461857E+03  0.90586633419E+02 0.  0.
         11    1    3    3    0    0 -0.13289855979E+02  0.27995956290E+02  0.22199476581E+01  0.31069631606E+02  0.00000000000E+00 0. -1.
        -12    1    3    3    0    0 -0.47328930562E+01 -0.46612438866E+02 -0.43120015724E+02  0.63674606318E+02  0.00000000000E+00 0.  1.
        -11    1    4    4    0    0 -0.42762800732E+01  0.29661719821E+02 -0.17111500418E+03  0.17371945444E+03  0.00000000000E+00 0.  1.
         11    1    4    4    0    0  0.77296923025E+02  0.13408390552E+03 -0.27564798452E+03  0.31612516413E+03  0.00000000000E+00 0. -1.
          2    1    1    2  501    0 -0.54997893917E+02 -0.14512914276E+03  0.50490906747E+02  0.16320713244E+03  0.00000000000E+00 0. -1.
<scales pt_clust_5="13000.00000" pt_clust_6="13000.00000" pt_clust_7="13000.00000" pt_clust_8="13000.00000" pt_clust_9="157.76050"></scales>
<clustering>
<clus scale="   81.439">  5  6 -1 -1</clus>
<clus scale="   85.461">  2  5  1 -1</clus>
<clus scale="   90.587">  7  8 -1 -1</clus>
<clus scale="  157.760">  1  9  2 -1</clus>
<clus scale="  157.760">  1  5  2 -1</clus>
</clustering>
</event>
<event>
 9    1  0.6345107E-005  0.1618501E+03  0.7546771E-02  0.1214549E+00
         21   -1    0    0  501  502  0.00000000000E+00  0.00000000000E+00  0.51090136096E+02  0.51090136096E+02  0.00000000000E+00 0.  1.
          1   -1    0    0  502    0 -0.00000000000E+00 -0.00000000000E+00 -0.10841077679E+04  0.10841077679E+04  0.00000000000E+00 0. -1.
        -24    2    1    2    0    0  0.27521809473E+01  0.38866082018E+02 -0.64357431828E+02  0.10926032774E+03  0.79232527130E+02 0.  0.
         23    2    1    2    0    0 -0.57802005971E+02  0.11575067971E+03 -0.29098662711E+03  0.32867270720E+03  0.81321827069E+02 0.  0.
         13    1    3    3    0    0  0.21045511575E+02  0.57818466679E+02 -0.49847200672E+02  0.79187322605E+02  0.00000000000E+00 0. -1.
        -14    1    3    3    0    0 -0.18293330627E+02 -0.18952384661E+02 -0.14510231156E+02  0.30073005137E+02  0.00000000000E+00 0.  1.
        -13    1    4    4    0    0 -0.32966833848E+02  0.12145062967E+03 -0.25737560061E+03  0.28649479467E+03  0.00000000000E+00 0.  1.
         13    1    4    4    0    0 -0.24835172123E+02 -0.56999499584E+01 -0.33611026496E+02  0.42177912537E+02  0.00000000000E+00 0. -1.
          2    1    1    2  501    0  0.55049825023E+02 -0.15461676173E+03 -0.67767357285E+03  0.69726486903E+03  0.00000000000E+00 0. -1.
<scales pt_clust_5="13000.00000" pt_clust_6="13000.00000" pt_clust_7="13000.00000" pt_clust_8="13000.00000" pt_clust_9="139.93659"></scales>
<clustering>
<clus scale="   79.233">  5  6 -1 -1</clus>
<clus scale="   81.322">  7  8 -1 -1</clus>
<clus scale="   88.295">  2  5  1 -1</clus>
<clus scale="  139.937">  1  9  2 -1</clus>
<clus scale="  139.937">  1  5  2 -1</clus>
</clustering>
</event>
<event>
 9    1  0.6345107E-005  0.1084646E+03  0.7546771E-02  0.1268729E+00
         21   -1    0    0  501  502  0.00000000000E+00  0.00000000000E+00  0.10475089454E+03  0.10475089454E+03  0.00000000000E+00 0.  1.
         -2   -1    0    0    0  501 -0.00000000000E+00 -0.00000000000E+00 -0.62164587284E+03  0.62164587284E+03  0.00000000000E+00 0.  1.
        -24    2    1    2    0    0 -0.62968571494E+02 -0.40591698896E+01 -0.33333685133E+03  0.34778675525E+03  0.76554900645E+02 0.  0.
         23    2    1    2    0    0  0.47782219647E+02 -0.64188692215E+02 -0.25297324932E+03  0.28008663838E+03  0.89720295367E+02 0.  0.
         13    1    3    3    0    0  0.69538447540E+00  0.24315923620E+02 -0.45100429986E+02  0.51242526148E+02  0.00000000000E+00 0. -1.
        -14    1    3    3    0    0 -0.63663955970E+02 -0.28375093510E+02 -0.28823642135E+03  0.29654422910E+03  0.00000000000E+00 0.  1.
        -13    1    4    4    0    0 -0.11519984143E+02 -0.53215217429E+02 -0.78909800316E+02  0.95871403383E+02  0.00000000000E+00 0.  1.
         13    1    4    4    0    0  0.59302203790E+02 -0.10973474786E+02 -0.17406344901E+03  0.18421523499E+03  0.00000000000E+00 0. -1.
         -1    1    1    2    0  502  0.15186351848E+02  0.68247862105E+02  0.69415122359E+02  0.98523373757E+02  0.00000000000E+00 0.  1.
<scales pt_clust_5="13000.00000" pt_clust_6="13000.00000" pt_clust_7="13000.00000" pt_clust_8="13000.00000" pt_clust_9="69.91706"></scales>
<clustering>
<clus scale="   69.917">  1  9  2 -1</clus>
<clus scale="   76.555">  5  6 -1 -1</clus>
<clus scale="   89.720">  7  8 -1 -1</clus>
<clus scale="   97.854">  2  5  1 -1</clus>
<clus scale="   69.917">  1  5  2 -1</clus>
</clustering>
</event>
<event>
 9    1  0.6345107E-005  0.1092936E+03  0.7546771E-02  0.1267855E+00
         21   -1    0    0  501  502  0.00000000000E+00  0.00000000000E+00  0.12205014357E+03  0.12205014357E+03  0.00000000000E+00 0.  1.
         -2   -1    0    0    0  501 -0.00000000000E+00 -0.00000000000E+00 -0.43454319004E+03  0.43454319004E+03  0.00000000000E+00 0.  1.
         23    2    1    2    0    0 -0.46217405574E+02 -0.41097274634E+02 -0.31099685962E+03  0.32998147427E+03  0.91343812668E+02 0.  0.
        -24    2    1    2    0    0  0.54079260486E+02  0.22011904807E+02 -0.92366486162E+02  0.13342671352E+03  0.76563893229E+02 0.  0.
         11    1    4    4    0    0  0.30213676420E+02  0.44749082309E+02 -0.83249877815E+02  0.99226451950E+02  0.00000000000E+00 0. -1.
        -12    1    4    4    0    0  0.23865584066E+02 -0.22737177502E+02 -0.91166083469E+01  0.34200261568E+02  0.00000000000E+00 0.  1.
        -13    1    3    3    0    0  0.80323110933E+01 -0.18840841488E+02 -0.90470426135E+01  0.22390719272E+02  0.00000000000E+00 0. -1.
         13    1    3    3    0    0 -0.54249716667E+02 -0.22256433147E+02 -0.30194981700E+03  0.30759075500E+03  0.00000000000E+00 0.  1.
         -1    1    1    2    0  502 -0.78618549120E+01  0.19085369828E+02  0.90870299311E+02  0.93185145817E+02  0.00000000000E+00 0.  1.
<scales pt_clust_5="13000.00000" pt_clust_6="13000.00000" pt_clust_7="13000.00000" pt_clust_8="13000.00000" pt_clust_9="20.64122"></scales>
<clustering>
<clus scale="   20.641">  1  9  2 -1</clus>
<clus scale="   76.564">  5  6 -1 -1</clus>
<clus scale="   91.344">  7  8 -1 -1</clus>
<clus scale="   97.280">  1  5  2 -1</clus>
<clus scale="   20.641">  1  5  2 -1</clus>
</clustering>
</event>
<event>
 9    1  0.6345107E-005  0.1063973E+03  0.7546771E-02  0.1272574E+00
         -4   -1    0    0    0  501 -0.00000000000E+00  0.00000000000E+00  0.29286971586E+02  0.29286971586E+02  0.00000000000E+00 0.  1.
         21   -1    0    0  501  502  0.00000000000E+00 -0.00000000000E+00 -0.56311194519E+03  0.56311194519E+03  0.00000000000E+00 0. -1.
         23    2    1    2    0    0 -0.63965918573E+02 -0.84673597545E+01 -0.22312084822E+03  0.25051528649E+03  0.93870447616E+02 0.  0.
        -24    2    1    2    0    0  0.34286523642E+02 -0.29458770846E+02 -0.22068288012E+03  0.23979013164E+03  0.82188738721E+02 0.  0.
         11    1    4    4    0    0  0.37126838701E+02  0.78445029592E+01 -0.18223792132E+03  0.18614671188E+03  0.00000000000E+00 0. -1.
        -12    1    4    4    0    0 -0.28403150595E+01 -0.37303273805E+02 -0.38444958798E+02  0.53643419757E+02  0.00000000000E+00 0.  1.
        -11    1    3    3    0    0 -0.29943149990E+02 -0.34136797265E+02 -0.34200374693E+02  0.56846976947E+02  0.00000000000E+00 0. -1.
         11    1    3    3    0    0 -0.34022768582E+02  0.25669437511E+02 -0.18892047353E+03  0.19366830955E+03  0.00000000000E+00 0.  1.
         -3    1    1    2    0  502  0.29679394931E+02  0.37926130601E+02 -0.90021245267E+02  0.10209349864E+03  0.00000000000E+00 0.  1.
<scales pt_clust_5="13000.00000" pt_clust_6="13000.00000" pt_clust_7="13000.00000" pt_clust_8="13000.00000" pt_clust_9="48.15870"></scales>
<clustering>
<clus scale="   48.159">  2  9  1 -1</clus>
<clus scale="   82.189">  5  6 -1 -1</clus>
<clus scale="   93.870">  7  8 -1 -1</clus>
<clus scale="   96.248">  2  5  1 -1</clus>
<clus scale="   48.159">  2  5  1 -1</clus>
</clustering>
</event>
<event>
 9    1  0.6345107E-005  0.2045918E+03  0.7546771E-02  0.1172984E+00
         21   -1    0    0  501  502  0.00000000000E+00  0.00000000000E+00  0.72163611579E+03  0.72163611579E+03  0.00000000000E+00 0. -1.
          1   -1    0    0  502    0 -0.00000000000E+00 -0.00000000000E+00 -0.54066155622E+03  0.54066155622E+03  0.00000000000E+00 0. -1.
         23    2    1    2    0    0 -0.60298285331E+02  0.10281138265E+02 -0.19842160973E+02  0.11068525502E+03  0.90088452691E+02 0.  0.
        -24    2    1    2    0    0  0.13799397069E+03 -0.18075198003E+03 -0.43033401748E+03  0.49324460071E+03  0.79932817367E+02 0.  0.
         11    1    4    4    0    0  0.13214155885E+03 -0.17983385309E+03 -0.43270588732E+03  0.48686342152E+03  0.00000000000E+00 0. -1.
        -12    1    4    4    0    0  0.58524118331E+01 -0.91812694289E+00  0.23718698333E+01  0.63811791899E+01  0.00000000000E+00 0.  1.
        -11    1    3    3    0    0 -0.95920757473E+01  0.41360760325E+02 -0.27699877658E+02  0.50695203265E+02  0.00000000000E+00 0.  1.
         11    1    3    3    0    0 -0.50706209584E+02 -0.31079622060E+02  0.78577166856E+01  0.59990051752E+02  0.00000000000E+00 0. -1.
          2    1    1    2  501    0 -0.77695685356E+02  0.17047084177E+03  0.63115073803E+03  0.65836781629E+03  0.00000000000E+00 0. -1.
<scales pt_clust_5="13000.00000" pt_clust_6="13000.00000" pt_clust_7="13000.00000" pt_clust_8="13000.00000" pt_clust_9="188.33096"></scales>
<clustering>
<clus scale="   79.933">  5  6 -1 -1</clus>
<clus scale="   90.088">  7  8 -1 -1</clus>
<clus scale="  108.892">  2  7  1 -1</clus>
<clus scale="  188.331">  1  9  2 -1</clus>
<clus scale="  188.331">  1  5  2 -1</clus>
</clustering>
</event>
<event>
 9    1  0.6345107E-005  0.1210396E+03  0.7546771E-02  0.1246128E+00
          1   -1    0    0  502    0 -0.00000000000E+00  0.00000000000E+00  0.12971627440E+03  0.12971627440E+03  0.00000000000E+00 0. -1.
         21   -1    0    0  501  502  0.00000000000E+00 -0.00000000000E+00 -0.17151292567E+03  0.17151292567E+03  0.00000000000E+00 0.  1.
        -24    2    1    2    0    0 -0.25025980073E+02  0.70618558724E+02  0.33098790782E+02  0.11497450332E+03  0.80686590883E+02 0.  0.
         23    2    1    2    0    0 -0.15060673782E+02 -0.80417878591E+02 -0.38647077014E+02  0.13132828729E+03  0.95182264052E+02 0.  0.
         11    1    3    3    0    0 -0.30022887621E+02  0.87411166540E+02  0.25495071534E+02  0.95875359136E+02  0.00000000000E+00 0. -1.
        -12    1    3    3    0    0  0.49969075478E+01 -0.16792607815E+02  0.76037192483E+01  0.19099144187E+02  0.00000000000E+00 0.  1.
        -13    1    4    4    0    0 -0.33450902364E+02  0.82319950825E+01 -0.53480919298E+01  0.34861593470E+02  0.00000000000E+00 0.  1.
         13    1    4    4    0    0  0.18390228582E+02 -0.88649873673E+02 -0.33298985084E+02  0.96466693823E+02  0.00000000000E+00 0. -1.
          2    1    1    2  501    0  0.40086653855E+02  0.97993198664E+01 -0.36248365039E+02  0.54926409451E+02  0.00000000000E+00 0. -1.
<scales pt_clust_5="13000.00000" pt_clust_6="13000.00000" pt_clust_7="13000.00000" pt_clust_8="13000.00000" pt_clust_9="41.26701"></scales>
<clustering>
<clus scale="   41.267">  2  9  1 -1</clus>
<clus scale="   80.687">  5  6 -1 -1</clus>
<clus scale="   95.182">  7  8 -1 -1</clus>
<clus scale="  110.006">  1  5  2 -1</clus>
<clus scale="   41.267">  2  5  1 -1</clus>
</clustering>
</event>
<event>
 9    1  0.6345107E-005  0.1707681E+03  0.7546771E-02  0.1178500E+00
         21   -1    0    0  501  502  0.00000000000E+00  0.00000000000E+00  0.43251090158E+02  0.43251090158E+02  0.00000000000E+00 0.  1.
         -2   -1    0    0    0  501 -0.00000000000E+00 -0.00000000000E+00 -0.11984343963E+04  0.11984343963E+04  0.00000000000E+00 0.  1.
        -24    2    1    2    0    0 -0.11104136072E+03 -0.14244856452E+03 -0.79155034171E+03  0.81593126458E+03  0.81056201069E+02 0.  0.
         23    2    1    2    0    0  0.66347886198E+02  0.68497165306E+02 -0.25150502310E+03  0.28419507757E+03  0.91750541219E+02 0.  0.
         11    1    3    3    0    0  0.46977631840E+01 -0.37862437408E+02 -0.10062384505E+03  0.10761408523E+03  0.00000000000E+00 0. -1.
        -12    1    3    3    0    0 -0.11573912390E+03 -0.10458612711E+03 -0.69092649665E+03  0.70831717935E+03  0.00000000000E+00 0.  1.
        -11    1    4    4    0    0  0.69821521247E+02  0.37644820352E+02 -0.91020176672E+02  0.12073462589E+03  0.00000000000E+00 0.  1.
         11    1    4    4    0    0 -0.34736350489E+01  0.30852344954E+02 -0.16048484643E+03  0.16346045168E+03  0.00000000000E+00 0. -1.
         -1    1    1    2    0  502  0.44693474518E+02  0.73951399214E+02 -0.11212794134E+03  0.14155914432E+03  0.00000000000E+00 0.  1.
<scales pt_clust_5="13000.00000" pt_clust_6="13000.00000" pt_clust_7="13000.00000" pt_clust_8="13000.00000" pt_clust_9="86.40785"></scales>
<clustering>
<clus scale="   81.056">  5  6 -1 -1</clus>
<clus scale="   86.408">  1  9  2 -1</clus>
<clus scale="   91.751">  7  8 -1 -1</clus>
<clus scale="  165.269">  2  5  1 -1</clus>
<clus scale="   86.408">  1  5  2 -1</clus>
</clustering>
</event>
<event>
 9    1  0.6345107E-005  0.9434094E+02  0.7546771E-02  0.1296440E+00
         -2   -1    0    0    0  501 -0.00000000000E+00  0.00000000000E+00  0.13382422506E+03  0.13382422506E+03  0.00000000000E+00 0.  1.
         21   -1    0    0  501  502  0.00000000000E+00 -0.00000000000E+00 -0.15703344230E+03  0.15703344230E+03  0.00000000000E+00 0. -1.
         23    2    1    2    0    0  0.15662261410E+02  0.28180007365E+02  0.53618914678E+02  0.10871257371E+03  0.88904535446E+02 0.  0.
        -24    2    1    2    0    0  0.15040217927E+02 -0.37702570108E+02 -0.10505388837E+03  0.13936642180E+03  0.82091340086E+02 0.  0.
         11    1    4    4    0    0 -0.14267635957E+02 -0.48554542013E+02 -0.92984902269E+02  0.10586454098E+03  0.00000000000E+00 0. -1.
        -12    1    4    4    0    0  0.29307853884E+02  0.10851971905E+02 -0.12068986097E+02  0.33501880827E+02  0.00000000000E+00 0.  1.
        -11    1    3    3    0    0 -0.19618583693E+02 -0.10866286033E+02  0.51356014848E+02  0.56039318870E+02  0.00000000000E+00 0. -1.
         11    1    3    3    0    0  0.35280845103E+02  0.39046293398E+02  0.22628998299E+01  0.52673254835E+02  0.00000000000E+00 0.  1.
         -1    1    1    2    0  502 -0.30702479337E+02  0.95225627433E+01  0.28225756446E+02  0.42778671854E+02  0.00000000000E+00 0.  1.
<scales pt_clust_5="13000.00000" pt_clust_6="13000.00000" pt_clust_7="13000.00000" pt_clust_8="13000.00000" pt_clust_9="32.14533"></scales>
<clustering>
<clus scale="   32.145">  2  9  1 -1</clus>
<clus scale="   82.091">  5  6 -1 -1</clus>
<clus scale="   87.950">  2  5  1 -1</clus>
<clus scale="   88.905">  7  8 -1 -1</clus>
<clus scale="   32.145">  2  5  1 -1</clus>
</clustering>
</event>
<event>
 9    1  0.6345107E-005  0.9312704E+02  0.7546771E-02  0.1303620E+00
          1   -1    0    0  502    0 -0.00000000000E+00  0.00000000000E+00  0.77243421712E+03  0.77243421712E+03  0.00000000000E+00 0. -1.
         21   -1    0    0  501  502  0.00000000000E+00 -0.00000000000E+00 -0.30873357224E+02  0.30873357224E+02  0.00000000000E+00 0. -1.
        -24    2    1    2    0    0 -0.11465955664E+02  0.76201958806E+00  0.34124498430E+03  0.35068487603E+03  0.79998088435E+02 0.  0.
         23    2    1    2    0    0 -0.34886889378E+02  0.63390029887E+01  0.76855291789E+02  0.12578059570E+03  0.93041627075E+02 0.  0.
         13    1    3    3    0    0 -0.10709458828E+02 -0.37413496208E+02  0.22468222579E+03  0.22802755271E+03  0.00000000000E+00 0. -1.
        -14    1    3    3    0    0 -0.75649683653E+00  0.38175515796E+02  0.11656275851E+03  0.12265732332E+03  0.00000000000E+00 0.  1.
        -13    1    4    4    0    0 -0.58015138207E+01 -0.37647731841E+02  0.58764511938E+02  0.70030544327E+02  0.00000000000E+00 0.  1.
         13    1    4    4    0    0 -0.29085375558E+02  0.43986734830E+02  0.18090779852E+02  0.55750051372E+02  0.00000000000E+00 0. -1.
          2    1    1    2  501    0  0.46352845043E+02 -0.71010225767E+01  0.32346058381E+03  0.32684210262E+03  0.00000000000E+00 0. -1.
<scales pt_clust_5="13000.00000" pt_clust_6="13000.00000" pt_clust_7="13000.00000" pt_clust_8="13000.00000" pt_clust_9="46.89363"></scales>
<clustering>
<clus scale="   46.894">  2  9  1 -1</clus>
<clus scale="   79.998">  5  6 -1 -1</clus>
<clus scale="   80.097">  1  5  2 -1</clus>
<clus scale="   93.042">  7  8 -1 -1</clus>
<clus scale="   46.894">  2  5  1 -1</clus>
</clustering>
</event>
<event>
 9    1  0.6345107E-005  0.1089635E+03  0.7546771E-02  0.1268108E+00
         21   -1    0    0  501  502  0.00000000000E+00  0.00000000000E+00  0.19020591312E+03  0.19020591312E+03  0.00000000000E+00 0. -1.
          1   -1    0    0  502    0 -0.00000000000E+00 -0.00000000000E+00 -0.36914338657E+03  0.36914338657E+03  0.00000000000E+00 0. -1.
        -24    2    1    2    0    0  0.15574107063E+02 -0.54410214864E+02 -0.29224462928E+03  0.30796160723E+03  0.78932907558E+02 0.  0.
         23    2    1    2    0    0 -0.63290170900E+02  0.46460681786E+02 -0.71732838903E+01  0.12155875046E+03  0.92524770342E+02 0.  0.
         11    1    3    3    0    0  0.15309946477E+02 -0.74950107754E+02 -0.22492252342E+03  0.23757536626E+03  0.00000000000E+00 0. -1.
        -12    1    3    3    0    0  0.26416058665E+00  0.20539892890E+02 -0.67322105857E+02  0.70386240969E+02  0.00000000000E+00 0.  1.
        -13    1    4    4    0    0 -0.14006661252E+02  0.36112200038E+02  0.37741628819E+02  0.54080570420E+02  0.00000000000E+00 0.  1.
         13    1    4    4    0    0 -0.49283509648E+02  0.10348481748E+02 -0.44914912710E+02  0.67478180039E+02  0.00000000000E+00 0. -1.
          2    1    1    2  501    0  0.47716063837E+02  0.79495330777E+01  0.12048043972E+03  0.12982894199E+03  0.00000000000E+00 0. -1.
<scales pt_clust_5="13000.00000" pt_clust_6="13000.00000" pt_clust_7="13000.00000" pt_clust_8="13000.00000" pt_clust_9="48.37373"></scales>
<clustering>
<clus scale="   48.374">  1  9  2 -1</clus>
<clus scale="   78.933">  5  6 -1 -1</clus>
<clus scale="   92.525">  7  8 -1 -1</clus>
<clus scale="   97.686">  2  5  1 -1</clus>
<clus scale="   48.374">  1  5  2 -1</clus>
</clustering>
</event>
<event>
 9    1  0.6345107E-005  0.9899222E+02  0.7546771E-02  0.1288541E+00
         21   -1    0    0  501  502  0.00000000000E+00  0.00000000000E+00  0.12418999595E+03  0.12418999595E+03  0.00000000000E+00 0. -1.
         -2   -1    0    0    0  501 -0.00000000000E+00 -0.00000000000E+00 -0.36023547324E+03  0.36023547324E+03  0.00000000000E+00 0.  1.
        -24    2    1    2    0    0 -0.14691724852E+02 -0.31636669320E+02 -0.16204831388E+03  0.18432864879E+03  0.80626727024E+02 0.  0.
         23    2    1    2    0    0  0.76791308317E+02  0.66755640408E+01  0.71530299836E+02  0.13991674173E+03  0.92296493071E+02 0.  0.
         11    1    3    3    0    0  0.29940859936E+02 -0.17187871759E+00 -0.35115126790E+02  0.46147120879E+02  0.00000000000E+00 0. -1.
        -12    1    3    3    0    0 -0.44632584787E+02 -0.31464790602E+02 -0.12693318709E+03  0.13818152791E+03  0.00000000000E+00 0.  1.
        -11    1    4    4    0    0  0.42212993383E+02 -0.42621853325E+02  0.33745892177E+02  0.68828369370E+02  0.00000000000E+00 0. -1.
         11    1    4    4    0    0  0.34578314933E+02  0.49297417366E+02  0.37784407659E+02  0.71088372360E+02  0.00000000000E+00 0.  1.
         -1    1    1    2    0  502 -0.62099583465E+02  0.24961105279E+02 -0.14552746325E+03  0.16018007867E+03  0.00000000000E+00 0.  1.
<scales pt_clust_5="13000.00000" pt_clust_6="13000.00000" pt_clust_7="13000.00000" pt_clust_8="13000.00000" pt_clust_9="66.92847"></scales>
<clustering>
<clus scale="   66.928">  1  9  2 -1</clus>
<clus scale="   80.627">  5  6 -1 -1</clus>
<clus scale="   88.213">  2  5  1 -1</clus>
<clus scale="   92.296">  7  8 -1 -1</clus>
<clus scale="   66.928">  1  5  2 -1</clus>
</clustering>
</event>
<event>
 9    1  0.6345107E-005  0.1079003E+03  0.7546771E-02  0.1275390E+00
         21   -1    0    0  501  502  0.00000000000E+00  0.00000000000E+00  0.52288793395E+02  0.52288793395E+02  0.00000000000E+00 0. -1.
          1   -1    0    0  502    0 -0.00000000000E+00 -0.00000000000E+00 -0.30884440746E+03  0.30884440746E+03  0.00000000000E+00 0. -1.
         23    2    1    2    0    0  0.17028209475E+02  0.14992333385E+02 -0.21410789559E+03  0.24035825588E+03  0.10684180005E+03 0.  0.
        -24    2    1    2    0    0 -0.30883762157E+01  0.43212740378E+01 -0.44110166799E+02  0.96898217452E+02  0.86112404759E+02 0.  0.
         11    1    4    4    0    0 -0.15951334712E+02 -0.17007378233E+02  0.18339162916E+02  0.29665146046E+02  0.00000000000E+00 0. -1.
        -12    1    4    4    0    0  0.12862958497E+02  0.21328652271E+02 -0.62449329714E+02  0.67233071407E+02  0.00000000000E+00 0.  1.
        -11    1    3    3    0    0  0.24062585684E+02  0.52485476808E+02 -0.18052871779E+03  0.18953720282E+03  0.00000000000E+00 0. -1.
         11    1    3    3    0    0 -0.70343762092E+01 -0.37493143423E+02 -0.33579177801E+02  0.50821053061E+02  0.00000000000E+00 0.  1.
          2    1    1    2  501    0 -0.13939833260E+02 -0.19313607422E+02  0.16624483215E+01  0.23876727527E+02  0.00000000000E+00 0. -1.
<scales pt_clust_5="13000.00000" pt_clust_6="13000.00000" pt_clust_7="13000.00000" pt_clust_8="13000.00000" pt_clust_9="23.81878"></scales>
<clustering>
<clus scale="   23.819">  1  9  2 -1</clus>
<clus scale="   86.112">  5  6 -1 -1</clus>
<clus scale="   87.422">  1  5  2 -1</clus>
<clus scale="  106.842">  7  8 -1 -1</clus>
<clus scale="   23.819">  1  5  2 -1</clus>
</clustering>
</event>
<event>
 9    1  0.6345107E-005  0.9759868E+02  0.7546771E-02  0.1292298E+00
          3   -1    0    0  502    0 -0.00000000000E+00  0.00000000000E+00  0.20622030307E+03  0.20622030307E+03  0.00000000000E+00 0. -1.
         21   -1    0    0  501  502  0.00000000000E+00 -0.00000000000E+00 -0.23416261002E+03  0.23416261002E+03  0.00000000000E+00 0. -1.
         23    2    1    2    0    0 -0.23046602109E+02  0.18644481239E+02  0.13570459289E+03  0.16591237078E+03  0.90732660579E+02 0.  0.
        -24    2    1    2    0    0  0.99805760272E+02  0.15909958441E+02 -0.60162523437E+02  0.14107266443E+03  0.77895127326E+02 0.  0.
         13    1    4    4    0    0  0.11176915937E+03  0.22117263332E+02 -0.56079568606E+02  0.12698990645E+03  0.00000000000E+00 0. -1.
        -14    1    4    4    0    0 -0.11963399103E+02 -0.62073048915E+01 -0.40829548309E+01  0.14082757978E+02  0.00000000000E+00 0.  1.
        -13    1    3    3    0    0  0.23754327694E+02  0.34439972083E+02  0.38400016395E+02  0.56788564170E+02  0.00000000000E+00 0.  1.
         13    1    3    3    0    0 -0.46800929803E+02 -0.15795490845E+02  0.97304576497E+02  0.10912380661E+03  0.00000000000E+00 0. -1.
          4    1    1    2  501    0 -0.76759158163E+02 -0.34554439679E+02 -0.10348437640E+03  0.13339787788E+03  0.00000000000E+00 0. -1.
<scales pt_clust_5="13000.00000" pt_clust_6="13000.00000" pt_clust_7="13000.00000" pt_clust_8="13000.00000" pt_clust_9="84.17825"></scales>
<clustering>
<clus scale="   77.895">  5  6 -1 -1</clus>
<clus scale="   84.178">  2  9  1 -1</clus>
<clus scale="   85.795">  2  5  1 -1</clus>
<clus scale="   90.733">  7  8 -1 -1</clus>
<clus scale="   84.178">  2  5  1 -1</clus>
</clustering>
</event>
<event>
 9    1  0.1039596E-004  0.3454213E+03  0.7546771E-02  0.1065240E+00
          1   -1    0    0  502    0 -0.00000000000E+00  0.00000000000E+00  0.16061503219E+04  0.16061503219E+04  0.00000000000E+00 0. -1.
         21   -1    0    0  501  502  0.00000000000E+00 -0.00000000000E+00 -0.35849833689E+03  0.35849833689E+03  0.00000000000E+00 0. -1.
        -24    2    1    2    0    0 -0.25651248684E+03 -0.17564032564E+03  0.77332430081E+03  0.83562677067E+03  0.59945356266E+02 0.  0.
         23    2    1    2    0    0  0.42075859533E+03  0.35433652736E+03 -0.41299870813E+02  0.55912637827E+03  0.91238464434E+02 0.  0.
         11    1    3    3    0    0 -0.63124078165E+02 -0.68750663717E+02  0.18580342501E+03  0.20792839092E+03  0.00000000000E+00 0. -1.
        -12    1    3    3    0    0 -0.19338840868E+03 -0.10688966193E+03  0.58752087580E+03  0.62769837975E+03  0.00000000000E+00 0.  1.
        -13    1    4    4    0    0  0.20893260457E+02  0.11984663842E+01 -0.13541629381E+02  0.24926700153E+02  0.00000000000E+00 0.  1.
         13    1    4    4    0    0  0.39986533487E+03  0.35313806097E+03 -0.27758241432E+02  0.53419967812E+03  0.00000000000E+00 0. -1.
          2    1    1    2  501    0 -0.16424610848E+03 -0.17869620172E+03  0.51562755506E+03  0.56989550989E+03  0.00000000000E+00 0. -1.
<scales pt_clust_5="13000.00000" pt_clust_6="13000.00000" pt_clust_7="13000.00000" pt_clust_8="13000.00000" pt_clust_9="242.71212"></scales>
<clustering>
<clus scale="   59.945">  5  6 -1 -1</clus>
<clus scale="   91.238">  7  8 -1 -1</clus>
<clus scale="  242.712">  2  9  1 -1</clus>
<clus scale="  338.504">  1  5  2 -1</clus>
<clus scale="  242.712">  2  5  1 -1</clus>
</clustering>
</event>
<event>
 9    1  0.6345107E-005  0.9133973E+02  0.7546771E-02  0.1304734E+00
          3   -1    0    0  502    0 -0.00000000000E+00  0.00000000000E+00  0.29075828550E+03  0.29075828550E+03  0.00000000000E+00 0. -1.
         21   -1    0    0  501  502  0.00000000000E+00 -0.00000000000E+00 -0.10956159584E+03  0.10956159584E+03  0.00000000000E+00 0. -1.
         23    2    1    2    0    0 -0.94320980636E+01  0.27759651041E+02  0.24586101647E+03  0.26276417904E+03  0.87964831988E+02 0.  0.
        -24    2    1    2    0    0 -0.11066942741E+02  0.64234776022E+01 -0.34475142501E+02  0.87554864237E+02  0.79458042481E+02 0.  0.
         11    1    4    4    0    0 -0.34645522108E+02 -0.23006369848E+02 -0.10586359334E+02  0.42914755734E+02  0.00000000000E+00 0. -1.
        -12    1    4    4    0    0  0.23578579367E+02  0.29429847451E+02 -0.23888783167E+02  0.44640108503E+02  0.00000000000E+00 0.  1.
        -13    1    3    3    0    0 -0.32285985891E+02  0.42274869101E+02  0.21601511986E+03  0.22246815829E+03  0.00000000000E+00 0. -1.
         13    1    3    3    0    0  0.22853887827E+02 -0.14515218060E+02  0.29845896608E+02  0.40296020752E+02  0.00000000000E+00 0.  1.
          4    1    1    2  501    0  0.20499040804E+02 -0.34183128644E+02 -0.30189184305E+02  0.50000838061E+02  0.00000000000E+00 0. -1.
<scales pt_clust_5="13000.00000" pt_clust_6="13000.00000" pt_clust_7="13000.00000" pt_clust_8="13000.00000" pt_clust_9="39.85846"></scales>
<clustering>
<clus scale="   39.858">  2  9  1 -1</clus>
<clus scale="   79.458">  5  6 -1 -1</clus>
<clus scale="   83.179">  2  5  1 -1</clus>
<clus scale="   87.965">  7  8 -1 -1</clus>
<clus scale="   39.858">  2  5  1 -1</clus>
</clustering>
</event>
<event>
 9    1  0.6345107E-005  0.1066739E+03  0.7546771E-02  0.1272940E+00
          1   -1    0    0  502    0 -0.00000000000E+00  0.00000000000E+00  0.63481658058E+03  0.63481658058E+03  0.00000000000E+00 0. -1.
         21   -1    0    0  501  502  0.00000000000E+00 -0.00000000000E+00 -0.28926065259E+02  0.28926065259E+02  0.00000000000E+00 0. -1.
         23    2    1    2    0    0  0.33678825177E+02  0.19979399316E+02  0.28639958443E+03  0.30409604835E+03  0.94425870394E+02 0.  0.
        -24    2    1    2    0    0 -0.46074042559E+02 -0.56866502928E+02  0.14815520711E+03  0.18394733718E+03  0.80808668536E+02 0.  0.
         11    1    4    4    0    0 -0.24814069093E+02 -0.74250474098E+02  0.87774916171E+02  0.11761507912E+03  0.00000000000E+00 0. -1.
        -12    1    4    4    0    0 -0.21259973466E+02  0.17383971170E+02  0.60380290937E+02  0.66332258058E+02  0.00000000000E+00 0.  1.
        -11    1    3    3    0    0  0.54837538608E+02 -0.11118556629E+02  0.22695767458E+03  0.23375321172E+03  0.00000000000E+00 0.  1.
         11    1    3    3    0    0 -0.21158713431E+02  0.31097955945E+02  0.59441909854E+02  0.70342836629E+02  0.00000000000E+00 0. -1.
          2    1    1    2  501    0  0.12395217382E+02  0.36887103612E+02  0.17133572378E+03  0.17569926030E+03  0.00000000000E+00 0. -1.
<scales pt_clust_5="13000.00000" pt_clust_6="13000.00000" pt_clust_7="13000.00000" pt_clust_8="13000.00000" pt_clust_9="38.91402"></scales>
<clustering>
<clus scale="   38.914">  2  9  1 -1</clus>
<clus scale="   80.809">  5  6 -1 -1</clus>
<clus scale="   94.426">  7  8 -1 -1</clus>
<clus scale="   94.832">  2  5  1 -1</clus>
<clus scale="   38.914">  2  5  1 -1</clus>
</clustering>
</event>
<event>
 9    1  0.6345107E-005  0.9557613E+02  0.7546771E-02  0.1296412E+00
         21   -1    0    0  501  502  0.00000000000E+00  0.00000000000E+00  0.97224321837E+02  0.97224321837E+02  0.00000000000E+00 0. -1.
          1   -1    0    0  502    0 -0.00000000000E+00 -0.00000000000E+00 -0.30027608615E+03  0.30027608615E+03  0.00000000000E+00 0. -1.
         23    2    1    2    0    0 -0.12795616737E+02 -0.15604355392E+02 -0.21780715963E+03  0.23734996452E+03  0.92129382697E+02 0.  0.
        -24    2    1    2    0    0  0.24804755304E+02  0.32661180892E+02 -0.41910696746E+02  0.99766665056E+02  0.80714635177E+02 0.  0.
         11    1    4    4    0    0  0.20795622597E+02  0.56032086008E+02 -0.46361600487E+02  0.75640270897E+02  0.00000000000E+00 0. -1.
        -12    1    4    4    0    0  0.40091327070E+01 -0.23370905116E+02  0.44509037410E+01  0.24126394159E+02  0.00000000000E+00 0.  1.
        -11    1    3    3    0    0  0.79423101817E+01 -0.39106996707E+02 -0.38936395893E+02  0.55753747924E+02  0.00000000000E+00 0.  1.
         11    1    3    3    0    0 -0.20737926919E+02  0.23502641315E+02 -0.17887076374E+03  0.18159621659E+03  0.00000000000E+00 0. -1.
          2    1    1    2  501    0 -0.12009138567E+02 -0.17056825501E+02  0.56666092064E+02  0.60383778411E+02  0.00000000000E+00 0. -1.
<scales pt_clust_5="13000.00000" pt_clust_6="13000.00000" pt_clust_7="13000.00000" pt_clust_8="13000.00000" pt_clust_9="20.86036"></scales>
<clustering>
<clus scale="   20.860">  1  9  2 -1</clus>
<clus scale="   80.715">  5  6 -1 -1</clus>
<clus scale="   84.628">  1  5  2 -1</clus>
<clus scale="   92.129">  7  8 -1 -1</clus>
<clus scale="   20.860">  1  5  2 -1</clus>
</clustering>
</event>
<event>
 9    1  0.6345107E-005  0.3685879E+03  0.7546771E-02  0.1077854E+00
         -2   -1    0    0    0  501 -0.00000000000E+00  0.00000000000E+00  0.24251614883E+03  0.24251614883E+03  0.00000000000E+00 0.  1.
         21   -1    0    0  501  502  0.00000000000E+00 -0.00000000000E+00 -0.91549620046E+03  0.91549620046E+03  0.00000000000E+00 0.  1.
        -24    2    1    2    0    0  0.11087626327E+03  0.12297382952E+03 -0.14539706791E+03  0.24504912579E+03  0.10720381612E+03 0.  0.
         23    2    1    2    0    0 -0.24157570641E+03 -0.37219695863E+03 -0.39840844515E+03  0.60331733877E+03  0.91504776671E+02 0.  0.
         13    1    3    3    0    0  0.10984309983E+03  0.12277429372E+03 -0.16044758508E+03  0.22996186931E+03  0.00000000000E+00 0. -1.
        -14    1    3    3    0    0  0.10331634476E+01  0.19953580508E+00  0.15050517169E+02  0.15087256487E+02  0.00000000000E+00 0.  1.
        -13    1    4    4    0    0 -0.12748643833E+03 -0.12169724937E+03 -0.13145253377E+03  0.21986991858E+03  0.00000000000E+00 0. -1.
         13    1    4    4    0    0 -0.11408926808E+03 -0.25049970926E+03 -0.26695591138E+03  0.38344742019E+03  0.00000000000E+00 0.  1.
         -1    1    1    2    0  502  0.13069944314E+03  0.24922312911E+03 -0.12917453857E+03  0.30964588473E+03  0.00000000000E+00 0.  1.
<scales pt_clust_5="13000.00000" pt_clust_6="13000.00000" pt_clust_7="13000.00000" pt_clust_8="13000.00000" pt_clust_9="357.04885"></scales>
<clustering>
<clus scale="   91.505">  7  8 -1 -1</clus>
<clus scale="  107.204">  5  6 -1 -1</clus>
<clus scale="  197.253">  1  5  2 -1</clus>
<clus scale="  357.049">  2  9  1 -1</clus>
<clus scale="  357.049">  2  5  1 -1</clus>
</clustering>
</event>
<event>
 9    1  0.7867903E-005  0.2529211E+03  0.7546771E-02  0.1129901E+00
          1   -1    0    0  502    0 -0.00000000000E+00  0.00000000000E+00  0.65374885396E+03  0.65374885396E+03  0.00000000000E+00 0. -1.
         21   -1    0    0  501  502  0.00000000000E+00 -0.00000000000E+00 -0.34684564899E+03  0.34684564899E+03  0.00000000000E+00 0.  1.
        -24    2    1    2    0    0  0.15981296909E+02  0.11518095432E+03 -0.11729022775E+03  0.19807346237E+03  0.10933455484E+03 0.  0.
         23    2    1    2    0    0  0.22024473412E+03 -0.86301803671E+02 -0.59735213140E+02  0.26324033690E+03  0.98850569327E+02 0.  0.
         11    1    3    3    0    0 -0.32966818233E+01  0.69537239660E+02  0.12161880039E+01  0.69625964437E+02  0.00000000000E+00 0. -1.
        -12    1    3    3    0    0  0.19277978732E+02  0.45643714662E+02 -0.11850641575E+03  0.12844749794E+03  0.00000000000E+00 0.  1.
        -13    1    4    4    0    0  0.17248977842E+03 -0.21520636806E+02 -0.25126013297E+02  0.17563364715E+03  0.00000000000E+00 0.  1.
         13    1    4    4    0    0  0.47754955703E+02 -0.64781166865E+02 -0.34609199844E+02  0.87606689747E+02  0.00000000000E+00 0. -1.
          2    1    1    2  501    0 -0.23622603103E+03 -0.28879150651E+02  0.48392864585E+03  0.53928070367E+03  0.00000000000E+00 0. -1.
<scales pt_clust_5="13000.00000" pt_clust_6="13000.00000" pt_clust_7="13000.00000" pt_clust_8="13000.00000" pt_clust_9="232.80395"></scales>
<clustering>
<clus scale="   98.851">  7  8 -1 -1</clus>
<clus scale="  109.335">  5  6 -1 -1</clus>
<clus scale="  159.612">  1  5  2 -1</clus>
<clus scale="  232.804">  2  9  1 -1</clus>
<clus scale="  232.804">  2  5  1 -1</clus>
</clustering>
</event>
<event>
 9    1  0.6345107E-005  0.1208845E+03  0.7546771E-02  0.1245469E+00
         21   -1    0    0  501  502  0.00000000000E+00  0.00000000000E+00  0.39276184663E+02  0.39276184663E+02  0.00000000000E+00 0.  1.
          1   -1    0    0  502    0 -0.00000000000E+00 -0.00000000000E+00 -0.55299997287E+03  0.55299997287E+03  0.00000000000E+00 0. -1.
         23    2    1    2    0    0 -0.10825317371E+02  0.65028239623E+02 -0.29204742664E+03  0.31325104022E+03  0.92133898985E+02 0.  0.
        -24    2    1    2    0    0  0.18032874887E+02 -0.97852669407E+02 -0.20501677136E+03  0.24151599814E+03  0.79986069605E+02 0.  0.
         11    1    4    4    0    0  0.33792339984E+02 -0.39828167653E+02 -0.15415134766E+03  0.16276007854E+03  0.00000000000E+00 0. -1.
        -12    1    4    4    0    0 -0.15759465097E+02 -0.58024501754E+02 -0.50865423700E+02  0.78755919600E+02  0.00000000000E+00 0.  1.
        -11    1    3    3    0    0 -0.37954401208E+02 -0.49983527163E+00 -0.63786771101E+02  0.74226266064E+02  0.00000000000E+00 0.  1.
         11    1    3    3    0    0  0.27129083837E+02  0.65528074895E+02 -0.22826065554E+03  0.23902477415E+03  0.00000000000E+00 0. -1.
          2    1    1    2  501    0 -0.72075575158E+01  0.32824429784E+02 -0.16659590206E+02  0.37509119182E+02  0.00000000000E+00 0. -1.
<scales pt_clust_5="13000.00000" pt_clust_6="13000.00000" pt_clust_7="13000.00000" pt_clust_8="13000.00000" pt_clust_9="33.60643"></scales>
<clustering>
<clus scale="   33.606">  1  9  2 -1</clus>
<clus scale="   79.986">  5  6 -1 -1</clus>
<clus scale="   92.134">  7  8 -1 -1</clus>
<clus scale="  111.903">  1  5  2 -1</clus>
<clus scale="   33.606">  1  5  2 -1</clus>
</clustering>
</event>
<event>
 9    1  0.6345107E-005  0.1345952E+03  0.7546771E-02  0.1223058E+00
         21   -1    0    0  501  502  0.00000000000E+00  0.00000000000E+00  0.25412742777E+03  0.25412742777E+03  0.00000000000E+00 0. -1.
          1   -1    0    0  502    0 -0.00000000000E+00 -0.00000000000E+00 -0.12113337439E+03  0.12113337439E+03  0.00000000000E+00 0. -1.
        -24    2    1    2    0    0 -0.58370284683E+02 -0.46735675464E+02  0.48488247319E+02  0.11924045772E+03  0.79220345460E+02 0.  0.
         23    2    1    2    0    0  0.12670807853E+03  0.38945390796E+02  0.18536367969E+02  0.16071709493E+03  0.88964639255E+02 0.  0.
         11    1    3    3    0    0 -0.18321213356E+02  0.16530779654E+02  0.35517258889E+02  0.43248227869E+02  0.00000000000E+00 0. -1.
        -12    1    3    3    0    0 -0.40049071327E+02 -0.63266455118E+02  0.12970988430E+02  0.75992229854E+02  0.00000000000E+00 0.  1.
        -13    1    4    4    0    0  0.32468280649E+02  0.69760580949E+01  0.46690693020E+02  0.57296382517E+02  0.00000000000E+00 0.  1.
         13    1    4    4    0    0  0.94239797880E+02  0.31969332701E+02 -0.28154325051E+02  0.10342071242E+03  0.00000000000E+00 0. -1.
          2    1    1    2  501    0 -0.68337793846E+02  0.77902846681E+01  0.65969438092E+02  0.95303249499E+02  0.00000000000E+00 0. -1.
<scales pt_clust_5="13000.00000" pt_clust_6="13000.00000" pt_clust_7="13000.00000" pt_clust_8="13000.00000" pt_clust_9="68.78039"></scales>
<clustering>
<clus scale="   68.780">  1  9  2 -1</clus>
<clus scale="   79.220">  5  6 -1 -1</clus>
<clus scale="   88.965">  7  8 -1 -1</clus>
<clus scale="  128.363">  2  5  1 -1</clus>
<clus scale="   68.780">  1  5  2 -1</clus>
</clustering>
</event>
<event>
 9    1  0.6345107E-005  0.1806474E+03  0.7546771E-02  0.1167249E+00
          3   -1    0    0  502    0 -0.00000000000E+00  0.00000000000E+00  0.28199856631E+03  0.28199856631E+03  0.00000000000E+00 0. -1.
         21   -1    0    0  501  502  0.00000000000E+00 -0.00000000000E+00 -0.39721766283E+03  0.39721766283E+03  0.00000000000E+00 0. -1.
         23    2    1    2    0    0  0.81425666401E+02 -0.15581608365E+03  0.15646794672E+03  0.24972758984E+03  0.83503650842E+02 0.  0.
        -24    2    1    2    0    0 -0.13374413320E+03  0.12513866172E+02 -0.21506915580E+03  0.26676699759E+03  0.82860118355E+02 0.  0.
         11    1    4    4    0    0 -0.12146437206E+03  0.70522764455E+01 -0.22084214662E+03  0.25214000477E+03  0.00000000000E+00 0. -1.
        -12    1    4    4    0    0 -0.12279761142E+02  0.54615897269E+01  0.57729908146E+01  0.14626992821E+02  0.00000000000E+00 0.  1.
        -11    1    3    3    0    0 -0.97092703634E+01 -0.59122869939E+02  0.33286421609E+02  0.68540276804E+02  0.00000000000E+00 0.  1.
         11    1    3    3    0    0  0.91134936764E+02 -0.96693213714E+02  0.12318152511E+03  0.18118731304E+03  0.00000000000E+00 0. -1.
          4    1    1    2  501    0  0.52318466798E+02  0.14330221748E+03 -0.56617887431E+02  0.16272164171E+03  0.00000000000E+00 0. -1.
<scales pt_clust_5="13000.00000" pt_clust_6="13000.00000" pt_clust_7="13000.00000" pt_clust_8="13000.00000" pt_clust_9="152.55408"></scales>
<clustering>
<clus scale="   82.860">  5  6 -1 -1</clus>
<clus scale="   83.504">  7  8 -1 -1</clus>
<clus scale="  152.554">  2  9  1 -1</clus>
<clus scale="  180.351">  2  5  1 -1</clus>
<clus scale="  152.554">  2  5  1 -1</clus>
</clustering>
</event>
<event>
 9    1  0.1259298E-004  0.2263068E+03  0.7546771E-02  0.1172175E+00
         -2   -1    0    0    0  501 -0.00000000000E+00  0.00000000000E+00  0.14589691018E+04  0.14589691018E+04  0.00000000000E+00 0.  1.
         21   -1    0    0  501  502  0.00000000000E+00 -0.00000000000E+00 -0.26686754096E+03  0.26686754096E+03  0.00000000000E+00 0.  1.
        -24    2    1    2    0    0  0.11041907275E+02  0.89984874709E+01  0.18277113885E+03  0.20030411607E+03  0.80706587242E+02 0.  0.
         23    2    1    2    0    0 -0.20919672358E+03  0.10820814671E+02 -0.19854320848E+03  0.30135245696E+03  0.86680669642E+02 0.  0.
         13    1    3    3    0    0 -0.14503403728E+02 -0.30214939854E+02  0.57206752370E+02  0.66301612550E+02  0.00000000000E+00 0. -1.
        -14    1    3    3    0    0  0.25545311003E+02  0.39213427325E+02  0.12556438648E+03  0.13400250352E+03  0.00000000000E+00 0.  1.
        -11    1    4    4    0    0 -0.18229858094E+03 -0.88422111226E+01 -0.19617890078E+03  0.26794984310E+03  0.00000000000E+00 0.  1.
         11    1    4    4    0    0 -0.26898142646E+02  0.19663025794E+02 -0.23643077077E+01  0.33402613852E+02  0.00000000000E+00 0. -1.
         -1    1    1    2    0  502  0.19815481631E+03 -0.19819302142E+02  0.12078736304E+04  0.12241800697E+04  0.00000000000E+00 0.  1.
<scales pt_clust_5="13000.00000" pt_clust_6="13000.00000" pt_clust_7="13000.00000" pt_clust_8="13000.00000" pt_clust_9="209.04847"></scales>
<clustering>
<clus scale="   80.707">  5  6 -1 -1</clus>
<clus scale="   81.954">  1  5  2 -1</clus>
<clus scale="   86.681">  7  8 -1 -1</clus>
<clus scale="  209.048">  2  9  1 -1</clus>
<clus scale="  209.048">  2  5  1 -1</clus>
</clustering>
</event>
<event>
 9    1  0.6345107E-005  0.1787183E+03  0.7546771E-02  0.1177995E+00
          1   -1    0    0  502    0 -0.00000000000E+00  0.00000000000E+00  0.14378246888E+03  0.14378246888E+03  0.00000000000E+00 0. -1.
         21   -1    0    0  501  502  0.00000000000E+00 -0.00000000000E+00 -0.56650323221E+03  0.56650323221E+03  0.00000000000E+00 0. -1.
         23    2    1    2    0    0  0.58669384503E+01  0.12171467471E+03  0.27126489433E+01  0.14585526784E+03  0.80109410716E+02 0.  0.
        -24    2    1    2    0    0  0.14759800538E+03 -0.10339436225E+03 -0.32479800248E+03  0.37999993541E+03  0.80191291031E+02 0.  0.
         13    1    4    4    0    0  0.13420024231E+03 -0.84428597754E+02 -0.21140403907E+03  0.26425283516E+03  0.00000000000E+00 0. -1.
        -14    1    4    4    0    0  0.13397763073E+02 -0.18965764492E+02 -0.11339396341E+03  0.11574710025E+03  0.00000000000E+00 0.  1.
        -11    1    3    3    0    0 -0.36371600332E+02  0.62974798787E+02  0.87800897656E+01  0.73251679634E+02  0.00000000000E+00 0.  1.
         11    1    3    3    0    0  0.42238538782E+02  0.58739875924E+02 -0.60674408222E+01  0.72603588205E+02  0.00000000000E+00 0. -1.
          2    1    1    2  501    0 -0.15346494383E+03 -0.18320312466E+02 -0.10063540979E+03  0.18443049785E+03  0.00000000000E+00 0. -1.
<scales pt_clust_5="13000.00000" pt_clust_6="13000.00000" pt_clust_7="13000.00000" pt_clust_8="13000.00000" pt_clust_9="159.71727"></scales>
<clustering>
<clus scale="   80.109">  7  8 -1 -1</clus>
<clus scale="   80.191">  5  6 -1 -1</clus>
<clus scale="  145.830">  1  7  2 -1</clus>
<clus scale="  159.717">  2  9  1 -1</clus>
<clus scale="  159.717">  2  5  1 -1</clus>
</clustering>
</event>
<event>
 9    1  0.6345107E-005  0.1678393E+03  0.7546771E-02  0.1181303E+00
          3   -1    0    0  502    0 -0.00000000000E+00  0.00000000000E+00  0.63762408931E+02  0.63762408931E+02  0.00000000000E+00 0. -1.
         21   -1    0    0  501  502  0.00000000000E+00 -0.00000000000E+00 -0.66987440440E+03  0.66987440440E+03  0.00000000000E+00 0. -1.
        -24    2    1    2    0    0  0.22468639213E+02  0.13885274691E+03 -0.20856859930E+03  0.26505960730E+03  0.83491375207E+02 0.  0.
         23    2    1    2    0    0 -0.64622456636E+02 -0.12913378970E+03 -0.38831518164E+03  0.42434415961E+03  0.91802439813E+02 0.  0.
         13    1    3    3    0    0 -0.17038365110E+02  0.10514114346E+03 -0.16901484306E+03  0.19977733381E+03  0.00000000000E+00 0. -1.
        -14    1    3    3    0    0  0.39507004323E+02  0.33711603456E+02 -0.39553756245E+02  0.65282273484E+02  0.00000000000E+00 0.  1.
        -11    1    4    4    0    0 -0.46463448296E+02 -0.10432816753E+03 -0.37281487472E+03  0.38991556699E+03  0.00000000000E+00 0. -1.
         11    1    4    4    0    0 -0.18159008339E+02 -0.24805622171E+02 -0.15500306924E+02  0.34428592621E+02  0.00000000000E+00 0.  1.
          4    1    1    2  501    0  0.42153817423E+02 -0.97189572134E+01 -0.92282145249E+01  0.44233046424E+02  0.00000000000E+00 0. -1.
<scales pt_clust_5="13000.00000" pt_clust_6="13000.00000" pt_clust_7="13000.00000" pt_clust_8="13000.00000" pt_clust_9="43.25973"></scales>
<clustering>
<clus scale="   43.260">  2  9  1 -1</clus>
<clus scale="   83.491">  5  6 -1 -1</clus>
<clus scale="   91.802">  7  8 -1 -1</clus>
<clus scale="  163.442">  1  5  2 -1</clus>
<clus scale="   43.260">  2  5  1 -1</clus>
</clustering>
</event>
<event>
 9    1  0.6345107E-005  0.1873767E+03  0.7546771E-02  0.1161968E+00
         -2   -1    0    0    0  501 -0.00000000000E+00  0.00000000000E+00  0.80488245446E+02  0.80488245446E+02  0.00000000000E+00 0.  1.
         21   -1    0    0  501  502  0.00000000000E+00 -0.00000000000E+00 -0.66742591327E+03  0.66742591327E+03  0.00000000000E+00 0. -1.
         23    2    1    2    0    0  0.17296088265E+03 -0.34899809669E+02 -0.10970325501E+03  0.22699186066E+03  0.91416831082E+02 0.  0.
        -24    2    1    2    0    0 -0.12783518264E+03  0.25129029019E+02 -0.42137485600E+03  0.44845101379E+03  0.81106352887E+02 0.  0.
         11    1    4    4    0    0 -0.13426357340E+03  0.34675835189E+02 -0.35568132971E+03  0.38175689776E+03  0.00000000000E+00 0. -1.
        -12    1    4    4    0    0  0.64283907535E+01 -0.95468061698E+01 -0.65693526293E+02  0.66694116026E+02  0.00000000000E+00 0.  1.
        -11    1    3    3    0    0  0.15921500030E+01 -0.23242892738E+02 -0.21388007683E+00  0.23298342197E+02  0.00000000000E+00 0. -1.
         11    1    3    3    0    0  0.17136873265E+03 -0.11656916931E+02 -0.10948937494E+03  0.20369351847E+03  0.00000000000E+00 0.  1.
         -1    1    1    2    0  502 -0.45125700005E+02  0.97707806499E+01 -0.55859556805E+02  0.72471284258E+02  0.00000000000E+00 0.  1.
<scales pt_clust_5="13000.00000" pt_clust_6="13000.00000" pt_clust_7="13000.00000" pt_clust_8="13000.00000" pt_clust_9="46.17141"></scales>
<clustering>
<clus scale="   46.171">  2  9  1 -1</clus>
<clus scale="   81.106">  5  6 -1 -1</clus>
<clus scale="   91.417">  7  8 -1 -1</clus>
<clus scale="  182.568">  2  5  1 -1</clus>
<clus scale="   46.171">  2  5  1 -1</clus>
</clustering>
</event>
<event>
 9    1  0.6345107E-005  0.2740045E+03  0.7546771E-02  0.1130801E+00
         21   -1    0    0  501  502  0.00000000000E+00  0.00000000000E+00  0.93799255921E+02  0.93799255921E+02  0.00000000000E+00 0. -1.
          1   -1    0    0  502    0 -0.00000000000E+00 -0.00000000000E+00 -0.14357207917E+04  0.14357207917E+04  0.00000000000E+00 0. -1.
        -24    2    1    2    0    0  0.84444895839E+02 -0.36263777786E+02 -0.59358110820E+03  0.60614778646E+03  0.81428526921E+02 0.  0.
         23    2    1    2    0    0  0.18750244735E+03 -0.10255460560E+03 -0.37129194877E+03  0.43820068698E+03  0.92127715443E+02 0.  0.
         13    1    3    3    0    0  0.66051100433E+02  0.11838391453E+02 -0.25541515448E+03  0.26408293492E+03  0.00000000000E+00 0. -1.
        -14    1    3    3    0    0  0.18393795406E+02 -0.48102169239E+02 -0.33816595373E+03  0.34206485153E+03  0.00000000000E+00 0.  1.
        -11    1    4    4    0    0  0.72566858934E+02  0.82199507453E+01 -0.11165877622E+03  0.13342113368E+03  0.00000000000E+00 0.  1.
         11    1    4    4    0    0  0.11493558842E+03 -0.11077455635E+03 -0.25963317255E+03  0.30477955330E+03  0.00000000000E+00 0. -1.
          2    1    1    2  501    0 -0.27194734319E+03  0.13881838339E+03 -0.37704847882E+03  0.48517157420E+03  0.00000000000E+00 0. -1.
<scales pt_clust_5="13000.00000" pt_clust_6="13000.00000" pt_clust_7="13000.00000" pt_clust_8="13000.00000" pt_clust_9="258.05236"></scales>
<clustering>
<clus scale="   81.429">  5  6 -1 -1</clus>
<clus scale="   92.128">  7  8 -1 -1</clus>
<clus scale="  122.787">  2  5  1 -1</clus>
<clus scale="  258.052">  1  9  2 -1</clus>
<clus scale="  258.052">  1  5  2 -1</clus>
</clustering>
</event>
<event>
 9    1  0.6345107E-005  0.1311799E+03  0.7546771E-02  0.1248178E+00
         21   -1    0    0  501  502  0.00000000000E+00  0.00000000000E+00  0.45314993619E+02  0.45314993619E+02  0.00000000000E+00 0. -1.
          1   -1    0    0  502    0 -0.00000000000E+00 -0.00000000000E+00 -0.54250051949E+03  0.54250051949E+03  0.00000000000E+00 0. -1.
        -24    2    1    2    0    0  0.22473765373E+01  0.27826684349E+02 -0.12500082524E+03  0.15000926499E+03  0.78090961108E+02 0.  0.
         23    2    1    2    0    0  0.78109230176E+02  0.36280038261E+02 -0.24182668275E+03  0.27179399270E+03  0.89300262950E+02 0.  0.
         13    1    3    3    0    0  0.13807858860E+02  0.23555747204E+02 -0.13269857932E+03  0.13547857080E+03  0.00000000000E+00 0. -1.
        -14    1    3    3    0    0 -0.11560482323E+02  0.42709371455E+01  0.76977540770E+01  0.14530694184E+02  0.00000000000E+00 0.  1.
        -11    1    4    4    0    0  0.52702507972E+02  0.23006149855E+02 -0.23552592501E+03  0.24244442380E+03  0.00000000000E+00 0. -1.
         11    1    4    4    0    0  0.25406722204E+02  0.13273888406E+02 -0.63007577349E+01  0.29349568900E+02  0.00000000000E+00 0.  1.
          2    1    1    2  501    0 -0.80356606714E+02 -0.64106722610E+02 -0.13035801788E+03  0.16601225543E+03  0.00000000000E+00 0. -1.
<scales pt_clust_5="13000.00000" pt_clust_6="13000.00000" pt_clust_7="13000.00000" pt_clust_8="13000.00000" pt_clust_9="96.09175"></scales>
<clustering>
<clus scale="   78.091">  5  6 -1 -1</clus>
<clus scale="   82.931">  2  5  1 -1</clus>
<clus scale="   89.300">  7  8 -1 -1</clus>
<clus scale="   96.092">  1  9  2 -1</clus>
<clus scale="   96.092">  1  5  2 -1</clus>
</clustering>
</event>
<event>
 9    1  0.6345107E-005  0.1041849E+03  0.7546771E-02  0.1277747E+00
         21   -1    0    0  501  502  0.00000000000E+00  0.00000000000E+00  0.98269878273E+02  0.98269878273E+02  0.00000000000E+00 0. -1.
          3   -1    0    0  502    0 -0.00000000000E+00 -0.00000000000E+00 -0.22954500901E+03  0.22954500901E+03  0.00000000000E+00 0. -1.
        -24    2    1    2    0    0  0.31333110355E+02 -0.28211536993E+02 -0.13118165321E+03  0.15873650681E+03  0.78809884096E+02 0.  0.
         23    2    1    2    0    0 -0.69284304326E+02  0.29494226172E+02 -0.27851215337E+02  0.12204190076E+03  0.91914694923E+02 0.  0.
         13    1    3    3    0    0  0.51835966098E+02 -0.36147059490E+02 -0.73077076491E+02  0.96611781888E+02  0.00000000000E+00 0. -1.
        -14    1    3    3    0    0 -0.20502855743E+02  0.79355224969E+01 -0.58104576721E+02  0.62124724924E+02  0.00000000000E+00 0.  1.
        -13    1    4    4    0    0 -0.80739124842E+02 -0.42855932571E+01 -0.30167876496E+02  0.86297586073E+02  0.00000000000E+00 0. -1.
         13    1    4    4    0    0  0.11454820516E+02  0.33779819429E+02  0.23166611586E+01  0.35744314690E+02  0.00000000000E+00 0.  1.
          4    1    1    2  501    0  0.37951193970E+02 -0.12826891790E+01  0.27757737810E+02  0.47036479711E+02  0.00000000000E+00 0. -1.
<scales pt_clust_5="13000.00000" pt_clust_6="13000.00000" pt_clust_7="13000.00000" pt_clust_8="13000.00000" pt_clust_9="37.97286"></scales>
<clustering>
<clus scale="   37.973">  1  9  2 -1</clus>
<clus scale="   78.810">  5  6 -1 -1</clus>
<clus scale="   91.915">  7  8 -1 -1</clus>
<clus scale="   92.829">  2  5  1 -1</clus>
<clus scale="   37.973">  1  5  2 -1</clus>
</clustering>
</event>
<event>
 9    1  0.6345107E-005  0.1072029E+03  0.7546771E-02  0.1268341E+00
         21   -1    0    0  501  502  0.00000000000E+00  0.00000000000E+00  0.69595681795E+02  0.69595681795E+02  0.00000000000E+00 0.  1.
         -4   -1    0    0    0  501 -0.00000000000E+00 -0.00000000000E+00 -0.62196115415E+03  0.62196115415E+03  0.00000000000E+00 0.  1.
         23    2    1    2    0    0  0.27949524926E+02  0.58640724128E+02 -0.19012195830E+03  0.22033981011E+03  0.90461939076E+02 0.  0.
        -24    2    1    2    0    0  0.74048587401E+02 -0.53750640727E+02 -0.34863289656E+02  0.12828067728E+03  0.82874353832E+02 0.  0.
         13    1    4    4    0    0  0.87742480952E+02 -0.28320923969E+02 -0.36937935882E+02  0.99323858188E+02  0.00000000000E+00 0. -1.
        -14    1    4    4    0    0 -0.13693893551E+02 -0.25429716757E+02  0.20746462262E+01  0.28956819092E+02  0.00000000000E+00 0.  1.
        -13    1    3    3    0    0  0.57662132193E+02  0.57602935027E+02 -0.13440682607E+03  0.15718846811E+03  0.00000000000E+00 0.  1.
         13    1    3    3    0    0 -0.29712607267E+02  0.10377891006E+01 -0.55715132228E+02  0.63151341996E+02  0.00000000000E+00 0. -1.
         -3    1    1    2    0  502 -0.10199811233E+03 -0.48900834012E+01 -0.32738022440E+03  0.34293634856E+03  0.00000000000E+00 0.  1.
<scales pt_clust_5="13000.00000" pt_clust_6="13000.00000" pt_clust_7="13000.00000" pt_clust_8="13000.00000" pt_clust_9="102.11532"></scales>
<clustering>
<clus scale="   82.874">  5  6 -1 -1</clus>
<clus scale="   90.462">  7  8 -1 -1</clus>
<clus scale="  102.115">  1  9  2 -1</clus>
<clus scale="  102.115">  1  5  2 -1</clus>
<clus scale="  102.115">  1  5  2 -1</clus>
</clustering>
</event>
<event>
 9    1  0.6345107E-005  0.1282585E+03  0.7546771E-02  0.1232876E+00
         21   -1    0    0  501  502  0.00000000000E+00  0.00000000000E+00  0.70399341777E+03  0.70399341777E+03  0.00000000000E+00 0. -1.
          1   -1    0    0  502    0 -0.00000000000E+00 -0.00000000000E+00 -0.41798609764E+02  0.41798609764E+02  0.00000000000E+00 0. -1.
         23    2    1    2    0    0  0.48143088253E+01 -0.63378158147E+02  0.21284606898E+03  0.24009102191E+03  0.91105879186E+02 0.  0.
        -24    2    1    2    0    0 -0.57791115128E+02  0.11912007105E+03  0.30633501961E+03  0.34332296893E+03  0.80623274798E+02 0.  0.
         11    1    4    4    0    0 -0.59645148783E+02  0.78130841120E+02  0.13409509796E+03  0.16626324731E+03  0.00000000000E+00 0. -1.
        -12    1    4    4    0    0  0.18540336551E+01  0.40989229928E+02  0.17223992165E+03  0.17705972162E+03  0.00000000000E+00 0.  1.
        -13    1    3    3    0    0 -0.19859438728E+02 -0.55834505547E+02  0.20459184899E+03  0.21300167603E+03  0.00000000000E+00 0. -1.
         13    1    3    3    0    0  0.24673747553E+02 -0.75436525996E+01  0.82542199906E+01  0.27089345886E+02  0.00000000000E+00 0.  1.
          2    1    1    2  501    0  0.52976806303E+02 -0.55741912901E+02  0.14301371941E+03  0.16237803669E+03  0.00000000000E+00 0. -1.
<scales pt_clust_5="13000.00000" pt_clust_6="13000.00000" pt_clust_7="13000.00000" pt_clust_8="13000.00000" pt_clust_9="76.90064"></scales>
<clustering>
<clus scale="   76.901">  1  9  2 -1</clus>
<clus scale="   80.623">  5  6 -1 -1</clus>
<clus scale="   91.106">  7  8 -1 -1</clus>
<clus scale="  121.037">  1  5  2 -1</clus>
<clus scale="   76.901">  1  5  2 -1</clus>
</clustering>
</event>
<event>
 9    1  0.6345107E-005  0.1163804E+03  0.7546771E-02  0.1256202E+00
         -2   -1    0    0    0  501 -0.00000000000E+00  0.00000000000E+00  0.32065079734E+03  0.32065079734E+03  0.00000000000E+00 0.  1.
         21   -1    0    0  501  502  0.00000000000E+00 -0.00000000000E+00 -0.75499211244E+02  0.75499211244E+02  0.00000000000E+00 0. -1.
        -24    2    1    2    0    0 -0.10755023743E+01 -0.81729350157E+02  0.10067135814E+03  0.14844538169E+03  0.72252789649E+02 0.  0.
         23    2    1    2    0    0 -0.58437936561E+02  0.44013214604E+02  0.45598185071E+02  0.12628792829E+03  0.92289169795E+02 0.  0.
         13    1    3    3    0    0  0.35297309145E+02 -0.46811853322E+02  0.52002760930E+02  0.78367957666E+02  0.00000000000E+00 0. -1.
        -14    1    3    3    0    0 -0.36372811520E+02 -0.34917496835E+02  0.48668597213E+02  0.70077424023E+02  0.00000000000E+00 0.  1.
        -13    1    4    4    0    0 -0.12044874537E+02  0.43006341091E+02  0.62573082813E+02  0.76876622385E+02  0.00000000000E+00 0.  1.
         13    1    4    4    0    0 -0.46393062024E+02  0.10068735130E+01 -0.16974897741E+02  0.49411305908E+02  0.00000000000E+00 0. -1.
         -1    1    1    2    0  502  0.59513438935E+02  0.37716135553E+02  0.98882042878E+02  0.12141669860E+03  0.00000000000E+00 0.  1.
<scales pt_clust_5="13000.00000" pt_clust_6="13000.00000" pt_clust_7="13000.00000" pt_clust_8="13000.00000" pt_clust_9="70.45822"></scales>
<clustering>
<clus scale="   70.458">  2  9  1 -1</clus>
<clus scale="   72.253">  5  6 -1 -1</clus>
<clus scale="   92.289">  7  8 -1 -1</clus>
<clus scale="  101.230">  1  5  2 -1</clus>
<clus scale="   70.458">  2  5  1 -1</clus>
</clustering>
</event>
<event>
 9    1  0.6345107E-005  0.1443832E+03  0.7546771E-02  0.1225089E+00
          1   -1    0    0  502    0 -0.00000000000E+00  0.00000000000E+00  0.85923281880E+03  0.85923281880E+03  0.00000000000E+00 0. -1.
         21   -1    0    0  501  502  0.00000000000E+00 -0.00000000000E+00 -0.18383372663E+03  0.18383372663E+03  0.00000000000E+00 0. -1.
        -24    2    1    2    0    0  0.54824608869E+01  0.57548403552E+02 -0.34175318734E+02  0.10537034234E+03  0.81197786338E+02 0.  0.
         23    2    1    2    0    0 -0.64636342924E+02 -0.14911241146E+03  0.78380633465E+03  0.80581167857E+03  0.92561995520E+02 0.  0.
         13    1    3    3    0    0  0.29904765872E+02  0.46356927130E+02  0.76162543235E+01  0.55689020864E+02  0.00000000000E+00 0. -1.
        -14    1    3    3    0    0 -0.24422304985E+02  0.11191476422E+02 -0.41791573058E+02  0.49681321479E+02  0.00000000000E+00 0.  1.
        -13    1    4    4    0    0 -0.68247190987E+02 -0.12128031551E+03  0.74519558084E+03  0.75807852345E+03  0.00000000000E+00 0. -1.
         13    1    4    4    0    0  0.36108480635E+01 -0.27832095952E+02  0.38610753806E+02  0.47733155126E+02  0.00000000000E+00 0.  1.
          2    1    1    2  501    0  0.59153882037E+02  0.91564007909E+02 -0.74231923739E+02  0.13188452451E+03  0.00000000000E+00 0. -1.
<scales pt_clust_5="13000.00000" pt_clust_6="13000.00000" pt_clust_7="13000.00000" pt_clust_8="13000.00000" pt_clust_9="110.80969"></scales>
<clustering>
<clus scale="   81.198">  5  6 -1 -1</clus>
<clus scale="   92.562">  7  8 -1 -1</clus>
<clus scale="   99.674">  1  5  2 -1</clus>
<clus scale="  110.810">  2  9  1 -1</clus>
<clus scale="  110.810">  2  5  1 -1</clus>
</clustering>
</event>
<event>
 9    1  0.6345107E-005  0.1462611E+03  0.7546771E-02  0.1207051E+00
         -2   -1    0    0    0  501 -0.00000000000E+00  0.00000000000E+00  0.79496971717E+03  0.79496971717E+03  0.00000000000E+00 0.  1.
         21   -1    0    0  501  502  0.00000000000E+00 -0.00000000000E+00 -0.52893346918E+02  0.52893346918E+02  0.00000000000E+00 0. -1.
        -24    2    1    2    0    0 -0.61802768171E+02  0.10065837975E+03  0.64286041484E+03  0.65864266038E+03  0.81172344718E+02 0.  0.
         23    2    1    2    0    0  0.53044782305E+02 -0.79636240784E+02  0.62612725315E+02  0.14611090247E+03  0.90952529776E+02 0.  0.
         13    1    3    3    0    0 -0.51748036072E+02  0.59922505379E+02  0.22200113845E+03  0.23569699056E+03  0.00000000000E+00 0. -1.
        -14    1    3    3    0    0 -0.10054732100E+02  0.40735874366E+02  0.42085927639E+03  0.42294566982E+03  0.00000000000E+00 0.  1.
        -11    1    4    4    0    0  0.52029188691E+02 -0.21065171796E+02  0.66953784629E+02  0.87370402396E+02  0.00000000000E+00 0.  1.
         11    1    4    4    0    0  0.10155936132E+01 -0.58571068987E+02 -0.43410593140E+01  0.58740500072E+02  0.00000000000E+00 0. -1.
         -1    1    1    2    0  502  0.87579858665E+01 -0.21022138961E+02  0.36603230094E+02  0.43109501230E+02  0.00000000000E+00 0.  1.
<scales pt_clust_5="13000.00000" pt_clust_6="13000.00000" pt_clust_7="13000.00000" pt_clust_8="13000.00000" pt_clust_9="22.77351"></scales>
<clustering>
<clus scale="   22.774">  2  9  1 -1</clus>
<clus scale="   81.172">  5  6 -1 -1</clus>
<clus scale="   90.953">  7  8 -1 -1</clus>
<clus scale="  140.388">  1  5  2 -1</clus>
<clus scale="   22.774">  2  5  1 -1</clus>
</clustering>
</event>
<event>
 9    1  0.6345107E-005  0.3195728E+03  0.7546771E-02  0.1076284E+00
          1   -1    0    0  502    0 -0.00000000000E+00  0.00000000000E+00  0.86651738877E+03  0.86651738877E+03  0.00000000000E+00 0. -1.
         21   -1    0    0  501  502  0.00000000000E+00 -0.00000000000E+00 -0.30430854434E+03  0.30430854434E+03  0.00000000000E+00 0. -1.
         23    2    1    2    0    0 -0.29338562983E+03 -0.12264905299E+03  0.69937269807E+03  0.77356294866E+03  0.90330209556E+02 0.  0.
        -24    2    1    2    0    0  0.25150350481E+03  0.69059347695E+02 -0.34083601505E+02  0.27376599140E+03  0.75913896769E+02 0.  0.
         13    1    4    4    0    0  0.18037831187E+03  0.42795702907E+02 -0.58028738135E+02  0.19425535264E+03  0.00000000000E+00 0. -1.
        -14    1    4    4    0    0  0.71125192937E+02  0.26263644787E+02  0.23945136630E+02  0.79510638760E+02  0.00000000000E+00 0.  1.
        -13    1    3    3    0    0 -0.17347925152E+03 -0.79299302342E+02  0.51678898861E+03  0.55086685216E+03  0.00000000000E+00 0. -1.
         13    1    3    3    0    0 -0.11990637831E+03 -0.43349750645E+02  0.18258370945E+03  0.22269609650E+03  0.00000000000E+00 0.  1.
          2    1    1    2  501    0  0.41882125019E+02  0.53589705292E+02 -0.10308025214E+03  0.12349699304E+03  0.00000000000E+00 0. -1.
<scales pt_clust_5="13000.00000" pt_clust_6="13000.00000" pt_clust_7="13000.00000" pt_clust_8="13000.00000" pt_clust_9="68.01448"></scales>
<clustering>
<clus scale="   68.014">  2  9  1 -1</clus>
<clus scale="   75.914">  5  6 -1 -1</clus>
<clus scale="   90.330">  7  8 -1 -1</clus>
<clus scale="  315.801">  2  5  1 -1</clus>
<clus scale="   68.014">  2  5  1 -1</clus>
</clustering>
</event>
<event>
 9    1  0.6345107E-005  0.1718128E+03  0.7546771E-02  0.1199094E+00
         21   -1    0    0  501  502  0.00000000000E+00  0.00000000000E+00  0.11800835338E+03  0.11800835338E+03  0.00000000000E+00 0. -1.
          1   -1    0    0  502    0 -0.00000000000E+00 -0.00000000000E+00 -0.53568884615E+03  0.53568884615E+03  0.00000000000E+00 0. -1.
        -24    2    1    2    0    0  0.20116512880E+02  0.60258851831E+02 -0.11465302072E+03  0.15402459017E+03  0.80885449257E+02 0.  0.
         23    2    1    2    0    0  0.69057438140E+02  0.67397766107E+02 -0.31635339811E+03  0.34338509883E+03  0.92317197530E+02 0.  0.
         13    1    3    3    0    0  0.45887171349E+02  0.56118710520E+02 -0.62538902821E+02  0.95739524393E+02  0.00000000000E+00 0. -1.
        -14    1    3    3    0    0 -0.25770658469E+02  0.41401413114E+01 -0.52114117901E+02  0.58285065777E+02  0.00000000000E+00 0.  1.
        -13    1    4    4    0    0  0.47554828799E+02  0.55521570419E+02 -0.30930935868E+03  0.31783075039E+03  0.00000000000E+00 0. -1.
         13    1    4    4    0    0  0.21502609341E+02  0.11876195688E+02 -0.70440394272E+01  0.25554348435E+02  0.00000000000E+00 0.  1.
          2    1    1    2  501    0 -0.89173951020E+02 -0.12765661794E+03  0.13325926073E+02  0.15628751054E+03  0.00000000000E+00 0. -1.
<scales pt_clust_5="13000.00000" pt_clust_6="13000.00000" pt_clust_7="13000.00000" pt_clust_8="13000.00000" pt_clust_9="144.90404"></scales>
<clustering>
<clus scale="   80.885">  5  6 -1 -1</clus>
<clus scale="   92.317">  7  8 -1 -1</clus>
<clus scale="  102.851">  2  5  1 -1</clus>
<clus scale="  144.904">  1  9  2 -1</clus>
<clus scale="  144.904">  1  5  2 -1</clus>
</clustering>
</event>
<event>
 9    1  0.6345107E-005  0.1059006E+03  0.7546771E-02  0.1272117E+00
          3   -1    0    0  502    0 -0.00000000000E+00  0.00000000000E+00  0.11722034482E+03  0.11722034482E+03  0.00000000000E+00 0. -1.
         21   -1    0    0  501  502  0.00000000000E+00 -0.00000000000E+00 -0.38792204891E+03  0.38792204891E+03  0.00000000000E+00 0. -1.
         23    2    1    2    0    0 -0.52610422190E+02  0.21780716225E+02  0.68428655751E+02  0.12506963790E+03  0.87850311747E+02 0.  0.
        -24    2    1    2    0    0  0.79600595993E+02  0.72970500123E+01 -0.15283091159E+03  0.18959580082E+03  0.78738671123E+02 0.  0.
         11    1    4    4    0    0  0.33110173804E+02 -0.43982935936E+01 -0.44904793792E+01  0.33701528169E+02  0.00000000000E+00 0. -1.
        -12    1    4    4    0    0  0.46490422189E+02  0.11695343606E+02 -0.14834043221E+03  0.15589427265E+03  0.00000000000E+00 0.  1.
        -13    1    3    3    0    0  0.61152855105E+01  0.39807605738E+02  0.42017700261E+02  0.58202485571E+02  0.00000000000E+00 0.  1.
         13    1    3    3    0    0 -0.58725707701E+02 -0.18026889514E+02  0.26410955490E+02  0.66867152328E+02  0.00000000000E+00 0. -1.
          4    1    1    2  501    0 -0.26990173803E+02 -0.29077766237E+02 -0.18629944826E+03  0.19047695502E+03  0.00000000000E+00 0. -1.
<scales pt_clust_5="13000.00000" pt_clust_6="13000.00000" pt_clust_7="13000.00000" pt_clust_8="13000.00000" pt_clust_9="39.67349"></scales>
<clustering>
<clus scale="   39.673">  2  9  1 -1</clus>
<clus scale="   78.739">  5  6 -1 -1</clus>
<clus scale="   87.850">  7  8 -1 -1</clus>
<clus scale="   98.474">  2  5  1 -1</clus>
<clus scale="   39.673">  2  5  1 -1</clus>
</clustering>
</event>
<event>
 9    1  0.6345107E-005  0.9838777E+02  0.7546771E-02  0.1287930E+00
         21   -1    0    0  501  502  0.00000000000E+00  0.00000000000E+00  0.47319587627E+02  0.47319587627E+02  0.00000000000E+00 0.  1.
          1   -1    0    0  502    0 -0.00000000000E+00 -0.00000000000E+00 -0.35256287938E+03  0.35256287938E+03  0.00000000000E+00 0. -1.
         23    2    1    2    0    0 -0.31131688476E+02 -0.27678130899E+02 -0.24966433603E+03  0.26836031144E+03  0.89161174910E+02 0.  0.
        -24    2    1    2    0    0  0.13095545507E+02  0.44804865265E+02 -0.50600843977E+02  0.10615664591E+03  0.80807294207E+02 0.  0.
         13    1    4    4    0    0 -0.16902301170E+02  0.30314291158E+02 -0.61909798568E+02  0.70975116710E+02  0.00000000000E+00 0. -1.
        -14    1    4    4    0    0  0.29997846676E+02  0.14490574107E+02  0.11308954592E+02  0.35181529204E+02  0.00000000000E+00 0.  1.
        -11    1    3    3    0    0  0.13445866045E+02  0.23263245326E+02 -0.10889662447E+03  0.11216258163E+03  0.00000000000E+00 0.  1.
         11    1    3    3    0    0 -0.44577554522E+02 -0.50941376225E+02 -0.14076771156E+03  0.15619772981E+03  0.00000000000E+00 0. -1.
          2    1    1    2  501    0  0.18036142970E+02 -0.17126734366E+02 -0.49781117366E+01  0.25365509648E+02  0.00000000000E+00 0. -1.
<scales pt_clust_5="13000.00000" pt_clust_6="13000.00000" pt_clust_7="13000.00000" pt_clust_8="13000.00000" pt_clust_9="24.87222"></scales>
<clustering>
<clus scale="   24.872">  1  9  2 -1</clus>
<clus scale="   80.807">  5  6 -1 -1</clus>
<clus scale="   89.161">  7  8 -1 -1</clus>
<clus scale="   90.886">  1  5  2 -1</clus>
<clus scale="   24.872">  1  5  2 -1</clus>
</clustering>
</event>
<event>
 9    1  0.6345107E-005  0.1160422E+03  0.7546771E-02  0.1266842E+00
          1   -1    0    0  502    0 -0.00000000000E+00  0.00000000000E+00  0.38336605879E+03  0.38336605879E+03  0.00000000000E+00 0. -1.
         21   -1    0    0  501  502  0.00000000000E+00 -0.00000000000E+00 -0.59147093173E+02  0.59147093173E+02  0.00000000000E+00 0.  1.
        -24    2    1    2    0    0  0.31105577427E+02  0.48859712631E+02  0.55917834570E+02  0.99987852086E+02  0.59295344474E+02 0.  0.
         23    2    1    2    0    0 -0.28355720154E+02  0.52484456915E+02  0.10352149111E+03  0.14905558092E+03  0.89119032749E+02 0.  0.
         11    1    3    3    0    0  0.29614646538E+02  0.60226249704E+02  0.57548602773E+02  0.88408541014E+02  0.00000000000E+00 0. -1.
        -12    1    3    3    0    0  0.14909308889E+01 -0.11366537074E+02 -0.16307682033E+01  0.11579311072E+02  0.00000000000E+00 0.  1.
        -13    1    4    4    0    0 -0.97797867176E+01  0.75429527191E+02  0.62109571806E+02  0.98198048404E+02  0.00000000000E+00 0.  1.
         13    1    4    4    0    0 -0.18575933437E+02 -0.22945070275E+02  0.41411919307E+02  0.50857532517E+02  0.00000000000E+00 0. -1.
          2    1    1    2  501    0 -0.27498572731E+01 -0.10134416955E+03  0.16477963993E+03  0.19346971895E+03  0.00000000000E+00 0. -1.
<scales pt_clust_5="13000.00000" pt_clust_6="13000.00000" pt_clust_7="13000.00000" pt_clust_8="13000.00000" pt_clust_9="74.32091"></scales>
<clustering>
<clus scale="   59.295">  5  6 -1 -1</clus>
<clus scale="   82.890">  1  5  2 -1</clus>
<clus scale="   74.321">  2  9  1 -1</clus>
<clus scale="   89.119">  7  8 -1 -1</clus>
<clus scale="   74.321">  2  5  1 -1</clus>
</clustering>
</event>
<event>
 9    1  0.6345107E-005  0.1024860E+03  0.7546771E-02  0.1280925E+00
         21   -1    0    0  501  502  0.00000000000E+00  0.00000000000E+00  0.34353991353E+02  0.34353991353E+02  0.00000000000E+00 0. -1.
          1   -1    0    0  502    0 -0.00000000000E+00 -0.00000000000E+00 -0.48454897039E+03  0.48454897039E+03  0.00000000000E+00 0. -1.
         23    2    1    2    0    0 -0.30177641842E+02 -0.17466071019E+02 -0.29140339332E+03  0.30761351896E+03  0.92164991753E+02 0.  0.
        -24    2    1    2    0    0  0.53090642092E+02  0.39046974858E+02 -0.14127408662E+03  0.17526717515E+03  0.80105758913E+02 0.  0.
         13    1    4    4    0    0  0.56324701195E+02 -0.67865013329E+01 -0.90287700997E+02  0.10663206608E+03  0.00000000000E+00 0. -1.
        -14    1    4    4    0    0 -0.32340591035E+01  0.45833476191E+02 -0.50986385619E+02  0.68635109066E+02  0.00000000000E+00 0.  1.
        -13    1    3    3    0    0 -0.20323532283E+02 -0.50939258491E+02 -0.11033822963E+03  0.12321679649E+03  0.00000000000E+00 0. -1.
         13    1    3    3    0    0 -0.98541095598E+01  0.33473187472E+02 -0.18106516369E+03  0.18439672247E+03  0.00000000000E+00 0.  1.
          2    1    1    2  501    0 -0.22913000250E+02 -0.21580903839E+02 -0.17517499102E+02  0.36022267638E+02  0.00000000000E+00 0. -1.
<scales pt_clust_5="13000.00000" pt_clust_6="13000.00000" pt_clust_7="13000.00000" pt_clust_8="13000.00000" pt_clust_9="31.47604"></scales>
<clustering>
<clus scale="   31.476">  1  9  2 -1</clus>
<clus scale="   80.106">  5  6 -1 -1</clus>
<clus scale="   91.793">  1  5  2 -1</clus>
<clus scale="   92.165">  7  8 -1 -1</clus>
<clus scale="   31.476">  1  5  2 -1</clus>
</clustering>
</event>
<event>
 9    1  0.6345107E-005  0.1785568E+03  0.7546771E-02  0.1172229E+00
          1   -1    0    0  502    0 -0.00000000000E+00  0.00000000000E+00  0.61910399634E+03  0.61910399634E+03  0.00000000000E+00 0. -1.
         21   -1    0    0  501  502  0.00000000000E+00 -0.00000000000E+00 -0.84017166517E+02  0.84017166517E+02  0.00000000000E+00 0.  1.
         23    2    1    2    0    0 -0.13888439668E+03 -0.48038859923E+02  0.42181718933E+03  0.45637304031E+03  0.93541450755E+02 0.  0.
        -24    2    1    2    0    0  0.16363194645E+03  0.34858891172E+02  0.12129897798E+03  0.21758267970E+03  0.68104509784E+02 0.  0.
         11    1    4    4    0    0  0.13950382864E+03  0.19125551874E+02  0.12531863390E+03  0.18849897862E+03  0.00000000000E+00 0. -1.
        -12    1    4    4    0    0  0.24128117811E+02  0.15733339298E+02 -0.40196559183E+01  0.29083701076E+02  0.00000000000E+00 0.  1.
        -11    1    3    3    0    0 -0.12467723118E+03 -0.13950324353E+02  0.23966672920E+03  0.27051647752E+03  0.00000000000E+00 0. -1.
         11    1    3    3    0    0 -0.14207165498E+02 -0.34088535570E+02  0.18215046013E+03  0.18585656280E+03  0.00000000000E+00 0.  1.
          2    1    1    2  501    0 -0.24747549771E+02  0.13179968752E+02 -0.80293374878E+01  0.29165442847E+02  0.00000000000E+00 0. -1.
<scales pt_clust_5="13000.00000" pt_clust_6="13000.00000" pt_clust_7="13000.00000" pt_clust_8="13000.00000" pt_clust_9="28.03842"></scales>
<clustering>
<clus scale="   28.038">  2  9  1 -1</clus>
<clus scale="   68.105">  5  6 -1 -1</clus>
<clus scale="   93.541">  7  8 -1 -1</clus>
<clus scale="  166.646">  2  5  1 -1</clus>
<clus scale="   28.038">  2  5  1 -1</clus>
</clustering>
</event>
<event>
 9    1  0.6345107E-005  0.9770016E+02  0.7546771E-02  0.1291722E+00
         -2   -1    0    0    0  501 -0.00000000000E+00  0.00000000000E+00  0.10943581959E+03  0.10943581959E+03  0.00000000000E+00 0.  1.
         21   -1    0    0  501  502  0.00000000000E+00 -0.00000000000E+00 -0.21598865668E+03  0.21598865668E+03  0.00000000000E+00 0. -1.
        -24    2    1    2    0    0 -0.20691326414E+02 -0.24751042661E+02  0.65083498156E+02  0.10795436355E+03  0.79859487697E+02 0.  0.
         23    2    1    2    0    0  0.75442176853E+01  0.41757265416E+02 -0.98537779305E+02  0.14127656338E+03  0.91917294205E+02 0.  0.
         13    1    3    3    0    0 -0.25766151843E+02 -0.31381712268E+02 -0.17107024462E+01  0.40640287259E+02  0.00000000000E+00 0. -1.
        -14    1    3    3    0    0  0.50748254283E+01  0.66306696064E+01  0.66794200602E+02  0.67314076289E+02  0.00000000000E+00 0.  1.
        -13    1    4    4    0    0  0.47185176579E+02  0.26145653481E+02 -0.33414665881E+02  0.63455306955E+02  0.00000000000E+00 0.  1.
         13    1    4    4    0    0 -0.39640958894E+02  0.15611611935E+02 -0.65123113424E+02  0.77821256423E+02  0.00000000000E+00 0. -1.
         -1    1    1    2    0  502  0.13147108729E+02 -0.17006222755E+02 -0.73098555942E+02  0.76193549341E+02  0.00000000000E+00 0.  1.
<scales pt_clust_5="13000.00000" pt_clust_6="13000.00000" pt_clust_7="13000.00000" pt_clust_8="13000.00000" pt_clust_9="21.49554"></scales>
<clustering>
<clus scale="   21.496">  2  9  1 -1</clus>
<clus scale="   79.859">  5  6 -1 -1</clus>
<clus scale="   86.453">  1  5  2 -1</clus>
<clus scale="   91.917">  7  8 -1 -1</clus>
<clus scale="   21.496">  2  5  1 -1</clus>
</clustering>
</event>
<event>
 9    1  0.6345107E-005  0.1181303E+03  0.7546771E-02  0.1248989E+00
         21   -1    0    0  501  502  0.00000000000E+00  0.00000000000E+00  0.42751395827E+02  0.42751395827E+02  0.00000000000E+00 0.  1.
          1   -1    0    0  502    0 -0.00000000000E+00 -0.00000000000E+00 -0.49251428650E+03  0.49251428650E+03  0.00000000000E+00 0. -1.
        -24    2    1    2    0    0  0.71427491463E+02 -0.30432661134E+02 -0.32509479672E+03  0.34392523174E+03  0.81054949107E+02 0.  0.
         23    2    1    2    0    0 -0.77013746122E+02  0.81980242974E+01 -0.11855795736E+03  0.16761453468E+03  0.89667821914E+02 0.  0.
         11    1    3    3    0    0  0.42923437742E+01 -0.36178854784E+02 -0.58252885902E+02  0.68707586659E+02  0.00000000000E+00 0. -1.
        -12    1    3    3    0    0  0.67135147688E+02  0.57461936502E+01 -0.26684191082E+03  0.27521764508E+03  0.00000000000E+00 0.  1.
        -13    1    4    4    0    0 -0.21007264656E+02 -0.84569890395E+00  0.12740797458E+02  0.24583496391E+02  0.00000000000E+00 0.  1.
         13    1    4    4    0    0 -0.56006481467E+02  0.90437232013E+01 -0.13129875482E+03  0.14303103829E+03  0.00000000000E+00 0. -1.
          2    1    1    2  501    0  0.55862546598E+01  0.22234636837E+02 -0.61101365875E+01  0.23725915904E+02  0.00000000000E+00 0. -1.
<scales pt_clust_5="13000.00000" pt_clust_6="13000.00000" pt_clust_7="13000.00000" pt_clust_8="13000.00000" pt_clust_9="22.92565"></scales>
<clustering>
<clus scale="   22.926">  1  9  2 -1</clus>
<clus scale="   81.055">  5  6 -1 -1</clus>
<clus scale="   89.668">  7  8 -1 -1</clus>
<clus scale="  111.733">  2  5  1 -1</clus>
<clus scale="   22.926">  1  5  2 -1</clus>
</clustering>
</event>
<event>
 9    1  0.6345107E-005  0.2221571E+03  0.7546771E-02  0.1133082E+00
         -2   -1    0    0    0  501 -0.00000000000E+00  0.00000000000E+00  0.13834058626E+04  0.13834058626E+04  0.00000000000E+00 0.  1.
         21   -1    0    0  501  502  0.00000000000E+00 -0.00000000000E+00 -0.62724280303E+02  0.62724280303E+02  0.00000000000E+00 0.  1.
         23    2    1    2    0    0  0.13713229871E+03  0.48649763985E+02  0.32834804480E+03  0.37041124519E+03  0.90664133768E+02 0.  0.
        -24    2    1    2    0    0 -0.25635228234E+03 -0.88735932890E+02  0.77020329578E+03  0.82045011834E+03  0.79590963095E+02 0.  0.
         11    1    4    4    0    0 -0.10218305138E+03 -0.25813393698E+02  0.19536677127E+03  0.22198171682E+03  0.00000000000E+00 0. -1.
        -12    1    4    4    0    0 -0.15416923096E+03 -0.62922539192E+02  0.57483652451E+03  0.59846840152E+03  0.00000000000E+00 0.  1.
        -13    1    3    3    0    0  0.84135974019E+02 -0.31016719868E+01  0.10204498754E+03  0.13229384708E+03  0.00000000000E+00 0.  1.
         13    1    3    3    0    0  0.52996324687E+02  0.51751435971E+02  0.22630305726E+03  0.23811739811E+03  0.00000000000E+00 0. -1.
         -1    1    1    2    0  502  0.11921998364E+03  0.40086168906E+02  0.22213024166E+03  0.25526877932E+03  0.00000000000E+00 0.  1.
<scales pt_clust_5="13000.00000" pt_clust_6="13000.00000" pt_clust_7="13000.00000" pt_clust_8="13000.00000" pt_clust_9="125.77880"></scales>
<clustering>
<clus scale="   79.591">  5  6 -1 -1</clus>
<clus scale="   90.664">  7  8 -1 -1</clus>
<clus scale="  125.779">  2  9  1 -1</clus>
<clus scale="  217.873">  2  5  1 -1</clus>
<clus scale="  125.779">  2  5  1 -1</clus>
</clustering>
</event>
<event>
 9    1  0.6345107E-005  0.1299222E+03  0.7546771E-02  0.1238639E+00
         -4   -1    0    0    0  501 -0.00000000000E+00  0.00000000000E+00  0.34905715817E+03  0.34905715817E+03  0.00000000000E+00 0.  1.
         21   -1    0    0  501  502  0.00000000000E+00 -0.00000000000E+00 -0.11870439236E+03  0.11870439236E+03  0.00000000000E+00 0.  1.
         23    2    1    2    0    0  0.77892067723E+01  0.49175210326E+02  0.10800349634E+03  0.14958984334E+03  0.90738596844E+02 0.  0.
        -24    2    1    2    0    0 -0.10245432810E+03 -0.29132716531E+00  0.15993988097E+03  0.20519306629E+03  0.77630243528E+02 0.  0.
         11    1    4    4    0    0 -0.11432096537E+00  0.21570153220E+02  0.14399398993E+02  0.25935058715E+02  0.00000000000E+00 0. -1.
        -12    1    4    4    0    0 -0.10234000714E+03 -0.21861480385E+02  0.14554048197E+03  0.17925800757E+03  0.00000000000E+00 0.  1.
        -11    1    3    3    0    0 -0.31583528846E+02  0.18604245437E+02  0.75164679842E+01  0.37418371605E+02  0.00000000000E+00 0. -1.
         11    1    3    3    0    0  0.39372735618E+02  0.30570964889E+02  0.10048702836E+03  0.11217147174E+03  0.00000000000E+00 0.  1.
         -3    1    1    2    0  502  0.94665121329E+02 -0.48883883161E+02 -0.37590611497E+02  0.11297864091E+03  0.00000000000E+00 0.  1.
<scales pt_clust_5="13000.00000" pt_clust_6="13000.00000" pt_clust_7="13000.00000" pt_clust_8="13000.00000" pt_clust_9="104.17929"></scales>
<clustering>
<clus scale="   77.630">  5  6 -1 -1</clus>
<clus scale="   90.739">  7  8 -1 -1</clus>
<clus scale="  103.501">  1  7  2 -1</clus>
<clus scale="  104.179">  2  9  1 -1</clus>
<clus scale="  104.179">  2  5  1 -1</clus>
</clustering>
</event>
<event>
 9    1  0.6345107E-005  0.1402619E+03  0.7546771E-02  0.1215067E+00
          3   -1    0    0  502    0 -0.00000000000E+00  0.00000000000E+00  0.48120212409E+02  0.48120212409E+02  0.00000000000E+00 0. -1.
         21   -1    0    0  501  502  0.00000000000E+00 -0.00000000000E+00 -0.85482852410E+03  0.85482852410E+03  0.00000000000E+00 0. -1.
         23    2    1    2    0    0  0.19250831073E+02  0.11162214868E+03 -0.19814445573E+03  0.24555137459E+03  0.90576783202E+02 0.  0.
        -24    2    1    2    0    0 -0.90460556784E+02 -0.69837282967E+02 -0.50979410892E+03  0.52866406020E+03  0.80841181582E+02 0.  0.
         11    1    4    4    0    0 -0.79175170496E+02 -0.29452690230E+02 -0.43304129042E+03  0.44120395261E+03  0.00000000000E+00 0. -1.
        -12    1    4    4    0    0 -0.11285386288E+02 -0.40384592737E+02 -0.76752818494E+02  0.87460107597E+02  0.00000000000E+00 0.  1.
        -11    1    3    3    0    0  0.20928167450E+02  0.32921622095E+01 -0.90043884678E+02  0.92502582087E+02  0.00000000000E+00 0.  1.
         11    1    3    3    0    0 -0.16773363769E+01  0.10832998647E+03 -0.10810057105E+03  0.15304879251E+03  0.00000000000E+00 0. -1.
          4    1    1    2  501    0  0.71209725711E+02 -0.41784865713E+02 -0.98769747043E+02  0.12873330171E+03  0.00000000000E+00 0. -1.
<scales pt_clust_5="13000.00000" pt_clust_6="13000.00000" pt_clust_7="13000.00000" pt_clust_8="13000.00000" pt_clust_9="82.56396"></scales>
<clustering>
<clus scale="   80.841">  5  6 -1 -1</clus>
<clus scale="   82.564">  2  9  1 -1</clus>
<clus scale="   90.577">  7  8 -1 -1</clus>
<clus scale="  134.181">  2  5  1 -1</clus>
<clus scale="   82.564">  2  5  1 -1</clus>
</clustering>
</event>
<event>
 9    1  0.6345107E-005  0.9323023E+02  0.7546771E-02  0.1314325E+00
         21   -1    0    0  501  502  0.00000000000E+00  0.00000000000E+00  0.71690985641E+02  0.71690985641E+02  0.00000000000E+00 0. -1.
         -2   -1    0    0    0  501 -0.00000000000E+00 -0.00000000000E+00 -0.55803700601E+03  0.55803700601E+03  0.00000000000E+00 0.  1.
        -24    2    1    2    0    0 -0.68225121709E+01 -0.27205937744E+00 -0.49523736489E+03  0.49958639916E+03  0.65420959555E+02 0.  0.
         23    2    1    2    0    0 -0.11035882675E+02  0.26377855915E+02  0.11973562436E+00  0.97318186184E+02  0.93022755477E+02 0.  0.
         13    1    3    3    0    0 -0.31977206098E+02  0.85135935681E+01 -0.16559623243E+03  0.16887017256E+03  0.00000000000E+00 0. -1.
        -14    1    3    3    0    0  0.25154693927E+02 -0.87856529455E+01 -0.32964113246E+03  0.33071622660E+03  0.00000000000E+00 0.  1.
        -11    1    4    4    0    0 -0.42096341740E+02  0.42917423544E+02 -0.94397350088E+01  0.60853231866E+02  0.00000000000E+00 0. -1.
         11    1    4    4    0    0  0.31060459065E+02 -0.16539567628E+02  0.95594706331E+01  0.36464954318E+02  0.00000000000E+00 0.  1.
         -1    1    1    2    0  502  0.17858394846E+02 -0.26105796538E+02  0.87716088956E+01  0.32823406313E+02  0.00000000000E+00 0.  1.
<scales pt_clust_5="13000.00000" pt_clust_6="13000.00000" pt_clust_7="13000.00000" pt_clust_8="13000.00000" pt_clust_9="31.62965"></scales>
<clustering>
<clus scale="   31.630">  1  9  2 -1</clus>
<clus scale="   65.421">  5  6 -1 -1</clus>
<clus scale="   65.716">  2  5  1 -1</clus>
<clus scale="   93.023">  7  8 -1 -1</clus>
<clus scale="   31.630">  1  5  2 -1</clus>
</clustering>
</event>
<event>
 9    1  0.6345107E-005  0.2723746E+03  0.7546771E-02  0.1100498E+00
          1   -1    0    0  502    0 -0.00000000000E+00  0.00000000000E+00  0.10080489007E+04  0.10080489007E+04  0.00000000000E+00 0. -1.
         21   -1    0    0  501  502  0.00000000000E+00 -0.00000000000E+00 -0.10132762757E+03  0.10132762757E+03  0.00000000000E+00 0. -1.
        -24    2    1    2    0    0 -0.16163199989E+03 -0.21184859732E+03  0.68797192295E+03  0.74213961028E+03  0.80380985335E+02 0.  0.
         23    2    1    2    0    0  0.12895080309E+03  0.19036072862E+03  0.15493179878E+03  0.29238727543E+03  0.92849016907E+02 0.  0.
         11    1    3    3    0    0 -0.11147298265E+03 -0.17978771742E+03  0.45645137913E+03  0.50308817389E+03  0.00000000000E+00 0. -1.
        -12    1    3    3    0    0 -0.50159017245E+02 -0.32060879901E+02  0.23152054381E+03  0.23905143639E+03  0.00000000000E+00 0.  1.
        -13    1    4    4    0    0  0.40258173278E+02  0.13640635524E+03  0.71400917028E+02  0.15913989198E+03  0.00000000000E+00 0.  1.
         13    1    4    4    0    0  0.88692629814E+02  0.53954373374E+02  0.83530881757E+02  0.13324738345E+03  0.00000000000E+00 0. -1.
          2    1    1    2  501    0  0.32681196798E+02  0.21487868708E+02  0.63817551362E+02  0.74849642535E+02  0.00000000000E+00 0. -1.
<scales pt_clust_5="13000.00000" pt_clust_6="13000.00000" pt_clust_7="13000.00000" pt_clust_8="13000.00000" pt_clust_9="39.11254"></scales>
<clustering>
<clus scale="   39.113">  2  9  1 -1</clus>
<clus scale="   80.381">  5  6 -1 -1</clus>
<clus scale="   92.849">  7  8 -1 -1</clus>
<clus scale="  268.380">  1  5  2 -1</clus>
<clus scale="   39.113">  2  5  1 -1</clus>
</clustering>
</event>
<event>
 9    1  0.6345107E-005  0.1102812E+03  0.7546771E-02  0.1264023E+00
         21   -1    0    0  501  502  0.00000000000E+00  0.00000000000E+00  0.33398534230E+02  0.33398534230E+02  0.00000000000E+00 0.  1.
          1   -1    0    0  502    0 -0.00000000000E+00 -0.00000000000E+00 -0.68653127982E+03  0.68653127982E+03  0.00000000000E+00 0. -1.
         23    2    1    2    0    0  0.54777568693E+02 -0.59116367377E+02 -0.36371670818E+03  0.38347324748E+03  0.90920629122E+02 0.  0.
        -24    2    1    2    0    0  0.12836944910E+02  0.47177590035E+02 -0.11340620907E+03  0.14752875886E+03  0.80704735169E+02 0.  0.
         13    1    4    4    0    0 -0.32711397581E+02  0.87153920286E+01 -0.31634397427E+02  0.46332803611E+02  0.00000000000E+00 0. -1.
        -14    1    4    4    0    0  0.45548342491E+02  0.38462198006E+02 -0.81771811643E+02  0.10119595525E+03  0.00000000000E+00 0.  1.
        -11    1    3    3    0    0  0.11014206326E+02  0.23629523017E+02 -0.10978567706E+03  0.11283865466E+03  0.00000000000E+00 0. -1.
         11    1    3    3    0    0  0.43763362366E+02 -0.82745890394E+02 -0.25393103112E+03  0.27063459282E+03  0.00000000000E+00 0.  1.
          2    1    1    2  501    0 -0.67614513603E+02  0.11938777343E+02 -0.17600982834E+03  0.18892780771E+03  0.00000000000E+00 0. -1.
<scales pt_clust_5="13000.00000" pt_clust_6="13000.00000" pt_clust_7="13000.00000" pt_clust_8="13000.00000" pt_clust_9="68.66048"></scales>
<clustering>
<clus scale="   68.660">  1  9  2 -1</clus>
<clus scale="   80.705">  5  6 -1 -1</clus>
<clus scale="   90.921">  7  8 -1 -1</clus>
<clus scale="  102.023">  1  5  2 -1</clus>
<clus scale="   68.660">  1  5  2 -1</clus>
</clustering>
</event>
<event>
 9    1  0.6345107E-005  0.1408114E+03  0.7546771E-02  0.1214551E+00
          3   -1    0    0  502    0 -0.00000000000E+00  0.00000000000E+00  0.72027947282E+02  0.72027947282E+02  0.00000000000E+00 0. -1.
         21   -1    0    0  501  502  0.00000000000E+00 -0.00000000000E+00 -0.42843155348E+03  0.42843155348E+03  0.00000000000E+00 0. -1.
        -24    2    1    2    0    0  0.74729809222E+02  0.35597361604E+02 -0.10519777259E+03  0.15637329542E+03  0.80835138545E+02 0.  0.
         23    2    1    2    0    0 -0.12761286549E+03 -0.54919800776E+02 -0.13250863678E+03  0.21271269648E+03  0.91580153222E+02 0.  0.
         11    1    3    3    0    0  0.84515789473E+02  0.45026834791E+02 -0.69927966064E+02  0.11857594596E+03  0.00000000000E+00 0. -1.
        -12    1    3    3    0    0 -0.97859802519E+01 -0.94294731876E+01 -0.35269806530E+02  0.37797349468E+02  0.00000000000E+00 0.  1.
        -11    1    4    4    0    0 -0.34741451917E+02 -0.13021517114E+02  0.91563476399E+01  0.38214749657E+02  0.00000000000E+00 0.  1.
         11    1    4    4    0    0 -0.92871413577E+02 -0.41898283662E+02 -0.14166498442E+03  0.17449794682E+03  0.00000000000E+00 0. -1.
          4    1    1    2  501    0  0.52883056273E+02  0.19322439173E+02 -0.11869719683E+03  0.13137350886E+03  0.00000000000E+00 0. -1.
<scales pt_clust_5="13000.00000" pt_clust_6="13000.00000" pt_clust_7="13000.00000" pt_clust_8="13000.00000" pt_clust_9="56.30252"></scales>
<clustering>
<clus scale="   56.303">  2  9  1 -1</clus>
<clus scale="   80.835">  5  6 -1 -1</clus>
<clus scale="   91.580">  7  8 -1 -1</clus>
<clus scale="  134.072">  1  5  2 -1</clus>
<clus scale="   56.303">  2  5  1 -1</clus>
</clustering>
</event>
<event>
 9    1  0.6345107E-005  0.9072569E+02  0.7546771E-02  0.1306241E+00
          1   -1    0    0  502    0 -0.00000000000E+00  0.00000000000E+00  0.76116780893E+02  0.76116780893E+02  0.00000000000E+00 0. -1.
         21   -1    0    0  501  502  0.00000000000E+00 -0.00000000000E+00 -0.27336755644E+03  0.27336755644E+03  0.00000000000E+00 0. -1.
         23    2    1    2    0    0 -0.59074530608E+01 -0.40153187005E+01 -0.10357997206E+01  0.90299040661E+02  0.90010127638E+02 0.  0.
        -24    2    1    2    0    0 -0.34451513296E+02 -0.26008763153E+02 -0.51226602998E+02  0.10571894886E+03  0.81786115958E+02 0.  0.
         13    1    4    4    0    0 -0.61562078155E+02 -0.17956674083E+02 -0.37433263497E+02  0.74253490335E+02  0.00000000000E+00 0. -1.
        -14    1    4    4    0    0  0.27110564859E+02 -0.80520890703E+01 -0.13793339501E+02  0.31465458522E+02  0.00000000000E+00 0.  1.
        -13    1    3    3    0    0  0.29813604258E+02  0.19566136235E+02 -0.22753902993E+02  0.42301593202E+02  0.00000000000E+00 0.  1.
         13    1    3    3    0    0 -0.35721057319E+02 -0.23581454935E+02  0.21718103273E+02  0.47997447459E+02  0.00000000000E+00 0. -1.
          2    1    1    2  501    0  0.40358966357E+02  0.30024081853E+02 -0.14498837283E+03  0.15346634782E+03  0.00000000000E+00 0. -1.
<scales pt_clust_5="13000.00000" pt_clust_6="13000.00000" pt_clust_7="13000.00000" pt_clust_8="13000.00000" pt_clust_9="50.30200"></scales>
<clustering>
<clus scale="   50.302">  2  9  1 -1</clus>
<clus scale="   81.786">  5  6 -1 -1</clus>
<clus scale="   82.573">  2  5  1 -1</clus>
<clus scale="   90.010">  7  8 -1 -1</clus>
<clus scale="   50.302">  2  5  1 -1</clus>
</clustering>
</event>
<event>
 9    1  0.6345107E-005  0.1081972E+03  0.7546771E-02  0.1268216E+00
         -2   -1    0    0    0  501 -0.00000000000E+00  0.00000000000E+00  0.13172701136E+03  0.13172701136E+03  0.00000000000E+00 0.  1.
         21   -1    0    0  501  502  0.00000000000E+00 -0.00000000000E+00 -0.32500731679E+03  0.32500731679E+03  0.00000000000E+00 0. -1.
        -24    2    1    2    0    0 -0.49135235828E+02 -0.28451155127E+02  0.88828029106E+02  0.13351557274E+03  0.81928320994E+02 0.  0.
         23    2    1    2    0    0  0.36400550360E+02  0.46334525468E+02 -0.13178786869E+03  0.17130355011E+03  0.92222424757E+02 0.  0.
         13    1    3    3    0    0 -0.33554346887E+02  0.25991201116E+02  0.45419887062E+02  0.62164321528E+02  0.00000000000E+00 0. -1.
        -14    1    3    3    0    0 -0.15580888941E+02 -0.54442356243E+02  0.43408142045E+02  0.71351251210E+02  0.00000000000E+00 0.  1.
        -13    1    4    4    0    0 -0.18136542145E+02  0.90665791043E+01  0.36630140139E+01  0.20604724927E+02  0.00000000000E+00 0.  1.
         13    1    4    4    0    0  0.54537092505E+02  0.37267946364E+02 -0.13545088271E+03  0.15069882518E+03  0.00000000000E+00 0. -1.
         -1    1    1    2    0  502  0.12734685467E+02 -0.17883370341E+02 -0.15032046585E+03  0.15191520530E+03  0.00000000000E+00 0.  1.
<scales pt_clust_5="13000.00000" pt_clust_6="13000.00000" pt_clust_7="13000.00000" pt_clust_8="13000.00000" pt_clust_9="21.95421"></scales>
<clustering>
<clus scale="   21.954">  2  9  1 -1</clus>
<clus scale="   81.928">  5  6 -1 -1</clus>
<clus scale="   92.222">  7  8 -1 -1</clus>
<clus scale="   99.569">  1  5  2 -1</clus>
<clus scale="   21.954">  2  5  1 -1</clus>
</clustering>
</event>
<event>
 9    1  0.6345107E-005  0.1455659E+03  0.7546771E-02  0.1208616E+00
          1   -1    0    0  502    0 -0.00000000000E+00  0.00000000000E+00  0.28639814473E+03  0.28639814473E+03  0.00000000000E+00 0. -1.
         21   -1    0    0  501  502  0.00000000000E+00 -0.00000000000E+00 -0.40670454601E+03  0.40670454601E+03  0.00000000000E+00 0. -1.
         23    2    1    2    0    0  0.58682068413E+02  0.10001584136E+03  0.23687140545E+03  0.27925965471E+03  0.91821230418E+02 0.  0.
        -24    2    1    2    0    0 -0.25399043463E+02 -0.92337914036E+02 -0.11452854206E+03  0.16880145596E+03  0.78776537181E+02 0.  0.
         11    1    4    4    0    0 -0.24773430197E+02 -0.26048410565E+02 -0.92019469264E+02  0.98791827903E+02  0.00000000000E+00 0. -1.
        -12    1    4    4    0    0 -0.62561326591E+00 -0.66289503471E+02 -0.22509072794E+02  0.70009628055E+02  0.00000000000E+00 0.  1.
        -13    1    3    3    0    0  0.38606755460E+02  0.29730091805E+02  0.24257812772E+02  0.54431621383E+02  0.00000000000E+00 0.  1.
         13    1    3    3    0    0  0.20075312953E+02  0.70285749557E+02  0.21261359267E+03  0.22482803333E+03  0.00000000000E+00 0. -1.
          2    1    1    2  501    0 -0.33283024950E+02 -0.76779273261E+01 -0.24264926467E+03  0.24504158007E+03  0.00000000000E+00 0. -1.
<scales pt_clust_5="13000.00000" pt_clust_6="13000.00000" pt_clust_7="13000.00000" pt_clust_8="13000.00000" pt_clust_9="34.15714"></scales>
<clustering>
<clus scale="   34.157">  2  9  1 -1</clus>
<clus scale="   78.777">  5  6 -1 -1</clus>
<clus scale="   91.821">  7  8 -1 -1</clus>
<clus scale="  137.710">  2  5  1 -1</clus>
<clus scale="   34.157">  2  5  1 -1</clus>
</clustering>
</event>
<event>
 9    1  0.6345107E-005  0.9827022E+02  0.7546771E-02  0.1290192E+00
         21   -1    0    0  501  502  0.00000000000E+00  0.00000000000E+00  0.58577034941E+02  0.58577034941E+02  0.00000000000E+00 0.  1.
          3   -1    0    0  502    0 -0.00000000000E+00 -0.00000000000E+00 -0.26159518442E+03  0.26159518442E+03  0.00000000000E+00 0. -1.
         23    2    1    2    0    0 -0.29097898654E+02 -0.17316493948E+01 -0.15705662615E+03  0.18429579357E+03  0.91915555777E+02 0.  0.
        -24    2    1    2    0    0  0.45644920679E+02 -0.24256905845E+02 -0.43783293584E+02  0.10499028608E+03  0.80213010847E+02 0.  0.
         11    1    4    4    0    0  0.44655037830E+02 -0.27921606504E+02 -0.64874216545E+02  0.83560472029E+02  0.00000000000E+00 0. -1.
        -12    1    4    4    0    0  0.98988284901E+00  0.36647006594E+01  0.21090922960E+02  0.21429814052E+02  0.00000000000E+00 0.  1.
        -11    1    3    3    0    0  0.87701835663E+01  0.38990506461E+02 -0.53827007487E+02  0.67041199638E+02  0.00000000000E+00 0.  1.
         11    1    3    3    0    0 -0.37868082220E+02 -0.40722155856E+02 -0.10322961867E+03  0.11725459393E+03  0.00000000000E+00 0. -1.
          4    1    1    2  501    0 -0.16547022025E+02  0.25988555239E+02 -0.21782297406E+01  0.30886139709E+02  0.00000000000E+00 0. -1.
<scales pt_clust_5="13000.00000" pt_clust_6="13000.00000" pt_clust_7="13000.00000" pt_clust_8="13000.00000" pt_clust_9="30.80923"></scales>
<clustering>
<clus scale="   30.809">  1  9  2 -1</clus>
<clus scale="   80.213">  5  6 -1 -1</clus>
<clus scale="   87.423">  1  5  2 -1</clus>
<clus scale="   91.916">  7  8 -1 -1</clus>
<clus scale="   30.809">  1  5  2 -1</clus>
</clustering>
</event>
<event>
 9    1  0.6345107E-005  0.2118742E+03  0.7546771E-02  0.1159574E+00
          1   -1    0    0  502    0 -0.00000000000E+00  0.00000000000E+00  0.85832756492E+03  0.85832756492E+03  0.00000000000E+00 0. -1.
         21   -1    0    0  501  502  0.00000000000E+00 -0.00000000000E+00 -0.11817616347E+03  0.11817616347E+03  0.00000000000E+00 0. -1.
         23    2    1    2    0    0 -0.32348835277E+02  0.92773189241E+02  0.43714318802E+03  0.45707690143E+03  0.90398092931E+02 0.  0.
        -24    2    1    2    0    0 -0.75461367485E+02  0.13070431659E+03  0.15365081225E+03  0.22981869737E+03  0.80187437922E+02 0.  0.
         11    1    4    4    0    0 -0.84158915475E+02  0.13589069906E+03  0.14955077194E+03  0.21889366947E+03  0.00000000000E+00 0. -1.
        -12    1    4    4    0    0  0.86975479907E+01 -0.51863824724E+01  0.41000403054E+01  0.10925027904E+02  0.00000000000E+00 0.  1.
        -13    1    3    3    0    0 -0.42514847171E+02  0.24097020909E+02  0.84058692669E+02  0.97231900423E+02  0.00000000000E+00 0.  1.
         13    1    3    3    0    0  0.10166011894E+02  0.68676168332E+02  0.35308449535E+03  0.35984500101E+03  0.00000000000E+00 0. -1.
          2    1    1    2  501    0  0.10781020276E+03 -0.22347750583E+03  0.14935740119E+03  0.28960812958E+03  0.00000000000E+00 0. -1.
<scales pt_clust_5="13000.00000" pt_clust_6="13000.00000" pt_clust_7="13000.00000" pt_clust_8="13000.00000" pt_clust_9="196.11400"></scales>
<clustering>
<clus scale="   80.187">  5  6 -1 -1</clus>
<clus scale="   90.398">  7  8 -1 -1</clus>
<clus scale="  133.511">  1  7  2 -1</clus>
<clus scale="  196.114">  2  9  1 -1</clus>
<clus scale="  196.114">  2  5  1 -1</clus>
</clustering>
</event>
<event>
 9    1  0.6345107E-005  0.1179113E+03  0.7546771E-02  0.1250819E+00
         -2   -1    0    0    0  501 -0.00000000000E+00  0.00000000000E+00  0.12045625071E+03  0.12045625071E+03  0.00000000000E+00 0.  1.
         21   -1    0    0  501  502  0.00000000000E+00 -0.00000000000E+00 -0.20186429111E+03  0.20186429111E+03  0.00000000000E+00 0. -1.
        -24    2    1    2    0    0  0.44448688062E+02  0.69284247484E+02 -0.69724268182E+01  0.11495109158E+03  0.79932133080E+02 0.  0.
         23    2    1    2    0    0 -0.79118943549E+02 -0.70366463342E+01 -0.40789131933E+02  0.12857302779E+03  0.92509181007E+02 0.  0.
         13    1    3    3    0    0  0.25090251633E+02  0.70791920293E+02  0.23605704655E+02  0.78728940029E+02  0.00000000000E+00 0. -1.
        -14    1    3    3    0    0  0.19358436429E+02 -0.15076728090E+01 -0.30578131473E+02  0.36222151546E+02  0.00000000000E+00 0.  1.
        -11    1    4    4    0    0 -0.40849874810E+02  0.82860511887E+01  0.26692902619E+02  0.49496282351E+02  0.00000000000E+00 0.  1.
         11    1    4    4    0    0 -0.38269068739E+02 -0.15322697523E+02 -0.67482034552E+02  0.79076745436E+02  0.00000000000E+00 0. -1.
         -1    1    1    2    0  502  0.34670255487E+02 -0.62247601150E+02 -0.33646481647E+02  0.78796422455E+02  0.00000000000E+00 0.  1.
<scales pt_clust_5="13000.00000" pt_clust_6="13000.00000" pt_clust_7="13000.00000" pt_clust_8="13000.00000" pt_clust_9="71.25160"></scales>
<clustering>
<clus scale="   71.252">  2  9  1 -1</clus>
<clus scale="   79.932">  5  6 -1 -1</clus>
<clus scale="   92.509">  7  8 -1 -1</clus>
<clus scale="  108.325">  1  5  2 -1</clus>
<clus scale="   71.252">  2  5  1 -1</clus>
</clustering>
</event>
<event>
 9    1  0.6345107E-005  0.9626078E+02  0.7546771E-02  0.1294463E+00
         -4   -1    0    0    0  501 -0.00000000000E+00  0.00000000000E+00  0.94186251742E+02  0.94186251742E+02  0.00000000000E+00 0.  1.
         21   -1    0    0  501  502  0.00000000000E+00 -0.00000000000E+00 -0.18213791703E+03  0.18213791703E+03  0.00000000000E+00 0.  1.
        -24    2    1    2    0    0 -0.29974141214E+02  0.13651476259E+02  0.36623766005E+02  0.93808928931E+02  0.79837353195E+02 0.  0.
         23    2    1    2    0    0  0.32417192754E+02  0.82171092388E+01 -0.59159768471E+02  0.11349776035E+03  0.90903620001E+02 0.  0.
         11    1    3    3    0    0 -0.33764670840E+02 -0.17372336899E+02 -0.85064214886E+01  0.38912855110E+02  0.00000000000E+00 0. -1.
        -12    1    3    3    0    0  0.37905296254E+01  0.31023813158E+02  0.45130187494E+02  0.54896073821E+02  0.00000000000E+00 0.  1.
        -13    1    4    4    0    0 -0.18981870304E+02  0.31100370559E+02 -0.39892360761E+02  0.54027260677E+02  0.00000000000E+00 0.  1.
         13    1    4    4    0    0  0.51399063058E+02 -0.22883261320E+02 -0.19267407710E+02  0.59470499676E+02  0.00000000000E+00 0. -1.
         -3    1    1    2    0  502 -0.24430515394E+01 -0.21868585498E+02 -0.65415662819E+02  0.69017479485E+02  0.00000000000E+00 0.  1.
<scales pt_clust_5="13000.00000" pt_clust_6="13000.00000" pt_clust_7="13000.00000" pt_clust_8="13000.00000" pt_clust_9="22.00463"></scales>
<clustering>
<clus scale="   22.005">  2  9  1 -1</clus>
<clus scale="   79.837">  5  6 -1 -1</clus>
<clus scale="   85.888">  1  5  2 -1</clus>
<clus scale="   90.904">  7  8 -1 -1</clus>
<clus scale="   22.005">  2  5  1 -1</clus>
</clustering>
</event>
<event>
 9    1  0.6345107E-005  0.1508749E+03  0.7546771E-02  0.1200973E+00
          1   -1    0    0  502    0 -0.00000000000E+00  0.00000000000E+00  0.27739290721E+03  0.27739290721E+03  0.00000000000E+00 0. -1.
         21   -1    0    0  501  502  0.00000000000E+00 -0.00000000000E+00 -0.18233075321E+03  0.18233075321E+03  0.00000000000E+00 0. -1.
         23    2    1    2    0    0 -0.55448890196E+02 -0.12306262972E+03  0.17007474273E+03  0.23579696642E+03  0.91955429430E+02 0.  0.
        -24    2    1    2    0    0  0.73240959896E+01  0.65030771381E+02 -0.98762685031E+02  0.14488392410E+03  0.83394483626E+02 0.  0.
         13    1    4    4    0    0 -0.14950698375E+02  0.65517561500E+02 -0.10222569724E+03  0.12233628825E+03  0.00000000000E+00 0. -1.
        -14    1    4    4    0    0  0.22274794364E+02 -0.48679011893E+00  0.34630122130E+01  0.22547635844E+02  0.00000000000E+00 0.  1.
        -11    1    3    3    0    0 -0.20558180022E+02 -0.59889489740E+02  0.15476191188E+02  0.65183604080E+02  0.00000000000E+00 0.  1.
         11    1    3    3    0    0 -0.34890710174E+02 -0.63173139983E+02  0.15459855154E+03  0.17061336234E+03  0.00000000000E+00 0. -1.
          2    1    1    2  501    0  0.48124794207E+02  0.58031858343E+02  0.23750096306E+02  0.79042769908E+02  0.00000000000E+00 0. -1.
<scales pt_clust_5="13000.00000" pt_clust_6="13000.00000" pt_clust_7="13000.00000" pt_clust_8="13000.00000" pt_clust_9="75.39030"></scales>
<clustering>
<clus scale="   75.390">  2  9  1 -1</clus>
<clus scale="   83.394">  5  6 -1 -1</clus>
<clus scale="   91.955">  7  8 -1 -1</clus>
<clus scale="  145.815">  2  5  1 -1</clus>
<clus scale="   75.390">  2  5  1 -1</clus>
</clustering>
</event>
<event>
 9    1  0.6345107E-005  0.2039562E+03  0.7546771E-02  0.1165026E+00
         21   -1    0    0  501  502  0.00000000000E+00  0.00000000000E+00  0.45347934028E+03  0.45347934028E+03  0.00000000000E+00 0. -1.
          1   -1    0    0  502    0 -0.00000000000E+00 -0.00000000000E+00 -0.42671526243E+03  0.42671526243E+03  0.00000000000E+00 0. -1.
        -24    2    1    2    0    0 -0.98260545113E+02  0.38896490324E+02 -0.29889722519E+03  0.32670551121E+03  0.78923178763E+02 0.  0.
         23    2    1    2    0    0 -0.94955929104E+02  0.39273683096E+02 -0.30314093907E+02  0.14098252772E+03  0.91641028895E+02 0.  0.
         13    1    3    3    0    0 -0.84235595294E+02  0.56022445211E+02 -0.18671002285E+03  0.21235532137E+03  0.00000000000E+00 0. -1.
        -14    1    3    3    0    0 -0.14024949819E+02 -0.17125954887E+02 -0.11218720234E+03  0.11435018985E+03  0.00000000000E+00 0.  1.
        -13    1    4    4    0    0  0.77126701185E+01  0.25961514078E+02  0.11376529242E+02  0.29375345295E+02  0.00000000000E+00 0. -1.
         13    1    4    4    0    0 -0.10266859922E+03  0.13312169017E+02 -0.41690623149E+02  0.11160718243E+03  0.00000000000E+00 0.  1.
          2    1    1    2  501    0  0.19321647422E+03 -0.78170173420E+02  0.35597539695E+03  0.41250656377E+03  0.00000000000E+00 0. -1.
<scales pt_clust_5="13000.00000" pt_clust_6="13000.00000" pt_clust_7="13000.00000" pt_clust_8="13000.00000" pt_clust_9="182.20885"></scales>
<clustering>
<clus scale="   78.923">  5  6 -1 -1</clus>
<clus scale="   91.641">  7  8 -1 -1</clus>
<clus scale="  131.897">  2  5  1 -1</clus>
<clus scale="  182.209">  1  9  2 -1</clus>
<clus scale="  182.209">  1  5  2 -1</clus>
</clustering>
</event>
<event>
 9    1  0.6345107E-005  0.1163134E+03  0.7546771E-02  0.1255331E+00
         21   -1    0    0  501  502  0.00000000000E+00  0.00000000000E+00  0.28670868164E+02  0.28670868164E+02  0.00000000000E+00 0.  1.
          1   -1    0    0  502    0 -0.00000000000E+00 -0.00000000000E+00 -0.56531578754E+03  0.56531578754E+03  0.00000000000E+00 0. -1.
         23    2    1    2    0    0  0.50814913709E+02 -0.45929153384E+02 -0.26577452939E+03  0.28997499288E+03  0.93582869349E+02 0.  0.
        -24    2    1    2    0    0 -0.67639088580E+02  0.24746049163E+02 -0.24483786985E+03  0.26646876911E+03  0.76632950754E+02 0.  0.
         13    1    4    4    0    0 -0.40271976061E+02  0.48255130830E+02 -0.19544583696E+03  0.20530334846E+03  0.00000000000E+00 0. -1.
        -14    1    4    4    0    0 -0.27367112518E+02 -0.23509081668E+02 -0.49392032898E+02  0.61165420641E+02  0.00000000000E+00 0.  1.
        -11    1    3    3    0    0  0.20682275028E+02 -0.66975674659E+02 -0.11410806562E+03  0.13391843838E+03  0.00000000000E+00 0.  1.
         11    1    3    3    0    0  0.30132638682E+02  0.21046521275E+02 -0.15166646377E+03  0.15605655450E+03  0.00000000000E+00 0. -1.
          2    1    1    2  501    0  0.16824174870E+02  0.21183104221E+02 -0.26032520132E+02  0.37542893721E+02  0.00000000000E+00 0. -1.
<scales pt_clust_5="13000.00000" pt_clust_6="13000.00000" pt_clust_7="13000.00000" pt_clust_8="13000.00000" pt_clust_9="27.05137"></scales>
<clustering>
<clus scale="   27.051">  1  9  2 -1</clus>
<clus scale="   76.633">  5  6 -1 -1</clus>
<clus scale="   93.583">  7  8 -1 -1</clus>
<clus scale="  103.168">  1  5  2 -1</clus>
<clus scale="   27.051">  1  5  2 -1</clus>
</clustering>
</event>
<event>
 9    1  0.6345107E-005  0.9520421E+02  0.7546771E-02  0.1296679E+00
         21   -1    0    0  501  502  0.00000000000E+00  0.00000000000E+00  0.28710782502E+03  0.28710782502E+03  0.00000000000E+00 0.  1.
         -4   -1    0    0    0  501 -0.00000000000E+00 -0.00000000000E+00 -0.85061117647E+02  0.85061117647E+02  0.00000000000E+00 0.  1.
         23    2    1    2    0    0  0.22909072276E+02 -0.38201370565E+02 -0.17124342929E+02  0.10217816005E+03  0.90349117118E+02 0.  0.
        -24    2    1    2    0    0 -0.12319321574E+02 -0.15715939900E+01  0.47902699560E+02  0.93846297907E+02  0.79738468847E+02 0.  0.
         11    1    4    4    0    0  0.26642790760E+02  0.18406783912E+02  0.54103376227E+01  0.32831688148E+02  0.00000000000E+00 0. -1.
        -12    1    4    4    0    0 -0.38962112333E+02 -0.19978377902E+02  0.42492361937E+02  0.61014609759E+02  0.00000000000E+00 0.  1.
        -11    1    3    3    0    0  0.47948463333E+02  0.38555716964E+01  0.51952750472E+01  0.48382966548E+02  0.00000000000E+00 0.  1.
         11    1    3    3    0    0 -0.25039391058E+02 -0.42056942261E+02 -0.22319617977E+02  0.53795193498E+02  0.00000000000E+00 0. -1.
         -3    1    1    2    0  502 -0.10589750702E+02  0.39772964555E+02  0.17126835075E+03  0.17614448472E+03  0.00000000000E+00 0.  1.
<scales pt_clust_5="13000.00000" pt_clust_6="13000.00000" pt_clust_7="13000.00000" pt_clust_8="13000.00000" pt_clust_9="41.15861"></scales>
<clustering>
<clus scale="   41.159">  1  9  2 -1</clus>
<clus scale="   79.738">  5  6 -1 -1</clus>
<clus scale="   85.200">  1  5  2 -1</clus>
<clus scale="   90.349">  7  8 -1 -1</clus>
<clus scale="   41.159">  1  5  2 -1</clus>
</clustering>
</event>
<event>
 9    1  0.6345107E-005  0.2807905E+03  0.7546771E-02  0.1095726E+00
          1   -1    0    0  502    0 -0.00000000000E+00  0.00000000000E+00  0.78856513401E+03  0.78856513401E+03  0.00000000000E+00 0. -1.
         21   -1    0    0  501  502  0.00000000000E+00 -0.00000000000E+00 -0.16735843387E+03  0.16735843387E+03  0.00000000000E+00 0. -1.
         23    2    1    2    0    0  0.10586157127E+03 -0.27526576849E+03  0.45022662891E+03  0.54582802612E+03  0.90809146779E+02 0.  0.
        -24    2    1    2    0    0 -0.16500434950E+03  0.16146419685E+03  0.10433062231E+03  0.26555898940E+03  0.79621453665E+02 0.  0.
         11    1    4    4    0    0 -0.15476923038E+03  0.11872067874E+03  0.10515776855E+03  0.22159934683E+03  0.00000000000E+00 0. -1.
        -12    1    4    4    0    0 -0.10235119118E+02  0.42743518110E+02 -0.82714623340E+00  0.43959642568E+02  0.00000000000E+00 0.  1.
        -13    1    3    3    0    0  0.87601667384E+02 -0.13411030421E+03  0.29164054636E+03  0.33273688419E+03  0.00000000000E+00 0. -1.
         13    1    3    3    0    0  0.18259903889E+02 -0.14115546428E+03  0.15858608256E+03  0.21309114193E+03  0.00000000000E+00 0.  1.
          2    1    1    2  501    0  0.59142778223E+02  0.11380157165E+03  0.66649448916E+02  0.14453655235E+03  0.00000000000E+00 0. -1.
<scales pt_clust_5="13000.00000" pt_clust_6="13000.00000" pt_clust_7="13000.00000" pt_clust_8="13000.00000" pt_clust_9="128.25235"></scales>
<clustering>
<clus scale="   79.621">  5  6 -1 -1</clus>
<clus scale="   90.809">  7  8 -1 -1</clus>
<clus scale="  128.252">  2  9  1 -1</clus>
<clus scale="  277.374">  2  5  1 -1</clus>
<clus scale="  128.252">  2  5  1 -1</clus>
</clustering>
</event>
<event>
 9    1  0.6345107E-005  0.1505766E+03  0.7546771E-02  0.1220246E+00
         -2   -1    0    0    0  501 -0.00000000000E+00  0.00000000000E+00  0.71799629712E+02  0.71799629712E+02  0.00000000000E+00 0.  1.
         21   -1    0    0  501  502  0.00000000000E+00 -0.00000000000E+00 -0.52171490292E+03  0.52171490292E+03  0.00000000000E+00 0. -1.
         23    2    1    2    0    0  0.30507123174E+02 -0.20622457429E+02 -0.16178753802E+03  0.18875837417E+03  0.89991922109E+02 0.  0.
        -24    2    1    2    0    0  0.80642177934E+02 -0.64678912889E+02 -0.80617134746E+02  0.15437416987E+03  0.81521403784E+02 0.  0.
         13    1    4    4    0    0  0.97220936328E+02 -0.49184020481E+02 -0.67255792757E+02  0.12804030612E+03  0.00000000000E+00 0. -1.
        -14    1    4    4    0    0 -0.16578758393E+02 -0.15494892409E+02 -0.13361341989E+02  0.26333863757E+02  0.00000000000E+00 0.  1.
        -13    1    3    3    0    0 -0.25148212894E+01 -0.32615310772E+02 -0.11901326902E+02  0.34809832015E+02  0.00000000000E+00 0.  1.
         13    1    3    3    0    0  0.33021944463E+02  0.11992853343E+02 -0.14988621112E+03  0.15394854215E+03  0.00000000000E+00 0. -1.
         -1    1    1    2    0  502 -0.11114930111E+03  0.85301370318E+02 -0.20751060044E+03  0.25038198859E+03  0.00000000000E+00 0.  1.
<scales pt_clust_5="13000.00000" pt_clust_6="13000.00000" pt_clust_7="13000.00000" pt_clust_8="13000.00000" pt_clust_9="126.60001"></scales>
<clustering>
<clus scale="   81.521">  5  6 -1 -1</clus>
<clus scale="   89.992">  7  8 -1 -1</clus>
<clus scale="   97.234">  1  7  2 -1</clus>
<clus scale="  126.600">  2  9  1 -1</clus>
<clus scale="  126.600">  2  5  1 -1</clus>
</clustering>
</event>
<event>
 9    1  0.6345107E-005  0.1501438E+03  0.7546771E-02  0.1203296E+00
          3   -1    0    0  502    0 -0.00000000000E+00  0.00000000000E+00  0.60633204761E+02  0.60633204761E+02  0.00000000000E+00 0. -1.
         21   -1    0    0  501  502  0.00000000000E+00 -0.00000000000E+00 -0.45877308349E+03  0.45877308349E+03  0.00000000000E+00 0.  1.
        -24    2    1    2    0    0  0.48395812716E+02  0.12872653953E+03 -0.16661399645E+03  0.22790679804E+03  0.72585178333E+02 0.  0.
         23    2    1    2    0    0 -0.47176705290E+02 -0.90335283290E+02 -0.20073473934E+03  0.24227074594E+03  0.89524152238E+02 0.  0.
         13    1    3    3    0    0 -0.18118799211E+02  0.45418825843E+02 -0.52468055953E+02  0.71722085310E+02  0.00000000000E+00 0. -1.
        -14    1    3    3    0    0  0.66514611927E+02  0.83307713684E+02 -0.11414594050E+03  0.15618471273E+03  0.00000000000E+00 0.  1.
        -13    1    4    4    0    0 -0.24160637430E+02 -0.29335023508E+02 -0.80397824848E+01  0.38844795117E+02  0.00000000000E+00 0.  1.
         13    1    4    4    0    0 -0.23016067859E+02 -0.61000259782E+02 -0.19269495685E+03  0.20342595083E+03  0.00000000000E+00 0. -1.
          4    1    1    2  501    0 -0.12191074264E+01 -0.38391256237E+02 -0.30791142942E+02  0.49228744266E+02  0.00000000000E+00 0. -1.
<scales pt_clust_5="13000.00000" pt_clust_6="13000.00000" pt_clust_7="13000.00000" pt_clust_8="13000.00000" pt_clust_9="38.41063"></scales>
<clustering>
<clus scale="   38.411">  2  9  1 -1</clus>
<clus scale="   72.585">  5  6 -1 -1</clus>
<clus scale="   89.524">  7  8 -1 -1</clus>
<clus scale="  140.703">  1  5  2 -1</clus>
<clus scale="   38.411">  2  5  1 -1</clus>
</clustering>
</event>
<event>
 9    1  0.6345107E-005  0.1025094E+03  0.7546771E-02  0.1281406E+00
          1   -1    0    0  502    0 -0.00000000000E+00  0.00000000000E+00  0.61374738385E+03  0.61374738385E+03  0.00000000000E+00 0. -1.
         21   -1    0    0  501  502  0.00000000000E+00 -0.00000000000E+00 -0.26555999689E+02  0.26555999689E+02  0.00000000000E+00 0.  1.
         23    2    1    2    0    0  0.95817438333E+01  0.47242860912E+02  0.42202009999E+03  0.43489338790E+03  0.93314502182E+02 0.  0.
        -24    2    1    2    0    0  0.12454711266E+02 -0.33577546747E+02  0.15358430685E+03  0.17700921734E+03  0.80383780923E+02 0.  0.
         11    1    4    4    0    0 -0.28718967735E+02 -0.19842973382E+02  0.11037817283E+03  0.11576641887E+03  0.00000000000E+00 0. -1.
        -12    1    4    4    0    0  0.41173679000E+02 -0.13734573365E+02  0.43206134019E+02  0.61242798473E+02  0.00000000000E+00 0.  1.
        -13    1    3    3    0    0 -0.36700264747E+02  0.45011103113E+02  0.21106383106E+03  0.21890831327E+03  0.00000000000E+00 0. -1.
         13    1    3    3    0    0  0.46282008580E+02  0.22317577992E+01  0.21095626893E+03  0.21598507463E+03  0.00000000000E+00 0.  1.
          2    1    1    2  501    0 -0.22036455099E+02 -0.13665314165E+02  0.11586977318E+02  0.28400778298E+02  0.00000000000E+00 0. -1.
<scales pt_clust_5="13000.00000" pt_clust_6="13000.00000" pt_clust_7="13000.00000" pt_clust_8="13000.00000" pt_clust_9="25.92964"></scales>
<clustering>
<clus scale="   25.930">  2  9  1 -1</clus>
<clus scale="   80.384">  5  6 -1 -1</clus>
<clus scale="   90.896">  2  5  1 -1</clus>
<clus scale="   93.315">  7  8 -1 -1</clus>
<clus scale="   25.930">  2  5  1 -1</clus>
</clustering>
</event>
<event>
 9    1  0.6345107E-005  0.1797028E+03  0.7546771E-02  0.1189263E+00
          1   -1    0    0  502    0 -0.00000000000E+00  0.00000000000E+00  0.20958545214E+03  0.20958545214E+03  0.00000000000E+00 0. -1.
         21   -1    0    0  501  502  0.00000000000E+00 -0.00000000000E+00 -0.28336141862E+03  0.28336141862E+03  0.00000000000E+00 0. -1.
        -24    2    1    2    0    0  0.83421904891E+01  0.81783769341E+02 -0.64020073770E+02  0.12859484689E+03  0.75365029904E+02 0.  0.
         23    2    1    2    0    0  0.14490161080E+03 -0.11918315830E+03  0.25246831962E+02  0.20277366002E+03  0.72654336690E+02 0.  0.
         11    1    3    3    0    0  0.98435466714E+01  0.89211593996E+02 -0.31370549533E+02  0.95077417363E+02  0.00000000000E+00 0. -1.
        -12    1    3    3    0    0 -0.15013561823E+01 -0.74278246549E+01 -0.32649524237E+02  0.33517429532E+02  0.00000000000E+00 0.  1.
        -11    1    4    4    0    0  0.12537347171E+02 -0.36067796791E+02 -0.15568008685E+02  0.41236318141E+02  0.00000000000E+00 0.  1.
         11    1    4    4    0    0  0.13236426363E+03 -0.83115361505E+02  0.40814840647E+02  0.16153734188E+03  0.00000000000E+00 0. -1.
          2    1    1    2  501    0 -0.15324380129E+03  0.37399388954E+02 -0.35002724672E+02  0.16157836384E+03  0.00000000000E+00 0. -1.
<scales pt_clust_5="13000.00000" pt_clust_6="13000.00000" pt_clust_7="13000.00000" pt_clust_8="13000.00000" pt_clust_9="164.36075"></scales>
<clustering>
<clus scale="   72.654">  7  8 -1 -1</clus>
<clus scale="   75.365">  5  6 -1 -1</clus>
<clus scale="  111.526">  1  5  2 -1</clus>
<clus scale="  164.361">  2  9  1 -1</clus>
<clus scale="  164.361">  2  5  1 -1</clus>
</clustering>
</event>
<event>
 9    1  0.6345107E-005  0.1698620E+03  0.7546771E-02  0.1179925E+00
         -2   -1    0    0    0  501 -0.00000000000E+00  0.00000000000E+00  0.40519986136E+03  0.40519986136E+03  0.00000000000E+00 0.  1.
         21   -1    0    0  501  502  0.00000000000E+00 -0.00000000000E+00 -0.56025698325E+03  0.56025698325E+03  0.00000000000E+00 0.  1.
        -24    2    1    2    0    0  0.10090986994E+03  0.11271093478E+03  0.34807357175E+03  0.38699696789E+03  0.75662970731E+02 0.  0.
         23    2    1    2    0    0 -0.10729494720E+03  0.27668110920E+02 -0.21895540720E+03  0.26143836467E+03  0.90171049255E+02 0.  0.
         11    1    3    3    0    0  0.32328936707E+02  0.57889118932E+02  0.74758379259E+02  0.99925599867E+02  0.00000000000E+00 0. -1.
        -12    1    3    3    0    0  0.68580933234E+02  0.54821815846E+02  0.27331519249E+03  0.28707136803E+03  0.00000000000E+00 0.  1.
        -11    1    4    4    0    0 -0.72395431861E+02  0.36397391069E+02 -0.20893001659E+03  0.22409288356E+03  0.00000000000E+00 0.  1.
         11    1    4    4    0    0 -0.34899515337E+02 -0.87292801482E+01 -0.10025390616E+02  0.37345481115E+02  0.00000000000E+00 0. -1.
         -1    1    1    2    0  502  0.63850772570E+01 -0.14037904570E+03 -0.28417528643E+03  0.31702151204E+03  0.00000000000E+00 0.  1.
<scales pt_clust_5="13000.00000" pt_clust_6="13000.00000" pt_clust_7="13000.00000" pt_clust_8="13000.00000" pt_clust_9="140.52418"></scales>
<clustering>
<clus scale="   75.663">  5  6 -1 -1</clus>
<clus scale="   90.171">  7  8 -1 -1</clus>
<clus scale="  140.524">  2  9  1 -1</clus>
<clus scale="  162.626">  1  5  2 -1</clus>
<clus scale="  140.524">  2  5  1 -1</clus>
</clustering>
</event>
<event>
 9    1  0.6345107E-005  0.1505033E+03  0.7546771E-02  0.1202396E+00
         21   -1    0    0  501  502  0.00000000000E+00  0.00000000000E+00  0.10785002745E+03  0.10785002745E+03  0.00000000000E+00 0. -1.
          1   -1    0    0  502    0 -0.00000000000E+00 -0.00000000000E+00 -0.41574611124E+03  0.41574611124E+03  0.00000000000E+00 0. -1.
         23    2    1    2    0    0  0.12023066759E+03  0.31637805015E+02 -0.33379612609E+03  0.36780542582E+03  0.91676678267E+02 0.  0.
        -24    2    1    2    0    0 -0.94262853473E+02 -0.20749710303E+02  0.29532551932E+02  0.12739928630E+03  0.77732686194E+02 0.  0.
         13    1    4    4    0    0 -0.40131899902E+02 -0.27386731157E+02  0.49464264878E+02  0.69334810400E+02  0.00000000000E+00 0. -1.
        -14    1    4    4    0    0 -0.54130953571E+02  0.66370208546E+01 -0.19931712946E+02  0.58064475898E+02  0.00000000000E+00 0.  1.
        -11    1    3    3    0    0  0.40173187358E+02  0.35319057254E+02 -0.51127897201E+02  0.73995828666E+02  0.00000000000E+00 0.  1.
         11    1    3    3    0    0  0.80057480233E+02 -0.36812522390E+01 -0.28266822888E+03  0.29380959715E+03  0.00000000000E+00 0. -1.
          2    1    1    2  501    0 -0.25967814118E+02 -0.10888094712E+02 -0.36325096402E+01  0.28391426573E+02  0.00000000000E+00 0. -1.
<scales pt_clust_5="13000.00000" pt_clust_6="13000.00000" pt_clust_7="13000.00000" pt_clust_8="13000.00000" pt_clust_9="28.15809"></scales>
<clustering>
<clus scale="   28.158">  1  9  2 -1</clus>
<clus scale="   77.733">  5  6 -1 -1</clus>
<clus scale="   91.677">  7  8 -1 -1</clus>
<clus scale="  142.439">  1  5  2 -1</clus>
<clus scale="   28.158">  1  5  2 -1</clus>
</clustering>
</event>
<event>
 9    1  0.6345107E-005  0.9363053E+02  0.7546771E-02  0.1299842E+00
          1   -1    0    0  502    0 -0.00000000000E+00  0.00000000000E+00  0.56997317162E+02  0.56997317162E+02  0.00000000000E+00 0. -1.
         21   -1    0    0  501  502  0.00000000000E+00 -0.00000000000E+00 -0.44093034155E+03  0.44093034155E+03  0.00000000000E+00 0.  1.
         23    2    1    2    0    0 -0.30795624886E+02  0.32701575215E+02 -0.87038546846E+02  0.13366623808E+03  0.90957083456E+02 0.  0.
        -24    2    1    2    0    0 -0.23907614725E+02  0.23906383690E+02 -0.26503344613E+03  0.27933774456E+03  0.81509255592E+02 0.  0.
         11    1    4    4    0    0  0.20414128226E+02 -0.11085959117E+02 -0.31895992114E+02  0.39458705424E+02  0.00000000000E+00 0. -1.
        -12    1    4    4    0    0 -0.44321742951E+02  0.34992342807E+02 -0.23313745401E+03  0.23987903914E+03  0.00000000000E+00 0.  1.
        -11    1    3    3    0    0  0.27420221745E+02  0.33013573111E+02 -0.42152107292E+02  0.60154507057E+02  0.00000000000E+00 0.  1.
         11    1    3    3    0    0 -0.58215846631E+02 -0.31199789603E+00 -0.44886439554E+02  0.73511731020E+02  0.00000000000E+00 0. -1.
          2    1    1    2  501    0  0.54703239611E+02 -0.56607958905E+02 -0.31861031415E+02  0.84923676075E+02  0.00000000000E+00 0. -1.
<scales pt_clust_5="13000.00000" pt_clust_6="13000.00000" pt_clust_7="13000.00000" pt_clust_8="13000.00000" pt_clust_9="78.72047"></scales>
<clustering>
<clus scale="   78.720">  2  9  1 -1</clus>
<clus scale="   81.509">  5  6 -1 -1</clus>
<clus scale="   84.482">  2  5  1 -1</clus>
<clus scale="   90.957">  7  8 -1 -1</clus>
<clus scale="   78.720">  2  5  1 -1</clus>
</clustering>
</event>
<event>
 9    1  0.6345107E-005  0.1483226E+03  0.7546771E-02  0.1212312E+00
          1   -1    0    0  502    0 -0.00000000000E+00  0.00000000000E+00  0.30718865622E+03  0.30718865622E+03  0.00000000000E+00 0. -1.
         21   -1    0    0  501  502  0.00000000000E+00 -0.00000000000E+00 -0.37575717578E+03  0.37575717578E+03  0.00000000000E+00 0.  1.
         23    2    1    2    0    0  0.45506576906E+02  0.64309005574E+02  0.14597021616E+02  0.12118537170E+03  0.90919329815E+02 0.  0.
        -24    2    1    2    0    0  0.12143637270E+03  0.19451305556E+01 -0.26750640041E+03  0.30438697417E+03  0.79631524139E+02 0.  0.
         13    1    4    4    0    0  0.59275873661E+02 -0.38676821701E+02 -0.12266734891E+03  0.14162204710E+03  0.00000000000E+00 0. -1.
        -14    1    4    4    0    0  0.62160499039E+02  0.40621952256E+02 -0.14483905150E+03  0.16276492708E+03  0.00000000000E+00 0.  1.
        -13    1    3    3    0    0  0.14611182453E+02 -0.22831612629E+02  0.89959734622E+01  0.28560404872E+02  0.00000000000E+00 0. -1.
         13    1    3    3    0    0  0.30895394453E+02  0.87140618203E+02  0.56010481538E+01  0.92624966827E+02  0.00000000000E+00 0.  1.
          2    1    1    2  501    0 -0.16694294961E+03 -0.66254136130E+02  0.18434085923E+03  0.25737348613E+03  0.00000000000E+00 0. -1.
<scales pt_clust_5="13000.00000" pt_clust_6="13000.00000" pt_clust_7="13000.00000" pt_clust_8="13000.00000" pt_clust_9="125.13360"></scales>
<clustering>
<clus scale="   79.632">  5  6 -1 -1</clus>
<clus scale="   90.919">  7  8 -1 -1</clus>
<clus scale="  120.303">  1  7  2 -1</clus>
<clus scale="  125.134">  2  9  1 -1</clus>
<clus scale="  125.134">  2  5  1 -1</clus>
</clustering>
</event>
<event>
 9    1  0.6345107E-005  0.1000883E+03  0.7546771E-02  0.1284591E+00
         21   -1    0    0  501  502  0.00000000000E+00  0.00000000000E+00  0.20416508867E+03  0.20416508867E+03  0.00000000000E+00 0. -1.
          1   -1    0    0  502    0 -0.00000000000E+00 -0.00000000000E+00 -0.30304987895E+03  0.30304987895E+03  0.00000000000E+00 0. -1.
         23    2    1    2    0    0 -0.43665513798E+02 -0.71357208964E-01 -0.21490006877E+03  0.23697661406E+03  0.89828691786E+02 0.  0.
        -24    2    1    2    0    0  0.43677314089E+02  0.23391217537E+02 -0.46919898027E+02  0.10564282575E+03  0.80647833067E+02 0.  0.
         13    1    4    4    0    0  0.62592633889E+01  0.30948738764E+02  0.13365571621E+02  0.34287626252E+02  0.00000000000E+00 0. -1.
        -14    1    4    4    0    0  0.37418050700E+02 -0.75575212270E+01 -0.60285469648E+02  0.71355199502E+02  0.00000000000E+00 0.  1.
        -13    1    3    3    0    0 -0.14599721399E+02 -0.40033195968E+02 -0.14665357834E+03  0.15271895981E+03  0.00000000000E+00 0. -1.
         13    1    3    3    0    0 -0.29065792400E+02  0.39961838759E+02 -0.68246490430E+02  0.84257654256E+02  0.00000000000E+00 0.  1.
          2    1    1    2  501    0 -0.11800290339E-01 -0.23319860328E+02  0.16293517652E+03  0.16459552780E+03  0.00000000000E+00 0. -1.
<scales pt_clust_5="13000.00000" pt_clust_6="13000.00000" pt_clust_7="13000.00000" pt_clust_8="13000.00000" pt_clust_9="23.31986"></scales>
<clustering>
<clus scale="   23.320">  1  9  2 -1</clus>
<clus scale="   80.648">  5  6 -1 -1</clus>
<clus scale="   89.829">  7  8 -1 -1</clus>
<clus scale="   91.938">  1  5  2 -1</clus>
<clus scale="   23.320">  1  5  2 -1</clus>
</clustering>
</event>
<event>
 9    1  0.6345107E-005  0.1400875E+03  0.7546771E-02  0.1215647E+00
          1   -1    0    0  502    0 -0.00000000000E+00  0.00000000000E+00  0.44579721864E+03  0.44579721864E+03  0.00000000000E+00 0. -1.
         21   -1    0    0  501  502  0.00000000000E+00 -0.00000000000E+00 -0.19919984809E+03  0.19919984809E+03  0.00000000000E+00 0.  1.
         23    2    1    2    0    0 -0.92514306767E+02 -0.54029846649E+02  0.40359739228E+03  0.42745811999E+03  0.91386366635E+02 0.  0.
        -24    2    1    2    0    0  0.69815803616E+02  0.64556472966E+02 -0.14013218247E+03  0.18736352780E+03  0.80164071437E+02 0.  0.
         13    1    4    4    0    0  0.49615664237E+02  0.78627271029E+02 -0.80987948323E+02  0.12330048524E+03  0.00000000000E+00 0. -1.
        -14    1    4    4    0    0  0.20200139380E+02 -0.14070798063E+02 -0.59144234145E+02  0.64063042557E+02  0.00000000000E+00 0.  1.
        -11    1    3    3    0    0 -0.21715046566E+02 -0.55695785713E+02  0.10743748355E+03  0.12294867492E+03  0.00000000000E+00 0. -1.
         11    1    3    3    0    0 -0.70799260201E+02  0.16659390640E+01  0.29615990873E+03  0.30450944507E+03  0.00000000000E+00 0.  1.
          2    1    1    2  501    0  0.22698503151E+02 -0.10526626317E+02 -0.16867839267E+02  0.30175418944E+02  0.00000000000E+00 0. -1.
<scales pt_clust_5="13000.00000" pt_clust_6="13000.00000" pt_clust_7="13000.00000" pt_clust_8="13000.00000" pt_clust_9="25.02063"></scales>
<clustering>
<clus scale="   25.021">  2  9  1 -1</clus>
<clus scale="   80.164">  5  6 -1 -1</clus>
<clus scale="   91.386">  7  8 -1 -1</clus>
<clus scale="  133.039">  2  5  1 -1</clus>
<clus scale="   25.021">  2  5  1 -1</clus>
</clustering>
</event>
<event>
 9    1  0.6345107E-005  0.1421767E+03  0.7546771E-02  0.1213236E+00
          1   -1    0    0  502    0 -0.00000000000E+00  0.00000000000E+00  0.75736750694E+03  0.75736750694E+03  0.00000000000E+00 0. -1.
         21   -1    0    0  501  502  0.00000000000E+00 -0.00000000000E+00 -0.37930418965E+02  0.37930418965E+02  0.00000000000E+00 0. -1.
         23    2    1    2    0    0 -0.94644294479E+02 -0.15815951464E+02  0.35971813976E+03  0.38386990709E+03  0.93548269355E+02 0.  0.
        -24    2    1    2    0    0  0.11769670064E+03  0.53996815777E+02  0.24770875272E+03  0.29086485809E+03  0.80464713013E+02 0.  0.
         13    1    4    4    0    0  0.58742746838E+02  0.48769392786E+02  0.70081299183E+02  0.10363663674E+03  0.00000000000E+00 0. -1.
        -14    1    4    4    0    0  0.58953953803E+02  0.52274229909E+01  0.17762745354E+03  0.18722822135E+03  0.00000000000E+00 0.  1.
        -11    1    3    3    0    0 -0.12292565980E+02 -0.30593674523E+02  0.33151598412E+02  0.46755840025E+02  0.00000000000E+00 0.  1.
         11    1    3    3    0    0 -0.82351728499E+02  0.14777723059E+02  0.32656654135E+03  0.33711406706E+03  0.00000000000E+00 0. -1.
          2    1    1    2  501    0 -0.23052406162E+02 -0.38180864314E+02  0.11201019549E+03  0.12056316072E+03  0.00000000000E+00 0. -1.
<scales pt_clust_5="13000.00000" pt_clust_6="13000.00000" pt_clust_7="13000.00000" pt_clust_8="13000.00000" pt_clust_9="44.60038"></scales>
<clustering>
<clus scale="   44.600">  2  9  1 -1</clus>
<clus scale="   80.465">  5  6 -1 -1</clus>
<clus scale="   93.548">  7  8 -1 -1</clus>
<clus scale="  133.931">  2  5  1 -1</clus>
<clus scale="   44.600">  2  5  1 -1</clus>
</clustering>
</event>
<event>
 9    1  0.6345107E-005  0.1610381E+03  0.7546771E-02  0.1189036E+00
          1   -1    0    0  502    0 -0.00000000000E+00  0.00000000000E+00  0.24574396350E+03  0.24574396350E+03  0.00000000000E+00 0. -1.
         21   -1    0    0  501  502  0.00000000000E+00 -0.00000000000E+00 -0.32722561970E+03  0.32722561970E+03  0.00000000000E+00 0. -1.
         23    2    1    2    0    0  0.13766461628E+03  0.21634658928E+01  0.17556156140E+03  0.24066413132E+03  0.90228238942E+02 0.  0.
        -24    2    1    2    0    0 -0.11560799634E+03  0.69271691564E+01 -0.98538298363E+02  0.17201526643E+03  0.80413065803E+02 0.  0.
         11    1    4    4    0    0 -0.48374881281E+02 -0.28935019614E+02 -0.13756340839E+02  0.58022421634E+02  0.00000000000E+00 0. -1.
        -12    1    4    4    0    0 -0.67233115054E+02  0.35862188770E+02 -0.84781957523E+02  0.11399284480E+03  0.00000000000E+00 0.  1.
        -11    1    3    3    0    0  0.70013927243E+02  0.18234897160E+02  0.28070410031E+02  0.77604184176E+02  0.00000000000E+00 0.  1.
         11    1    3    3    0    0  0.67650689039E+02 -0.16071431267E+02  0.14749115137E+03  0.16305994715E+03  0.00000000000E+00 0. -1.
          2    1    1    2  501    0 -0.22056619946E+02 -0.90906350492E+01 -0.15850491924E+03  0.16029018545E+03  0.00000000000E+00 0. -1.
<scales pt_clust_5="13000.00000" pt_clust_6="13000.00000" pt_clust_7="13000.00000" pt_clust_8="13000.00000" pt_clust_9="23.85653"></scales>
<clustering>
<clus scale="   23.857">  2  9  1 -1</clus>
<clus scale="   80.413">  5  6 -1 -1</clus>
<clus scale="   90.228">  7  8 -1 -1</clus>
<clus scale="  155.751">  2  5  1 -1</clus>
<clus scale="   23.857">  2  5  1 -1</clus>
</clustering>
</event>
<event>
 9    1  0.6345107E-005  0.1273156E+03  0.7546771E-02  0.1234563E+00
         21   -1    0    0  501  502  0.00000000000E+00  0.00000000000E+00  0.40767899859E+03  0.40767899859E+03  0.00000000000E+00 0. -1.
          1   -1    0    0  502    0 -0.00000000000E+00 -0.00000000000E+00 -0.97586030895E+02  0.97586030895E+02  0.00000000000E+00 0. -1.
        -24    2    1    2    0    0 -0.10535839757E+03 -0.11561575300E+02  0.73584479216E+01  0.13344417829E+03  0.80741191484E+02 0.  0.
         23    2    1    2    0    0  0.45951570121E+02 -0.61305536119E+02  0.14261249919E+03  0.18613873426E+03  0.91866141269E+02 0.  0.
         13    1    3    3    0    0 -0.33288850664E+02  0.34018095637E+02 -0.21366656969E+01  0.47643926681E+02  0.00000000000E+00 0. -1.
        -14    1    3    3    0    0 -0.72069546901E+02 -0.45579670937E+02  0.94951136185E+01  0.85800251608E+02  0.00000000000E+00 0.  1.
        -11    1    4    4    0    0 -0.35644701614E+01 -0.31198519385E+02  0.11982099727E+03  0.12386736635E+03  0.00000000000E+00 0. -1.
         11    1    4    4    0    0  0.49516040282E+02 -0.30107016734E+02  0.22791501918E+02  0.62271367911E+02  0.00000000000E+00 0.  1.
          2    1    1    2  501    0  0.59406827444E+02  0.72867111419E+02  0.16012202059E+03  0.18568211694E+03  0.00000000000E+00 0. -1.
<scales pt_clust_5="13000.00000" pt_clust_6="13000.00000" pt_clust_7="13000.00000" pt_clust_8="13000.00000" pt_clust_9="94.01482"></scales>
<clustering>
<clus scale="   80.741">  5  6 -1 -1</clus>
<clus scale="   91.866">  7  8 -1 -1</clus>
<clus scale="   94.015">  1  9  2 -1</clus>
<clus scale="  119.537">  2  5  1 -1</clus>
<clus scale="   94.015">  1  5  2 -1</clus>
</clustering>
</event>
<event>
 9    1  0.6345107E-005  0.1311790E+03  0.7546771E-02  0.1228103E+00
         21   -1    0    0  501  502  0.00000000000E+00  0.00000000000E+00  0.12738846373E+04  0.12738846373E+04  0.00000000000E+00 0.  1.
         -4   -1    0    0    0  501 -0.00000000000E+00 -0.00000000000E+00 -0.28470167420E+02  0.28470167420E+02  0.00000000000E+00 0.  1.
        -24    2    1    2    0    0  0.76862750329E+02  0.75577073869E+02  0.23610099488E+03  0.27153318909E+03  0.79792333654E+02 0.  0.
         23    2    1    2    0    0 -0.90962374482E+02  0.48629890712E+00  0.51876672056E+03  0.53421255977E+03  0.89385449552E+02 0.  0.
         11    1    3    3    0    0  0.28245723035E+02  0.45475264451E+01  0.13839320574E+03  0.14131942634E+03  0.00000000000E+00 0. -1.
        -12    1    3    3    0    0  0.48617027295E+02  0.71029547424E+02  0.97707789148E+02  0.13021376275E+03  0.00000000000E+00 0.  1.
        -13    1    4    4    0    0 -0.25466870757E+02 -0.33396917608E+02  0.92149691469E+02  0.10126935000E+03  0.00000000000E+00 0.  1.
         13    1    4    4    0    0 -0.65495503725E+02  0.33883216515E+02  0.42661702909E+03  0.43294320977E+03  0.00000000000E+00 0. -1.
         -3    1    1    2    0  502  0.14099624153E+02 -0.76063372776E+02  0.49054675441E+03  0.49660905584E+03  0.00000000000E+00 0.  1.
<scales pt_clust_5="13000.00000" pt_clust_6="13000.00000" pt_clust_7="13000.00000" pt_clust_8="13000.00000" pt_clust_9="77.35914"></scales>
<clustering>
<clus scale="   77.359">  1  9  2 -1</clus>
<clus scale="   79.792">  5  6 -1 -1</clus>
<clus scale="   89.385">  7  8 -1 -1</clus>
<clus scale="  124.840">  2  5  1 -1</clus>
<clus scale="   77.359">  1  5  2 -1</clus>
</clustering>
</event>
<event>
 9    1  0.6345107E-005  0.1330938E+03  0.7546771E-02  0.1227253E+00
         21   -1    0    0  501  502  0.00000000000E+00  0.00000000000E+00  0.78991580821E+02  0.78991580821E+02  0.00000000000E+00 0. -1.
          1   -1    0    0  502    0 -0.00000000000E+00 -0.00000000000E+00 -0.34771289280E+03  0.34771289280E+03  0.00000000000E+00 0. -1.
         23    2    1    2    0    0  0.53325863338E+02  0.67276449334E+02 -0.92496826915E+02  0.15569741591E+03  0.91193497561E+02 0.  0.
        -24    2    1    2    0    0 -0.27930811547E+02 -0.11315109371E+03 -0.74680394274E+02  0.15672410173E+03  0.73498180469E+02 0.  0.
         11    1    4    4    0    0 -0.24144622334E+02 -0.10787326359E+03 -0.88401618844E+02  0.14154310297E+03  0.00000000000E+00 0. -1.
        -12    1    4    4    0    0 -0.37861892132E+01 -0.52778301221E+01  0.13721224570E+02  0.15180998756E+02  0.00000000000E+00 0.  1.
        -11    1    3    3    0    0  0.71245496048E+02  0.34204831257E+02 -0.33739559814E+02  0.85931653567E+02  0.00000000000E+00 0. -1.
         11    1    3    3    0    0 -0.17919632710E+02  0.33071618077E+02 -0.58757267101E+02  0.69765762347E+02  0.00000000000E+00 0.  1.
          2    1    1    2  501    0 -0.25395051791E+02  0.45874644378E+02 -0.10154409079E+03  0.11428295597E+03  0.00000000000E+00 0. -1.
<scales pt_clust_5="13000.00000" pt_clust_6="13000.00000" pt_clust_7="13000.00000" pt_clust_8="13000.00000" pt_clust_9="52.43467"></scales>
<clustering>
<clus scale="   52.435">  1  9  2 -1</clus>
<clus scale="   73.498">  5  6 -1 -1</clus>
<clus scale="   91.193">  7  8 -1 -1</clus>
<clus scale="  121.654">  1  5  2 -1</clus>
<clus scale="   52.435">  1  5  2 -1</clus>
</clustering>
</event>
<event>
 9    1  0.6345107E-005  0.1698673E+03  0.7546771E-02  0.1178390E+00
         21   -1    0    0  501  502  0.00000000000E+00  0.00000000000E+00  0.63078714313E+02  0.63078714313E+02  0.00000000000E+00 0. -1.
         -2   -1    0    0    0  501 -0.00000000000E+00 -0.00000000000E+00 -0.69781556836E+03  0.69781556836E+03  0.00000000000E+00 0.  1.
         23    2    1    2    0    0 -0.12631946250E+03  0.88146678769E+02 -0.29340445784E+03  0.34323059887E+03  0.89412664278E+02 0.  0.
        -24    2    1    2    0    0  0.12921163450E+03 -0.39168634682E+02 -0.14796343092E+03  0.21816739262E+03  0.86452332992E+02 0.  0.
         11    1    4    4    0    0  0.11251291129E+03 -0.57208735933E+02 -0.89461449782E+02  0.15471052217E+03  0.00000000000E+00 0. -1.
        -12    1    4    4    0    0  0.16698723214E+02  0.18040101251E+02 -0.58501981139E+02  0.63456870450E+02  0.00000000000E+00 0.  1.
        -13    1    3    3    0    0 -0.96795179968E+02  0.10139454286E+03 -0.26661471738E+03  0.30122013165E+03  0.00000000000E+00 0.  1.
         13    1    3    3    0    0 -0.29524282529E+02 -0.13247864093E+02 -0.26789740466E+02  0.42010467221E+02  0.00000000000E+00 0. -1.
         -1    1    1    2    0  502 -0.28921720029E+01 -0.48978044087E+02 -0.19336896528E+03  0.19949629118E+03  0.00000000000E+00 0.  1.
<scales pt_clust_5="13000.00000" pt_clust_6="13000.00000" pt_clust_7="13000.00000" pt_clust_8="13000.00000" pt_clust_9="49.06339"></scales>
<clustering>
<clus scale="   49.063">  1  9  2 -1</clus>
<clus scale="   86.452">  5  6 -1 -1</clus>
<clus scale="   89.413">  7  8 -1 -1</clus>
<clus scale="  168.328">  1  5  2 -1</clus>
<clus scale="   49.063">  1  5  2 -1</clus>
</clustering>
</event>
<event>
 9    1  0.6345107E-005  0.2101011E+03  0.7546771E-02  0.1165558E+00
         21   -1    0    0  501  502  0.00000000000E+00  0.00000000000E+00  0.53310367720E+03  0.53310367720E+03  0.00000000000E+00 0. -1.
          1   -1    0    0  502    0 -0.00000000000E+00 -0.00000000000E+00 -0.19816254589E+03  0.19816254589E+03  0.00000000000E+00 0. -1.
         23    2    1    2    0    0 -0.93277336062E+02  0.12828469208E+02 -0.79375618126E+02  0.14320129173E+03  0.73081394037E+02 0.  0.
        -24    2    1    2    0    0 -0.11596618049E+03 -0.10180873817E+03  0.10203283784E+03  0.20177284119E+03  0.80550637853E+02 0.  0.
         13    1    4    4    0    0 -0.81483667323E+02 -0.11085271343E+03  0.88797035869E+02  0.16374622345E+03  0.00000000000E+00 0. -1.
        -14    1    4    4    0    0 -0.34482513164E+02  0.90439752602E+01  0.13235801967E+02  0.38026617734E+02  0.00000000000E+00 0.  1.
        -11    1    3    3    0    0 -0.92090305613E+02 -0.10367806129E+02 -0.48593899051E+02  0.10463977646E+03  0.00000000000E+00 0.  1.
         11    1    3    3    0    0 -0.11870304496E+01  0.23196275337E+02 -0.30781719075E+02  0.38561515271E+02  0.00000000000E+00 0. -1.
          2    1    1    2  501    0  0.20924351655E+03  0.88980268962E+02  0.31228391161E+03  0.38629209017E+03  0.00000000000E+00 0. -1.
<scales pt_clust_5="13000.00000" pt_clust_6="13000.00000" pt_clust_7="13000.00000" pt_clust_8="13000.00000" pt_clust_9="194.04659"></scales>
<clustering>
<clus scale="   73.081">  7  8 -1 -1</clus>
<clus scale="   80.551">  5  6 -1 -1</clus>
<clus scale="  119.189">  2  7  1 -1</clus>
<clus scale="  194.047">  1  9  2 -1</clus>
<clus scale="  194.047">  1  5  2 -1</clus>
</clustering>
</event>
<event>
 9    1  0.6345107E-005  0.1053416E+03  0.7546771E-02  0.1273698E+00
          1   -1    0    0  502    0 -0.00000000000E+00  0.00000000000E+00  0.61114575691E+03  0.61114575691E+03  0.00000000000E+00 0. -1.
         21   -1    0    0  501  502  0.00000000000E+00 -0.00000000000E+00 -0.12249230311E+03  0.12249230311E+03  0.00000000000E+00 0. -1.
        -24    2    1    2    0    0  0.52465241229E+02 -0.31821609200E+01  0.53020310274E+03  0.53906446709E+03  0.81929493101E+02 0.  0.
         23    2    1    2    0    0 -0.45308429659E+02  0.27082752733E+02  0.37115912704E+02  0.11204645297E+03  0.91599603452E+02 0.  0.
         11    1    3    3    0    0  0.72218962702E+02  0.10851134721E+02  0.40733604827E+03  0.41383086149E+03  0.00000000000E+00 0. -1.
        -12    1    3    3    0    0 -0.19753721473E+02 -0.14033295641E+02  0.12286705447E+03  0.12523360561E+03  0.00000000000E+00 0.  1.
        -13    1    4    4    0    0 -0.16630209262E+02 -0.12106021676E+02  0.56218138346E+02  0.59863166472E+02  0.00000000000E+00 0. -1.
         13    1    4    4    0    0 -0.28678220397E+02  0.39188774409E+02 -0.19102225642E+02  0.52183286494E+02  0.00000000000E+00 0.  1.
          2    1    1    2  501    0 -0.71568115696E+01 -0.23900591813E+02 -0.78665561645E+02  0.82527139958E+02  0.00000000000E+00 0. -1.
<scales pt_clust_5="13000.00000" pt_clust_6="13000.00000" pt_clust_7="13000.00000" pt_clust_8="13000.00000" pt_clust_9="24.94911"></scales>
<clustering>
<clus scale="   24.949">  2  9  1 -1</clus>
<clus scale="   81.929">  5  6 -1 -1</clus>
<clus scale="   91.600">  7  8 -1 -1</clus>
<clus scale="   97.050">  1  5  2 -1</clus>
<clus scale="   24.949">  2  5  1 -1</clus>
</clustering>
</event>
<event>
 9    1  0.6345107E-005  0.1881091E+03  0.7546771E-02  0.1161087E+00
         21   -1    0    0  501  502  0.00000000000E+00  0.00000000000E+00  0.14846264276E+03  0.14846264276E+03  0.00000000000E+00 0. -1.
          1   -1    0    0  502    0 -0.00000000000E+00 -0.00000000000E+00 -0.58102030400E+03  0.58102030400E+03  0.00000000000E+00 0. -1.
         23    2    1    2    0    0  0.17633265622E+03  0.21020991321E+02 -0.48058149024E+03  0.52009091540E+03  0.89447771343E+02 0.  0.
        -24    2    1    2    0    0 -0.11148537036E+03 -0.10519151041E+02  0.32829439935E+02  0.14196556333E+03  0.80850533098E+02 0.  0.
         11    1    4    4    0    0 -0.10670614748E+03 -0.31769987489E+02  0.12262849627E+02  0.11200853314E+03  0.00000000000E+00 0. -1.
        -12    1    4    4    0    0 -0.47792228839E+01  0.21250836448E+02  0.20566590308E+02  0.29957030194E+02  0.00000000000E+00 0.  1.
        -13    1    3    3    0    0  0.28332376456E+02 -0.14392143927E+02 -0.27125890811E+02  0.41781231609E+02  0.00000000000E+00 0.  1.
         13    1    3    3    0    0  0.14800027977E+03  0.35413135248E+02 -0.45345559943E+03  0.47830968379E+03  0.00000000000E+00 0. -1.
          2    1    1    2  501    0 -0.64847285860E+02 -0.10501840281E+02  0.15194389062E+02  0.67426468035E+02  0.00000000000E+00 0. -1.
<scales pt_clust_5="13000.00000" pt_clust_6="13000.00000" pt_clust_7="13000.00000" pt_clust_8="13000.00000" pt_clust_9="65.69215"></scales>
<clustering>
<clus scale="   65.692">  1  9  2 -1</clus>
<clus scale="   80.851">  5  6 -1 -1</clus>
<clus scale="   89.448">  7  8 -1 -1</clus>
<clus scale="  184.176">  1  5  2 -1</clus>
<clus scale="   65.692">  1  5  2 -1</clus>
</clustering>
</event>
<event>
 9    1  0.6345107E-005  0.1454140E+03  0.7546771E-02  0.1209196E+00
         21   -1    0    0  501  502  0.00000000000E+00  0.00000000000E+00  0.62293400633E+02  0.62293400633E+02  0.00000000000E+00 0. -1.
          1   -1    0    0  502    0 -0.00000000000E+00 -0.00000000000E+00 -0.63897427847E+03  0.63897427847E+03  0.00000000000E+00 0. -1.
        -24    2    1    2    0    0 -0.12895440445E+03  0.45529822970E+02 -0.23838511290E+03  0.28616671111E+03  0.79760399238E+02 0.  0.
         23    2    1    2    0    0  0.83667929761E+02  0.22321578658E+02 -0.97673941316E+02  0.16102708210E+03  0.94291818376E+02 0.  0.
         13    1    3    3    0    0 -0.12726230649E+03  0.37526196398E+02 -0.24293532245E+03  0.27680585428E+03  0.00000000000E+00 0. -1.
        -14    1    3    3    0    0 -0.16920979571E+01  0.80036265721E+01  0.45502095410E+01  0.93608568341E+01  0.00000000000E+00 0.  1.
        -11    1    4    4    0    0  0.35081530273E+02 -0.37145405261E+02 -0.42690721498E+02  0.66580722437E+02  0.00000000000E+00 0. -1.
         11    1    4    4    0    0  0.48586399488E+02  0.59466983919E+02 -0.54983219818E+02  0.94446359661E+02  0.00000000000E+00 0.  1.
          2    1    1    2  501    0  0.45286474690E+02 -0.67851401629E+02 -0.24062182362E+03  0.25407388589E+03  0.00000000000E+00 0. -1.
<scales pt_clust_5="13000.00000" pt_clust_6="13000.00000" pt_clust_7="13000.00000" pt_clust_8="13000.00000" pt_clust_9="81.57625"></scales>
<clustering>
<clus scale="   79.760">  5  6 -1 -1</clus>
<clus scale="   81.576">  1  9  2 -1</clus>
<clus scale="   94.292">  7  8 -1 -1</clus>
<clus scale="  136.440">  2  5  1 -1</clus>
<clus scale="   81.576">  1  5  2 -1</clus>
</clustering>
</event>
<event>
 9    1  0.6345107E-005  0.1230560E+03  0.7546771E-02  0.1238747E+00
         21   -1    0    0  501  502  0.00000000000E+00  0.00000000000E+00  0.11520742917E+03  0.11520742917E+03  0.00000000000E+00 0. -1.
         -2   -1    0    0    0  501 -0.00000000000E+00 -0.00000000000E+00 -0.20737655521E+03  0.20737655521E+03  0.00000000000E+00 0.  1.
        -24    2    1    2    0    0  0.10541265609E+03 -0.24644444275E+02 -0.10963601029E+03  0.17395774776E+03  0.80759312508E+02 0.  0.
         23    2    1    2    0    0 -0.63803662891E+02  0.60559893477E+01  0.18879666914E+02  0.10303199437E+03  0.78431929952E+02 0.  0.
         11    1    3    3    0    0  0.45522373428E+02 -0.34159163204E+02 -0.10691897748E+02  0.57908994040E+02  0.00000000000E+00 0. -1.
        -12    1    3    3    0    0  0.59890282659E+02  0.95147189291E+01 -0.98944112543E+02  0.11604875372E+03  0.00000000000E+00 0.  1.
        -13    1    4    4    0    0 -0.10092604016E+02  0.29333008313E+02 -0.15985938114E+02  0.34897510655E+02  0.00000000000E+00 0.  1.
         13    1    4    4    0    0 -0.53711058874E+02 -0.23277018966E+02  0.34865605027E+02  0.68134483716E+02  0.00000000000E+00 0. -1.
         -1    1    1    2    0  502 -0.41608993196E+02  0.18588454928E+02 -0.14127826643E+01  0.45594242249E+02  0.00000000000E+00 0.  1.
<scales pt_clust_5="13000.00000" pt_clust_6="13000.00000" pt_clust_7="13000.00000" pt_clust_8="13000.00000" pt_clust_9="45.57235"></scales>
<clustering>
<clus scale="   45.572">  1  9  2 -1</clus>
<clus scale="   78.432">  7  8 -1 -1</clus>
<clus scale="   80.759">  5  6 -1 -1</clus>
<clus scale="  121.541">  1  7  2 -1</clus>
<clus scale="   45.572">  1  5  2 -1</clus>
</clustering>
</event>
<event>
 9    1  0.6345107E-005  0.1929253E+03  0.7546771E-02  0.1156863E+00
         21   -1    0    0  501  502  0.00000000000E+00  0.00000000000E+00  0.50684406469E+03  0.50684406469E+03  0.00000000000E+00 0. -1.
          3   -1    0    0  502    0 -0.00000000000E+00 -0.00000000000E+00 -0.20623717312E+03  0.20623717312E+03  0.00000000000E+00 0. -1.
        -24    2    1    2    0    0  0.15902935259E+03 -0.52288791443E+02 -0.11726902684E+03  0.21988615001E+03  0.81076763732E+02 0.  0.
         23    2    1    2    0    0 -0.16577633999E+03  0.90805996521E+02  0.28010329029E+03  0.34998058439E+03  0.91110001172E+02 0.  0.
         11    1    3    3    0    0  0.15092556077E+03 -0.62468146195E+02 -0.12414929253E+03  0.20516783622E+03  0.00000000000E+00 0. -1.
        -12    1    3    3    0    0  0.81037918202E+01  0.10179354751E+02  0.68802656931E+01  0.14718313797E+02  0.00000000000E+00 0.  1.
        -13    1    4    4    0    0 -0.75504447364E+02 -0.71941781635E+01  0.87728728821E+02  0.11596985657E+03  0.00000000000E+00 0.  1.
         13    1    4    4    0    0 -0.90271892626E+02  0.98000174684E+02  0.19237456147E+03  0.23401072782E+03  0.00000000000E+00 0. -1.
          4    1    1    2  501    0  0.67469874007E+01 -0.38517205077E+02  0.13777262812E+03  0.14321450340E+03  0.00000000000E+00 0. -1.
<scales pt_clust_5="13000.00000" pt_clust_6="13000.00000" pt_clust_7="13000.00000" pt_clust_8="13000.00000" pt_clust_9="39.10367"></scales>
<clustering>
<clus scale="   39.104">  1  9  2 -1</clus>
<clus scale="   81.077">  5  6 -1 -1</clus>
<clus scale="   91.110">  7  8 -1 -1</clus>
<clus scale="  188.395">  2  5  1 -1</clus>
<clus scale="   39.104">  1  5  2 -1</clus>
</clustering>
</event>
<event>
 9    1  0.6345107E-005  0.1110589E+03  0.7546771E-02  0.1264940E+00
          1   -1    0    0  502    0 -0.00000000000E+00  0.00000000000E+00  0.12900902556E+04  0.12900902556E+04  0.00000000000E+00 0. -1.
         21   -1    0    0  501  502  0.00000000000E+00 -0.00000000000E+00 -0.20350961387E+02  0.20350961387E+02  0.00000000000E+00 0. -1.
         23    2    1    2    0    0  0.41820107241E+02  0.83678210704E+02  0.48769608945E+03  0.50554102031E+03  0.94727415471E+02 0.  0.
        -24    2    1    2    0    0  0.22730669261E+02 -0.32531392147E+02  0.22497621435E+03  0.24177815697E+03  0.79166946145E+02 0.  0.
         13    1    4    4    0    0  0.44319662945E+02 -0.40406741798E+02  0.11806068660E+03  0.13242078019E+03  0.00000000000E+00 0. -1.
        -14    1    4    4    0    0 -0.21588993684E+02  0.78753496507E+01  0.10691552775E+03  0.10935737678E+03  0.00000000000E+00 0.  1.
        -13    1    3    3    0    0  0.31151668944E+02 -0.13075457832E+02  0.90765049078E+02  0.96848790440E+02  0.00000000000E+00 0.  1.
         13    1    3    3    0    0  0.10668438296E+02  0.96753668536E+02  0.39693104037E+03  0.40869222987E+03  0.00000000000E+00 0. -1.
          2    1    1    2  501    0 -0.64550776501E+02 -0.51146818557E+02  0.55706699044E+03  0.56312203973E+03  0.00000000000E+00 0. -1.
<scales pt_clust_5="13000.00000" pt_clust_6="13000.00000" pt_clust_7="13000.00000" pt_clust_8="13000.00000" pt_clust_9="82.35780"></scales>
<clustering>
<clus scale="   79.167">  5  6 -1 -1</clus>
<clus scale="   82.358">  2  9  1 -1</clus>
<clus scale="   94.727">  7  8 -1 -1</clus>
<clus scale="   98.123">  2  5  1 -1</clus>
<clus scale="   82.358">  2  5  1 -1</clus>
</clustering>
</event>
<event>
 9    1  0.6345107E-005  0.1120896E+03  0.7546771E-02  0.1263111E+00
          1   -1    0    0  502    0 -0.00000000000E+00  0.00000000000E+00  0.36793383296E+03  0.36793383296E+03  0.00000000000E+00 0. -1.
         21   -1    0    0  501  502  0.00000000000E+00 -0.00000000000E+00 -0.81267422460E+02  0.81267422460E+02  0.00000000000E+00 0. -1.
         23    2    1    2    0    0 -0.55202918090E+01  0.39720488086E+02  0.19203898961E+03  0.21853081176E+03  0.96273315941E+02 0.  0.
        -24    2    1    2    0    0  0.47937763133E+02 -0.93294183211E+02  0.94142847917E+02  0.16233584413E+03  0.80549467526E+02 0.  0.
         11    1    4    4    0    0  0.38563785937E+02 -0.90080780175E+02  0.10765960795E+03  0.14557576628E+03  0.00000000000E+00 0. -1.
        -12    1    4    4    0    0  0.93739771965E+01 -0.32134030360E+01 -0.13516760037E+02  0.16760077847E+02  0.00000000000E+00 0.  1.
        -13    1    3    3    0    0 -0.17035818029E+02 -0.26615290475E+02  0.97312940998E+02  0.10231520546E+03  0.00000000000E+00 0.  1.
         13    1    3    3    0    0  0.11515526220E+02  0.66335778561E+02  0.94726048611E+02  0.11621560630E+03  0.00000000000E+00 0. -1.
          2    1    1    2  501    0 -0.42417471324E+02  0.53573695126E+02  0.48457297486E+00  0.68334599538E+02  0.00000000000E+00 0. -1.
<scales pt_clust_5="13000.00000" pt_clust_6="13000.00000" pt_clust_7="13000.00000" pt_clust_8="13000.00000" pt_clust_9="68.33288"></scales>
<clustering>
<clus scale="   68.333">  2  9  1 -1</clus>
<clus scale="   80.549">  5  6 -1 -1</clus>
<clus scale="   96.273">  7  8 -1 -1</clus>
<clus scale="   98.913">  2  5  1 -1</clus>
<clus scale="   68.333">  2  5  1 -1</clus>
</clustering>
</event>
<event>
 9    1  0.6345107E-005  0.1482532E+03  0.7546771E-02  0.1204408E+00
         21   -1    0    0  501  502  0.00000000000E+00  0.00000000000E+00  0.54662636688E+03  0.54662636688E+03  0.00000000000E+00 0. -1.
          3   -1    0    0  502    0 -0.00000000000E+00 -0.00000000000E+00 -0.13474467064E+03  0.13474467064E+03  0.00000000000E+00 0. -1.
         23    2    1    2    0    0  0.37119350510E+02  0.77266313703E+02  0.11107800897E+03  0.16717847284E+03  0.90897680331E+02 0.  0.
        -24    2    1    2    0    0 -0.13895129135E+03 -0.14709501489E+03  0.32197572477E+03  0.38891668169E+03  0.81507135761E+02 0.  0.
         11    1    4    4    0    0 -0.11710414773E+03 -0.11255588631E+03  0.30314740663E+03  0.34391940786E+03  0.00000000000E+00 0. -1.
        -12    1    4    4    0    0 -0.21847143626E+02 -0.34539128582E+02  0.18828318139E+02  0.44997273825E+02  0.00000000000E+00 0.  1.
        -13    1    3    3    0    0 -0.70124243049E+01  0.74304798035E+02  0.43422605744E+02  0.86347552341E+02  0.00000000000E+00 0.  1.
         13    1    3    3    0    0  0.44131774815E+02  0.29615156677E+01  0.67655403225E+02  0.80830920500E+02  0.00000000000E+00 0. -1.
          4    1    1    2  501    0  0.10183194084E+03  0.69828701190E+02 -0.21172037499E+02  0.12527588299E+03  0.00000000000E+00 0. -1.
<scales pt_clust_5="13000.00000" pt_clust_6="13000.00000" pt_clust_7="13000.00000" pt_clust_8="13000.00000" pt_clust_9="123.47391"></scales>
<clustering>
<clus scale="   81.507">  5  6 -1 -1</clus>
<clus scale="   90.898">  7  8 -1 -1</clus>
<clus scale="  123.474">  1  9  2 -1</clus>
<clus scale="  142.689">  1  5  2 -1</clus>
<clus scale="  123.474">  1  5  2 -1</clus>
</clustering>
</event>
<event>
 9    1  0.6345107E-005  0.1124222E+03  0.7546771E-02  0.1260730E+00
         -4   -1    0    0    0  501 -0.00000000000E+00  0.00000000000E+00  0.50223252364E+03  0.50223252364E+03  0.00000000000E+00 0.  1.
         21   -1    0    0  501  502  0.00000000000E+00 -0.00000000000E+00 -0.20912147406E+03  0.20912147406E+03  0.00000000000E+00 0.  1.
        -24    2    1    2    0    0  0.70270294095E+02 -0.16972135334E+02  0.36242445593E+03  0.37792899406E+03  0.79075095239E+02 0.  0.
         23    2    1    2    0    0 -0.48645221141E+02  0.14225345588E+01  0.11065068960E+03  0.15150054213E+03  0.91326108050E+02 0.  0.
         13    1    3    3    0    0  0.27118082210E+02  0.26432240737E+02  0.74511602283E+02  0.83582489840E+02  0.00000000000E+00 0. -1.
        -14    1    3    3    0    0  0.43152211884E+02 -0.43404376071E+02  0.28791285364E+03  0.29434650422E+03  0.00000000000E+00 0.  1.
        -11    1    4    4    0    0 -0.67420886650E+02 -0.77684954841E+01  0.42172752180E+02  0.79902856677E+02  0.00000000000E+00 0.  1.
         11    1    4    4    0    0  0.18775665509E+02  0.91910300429E+01  0.68477937419E+02  0.71597685449E+02  0.00000000000E+00 0. -1.
         -3    1    1    2    0  502 -0.21625072953E+02  0.15549600776E+02 -0.17996409595E+03  0.18192446151E+03  0.00000000000E+00 0.  1.
<scales pt_clust_5="13000.00000" pt_clust_6="13000.00000" pt_clust_7="13000.00000" pt_clust_8="13000.00000" pt_clust_9="26.63520"></scales>
<clustering>
<clus scale="   26.635">  2  9  1 -1</clus>
<clus scale="   79.075">  5  6 -1 -1</clus>
<clus scale="   91.326">  7  8 -1 -1</clus>
<clus scale="  102.719">  1  5  2 -1</clus>
<clus scale="   26.635">  2  5  1 -1</clus>
</clustering>
</event>
<event>
 9    1  0.6345107E-005  0.2277780E+03  0.7546771E-02  0.1128909E+00
          1   -1    0    0  502    0 -0.00000000000E+00  0.00000000000E+00  0.10688130082E+04  0.10688130082E+04  0.00000000000E+00 0. -1.
         21   -1    0    0  501  502  0.00000000000E+00 -0.00000000000E+00 -0.82830464267E+02  0.82830464267E+02  0.00000000000E+00 0. -1.
         23    2    1    2    0    0  0.43092026146E+02  0.21027086561E+03  0.84748182186E+03  0.87896005055E+03  0.90964676887E+02 0.  0.
        -24    2    1    2    0    0 -0.40338610339E+02 -0.18158801129E+03  0.10458800696E+03  0.22818218959E+03  0.80790167230E+02 0.  0.
         11    1    4    4    0    0 -0.60628856950E+02 -0.16740462800E+03  0.91762865244E+02  0.20030125114E+03  0.00000000000E+00 0. -1.
        -12    1    4    4    0    0  0.20290246611E+02 -0.14183383286E+02  0.12825141714E+02  0.27880938451E+02  0.00000000000E+00 0.  1.
        -11    1    3    3    0    0  0.22141503951E+02  0.95212944890E+02  0.56223283252E+03  0.57066759943E+03  0.00000000000E+00 0. -1.
         11    1    3    3    0    0  0.20950522194E+02  0.11505792072E+03  0.28524898933E+03  0.30829245112E+03  0.00000000000E+00 0.  1.
          2    1    1    2  501    0 -0.27534158067E+01 -0.28682854327E+02  0.33912715086E+02  0.44501232291E+02  0.00000000000E+00 0. -1.
<scales pt_clust_5="13000.00000" pt_clust_6="13000.00000" pt_clust_7="13000.00000" pt_clust_8="13000.00000" pt_clust_9="28.81471"></scales>
<clustering>
<clus scale="   28.815">  2  9  1 -1</clus>
<clus scale="   80.790">  5  6 -1 -1</clus>
<clus scale="   90.965">  7  8 -1 -1</clus>
<clus scale="  223.909">  2  5  1 -1</clus>
<clus scale="   28.815">  2  5  1 -1</clus>
</clustering>
</event>
<event>
 9    1  0.6345107E-005  0.1281477E+03  0.7546771E-02  0.1246598E+00
         21   -1    0    0  501  502  0.00000000000E+00  0.00000000000E+00  0.72678356818E+03  0.72678356818E+03  0.00000000000E+00 0. -1.
          3   -1    0    0  502    0 -0.00000000000E+00 -0.00000000000E+00 -0.41520078001E+02  0.41520078001E+02  0.00000000000E+00 0. -1.
         23    2    1    2    0    0 -0.15465384704E+02 -0.17998239495E+01  0.30790141055E+03  0.32130224491E+03  0.90495505261E+02 0.  0.
        -24    2    1    2    0    0  0.11809636048E+03 -0.93895867714E+01  0.23751118376E+03  0.27317219436E+03  0.64626392929E+02 0.  0.
         13    1    4    4    0    0  0.67510392708E+02 -0.17431866920E+02  0.19336532163E+03  0.20555211193E+03  0.00000000000E+00 0. -1.
        -14    1    4    4    0    0  0.50585967772E+02  0.80422801491E+01  0.44145862127E+02  0.67620082434E+02  0.00000000000E+00 0.  1.
        -13    1    3    3    0    0  0.21624895791E+02  0.31614036185E+02  0.17942388549E+03  0.18346665660E+03  0.00000000000E+00 0. -1.
         13    1    3    3    0    0 -0.37090280496E+02 -0.33413860135E+02  0.12847752507E+03  0.13783558830E+03  0.00000000000E+00 0.  1.
          4    1    1    2  501    0 -0.10263097578E+03  0.11189410721E+02  0.13985089587E+03  0.17382920691E+03  0.00000000000E+00 0. -1.
<scales pt_clust_5="13000.00000" pt_clust_6="13000.00000" pt_clust_7="13000.00000" pt_clust_8="13000.00000" pt_clust_9="110.65833"></scales>
<clustering>
<clus scale="   64.626">  5  6 -1 -1</clus>
<clus scale="   90.496">  7  8 -1 -1</clus>
<clus scale="   91.825">  2  7  1 -1</clus>
<clus scale="  110.658">  1  9  2 -1</clus>
<clus scale="  110.658">  1  5  2 -1</clus>
</clustering>
</event>
<event>
 9    1  0.6345107E-005  0.2047414E+03  0.7546771E-02  0.1155531E+00
         21   -1    0    0  501  502  0.00000000000E+00  0.00000000000E+00  0.62592391041E+02  0.62592391041E+02  0.00000000000E+00 0. -1.
          1   -1    0    0  502    0 -0.00000000000E+00 -0.00000000000E+00 -0.14167280973E+04  0.14167280973E+04  0.00000000000E+00 0. -1.
         23    2    1    2    0    0  0.12005743939E+03  0.61733999857E+02 -0.34184320442E+03  0.37855403695E+03  0.90672526086E+02 0.  0.
        -24    2    1    2    0    0 -0.12482133819E+03  0.14203478904E+03 -0.68584470171E+03  0.71591247874E+03  0.79959205758E+02 0.  0.
         11    1    4    4    0    0 -0.70842139596E+02  0.67284594941E+02 -0.48736706477E+03  0.49706386037E+03  0.00000000000E+00 0. -1.
        -12    1    4    4    0    0 -0.53979198597E+02  0.74750194097E+02 -0.19847763694E+03  0.21884861837E+03  0.00000000000E+00 0.  1.
        -11    1    3    3    0    0  0.10124170318E+03  0.12469911500E+02 -0.16472307834E+03  0.19375002888E+03  0.00000000000E+00 0. -1.
         11    1    3    3    0    0  0.18815736206E+02  0.49264088357E+02 -0.17712012609E+03  0.18480400806E+03  0.00000000000E+00 0.  1.
          2    1    1    2  501    0  0.47638988052E+01 -0.20376878890E+03 -0.32644780010E+03  0.38485397263E+03  0.00000000000E+00 0. -1.
<scales pt_clust_5="13000.00000" pt_clust_6="13000.00000" pt_clust_7="13000.00000" pt_clust_8="13000.00000" pt_clust_9="188.48227"></scales>
<clustering>
<clus scale="   79.959">  5  6 -1 -1</clus>
<clus scale="   90.673">  7  8 -1 -1</clus>
<clus scale="  162.624">  2  7  1 -1</clus>
<clus scale="  188.482">  1  9  2 -1</clus>
<clus scale="  188.482">  1  5  2 -1</clus>
</clustering>
</event>
<event>
 9    1  0.6345107E-005  0.1181473E+03  0.7546771E-02  0.1249883E+00
         21   -1    0    0  501  502  0.00000000000E+00  0.00000000000E+00  0.54572157755E+02  0.54572157755E+02  0.00000000000E+00 0. -1.
          1   -1    0    0  502    0 -0.00000000000E+00 -0.00000000000E+00 -0.71521475038E+03  0.71521475038E+03  0.00000000000E+00 0. -1.
        -24    2    1    2    0    0 -0.39396797170E+02 -0.67758214289E+02 -0.61046040700E+03  0.62050685535E+03  0.78889579695E+02 0.  0.
         23    2    1    2    0    0  0.49707001147E+02  0.40587580338E+02 -0.45996858976E+02  0.11991918403E+03  0.90259415141E+02 0.  0.
         11    1    3    3    0    0 -0.36109594982E+02 -0.22736751247E+02 -0.10956172699E+03  0.11757820686E+03  0.00000000000E+00 0. -1.
        -12    1    3    3    0    0 -0.32872021883E+01 -0.45021463043E+02 -0.50089868001E+03  0.50292864849E+03  0.00000000000E+00 0.  1.
        -11    1    4    4    0    0  0.42084434709E+02  0.69017396747E+02 -0.28704119458E+02  0.85781275185E+02  0.00000000000E+00 0.  1.
         11    1    4    4    0    0  0.76225664378E+01 -0.28429816409E+02 -0.17292739518E+02  0.34137908844E+02  0.00000000000E+00 0. -1.
          2    1    1    2  501    0 -0.10310203977E+02  0.27170633952E+02 -0.41853266515E+01  0.29360868764E+02  0.00000000000E+00 0. -1.
<scales pt_clust_5="13000.00000" pt_clust_6="13000.00000" pt_clust_7="13000.00000" pt_clust_8="13000.00000" pt_clust_9="29.06103"></scales>
<clustering>
<clus scale="   29.061">  1  9  2 -1</clus>
<clus scale="   78.890">  5  6 -1 -1</clus>
<clus scale="   90.259">  7  8 -1 -1</clus>
<clus scale="  109.707">  2  5  1 -1</clus>
<clus scale="   29.061">  1  5  2 -1</clus>
</clustering>
</event>
<event>
 9    1  0.6345107E-005  0.1370113E+03  0.7546771E-02  0.1238979E+00
          1   -1    0    0  502    0 -0.00000000000E+00  0.00000000000E+00  0.10618575523E+03  0.10618575523E+03  0.00000000000E+00 0. -1.
         21   -1    0    0  501  502  0.00000000000E+00 -0.00000000000E+00 -0.25577452605E+03  0.25577452605E+03  0.00000000000E+00 0. -1.
        -24    2    1    2    0    0 -0.12624968354E+02  0.56507522039E+01 -0.20198598128E+02  0.89940539903E+02  0.86544766019E+02 0.  0.
         23    2    1    2    0    0  0.70773700821E+02  0.75162620838E+02 -0.87979987681E+02  0.16419173123E+03  0.92520862914E+02 0.  0.
         11    1    3    3    0    0  0.32999820636E+02 -0.10833988939E+02 -0.22484294550E+02  0.41375197640E+02  0.00000000000E+00 0. -1.
        -12    1    3    3    0    0 -0.45624788990E+02  0.16484741143E+02  0.22856964217E+01  0.48565342263E+02  0.00000000000E+00 0.  1.
        -13    1    4    4    0    0  0.17367626534E+02 -0.16970953465E+02 -0.41315767639E+02  0.47923275854E+02  0.00000000000E+00 0.  1.
         13    1    4    4    0    0  0.53406074287E+02  0.92133574303E+02 -0.46664220041E+02  0.11626845538E+03  0.00000000000E+00 0. -1.
          2    1    1    2  501    0 -0.58148732467E+02 -0.80813373042E+02 -0.41410185006E+02  0.10782801015E+03  0.00000000000E+00 0. -1.
<scales pt_clust_5="13000.00000" pt_clust_6="13000.00000" pt_clust_7="13000.00000" pt_clust_8="13000.00000" pt_clust_9="101.05439"></scales>
<clustering>
<clus scale="   86.545">  5  6 -1 -1</clus>
<clus scale="   87.643">  1  5  2 -1</clus>
<clus scale="   92.521">  7  8 -1 -1</clus>
<clus scale="  101.054">  2  9  1 -1</clus>
<clus scale="  101.054">  2  5  1 -1</clus>
</clustering>
</event>
<event>
 9    1  0.6345107E-005  0.2056102E+03  0.7546771E-02  0.1152358E+00
         -4   -1    0    0    0  501 -0.00000000000E+00  0.00000000000E+00  0.87996101356E+03  0.87996101356E+03  0.00000000000E+00 0.  1.
         21   -1    0    0  501  502  0.00000000000E+00 -0.00000000000E+00 -0.23459987152E+03  0.23459987152E+03  0.00000000000E+00 0.  1.
        -24    2    1    2    0    0  0.13847688254E+03  0.63216452413E+02  0.61906066335E+03  0.64278297246E+03  0.82229422537E+02 0.  0.
         23    2    1    2    0    0 -0.10343867710E+03 -0.23367096586E+03  0.92286742531E+02  0.28566879406E+03  0.88250421211E+02 0.  0.
         11    1    3    3    0    0 -0.63672811206E+01  0.20507533839E+02  0.95177291104E+02  0.97569554447E+02  0.00000000000E+00 0. -1.
        -12    1    3    3    0    0  0.14484416366E+03  0.42708918574E+02  0.52388337224E+03  0.54521341802E+03  0.00000000000E+00 0.  1.
        -13    1    4    4    0    0 -0.11387072667E+03 -0.20004931066E+03  0.59945286641E+02  0.23786489122E+03  0.00000000000E+00 0.  1.
         13    1    4    4    0    0  0.10432049569E+02 -0.33621655203E+02  0.32341455890E+02  0.47803902831E+02  0.00000000000E+00 0. -1.
         -3    1    1    2    0  502 -0.35038205432E+02  0.17045451345E+03 -0.65986263843E+02  0.18610911856E+03  0.00000000000E+00 0.  1.
<scales pt_clust_5="13000.00000" pt_clust_6="13000.00000" pt_clust_7="13000.00000" pt_clust_8="13000.00000" pt_clust_9="185.70784"></scales>
<clustering>
<clus scale="   82.229">  5  6 -1 -1</clus>
<clus scale="   88.250">  7  8 -1 -1</clus>
<clus scale="  173.014">  1  5  2 -1</clus>
<clus scale="  185.708">  2  9  1 -1</clus>
<clus scale="  185.708">  2  5  1 -1</clus>
</clustering>
</event>
<event>
 9    1  0.6345107E-005  0.1146163E+03  0.7546771E-02  0.1255862E+00
          3   -1    0    0  502    0 -0.00000000000E+00  0.00000000000E+00  0.98082668386E+02  0.98082668386E+02  0.00000000000E+00 0. -1.
         21   -1    0    0  501  502  0.00000000000E+00 -0.00000000000E+00 -0.22348922155E+03  0.22348922155E+03  0.00000000000E+00 0. -1.
        -24    2    1    2    0    0  0.19347348139E+02  0.62461962600E+02  0.41079258100E+01  0.10398615445E+03  0.80749170960E+02 0.  0.
         23    2    1    2    0    0  0.10380260292E+02 -0.87669989585E+02 -0.12554562248E+03  0.17840758916E+03  0.90960363174E+02 0.  0.
         13    1    3    3    0    0  0.40024561877E+02  0.63172278490E+02  0.20552881278E+02  0.77557225659E+02  0.00000000000E+00 0. -1.
        -14    1    3    3    0    0 -0.20677213738E+02 -0.71031589046E+00 -0.16444955468E+02  0.26428928790E+02  0.00000000000E+00 0.  1.
        -11    1    4    4    0    0  0.79650328902E+01 -0.41957714830E+02  0.21438476898E+01  0.42760819281E+02  0.00000000000E+00 0.  1.
         11    1    4    4    0    0  0.24152274019E+01 -0.45712274756E+02 -0.12768947017E+03  0.13564676988E+03  0.00000000000E+00 0. -1.
          4    1    1    2  501    0 -0.29727608431E+02  0.25208026986E+02 -0.39688564927E+01  0.39178146324E+02  0.00000000000E+00 0. -1.
<scales pt_clust_5="13000.00000" pt_clust_6="13000.00000" pt_clust_7="13000.00000" pt_clust_8="13000.00000" pt_clust_9="38.97662"></scales>
<clustering>
<clus scale="   38.977">  2  9  1 -1</clus>
<clus scale="   80.749">  5  6 -1 -1</clus>
<clus scale="   90.960">  7  8 -1 -1</clus>
<clus scale="  106.694">  1  5  2 -1</clus>
<clus scale="   38.977">  2  5  1 -1</clus>
</clustering>
</event>
<event>
 9    1  0.6345107E-005  0.9571317E+02  0.7546771E-02  0.1297868E+00
         21   -1    0    0  501  502  0.00000000000E+00  0.00000000000E+00  0.26793724120E+03  0.26793724120E+03  0.00000000000E+00 0.  1.
         -2   -1    0    0    0  501 -0.00000000000E+00 -0.00000000000E+00 -0.10386261647E+03  0.10386261647E+03  0.00000000000E+00 0.  1.
         23    2    1    2    0    0 -0.57228712884E+01 -0.15485700059E+02 -0.57125632947E+02  0.11144615181E+03  0.94256822843E+02 0.  0.
        -24    2    1    2    0    0  0.43439990655E+02 -0.75681729863E+01  0.13049560029E+03  0.15945079693E+03  0.80319019647E+02 0.  0.
         13    1    4    4    0    0 -0.22693616097E+02  0.15516733455E+01  0.49588473358E+02  0.54556618221E+02  0.00000000000E+00 0. -1.
        -14    1    4    4    0    0  0.66133606753E+02 -0.91198463319E+01  0.80907126929E+02  0.10489417871E+03  0.00000000000E+00 0.  1.
        -13    1    3    3    0    0  0.29249298740E+02  0.10913292032E+01  0.12468361701E+02  0.31814658881E+02  0.00000000000E+00 0. -1.
         13    1    3    3    0    0 -0.34972170028E+02 -0.16577029263E+02 -0.69593994648E+02  0.79631492933E+02  0.00000000000E+00 0.  1.
         -1    1    1    2    0  502 -0.37717119367E+02  0.23053873046E+02  0.90704657398E+02  0.10090290892E+03  0.00000000000E+00 0.  1.
<scales pt_clust_5="13000.00000" pt_clust_6="13000.00000" pt_clust_7="13000.00000" pt_clust_8="13000.00000" pt_clust_9="44.20478"></scales>
<clustering>
<clus scale="   44.205">  1  9  2 -1</clus>
<clus scale="   80.319">  5  6 -1 -1</clus>
<clus scale="   82.023">  1  5  2 -1</clus>
<clus scale="   94.257">  7  8 -1 -1</clus>
<clus scale="   44.205">  1  5  2 -1</clus>
</clustering>
</event>
<event>
 9    1  0.6345107E-005  0.1737956E+03  0.7546771E-02  0.1175297E+00
         21   -1    0    0  501  502  0.00000000000E+00  0.00000000000E+00  0.50293083832E+03  0.50293083832E+03  0.00000000000E+00 0. -1.
          1   -1    0    0  502    0 -0.00000000000E+00 -0.00000000000E+00 -0.18684101096E+03  0.18684101096E+03  0.00000000000E+00 0. -1.
         23    2    1    2    0    0  0.13674537228E+03  0.51502254013E+02 -0.11679990954E+03  0.20784999190E+03  0.90595922961E+02 0.  0.
        -24    2    1    2    0    0 -0.15725804451E+03 -0.61317936930E+02  0.40441860863E+03  0.44548393073E+03  0.80072089910E+02 0.  0.
         11    1    4    4    0    0 -0.14853732903E+03 -0.77903511259E+02  0.37143567312E+03  0.40754969568E+03  0.00000000000E+00 0. -1.
        -12    1    4    4    0    0 -0.87207154838E+01  0.16585574329E+02  0.32982935503E+02  0.37934235049E+02  0.00000000000E+00 0.  1.
        -11    1    3    3    0    0  0.11017785801E+03  0.11731789664E+01 -0.99251630004E+02  0.14829505319E+03  0.00000000000E+00 0. -1.
         11    1    3    3    0    0  0.26567514270E+02  0.50329075047E+02 -0.17548279538E+02  0.59554938706E+02  0.00000000000E+00 0.  1.
          2    1    1    2  501    0  0.20512672234E+02  0.98156829167E+01  0.28471128279E+02  0.36437926653E+02  0.00000000000E+00 0. -1.
<scales pt_clust_5="13000.00000" pt_clust_6="13000.00000" pt_clust_7="13000.00000" pt_clust_8="13000.00000" pt_clust_9="22.74021"></scales>
<clustering>
<clus scale="   22.740">  1  9  2 -1</clus>
<clus scale="   80.072">  5  6 -1 -1</clus>
<clus scale="   90.596">  7  8 -1 -1</clus>
<clus scale="  168.549">  1  5  2 -1</clus>
<clus scale="   22.740">  1  5  2 -1</clus>
</clustering>
</event>
<event>
 9    1  0.6345107E-005  0.1020898E+03  0.7546771E-02  0.1280239E+00
         -2   -1    0    0    0  501 -0.00000000000E+00  0.00000000000E+00  0.56336588924E+03  0.56336588924E+03  0.00000000000E+00 0.  1.
         21   -1    0    0  501  502  0.00000000000E+00 -0.00000000000E+00 -0.58638976431E+02  0.58638976431E+02  0.00000000000E+00 0.  1.
        -24    2    1    2    0    0  0.33766735809E+02 -0.33659535421E+02  0.36381002025E+03  0.37619730565E+03  0.83027255577E+02 0.  0.
         23    2    1    2    0    0 -0.56395924875E+01  0.17259001482E+02 -0.72997905173E+01  0.94056781290E+02  0.91998440364E+02 0.  0.
         11    1    3    3    0    0 -0.26582835698E+02 -0.45251462546E+00  0.11452785625E+03  0.11757330386E+03  0.00000000000E+00 0. -1.
        -12    1    3    3    0    0  0.60349571507E+02 -0.33207020796E+02  0.24928216400E+03  0.25862400179E+03  0.00000000000E+00 0.  1.
        -13    1    4    4    0    0 -0.42501247842E+00 -0.38071605038E+02 -0.53382908281E+01  0.38446392480E+02  0.00000000000E+00 0. -1.
         13    1    4    4    0    0 -0.52145800091E+01  0.55330606520E+02 -0.19614996892E+01  0.55610388810E+02  0.00000000000E+00 0.  1.
         -1    1    1    2    0  502 -0.28127143321E+02  0.16400533939E+02  0.14821668307E+03  0.15175077873E+03  0.00000000000E+00 0.  1.
<scales pt_clust_5="13000.00000" pt_clust_6="13000.00000" pt_clust_7="13000.00000" pt_clust_8="13000.00000" pt_clust_9="32.55940"></scales>
<clustering>
<clus scale="   32.559">  2  9  1 -1</clus>
<clus scale="   83.027">  5  6 -1 -1</clus>
<clus scale="   91.998">  7  8 -1 -1</clus>
<clus scale="   94.086">  1  5  2 -1</clus>
<clus scale="   32.559">  2  5  1 -1</clus>
</clustering>
</event>
<event>
 9    1  0.6345107E-005  0.9028362E+02  0.7546771E-02  0.1307628E+00
          1   -1    0    0  502    0 -0.00000000000E+00  0.00000000000E+00  0.20054682616E+03  0.20054682616E+03  0.00000000000E+00 0. -1.
         21   -1    0    0  501  502  0.00000000000E+00 -0.00000000000E+00 -0.17271776155E+03  0.17271776155E+03  0.00000000000E+00 0.  1.
         23    2    1    2    0    0  0.29005744693E+00  0.11114762885E+02  0.16187581879E+03  0.18515252938E+03  0.89185516409E+02 0.  0.
        -24    2    1    2    0    0 -0.46575984442E+01 -0.32252664216E+02 -0.47621126177E+02  0.99031895203E+02  0.80483644530E+02 0.  0.
         13    1    4    4    0    0  0.12190360849E+02  0.20566769396E+02  0.28255543232E+01  0.24074481474E+02  0.00000000000E+00 0. -1.
        -14    1    4    4    0    0 -0.16847959293E+02 -0.52819433612E+02 -0.50446680500E+02  0.74957413729E+02  0.00000000000E+00 0.  1.
        -11    1    3    3    0    0 -0.14797399857E+02  0.38327760533E+02  0.33359011038E+02  0.52922621699E+02  0.00000000000E+00 0.  1.
         11    1    3    3    0    0  0.15087457304E+02 -0.27212997648E+02  0.12851680775E+03  0.13222990768E+03  0.00000000000E+00 0. -1.
          2    1    1    2  501    0  0.43675409972E+01  0.21137901331E+02 -0.86425628008E+02  0.89080163132E+02  0.00000000000E+00 0. -1.
<scales pt_clust_5="13000.00000" pt_clust_6="13000.00000" pt_clust_7="13000.00000" pt_clust_8="13000.00000" pt_clust_9="21.58440"></scales>
<clustering>
<clus scale="   21.584">  2  9  1 -1</clus>
<clus scale="   80.484">  5  6 -1 -1</clus>
<clus scale="   81.699">  2  5  1 -1</clus>
<clus scale="   89.186">  7  8 -1 -1</clus>
<clus scale="   21.584">  2  5  1 -1</clus>
</clustering>
</event>
<event>
 9    1  0.6345107E-005  0.1223015E+03  0.7546771E-02  0.1242793E+00
          3   -1    0    0  502    0 -0.00000000000E+00  0.00000000000E+00  0.11135161537E+03  0.11135161537E+03  0.00000000000E+00 0. -1.
         21   -1    0    0  501  502  0.00000000000E+00 -0.00000000000E+00 -0.49881819259E+03  0.49881819259E+03  0.00000000000E+00 0. -1.
        -24    2    1    2    0    0  0.73648665579E+02 -0.31367639103E+02 -0.62530731526E+02  0.13028846641E+03  0.81590056812E+02 0.  0.
         23    2    1    2    0    0 -0.96920171092E+02 -0.52593829668E+02 -0.35860397247E+03  0.38647559243E+03  0.92773616866E+02 0.  0.
         13    1    3    3    0    0  0.61595653899E+02 -0.56476683748E+02 -0.33428965497E+02  0.90006311560E+02  0.00000000000E+00 0. -1.
        -14    1    3    3    0    0  0.12053011679E+02  0.25109044645E+02 -0.29101766029E+02  0.40282154852E+02  0.00000000000E+00 0.  1.
        -13    1    4    4    0    0 -0.10009050218E+03 -0.21285301277E+02 -0.19866532800E+03  0.22347054666E+03  0.00000000000E+00 0. -1.
         13    1    4    4    0    0  0.31703310861E+01 -0.31308528392E+02 -0.15993864447E+03  0.16300504576E+03  0.00000000000E+00 0.  1.
          4    1    1    2  501    0  0.23271505514E+02  0.83961468772E+02  0.33668126783E+02  0.93405749118E+02  0.00000000000E+00 0. -1.
<scales pt_clust_5="13000.00000" pt_clust_6="13000.00000" pt_clust_7="13000.00000" pt_clust_8="13000.00000" pt_clust_9="87.12691"></scales>
<clustering>
<clus scale="   81.590">  5  6 -1 -1</clus>
<clus scale="   87.127">  2  9  1 -1</clus>
<clus scale="   92.774">  7  8 -1 -1</clus>
<clus scale="  114.051">  1  5  2 -1</clus>
<clus scale="   87.127">  2  5  1 -1</clus>
</clustering>
</event>
<event>
 9    1  0.6345107E-005  0.1695555E+03  0.7546771E-02  0.1179922E+00
         21   -1    0    0  501  502  0.00000000000E+00  0.00000000000E+00  0.46635170417E+02  0.46635170417E+02  0.00000000000E+00 0. -1.
          1   -1    0    0  502    0 -0.00000000000E+00 -0.00000000000E+00 -0.75329822561E+03  0.75329822561E+03  0.00000000000E+00 0. -1.
        -24    2    1    2    0    0  0.10808591196E+02  0.14239070083E+03 -0.35244406766E+03  0.38884714582E+03  0.81199412891E+02 0.  0.
         23    2    1    2    0    0 -0.37711284370E+02 -0.13714561002E+03 -0.24241687088E+03  0.29597335273E+03  0.92753581727E+02 0.  0.
         13    1    3    3    0    0 -0.60153198240E+01  0.86138516174E+02 -0.29233397276E+03  0.30481991350E+03  0.00000000000E+00 0. -1.
        -14    1    3    3    0    0  0.16823911020E+02  0.56252184660E+02 -0.60110094909E+02  0.84027232318E+02  0.00000000000E+00 0.  1.
        -13    1    4    4    0    0  0.25802304036E+02 -0.80369850177E+02 -0.12793429832E+03  0.15327183824E+03  0.00000000000E+00 0.  1.
         13    1    4    4    0    0 -0.63513588406E+02 -0.56775759843E+02 -0.11448257256E+03  0.14270151449E+03  0.00000000000E+00 0. -1.
          2    1    1    2  501    0  0.26902693174E+02 -0.52450908143E+01 -0.11180211665E+03  0.11511289748E+03  0.00000000000E+00 0. -1.
<scales pt_clust_5="13000.00000" pt_clust_6="13000.00000" pt_clust_7="13000.00000" pt_clust_8="13000.00000" pt_clust_9="27.40924"></scales>
<clustering>
<clus scale="   27.409">  1  9  2 -1</clus>
<clus scale="   81.199">  5  6 -1 -1</clus>
<clus scale="   92.754">  7  8 -1 -1</clus>
<clus scale="  163.521">  2  5  1 -1</clus>
<clus scale="   27.409">  1  5  2 -1</clus>
</clustering>
</event>
<event>
 9    1  0.6345107E-005  0.1011236E+03  0.7546771E-02  0.1285813E+00
          3   -1    0    0  502    0 -0.00000000000E+00  0.00000000000E+00  0.82431779196E+02  0.82431779196E+02  0.00000000000E+00 0. -1.
         21   -1    0    0  501  502  0.00000000000E+00 -0.00000000000E+00 -0.38786107672E+03  0.38786107672E+03  0.00000000000E+00 0.  1.
         23    2    1    2    0    0  0.40564647182E+01 -0.33462386009E+02  0.37068499625E+02  0.10685540911E+03  0.94381240769E+02 0.  0.
        -24    2    1    2    0    0  0.74364795874E-01  0.55786630631E+02 -0.24785025547E+03  0.26610506372E+03  0.79183344923E+02 0.  0.
         11    1    4    4    0    0  0.33365652474E+02  0.26855808880E+02 -0.18112500397E+03  0.18612030598E+03  0.00000000000E+00 0. -1.
        -12    1    4    4    0    0 -0.33291287678E+02  0.28930821751E+02 -0.66725251496E+02  0.79984757733E+02  0.00000000000E+00 0.  1.
        -13    1    3    3    0    0  0.48708665418E+01  0.33169255585E+02  0.14132227401E+02  0.36381928320E+02  0.00000000000E+00 0.  1.
         13    1    3    3    0    0 -0.81440182357E+00 -0.66631641594E+02  0.22936272224E+02  0.70473480795E+02  0.00000000000E+00 0. -1.
          4    1    1    2  501    0 -0.41308295141E+01 -0.22324244621E+02 -0.94647541687E+02  0.97332383089E+02  0.00000000000E+00 0. -1.
<scales pt_clust_5="13000.00000" pt_clust_6="13000.00000" pt_clust_7="13000.00000" pt_clust_8="13000.00000" pt_clust_9="22.70321"></scales>
<clustering>
<clus scale="   22.703">  2  9  1 -1</clus>
<clus scale="   79.183">  5  6 -1 -1</clus>
<clus scale="   87.110">  2  5  1 -1</clus>
<clus scale="   94.381">  7  8 -1 -1</clus>
<clus scale="   22.703">  2  5  1 -1</clus>
</clustering>
</event>
<event>
 9    1  0.6345107E-005  0.1425301E+03  0.7546771E-02  0.1212793E+00
         21   -1    0    0  501  502  0.00000000000E+00  0.00000000000E+00  0.54941570181E+03  0.54941570181E+03  0.00000000000E+00 0.  1.
         -4   -1    0    0    0  501 -0.00000000000E+00 -0.00000000000E+00 -0.11606746215E+03  0.11606746215E+03  0.00000000000E+00 0.  1.
        -24    2    1    2    0    0  0.59483720983E+02  0.10219984494E+03 -0.47622611768E+02  0.15013071230E+03  0.79298147873E+02 0.  0.
         23    2    1    2    0    0 -0.54934003277E+02 -0.30497472891E+02  0.26319178435E+03  0.28602811335E+03  0.92705586161E+02 0.  0.
         13    1    3    3    0    0  0.34943401335E+02  0.43789583334E+02  0.18069553931E+02  0.58864910470E+02  0.00000000000E+00 0. -1.
        -14    1    3    3    0    0  0.24540319647E+02  0.58410261604E+02 -0.65692165698E+02  0.91265801827E+02  0.00000000000E+00 0.  1.
        -13    1    4    4    0    0 -0.30689456534E+02  0.32104141220E+02  0.92515293496E+02  0.10262357505E+03  0.00000000000E+00 0.  1.
         13    1    4    4    0    0 -0.24244546743E+02 -0.62601614111E+02  0.17067649086E+03  0.18340453830E+03  0.00000000000E+00 0. -1.
         -3    1    1    2    0  502 -0.45497177051E+01 -0.71702372047E+02  0.21777906707E+03  0.22932433831E+03  0.00000000000E+00 0.  1.
<scales pt_clust_5="13000.00000" pt_clust_6="13000.00000" pt_clust_7="13000.00000" pt_clust_8="13000.00000" pt_clust_9="71.84657"></scales>
<clustering>
<clus scale="   71.847">  1  9  2 -1</clus>
<clus scale="   79.298">  5  6 -1 -1</clus>
<clus scale="   92.706">  7  8 -1 -1</clus>
<clus scale="  134.197">  2  5  1 -1</clus>
<clus scale="   71.847">  1  5  2 -1</clus>
</clustering>
</event>
<event>
 9    1  0.6345107E-005  0.2528131E+03  0.7546771E-02  0.1149315E+00
         21   -1    0    0  501  502  0.00000000000E+00  0.00000000000E+00  0.84886556952E+02  0.84886556952E+02  0.00000000000E+00 0. -1.
          1   -1    0    0  502    0 -0.00000000000E+00 -0.00000000000E+00 -0.11591730561E+04  0.11591730561E+04  0.00000000000E+00 0. -1.
         23    2    1    2    0    0  0.75912675848E+01 -0.38107947327E+02 -0.13181183993E+03  0.16546431023E+03  0.92164167775E+02 0.  0.
        -24    2    1    2    0    0  0.23316482116E+03  0.54883579092E+02 -0.30050601698E+03  0.39276102713E+03  0.81112989804E+02 0.  0.
         13    1    4    4    0    0  0.18509688564E+03  0.41399806266E+02 -0.28130047478E+03  0.33927092145E+03  0.00000000000E+00 0. -1.
        -14    1    4    4    0    0  0.48067935517E+02  0.13483772826E+02 -0.19205542200E+02  0.53490105680E+02  0.00000000000E+00 0.  1.
        -11    1    3    3    0    0  0.40846375049E+02 -0.37408946139E+02 -0.11618883463E+03  0.12871558141E+03  0.00000000000E+00 0.  1.
         11    1    3    3    0    0 -0.33255107464E+02 -0.69900118826E+00 -0.15623005297E+02  0.36748728816E+02  0.00000000000E+00 0. -1.
          2    1    1    2  501    0 -0.24075608874E+03 -0.16775631764E+02 -0.64196864227E+03  0.68583427571E+03  0.00000000000E+00 0. -1.
<scales pt_clust_5="13000.00000" pt_clust_6="13000.00000" pt_clust_7="13000.00000" pt_clust_8="13000.00000" pt_clust_9="239.44770"></scales>
<clustering>
<clus scale="   81.113">  5  6 -1 -1</clus>
<clus scale="   92.164">  7  8 -1 -1</clus>
<clus scale="  100.020">  2  7  1 -1</clus>
<clus scale="  239.448">  1  9  2 -1</clus>
<clus scale="  239.448">  1  5  2 -1</clus>
</clustering>
</event>
<event>
 9    1  0.6345107E-005  0.1019621E+03  0.7546771E-02  0.1282006E+00
         -2   -1    0    0    0  501 -0.00000000000E+00  0.00000000000E+00  0.19990476260E+03  0.19990476260E+03  0.00000000000E+00 0.  1.
         21   -1    0    0  501  502  0.00000000000E+00 -0.00000000000E+00 -0.13543551133E+03  0.13543551133E+03  0.00000000000E+00 0.  1.
        -24    2    1    2    0    0  0.30962433648E+02 -0.42224637045E+02  0.13207571363E+03  0.16377393979E+03  0.81463592813E+02 0.  0.
         23    2    1    2    0    0  0.68664484456E+01 -0.87654422731E+01 -0.45460940758E+02  0.10432470540E+03  0.93236076331E+02 0.  0.
         13    1    3    3    0    0 -0.25396325003E+01 -0.25830008910E+02 -0.59357102680E+00  0.25961344728E+02  0.00000000000E+00 0. -1.
        -14    1    3    3    0    0  0.33502066148E+02 -0.16394628135E+02  0.13266928465E+03  0.13781259506E+03  0.00000000000E+00 0.  1.
        -11    1    4    4    0    0 -0.35426146755E+02 -0.30080267790E+02 -0.20584398772E+02  0.50828651930E+02  0.00000000000E+00 0.  1.
         11    1    4    4    0    0  0.42292595201E+02  0.21314825517E+02 -0.24876541985E+02  0.53496053469E+02  0.00000000000E+00 0. -1.
         -1    1    1    2    0  502 -0.37828882093E+02  0.50990079318E+02 -0.22145521591E+02  0.67241628741E+02  0.00000000000E+00 0.  1.
<scales pt_clust_5="13000.00000" pt_clust_6="13000.00000" pt_clust_7="13000.00000" pt_clust_8="13000.00000" pt_clust_9="63.49026"></scales>
<clustering>
<clus scale="   63.490">  2  9  1 -1</clus>
<clus scale="   81.464">  5  6 -1 -1</clus>
<clus scale="   91.322">  1  5  2 -1</clus>
<clus scale="   93.236">  7  8 -1 -1</clus>
<clus scale="   63.490">  2  5  1 -1</clus>
</clustering>
</event>
<event>
 9    1  0.6345107E-005  0.1554979E+03  0.7546771E-02  0.1195547E+00
         -2   -1    0    0    0  501 -0.00000000000E+00  0.00000000000E+00  0.24357464319E+03  0.24357464319E+03  0.00000000000E+00 0.  1.
         21   -1    0    0  501  502  0.00000000000E+00 -0.00000000000E+00 -0.15733662790E+03  0.15733662790E+03  0.00000000000E+00 0.  1.
        -24    2    1    2    0    0  0.11619951414E+03 -0.73453545933E+02  0.42191974935E+02  0.16520546550E+03  0.81332235837E+02 0.  0.
         23    2    1    2    0    0 -0.80782452095E+02  0.74351269613E+02 -0.36818956993E+02  0.14742034819E+03  0.91231615175E+02 0.  0.
         11    1    3    3    0    0  0.46616954974E+02  0.49813729933E+01  0.37867302179E+02  0.60265140357E+02  0.00000000000E+00 0. -1.
        -12    1    3    3    0    0  0.69582559164E+02 -0.78434918926E+02  0.43246727569E+01  0.10494032514E+03  0.00000000000E+00 0.  1.
        -13    1    4    4    0    0 -0.18920863219E+02  0.60249900171E+02 -0.52430771885E+02  0.82079445515E+02  0.00000000000E+00 0.  1.
         13    1    4    4    0    0 -0.61861588876E+02  0.14101369441E+02  0.15611814891E+02  0.65340902677E+02  0.00000000000E+00 0. -1.
         -1    1    1    2    0  502 -0.35417062044E+02 -0.89772367994E+00  0.80864997351E+02  0.88285457400E+02  0.00000000000E+00 0.  1.
<scales pt_clust_5="13000.00000" pt_clust_6="13000.00000" pt_clust_7="13000.00000" pt_clust_8="13000.00000" pt_clust_9="35.42846"></scales>
<clustering>
<clus scale="   35.428">  2  9  1 -1</clus>
<clus scale="   81.332">  5  6 -1 -1</clus>
<clus scale="   91.232">  7  8 -1 -1</clus>
<clus scale="  149.904">  1  5  2 -1</clus>
<clus scale="   35.428">  2  5  1 -1</clus>
</clustering>
</event>
<event>
 9    1  0.6345107E-005  0.9166104E+02  0.7546771E-02  0.1304424E+00
          3   -1    0    0  502    0 -0.00000000000E+00  0.00000000000E+00  0.19775624993E+03  0.19775624993E+03  0.00000000000E+00 0. -1.
         21   -1    0    0  501  502  0.00000000000E+00 -0.00000000000E+00 -0.97722140807E+02  0.97722140807E+02  0.00000000000E+00 0.  1.
         23    2    1    2    0    0 -0.69945509538E+01  0.22513615415E+02  0.47160940755E+02  0.10284854833E+03  0.88305622349E+02 0.  0.
        -24    2    1    2    0    0  0.53933250812E+02  0.13588295598E+02 -0.20033346027E+02  0.98704609568E+02  0.79043201330E+02 0.  0.
         13    1    4    4    0    0  0.35417261756E+02 -0.20037921086E+02  0.18153611184E+02  0.44558437032E+02  0.00000000000E+00 0. -1.
        -14    1    4    4    0    0  0.18515989056E+02  0.33626216684E+02 -0.38186957211E+02  0.54146172535E+02  0.00000000000E+00 0.  1.
        -11    1    3    3    0    0 -0.33275270672E+02 -0.15755489778E+02  0.20445034394E+00  0.36817399370E+02  0.00000000000E+00 0. -1.
         11    1    3    3    0    0  0.26280719718E+02  0.38269105193E+02  0.46956490411E+02  0.66031148959E+02  0.00000000000E+00 0.  1.
          4    1    1    2  501    0 -0.46938699858E+02 -0.36101911013E+02  0.72906514400E+02  0.93925232845E+02  0.00000000000E+00 0. -1.
<scales pt_clust_5="13000.00000" pt_clust_6="13000.00000" pt_clust_7="13000.00000" pt_clust_8="13000.00000" pt_clust_9="59.21649"></scales>
<clustering>
<clus scale="   59.216">  2  9  1 -1</clus>
<clus scale="   79.043">  5  6 -1 -1</clus>
<clus scale="   82.775">  2  5  1 -1</clus>
<clus scale="   88.306">  7  8 -1 -1</clus>
<clus scale="   59.216">  2  5  1 -1</clus>
</clustering>
</event>
<event>
 9    1  0.6345107E-005  0.1710960E+03  0.7546771E-02  0.1196462E+00
         21   -1    0    0  501  502  0.00000000000E+00  0.00000000000E+00  0.11450953769E+03  0.11450953769E+03  0.00000000000E+00 0. -1.
          1   -1    0    0  502    0 -0.00000000000E+00 -0.00000000000E+00 -0.74314670203E+03  0.74314670203E+03  0.00000000000E+00 0. -1.
         23    2    1    2    0    0 -0.21725901942E+02 -0.56672910352E+02  0.36189255216E+02  0.11608682022E+03  0.92101324920E+02 0.  0.
        -24    2    1    2    0    0  0.10313664508E+00  0.18257072383E+03 -0.37311264055E+03  0.42311262137E+03  0.80493279147E+02 0.  0.
         11    1    4    4    0    0 -0.40122448283E+02  0.85431644527E+02 -0.17798062035E+03  0.20145837775E+03  0.00000000000E+00 0. -1.
        -12    1    4    4    0    0  0.40225584928E+02  0.97139079300E+02 -0.19513202019E+03  0.22165424362E+03  0.00000000000E+00 0.  1.
        -11    1    3    3    0    0 -0.23060234322E+02  0.20389659784E+02  0.21702327608E+02  0.37663027715E+02  0.00000000000E+00 0.  1.
         11    1    3    3    0    0  0.13343323795E+01 -0.77062570136E+02  0.14486927608E+02  0.78423792502E+02  0.00000000000E+00 0. -1.
          2    1    1    2  501    0  0.21622765297E+02 -0.12589781348E+03 -0.29171377901E+03  0.31845679814E+03  0.00000000000E+00 0. -1.
<scales pt_clust_5="13000.00000" pt_clust_6="13000.00000" pt_clust_7="13000.00000" pt_clust_8="13000.00000" pt_clust_9="150.97906"></scales>
<clustering>
<clus scale="   80.493">  5  6 -1 -1</clus>
<clus scale="   92.101">  7  8 -1 -1</clus>
<clus scale="  110.302">  2  7  1 -1</clus>
<clus scale="  150.979">  1  9  2 -1</clus>
<clus scale="  150.979">  1  5  2 -1</clus>
</clustering>
</event>
<event>
 9    1  0.6345107E-005  0.1045905E+03  0.7546771E-02  0.1282145E+00
          1   -1    0    0  502    0 -0.00000000000E+00  0.00000000000E+00  0.28077770440E+03  0.28077770440E+03  0.00000000000E+00 0. -1.
         21   -1    0    0  501  502  0.00000000000E+00 -0.00000000000E+00 -0.13046377374E+03  0.13046377374E+03  0.00000000000E+00 0.  1.
         23    2    1    2    0    0 -0.53687567684E+02 -0.32352714297E+01  0.20382251107E+03  0.23218023297E+03  0.97320206827E+02 0.  0.
        -24    2    1    2    0    0  0.10680107519E+02  0.41573292253E+01  0.32644379507E+02  0.82765739963E+02  0.75187526328E+02 0.  0.
         11    1    4    4    0    0  0.59621384422E+00 -0.35057325620E+02  0.10424805540E+02  0.36579340086E+02  0.00000000000E+00 0. -1.
        -12    1    4    4    0    0  0.10083893675E+02  0.39214654845E+02  0.22219573967E+02  0.46186399876E+02  0.00000000000E+00 0.  1.
        -11    1    3    3    0    0 -0.22070451109E+01 -0.44239353061E+02  0.98249102317E+02  0.10777234113E+03  0.00000000000E+00 0. -1.
         11    1    3    3    0    0 -0.51480522573E+02  0.41004081631E+02  0.10557340875E+03  0.12440789184E+03  0.00000000000E+00 0.  1.
          2    1    1    2  501    0  0.43007460165E+02 -0.92205779552E+00 -0.86152959921E+02  0.96295505209E+02  0.00000000000E+00 0. -1.
<scales pt_clust_5="13000.00000" pt_clust_6="13000.00000" pt_clust_7="13000.00000" pt_clust_8="13000.00000" pt_clust_9="43.01734"></scales>
<clustering>
<clus scale="   43.017">  2  9  1 -1</clus>
<clus scale="   75.188">  5  6 -1 -1</clus>
<clus scale="   84.387">  2  5  1 -1</clus>
<clus scale="   97.320">  7  8 -1 -1</clus>
<clus scale="   43.017">  2  5  1 -1</clus>
</clustering>
</event>
<event>
 9    1  0.6345107E-005  0.1557501E+03  0.7546771E-02  0.1195524E+00
          3   -1    0    0  502    0 -0.00000000000E+00  0.00000000000E+00  0.40897403113E+03  0.40897403113E+03  0.00000000000E+00 0. -1.
         21   -1    0    0  501  502  0.00000000000E+00 -0.00000000000E+00 -0.43961346533E+03  0.43961346533E+03  0.00000000000E+00 0. -1.
         23    2    1    2    0    0  0.13707372900E+03 -0.73777044815E+02  0.23616317974E+03  0.29712817284E+03  0.90993648742E+02 0.  0.
        -24    2    1    2    0    0 -0.10899683396E+03 -0.42004475753E+02  0.95229469753E+02  0.17032824097E+03  0.79362283012E+02 0.  0.
         13    1    4    4    0    0 -0.43913163012E+02 -0.51262307995E+02  0.19951531887E+02  0.70386459858E+02  0.00000000000E+00 0. -1.
        -14    1    4    4    0    0 -0.65083670950E+02  0.92578322425E+01  0.75277937865E+02  0.99941781110E+02  0.00000000000E+00 0.  1.
        -11    1    3    3    0    0  0.23739834863E+02  0.13811036605E+01 -0.93565916549E+00  0.23798375254E+02  0.00000000000E+00 0.  1.
         11    1    3    3    0    0  0.11333389413E+03 -0.75158148475E+02  0.23709883890E+03  0.27332979759E+03  0.00000000000E+00 0. -1.
          4    1    1    2  501    0 -0.28076895033E+02  0.11578152057E+03 -0.36203208369E+03  0.38113108265E+03  0.00000000000E+00 0. -1.
<scales pt_clust_5="13000.00000" pt_clust_6="13000.00000" pt_clust_7="13000.00000" pt_clust_8="13000.00000" pt_clust_9="119.13720"></scales>
<clustering>
<clus scale="   79.362">  5  6 -1 -1</clus>
<clus scale="   90.994">  7  8 -1 -1</clus>
<clus scale="  119.137">  2  9  1 -1</clus>
<clus scale="  149.254">  2  5  1 -1</clus>
<clus scale="  119.137">  2  5  1 -1</clus>
</clustering>
</event>
<event>
 9    1  0.6345107E-005  0.1671565E+03  0.7546771E-02  0.1182982E+00
         21   -1    0    0  501  502  0.00000000000E+00  0.00000000000E+00  0.65096106008E+02  0.65096106008E+02  0.00000000000E+00 0. -1.
          1   -1    0    0  502    0 -0.00000000000E+00 -0.00000000000E+00 -0.63204937286E+03  0.63204937286E+03  0.00000000000E+00 0. -1.
        -24    2    1    2    0    0 -0.21112027085E+02 -0.14443633302E+03 -0.36822979903E+03  0.40420132039E+03  0.80485716290E+02 0.  0.
         23    2    1    2    0    0  0.35354904795E+02  0.11233730826E+03 -0.84224425211E+02  0.17318090153E+03  0.95017002336E+02 0.  0.
         13    1    3    3    0    0  0.13763045057E+01 -0.10812460114E+03 -0.17040671972E+03  0.20181990415E+03  0.00000000000E+00 0. -1.
        -14    1    3    3    0    0 -0.22488331590E+02 -0.36311731872E+02 -0.19782307931E+03  0.20238141623E+03  0.00000000000E+00 0.  1.
        -13    1    4    4    0    0 -0.19803512464E+02  0.13827194412E+02  0.99856831523E+01  0.26135881069E+02  0.00000000000E+00 0.  1.
         13    1    4    4    0    0  0.55158417259E+02  0.98510113852E+02 -0.94210108363E+02  0.14704502046E+03  0.00000000000E+00 0. -1.
          2    1    1    2  501    0 -0.14242877710E+02  0.32099024753E+02 -0.11449904261E+03  0.11976325694E+03  0.00000000000E+00 0. -1.
<scales pt_clust_5="13000.00000" pt_clust_6="13000.00000" pt_clust_7="13000.00000" pt_clust_8="13000.00000" pt_clust_9="35.11706"></scales>
<clustering>
<clus scale="   35.117">  1  9  2 -1</clus>
<clus scale="   80.486">  5  6 -1 -1</clus>
<clus scale="   95.017">  7  8 -1 -1</clus>
<clus scale="  159.346">  2  5  1 -1</clus>
<clus scale="   35.117">  1  5  2 -1</clus>
</clustering>
</event>
<event>
 9    1  0.6345107E-005  0.2773268E+03  0.7546771E-02  0.1113403E+00
          3   -1    0    0  502    0 -0.00000000000E+00  0.00000000000E+00  0.21849118090E+03  0.21849118090E+03  0.00000000000E+00 0. -1.
         21   -1    0    0  501  502  0.00000000000E+00 -0.00000000000E+00 -0.17657650887E+04  0.17657650887E+04  0.00000000000E+00 0. -1.
        -24    2    1    2    0    0  0.23452311463E+02 -0.16081469915E+03  0.11424156577E+03  0.21546420660E+03  0.83440461424E+02 0.  0.
         23    2    1    2    0    0 -0.87384480754E+02 -0.13226726690E+03 -0.19393101236E+03  0.27086398999E+03  0.10308921452E+03 0.  0.
         13    1    3    3    0    0  0.29378305788E+02 -0.12913113078E+03  0.12437232602E+03  0.18167666132E+03  0.00000000000E+00 0. -1.
        -14    1    3    3    0    0 -0.59259943252E+01 -0.31683568363E+02 -0.10130760250E+02  0.33787545283E+02  0.00000000000E+00 0.  1.
        -11    1    4    4    0    0 -0.10876944912E+03 -0.10695829469E+03 -0.17696258448E+03  0.23363780981E+03  0.00000000000E+00 0. -1.
         11    1    4    4    0    0  0.21384968370E+02 -0.25308972214E+02 -0.16968427875E+02  0.37226180187E+02  0.00000000000E+00 0.  1.
          4    1    1    2  501    0  0.63932169291E+02  0.29308196605E+03 -0.14675844612E+04  0.14979280730E+04  0.00000000000E+00 0. -1.
<scales pt_clust_5="13000.00000" pt_clust_6="13000.00000" pt_clust_7="13000.00000" pt_clust_8="13000.00000" pt_clust_9="257.45437"></scales>
<clustering>
<clus scale="   83.440">  5  6 -1 -1</clus>
<clus scale="  103.089">  7  8 -1 -1</clus>
<clus scale="  182.685">  1  5  2 -1</clus>
<clus scale="  257.454">  2  9  1 -1</clus>
<clus scale="  257.454">  2  5  1 -1</clus>
</clustering>
</event>
<event>
 9    1  0.7671019E-005  0.2350330E+03  0.7546771E-02  0.1167094E+00
         21   -1    0    0  501  502  0.00000000000E+00  0.00000000000E+00  0.59884772284E+03  0.59884772284E+03  0.00000000000E+00 0. -1.
         -4   -1    0    0    0  501 -0.00000000000E+00 -0.00000000000E+00 -0.34633683045E+03  0.34633683045E+03  0.00000000000E+00 0.  1.
        -24    2    1    2    0    0  0.24890734757E+02 -0.70912916791E+01 -0.10677050618E+03  0.13473652834E+03  0.78000999886E+02 0.  0.
         23    2    1    2    0    0  0.16031549917E+03 -0.13951777358E+03  0.48863086195E+03  0.54113992856E+03  0.94371789285E+02 0.  0.
         13    1    3    3    0    0  0.34302259756E+02 -0.25714946211E+02 -0.10544612002E+03  0.11382788635E+03  0.00000000000E+00 0. -1.
        -14    1    3    3    0    0 -0.94115249993E+01  0.18623654532E+02 -0.13243861580E+01  0.20908641985E+02  0.00000000000E+00 0.  1.
        -13    1    4    4    0    0 -0.92228062519E+01 -0.27813183411E+02  0.54447535349E+02  0.61831767177E+02  0.00000000000E+00 0.  1.
         13    1    4    4    0    0  0.16953830542E+03 -0.11170459017E+03  0.43418332660E+03  0.47930816139E+03  0.00000000000E+00 0. -1.
         -3    1    1    2    0  502 -0.18520623393E+03  0.14660906526E+03 -0.12934946339E+03  0.26930809639E+03  0.00000000000E+00 0.  1.
<scales pt_clust_5="13000.00000" pt_clust_6="13000.00000" pt_clust_7="13000.00000" pt_clust_8="13000.00000" pt_clust_9="215.25455"></scales>
<clustering>
<clus scale="   78.001">  5  6 -1 -1</clus>
<clus scale="   82.183">  2  5  1 -1</clus>
<clus scale="   94.372">  7  8 -1 -1</clus>
<clus scale="  215.255">  1  9  2 -1</clus>
<clus scale="  215.255">  1  5  2 -1</clus>
</clustering>
</event>
<event>
 9    1  0.6345107E-005  0.1445721E+03  0.7546771E-02  0.1226925E+00
         21   -1    0    0  501  502  0.00000000000E+00  0.00000000000E+00  0.26387611272E+03  0.26387611272E+03  0.00000000000E+00 0. -1.
         -2   -1    0    0    0  501 -0.00000000000E+00 -0.00000000000E+00 -0.23739547826E+03  0.23739547826E+03  0.00000000000E+00 0.  1.
         23    2    1    2    0    0  0.92324997956E+01  0.27577234658E+02  0.19929225746E+02  0.97620660466E+02  0.91032282115E+02 0.  0.
        -24    2    1    2    0    0  0.21205134750E+02 -0.12190137629E+03  0.16207285404E+03  0.21923180665E+03  0.80531805824E+02 0.  0.
         13    1    4    4    0    0 -0.15625583170E+02 -0.52257443953E+02  0.11545241044E+03  0.12768812934E+03  0.00000000000E+00 0. -1.
        -14    1    4    4    0    0  0.36830717920E+02 -0.69643932340E+02  0.46620443598E+02  0.91543677311E+02  0.00000000000E+00 0.  1.
        -13    1    3    3    0    0  0.28806949371E+02 -0.15307196129E+02 -0.17871600152E+02  0.37196030399E+02  0.00000000000E+00 0.  1.
         13    1    3    3    0    0 -0.19574449576E+02  0.42884430787E+02  0.37800825898E+02  0.60424630067E+02  0.00000000000E+00 0. -1.
         -1    1    1    2    0  502 -0.30437634546E+02  0.94324141635E+02 -0.15552144532E+03  0.18441912386E+03  0.00000000000E+00 0.  1.
<scales pt_clust_5="13000.00000" pt_clust_6="13000.00000" pt_clust_7="13000.00000" pt_clust_8="13000.00000" pt_clust_9="120.06551"></scales>
<clustering>
<clus scale="   80.532">  5  6 -1 -1</clus>
<clus scale="   91.032">  7  8 -1 -1</clus>
<clus scale="   95.565">  2  7  1 -1</clus>
<clus scale="  120.066">  1  9  2 -1</clus>
<clus scale="  120.066">  1  5  2 -1</clus>
</clustering>
</event>
<event>
 9    1  0.6345107E-005  0.9134605E+02  0.7546771E-02  0.1306407E+00
          1   -1    0    0  502    0 -0.00000000000E+00  0.00000000000E+00  0.24195003639E+03  0.24195003639E+03  0.00000000000E+00 0. -1.
         21   -1    0    0  501  502  0.00000000000E+00 -0.00000000000E+00 -0.10770634616E+03  0.10770634616E+03  0.00000000000E+00 0. -1.
         23    2    1    2    0    0  0.24326528012E+02  0.10047376690E+02  0.16042285423E+03  0.18597767447E+03  0.90329804042E+02 0.  0.
        -24    2    1    2    0    0  0.16146141985E+02  0.32434907167E+02  0.19256949178E+02  0.89468049568E+02  0.79504595452E+02 0.  0.
         13    1    4    4    0    0  0.19456573665E+02  0.41535908285E+02  0.43591512796E+02  0.63277246493E+02  0.00000000000E+00 0. -1.
        -14    1    4    4    0    0 -0.33104316797E+01 -0.91010011182E+01 -0.24334563618E+02  0.26190803075E+02  0.00000000000E+00 0.  1.
        -11    1    3    3    0    0  0.18111870029E+02 -0.36564944563E+02  0.41991123102E+02  0.58551596273E+02  0.00000000000E+00 0.  1.
         11    1    3    3    0    0  0.62146579836E+01  0.46612321253E+02  0.11843173112E+03  0.12742607819E+03  0.00000000000E+00 0. -1.
          2    1    1    2  501    0 -0.40472669998E+02 -0.42482283857E+02 -0.45436113174E+02  0.74210658525E+02  0.00000000000E+00 0. -1.
<scales pt_clust_5="13000.00000" pt_clust_6="13000.00000" pt_clust_7="13000.00000" pt_clust_8="13000.00000" pt_clust_9="58.67522"></scales>
<clustering>
<clus scale="   58.675">  2  9  1 -1</clus>
<clus scale="   79.505">  5  6 -1 -1</clus>
<clus scale="   80.657">  2  5  1 -1</clus>
<clus scale="   90.330">  7  8 -1 -1</clus>
<clus scale="   58.675">  2  5  1 -1</clus>
</clustering>
</event>
<event>
 9    1  0.6345107E-005  0.1136404E+03  0.7546771E-02  0.1257932E+00
          1   -1    0    0  502    0 -0.00000000000E+00  0.00000000000E+00  0.65327472867E+03  0.65327472867E+03  0.00000000000E+00 0. -1.
         21   -1    0    0  501  502  0.00000000000E+00 -0.00000000000E+00 -0.26294303011E+02  0.26294303011E+02  0.00000000000E+00 0. -1.
         23    2    1    2    0    0  0.82760199089E+02  0.22481568049E+02  0.37346763870E+03  0.39391558737E+03  0.91305757531E+02 0.  0.
        -24    2    1    2    0    0 -0.45602893961E+02 -0.14701280154E+02  0.18489704026E+03  0.20723585127E+03  0.80399197624E+02 0.  0.
         11    1    4    4    0    0 -0.55246048898E+02  0.18709950667E+02  0.10533900243E+03  0.12040969066E+03  0.00000000000E+00 0. -1.
        -12    1    4    4    0    0  0.96431549376E+01 -0.33411230821E+02  0.79558037834E+02  0.86826160609E+02  0.00000000000E+00 0.  1.
        -11    1    3    3    0    0 -0.10813418299E+02 -0.19733560837E+02  0.61071974063E+02  0.65085554884E+02  0.00000000000E+00 0.  1.
         11    1    3    3    0    0  0.93573617388E+02  0.42215128886E+02  0.31239566464E+03  0.32883003248E+03  0.00000000000E+00 0. -1.
          2    1    1    2  501    0 -0.37157305128E+02 -0.77802878951E+01  0.68615746693E+02  0.78417593041E+02  0.00000000000E+00 0. -1.
<scales pt_clust_5="13000.00000" pt_clust_6="13000.00000" pt_clust_7="13000.00000" pt_clust_8="13000.00000" pt_clust_9="37.96312"></scales>
<clustering>
<clus scale="   37.963">  2  9  1 -1</clus>
<clus scale="   80.399">  5  6 -1 -1</clus>
<clus scale="   91.306">  7  8 -1 -1</clus>
<clus scale="  105.078">  2  5  1 -1</clus>
<clus scale="   37.963">  2  5  1 -1</clus>
</clustering>
</event>
<event>
 9    1  0.6345107E-005  0.1407227E+03  0.7546771E-02  0.1226689E+00
         21   -1    0    0  501  502  0.00000000000E+00  0.00000000000E+00  0.78618747894E+02  0.78618747894E+02  0.00000000000E+00 0. -1.
          1   -1    0    0  502    0 -0.00000000000E+00 -0.00000000000E+00 -0.60841327389E+03  0.60841327389E+03  0.00000000000E+00 0. -1.
        -24    2    1    2    0    0 -0.51110621497E+02 -0.44718175679E+02 -0.28666685640E+03  0.30499483932E+03  0.78942729782E+02 0.  0.
         23    2    1    2    0    0 -0.39089554889E+02  0.10757401037E+03 -0.22835650650E+03  0.27110875945E+03  0.90846598075E+02 0.  0.
         13    1    3    3    0    0 -0.68237521176E+02 -0.45958141139E+02 -0.26422511260E+03  0.27673709575E+03  0.00000000000E+00 0. -1.
        -14    1    3    3    0    0  0.17126899679E+02  0.12399654598E+01 -0.22441743802E+02  0.28257743573E+02  0.00000000000E+00 0.  1.
        -11    1    4    4    0    0  0.18042958738E+01  0.10189387581E+03 -0.18517701768E+03  0.21136732313E+03  0.00000000000E+00 0.  1.
         11    1    4    4    0    0 -0.40893850763E+02  0.56801345606E+01 -0.43179488822E+02  0.59741436322E+02  0.00000000000E+00 0. -1.
          2    1    1    2  501    0  0.90200176386E+02 -0.62855834687E+02 -0.14771163096E+02  0.11092842302E+03  0.00000000000E+00 0. -1.
<scales pt_clust_5="13000.00000" pt_clust_6="13000.00000" pt_clust_7="13000.00000" pt_clust_8="13000.00000" pt_clust_9="107.46994"></scales>
<clustering>
<clus scale="   78.943">  5  6 -1 -1</clus>
<clus scale="   90.847">  7  8 -1 -1</clus>
<clus scale="  104.134">  2  5  1 -1</clus>
<clus scale="  107.470">  1  9  2 -1</clus>
<clus scale="  107.470">  1  5  2 -1</clus>
</clustering>
</event>
<event>
 9    1  0.6345107E-005  0.9501371E+02  0.7546771E-02  0.1296778E+00
         21   -1    0    0  501  502  0.00000000000E+00  0.00000000000E+00  0.10023885578E+03  0.10023885578E+03  0.00000000000E+00 0. -1.
          3   -1    0    0  502    0 -0.00000000000E+00 -0.00000000000E+00 -0.26739920729E+03  0.26739920729E+03  0.00000000000E+00 0. -1.
         23    2    1    2    0    0  0.13660436868E+01  0.69382671473E+01 -0.18405144694E+02  0.93092951500E+02  0.90981001541E+02 0.  0.
        -24    2    1    2    0    0 -0.58825893229E+02 -0.22908958251E+02  0.11663763158E+02  0.10339914109E+03  0.81055739614E+02 0.  0.
         11    1    4    4    0    0 -0.79216806420E+02 -0.22005880179E+02  0.11261891614E+02  0.82984283961E+02  0.00000000000E+00 0. -1.
        -12    1    4    4    0    0  0.20390913191E+02 -0.90307807190E+00  0.40187154423E+00  0.20414857127E+02  0.00000000000E+00 0.  1.
        -11    1    3    3    0    0  0.18341225873E+01  0.44544703287E+02  0.10328725776E+02  0.45763273187E+02  0.00000000000E+00 0. -1.
         11    1    3    3    0    0 -0.46807890054E+00 -0.37606436140E+02 -0.28733870470E+02  0.47329678313E+02  0.00000000000E+00 0.  1.
          4    1    1    2  501    0  0.57459849542E+02  0.15970691104E+02 -0.16041896998E+03  0.17114597048E+03  0.00000000000E+00 0. -1.
<scales pt_clust_5="13000.00000" pt_clust_6="13000.00000" pt_clust_7="13000.00000" pt_clust_8="13000.00000" pt_clust_9="59.63808"></scales>
<clustering>
<clus scale="   59.638">  1  9  2 -1</clus>
<clus scale="   81.056">  5  6 -1 -1</clus>
<clus scale="   85.558">  1  5  2 -1</clus>
<clus scale="   90.981">  7  8 -1 -1</clus>
<clus scale="   59.638">  1  5  2 -1</clus>
</clustering>
</event>
<event>
 9    1  0.6345107E-005  0.2994557E+03  0.7546771E-02  0.1107752E+00
          1   -1    0    0  502    0 -0.00000000000E+00  0.00000000000E+00  0.38153073424E+03  0.38153073424E+03  0.00000000000E+00 0. -1.
         21   -1    0    0  501  502  0.00000000000E+00 -0.00000000000E+00 -0.42926733117E+03  0.42926733117E+03  0.00000000000E+00 0. -1.
         23    2    1    2    0    0 -0.15756238464E+02 -0.13165530677E+03  0.85299044424E+01  0.16776257710E+03  0.10242140476E+03 0.  0.
        -24    2    1    2    0    0 -0.20822110964E+03  0.23882588895E+03 -0.17206431478E+03  0.36906373842E+03  0.78791362882E+02 0.  0.
         13    1    4    4    0    0 -0.14325491269E+03  0.10629765906E+03 -0.83773801606E+02  0.19707666571E+03  0.00000000000E+00 0. -1.
        -14    1    4    4    0    0 -0.64966196949E+02  0.13252822989E+03 -0.88290513171E+02  0.17198707271E+03  0.00000000000E+00 0.  1.
        -11    1    3    3    0    0 -0.59489917620E+02 -0.81095637065E+02  0.82260358602E+01  0.10091194337E+03  0.00000000000E+00 0.  1.
         11    1    3    3    0    0  0.43733679156E+02 -0.50559669710E+02  0.30386858218E+00  0.66850633728E+02  0.00000000000E+00 0. -1.
          2    1    1    2  501    0  0.22397734810E+03 -0.10717058217E+03  0.11579781341E+03  0.27397174989E+03  0.00000000000E+00 0. -1.
<scales pt_clust_5="13000.00000" pt_clust_6="13000.00000" pt_clust_7="13000.00000" pt_clust_8="13000.00000" pt_clust_9="288.90437"></scales>
<clustering>
<clus scale="   78.791">  5  6 -1 -1</clus>
<clus scale="  102.421">  7  8 -1 -1</clus>
<clus scale="  167.546">  1  7  2 -1</clus>
<clus scale="  288.904">  2  9  1 -1</clus>
<clus scale="  288.904">  2  5  1 -1</clus>
</clustering>
</event>
<event>
 9    1  0.6345107E-005  0.1772493E+03  0.7546771E-02  0.1171313E+00
          1   -1    0    0  502    0 -0.00000000000E+00  0.00000000000E+00  0.11814199704E+04  0.11814199704E+04  0.00000000000E+00 0. -1.
         21   -1    0    0  501  502  0.00000000000E+00 -0.00000000000E+00 -0.66818635935E+02  0.66818635935E+02  0.00000000000E+00 0. -1.
        -24    2    1    2    0    0 -0.80585310927E+02 -0.13792325093E+03  0.62333601965E+03  0.64895329918E+03  0.84117629792E+02 0.  0.
         23    2    1    2    0    0  0.25201889578E+02  0.12513198679E+03  0.65512404666E+02  0.16975477238E+03  0.90728486300E+02 0.  0.
         11    1    3    3    0    0 -0.41900898670E+02 -0.88562808689E+02  0.22079443615E+03  0.24155587227E+03  0.00000000000E+00 0. -1.
        -12    1    3    3    0    0 -0.38684412257E+02 -0.49360442244E+02  0.40254158350E+03  0.40739742691E+03  0.00000000000E+00 0.  1.
        -13    1    4    4    0    0  0.52723318547E+02  0.10510783750E+03  0.67634711799E+02  0.13565345577E+03  0.00000000000E+00 0. -1.
         13    1    4    4    0    0 -0.27521428969E+02  0.20024149290E+02 -0.21223071325E+01  0.34101316615E+02  0.00000000000E+00 0.  1.
          2    1    1    2  501    0  0.55383421349E+02  0.12791264147E+02  0.42575291020E+03  0.42953053482E+03  0.00000000000E+00 0. -1.
<scales pt_clust_5="13000.00000" pt_clust_6="13000.00000" pt_clust_7="13000.00000" pt_clust_8="13000.00000" pt_clust_9="56.84138"></scales>
<clustering>
<clus scale="   56.841">  2  9  1 -1</clus>
<clus scale="   84.118">  5  6 -1 -1</clus>
<clus scale="   90.728">  7  8 -1 -1</clus>
<clus scale="  173.958">  1  5  2 -1</clus>
<clus scale="   56.841">  2  5  1 -1</clus>
</clustering>
</event>
<event>
 9    1  0.6345107E-005  0.2292769E+03  0.7546771E-02  0.1127889E+00
         21   -1    0    0  501  502  0.00000000000E+00  0.00000000000E+00  0.53031745763E+03  0.53031745763E+03  0.00000000000E+00 0.  1.
          3   -1    0    0  502    0 -0.00000000000E+00 -0.00000000000E+00 -0.19395137744E+03  0.19395137744E+03  0.00000000000E+00 0. -1.
         23    2    1    2    0    0  0.10961668209E+03  0.19380641704E+03  0.12414839044E+03  0.27065030083E+03  0.90895644635E+02 0.  0.
        -24    2    1    2    0    0 -0.18399689957E+02 -0.20216305047E+03  0.26862472520E+03  0.34604471482E+03  0.79870232860E+02 0.  0.
         11    1    4    4    0    0 -0.38638903161E+02 -0.47523560000E+02  0.61807506044E+02  0.87015064189E+02  0.00000000000E+00 0. -1.
        -12    1    4    4    0    0  0.20239213203E+02 -0.15463949047E+03  0.20681721916E+03  0.25902965063E+03  0.00000000000E+00 0.  1.
        -11    1    3    3    0    0  0.15397674196E+02  0.36447755180E+02 -0.12984563934E+02  0.41642840067E+02  0.00000000000E+00 0.  1.
         11    1    3    3    0    0  0.94219007894E+02  0.15735866186E+03  0.13713295437E+03  0.22900746076E+03  0.00000000000E+00 0. -1.
          4    1    1    2  501    0 -0.91216992132E+02  0.83566334311E+01 -0.56407035453E+02  0.10757381942E+03  0.00000000000E+00 0. -1.
<scales pt_clust_5="13000.00000" pt_clust_6="13000.00000" pt_clust_7="13000.00000" pt_clust_8="13000.00000" pt_clust_9="91.59902"></scales>
<clustering>
<clus scale="   79.870">  5  6 -1 -1</clus>
<clus scale="   90.896">  7  8 -1 -1</clus>
<clus scale="   91.599">  1  9  2 -1</clus>
<clus scale="  225.134">  1  5  2 -1</clus>
<clus scale="   91.599">  1  5  2 -1</clus>
</clustering>
</event>
<event>
 9    1  0.6345107E-005  0.1543850E+03  0.7546771E-02  0.1197488E+00
         -2   -1    0    0    0  501 -0.00000000000E+00  0.00000000000E+00  0.11324140010E+04  0.11324140010E+04  0.00000000000E+00 0.  1.
         21   -1    0    0  501  502  0.00000000000E+00 -0.00000000000E+00 -0.71885219731E+02  0.71885219731E+02  0.00000000000E+00 0. -1.
         23    2    1    2    0    0  0.11726195871E+02  0.13488923758E+03  0.60631783185E+03  0.62830376773E+03  0.93870662334E+02 0.  0.
        -24    2    1    2    0    0 -0.11586574182E+03 -0.45910258866E+02  0.62723309831E+02  0.16123663677E+03  0.80810998289E+02 0.  0.
         11    1    4    4    0    0 -0.10191270950E+03 -0.47470205898E+02  0.17370160915E+02  0.11376002503E+03  0.00000000000E+00 0. -1.
        -12    1    4    4    0    0 -0.13953032326E+02  0.15599470323E+01  0.45353148916E+02  0.47476611742E+02  0.00000000000E+00 0.  1.
        -13    1    3    3    0    0  0.38469242652E+02  0.17850317462E+02  0.11622591388E+03  0.12372137860E+03  0.00000000000E+00 0. -1.
         13    1    3    3    0    0 -0.26743046781E+02  0.11703892012E+03  0.49009191796E+03  0.50458238914E+03  0.00000000000E+00 0.  1.
         -1    1    1    2    0  502  0.10413954595E+03 -0.88978978717E+02  0.39148763960E+03  0.41475881624E+03  0.00000000000E+00 0.  1.
<scales pt_clust_5="13000.00000" pt_clust_6="13000.00000" pt_clust_7="13000.00000" pt_clust_8="13000.00000" pt_clust_9="136.97563"></scales>
<clustering>
<clus scale="   80.811">  5  6 -1 -1</clus>
<clus scale="   93.871">  7  8 -1 -1</clus>
<clus scale="  136.976">  2  9  1 -1</clus>
<clus scale="  146.811">  2  5  1 -1</clus>
<clus scale="  136.976">  2  5  1 -1</clus>
</clustering>
</event>
<event>
 9    1  0.6345107E-005  0.1015694E+03  0.7546771E-02  0.1282722E+00
         21   -1    0    0  501  502  0.00000000000E+00  0.00000000000E+00  0.15073149893E+02  0.15073149893E+02  0.00000000000E+00 0. -1.
         -4   -1    0    0    0  501 -0.00000000000E+00 -0.00000000000E+00 -0.13167975106E+04  0.13167975106E+04  0.00000000000E+00 0.  1.
        -24    2    1    2    0    0 -0.18893811895E+02  0.42677808629E+02 -0.10050938529E+04  0.10093836197E+04  0.80394446874E+02 0.  0.
         23    2    1    2    0    0  0.19090557493E+01 -0.30163961532E+02 -0.27779492803E+03  0.29420529094E+03  0.92050106513E+02 0.  0.
         11    1    3    3    0    0  0.22237282085E+02  0.35983896154E+01 -0.99670748202E+02  0.10218465232E+03  0.00000000000E+00 0. -1.
        -12    1    3    3    0    0 -0.41131093981E+02  0.39079419014E+02 -0.90542310467E+03  0.90719896735E+03  0.00000000000E+00 0.  1.
        -11    1    4    4    0    0 -0.44275644613E+02 -0.59829499799E+01 -0.13399197134E+03  0.14124438672E+03  0.00000000000E+00 0.  1.
         11    1    4    4    0    0  0.46184700362E+02 -0.24181011552E+02 -0.14380295670E+03  0.15296090423E+03  0.00000000000E+00 0. -1.
         -3    1    1    2    0  502  0.16984756146E+02 -0.12513847097E+02 -0.18835579823E+02  0.28281749907E+02  0.00000000000E+00 0.  1.
<scales pt_clust_5="13000.00000" pt_clust_6="13000.00000" pt_clust_7="13000.00000" pt_clust_8="13000.00000" pt_clust_9="21.09688"></scales>
<clustering>
<clus scale="   21.097">  1  9  2 -1</clus>
<clus scale="   80.394">  5  6 -1 -1</clus>
<clus scale="   91.139">  2  5  1 -1</clus>
<clus scale="   92.050">  7  8 -1 -1</clus>
<clus scale="   21.097">  1  5  2 -1</clus>
</clustering>
</event>
<event>
 9    1  0.6345107E-005  0.1237972E+03  0.7546771E-02  0.1239497E+00
         21   -1    0    0  501  502  0.00000000000E+00  0.00000000000E+00  0.44710915969E+02  0.44710915969E+02  0.00000000000E+00 0.  1.
         -4   -1    0    0    0  501 -0.00000000000E+00 -0.00000000000E+00 -0.87108311272E+03  0.87108311272E+03  0.00000000000E+00 0.  1.
        -24    2    1    2    0    0 -0.12082433337E+01  0.80181698380E+02 -0.64765447364E+03  0.65779590977E+03  0.82514102295E+02 0.  0.
         23    2    1    2    0    0  0.13643755392E+02 -0.10903324963E+03 -0.10310516384E+03  0.17611824905E+03  0.91173248553E+02 0.  0.
         13    1    3    3    0    0 -0.40709214931E+02  0.49883859471E+02 -0.32405669232E+03  0.33039125209E+03  0.00000000000E+00 0. -1.
        -14    1    3    3    0    0  0.39500971598E+02  0.30297838909E+02 -0.32359778131E+03  0.32740465768E+03  0.00000000000E+00 0.  1.
        -13    1    4    4    0    0 -0.17131329741E+02 -0.79417797707E+02 -0.21546514256E+02  0.84053086368E+02  0.00000000000E+00 0.  1.
         13    1    4    4    0    0  0.30775085133E+02 -0.29615451927E+02 -0.81558649589E+02  0.92065162687E+02  0.00000000000E+00 0. -1.
         -3    1    1    2    0  502 -0.12435512058E+02  0.28851551255E+02 -0.75612559266E+02  0.81879869863E+02  0.00000000000E+00 0.  1.
<scales pt_clust_5="13000.00000" pt_clust_6="13000.00000" pt_clust_7="13000.00000" pt_clust_8="13000.00000" pt_clust_9="31.41743"></scales>
<clustering>
<clus scale="   31.417">  1  9  2 -1</clus>
<clus scale="   82.514">  5  6 -1 -1</clus>
<clus scale="   91.173">  7  8 -1 -1</clus>
<clus scale="  117.566">  2  5  1 -1</clus>
<clus scale="   31.417">  1  5  2 -1</clus>
</clustering>
</event>
<event>
 9    1  0.6345107E-005  0.9059913E+02  0.7546771E-02  0.1307678E+00
         -4   -1    0    0    0  501 -0.00000000000E+00  0.00000000000E+00  0.72760828606E+03  0.72760828606E+03  0.00000000000E+00 0.  1.
         21   -1    0    0  501  502  0.00000000000E+00 -0.00000000000E+00 -0.23565753698E+02  0.23565753698E+02  0.00000000000E+00 0.  1.
        -24    2    1    2    0    0  0.10117519255E+02  0.14805269473E+02  0.44113514402E+03  0.44869773035E+03  0.80049220700E+02 0.  0.
         23    2    1    2    0    0  0.16300276964E+02  0.15407719904E+02  0.10742348917E+03  0.14189621230E+03  0.89953500087E+02 0.  0.
         11    1    3    3    0    0  0.27701755312E+02 -0.25737428848E+02  0.19751438477E+03  0.20110130453E+03  0.00000000000E+00 0. -1.
        -12    1    3    3    0    0 -0.17584236057E+02  0.40542698321E+02  0.24362075925E+03  0.24759642582E+03  0.00000000000E+00 0.  1.
        -13    1    4    4    0    0  0.37185858785E+02  0.19531702789E+02  0.11374394608E+02  0.43516116096E+02  0.00000000000E+00 0.  1.
         13    1    4    4    0    0 -0.20885581821E+02 -0.41239828851E+01  0.96049094561E+02  0.98380096202E+02  0.00000000000E+00 0. -1.
         -3    1    1    2    0  502 -0.26417796219E+02 -0.30212989377E+02  0.15548389918E+03  0.16058009711E+03  0.00000000000E+00 0.  1.
<scales pt_clust_5="13000.00000" pt_clust_6="13000.00000" pt_clust_7="13000.00000" pt_clust_8="13000.00000" pt_clust_9="40.13385"></scales>
<clustering>
<clus scale="   40.134">  2  9  1 -1</clus>
<clus scale="   80.049">  5  6 -1 -1</clus>
<clus scale="   80.774">  1  5  2 -1</clus>
<clus scale="   89.954">  7  8 -1 -1</clus>
<clus scale="   40.134">  2  5  1 -1</clus>
</clustering>
</event>
<event>
 9    1  0.6345107E-005  0.1174219E+03  0.7546771E-02  0.1251950E+00
          1   -1    0    0  502    0 -0.00000000000E+00  0.00000000000E+00  0.49499873168E+03  0.49499873168E+03  0.00000000000E+00 0. -1.
         21   -1    0    0  501  502  0.00000000000E+00 -0.00000000000E+00 -0.90559464603E+02  0.90559464603E+02  0.00000000000E+00 0.  1.
         23    2    1    2    0    0  0.31435422272E+02 -0.63028095555E+02  0.41933617417E+03  0.43502986319E+03  0.91909892270E+02 0.  0.
        -24    2    1    2    0    0 -0.35887356993E+02  0.87158785581E+02 -0.17008319321E+01  0.12266713564E+03  0.78484247085E+02 0.  0.
         11    1    4    4    0    0 -0.58711913967E+02  0.47771359786E+02  0.80290729037E+01  0.76116080227E+02  0.00000000000E+00 0. -1.
        -12    1    4    4    0    0  0.22824556973E+02  0.39387425794E+02 -0.97299048357E+01  0.46551055411E+02  0.00000000000E+00 0.  1.
        -13    1    3    3    0    0 -0.32039880064E+02 -0.13342155876E+02  0.14501699703E+03  0.14911236189E+03  0.00000000000E+00 0.  1.
         13    1    3    3    0    0  0.63475302336E+02 -0.49685939679E+02  0.27431917714E+03  0.28591750131E+03  0.00000000000E+00 0. -1.
          2    1    1    2  501    0  0.44519347209E+01 -0.24130690025E+02 -0.13196075163E+02  0.27861197454E+02  0.00000000000E+00 0. -1.
<scales pt_clust_5="13000.00000" pt_clust_6="13000.00000" pt_clust_7="13000.00000" pt_clust_8="13000.00000" pt_clust_9="24.53793"></scales>
<clustering>
<clus scale="   24.538">  2  9  1 -1</clus>
<clus scale="   78.484">  5  6 -1 -1</clus>
<clus scale="   91.910">  7  8 -1 -1</clus>
<clus scale="  107.239">  2  5  1 -1</clus>
<clus scale="   24.538">  2  5  1 -1</clus>
</clustering>
</event>
<event>
 9    1  0.6345107E-005  0.9365412E+02  0.7546771E-02  0.1301442E+00
          1   -1    0    0  502    0 -0.00000000000E+00  0.00000000000E+00  0.26784466716E+03  0.26784466716E+03  0.00000000000E+00 0. -1.
         21   -1    0    0  501  502  0.00000000000E+00 -0.00000000000E+00 -0.66155573196E+02  0.66155573196E+02  0.00000000000E+00 0.  1.
         23    2    1    2    0    0 -0.19523380453E+02  0.69402018431E+01  0.20998802285E+03  0.23006812080E+03  0.91689921384E+02 0.  0.
        -24    2    1    2    0    0  0.33793726335E+01 -0.20621009776E+02 -0.76144333604E+01  0.82759920136E+02  0.79715610654E+02 0.  0.
         13    1    4    4    0    0 -0.14550092761E+02  0.17021678868E+02  0.22176741035E+02  0.31515878438E+02  0.00000000000E+00 0. -1.
        -14    1    4    4    0    0  0.17929465394E+02 -0.37642688644E+02 -0.29791174395E+02  0.51244041698E+02  0.00000000000E+00 0.  1.
        -13    1    3    3    0    0 -0.14051367307E+02  0.47982183309E+02  0.14107851562E+03  0.14967591124E+03  0.00000000000E+00 0. -1.
         13    1    3    3    0    0 -0.54720131463E+01 -0.41041981466E+02  0.68909507231E+02  0.80392209556E+02  0.00000000000E+00 0.  1.
          2    1    1    2  501    0  0.16144007820E+02  0.13680807933E+02 -0.68449552201E+00  0.21172199421E+02  0.00000000000E+00 0. -1.
<scales pt_clust_5="13000.00000" pt_clust_6="13000.00000" pt_clust_7="13000.00000" pt_clust_8="13000.00000" pt_clust_9="21.16113"></scales>
<clustering>
<clus scale="   21.161">  2  9  1 -1</clus>
<clus scale="   79.716">  5  6 -1 -1</clus>
<clus scale="   81.967">  2  5  1 -1</clus>
<clus scale="   91.690">  7  8 -1 -1</clus>
<clus scale="   21.161">  2  5  1 -1</clus>
</clustering>
</event>
<event>
 9    1  0.6345107E-005  0.9673162E+02  0.7546771E-02  0.1289457E+00
         -2   -1    0    0    0  501 -0.00000000000E+00  0.00000000000E+00  0.10543335521E+03  0.10543335521E+03  0.00000000000E+00 0.  1.
         21   -1    0    0  501  502  0.00000000000E+00 -0.00000000000E+00 -0.33417068155E+03  0.33417068155E+03  0.00000000000E+00 0. -1.
         23    2    1    2    0    0 -0.53199176984E+02  0.16951372825E+02  0.64521581469E+02  0.11909876275E+03  0.83090187999E+02 0.  0.
        -24    2    1    2    0    0  0.15874447523E+02  0.74893066925E+01 -0.14749400437E+03  0.16806548484E+03  0.78634840049E+02 0.  0.
         11    1    4    4    0    0 -0.17541031585E+02 -0.27099989129E+02 -0.65033295187E+02  0.72604591334E+02  0.00000000000E+00 0. -1.
        -12    1    4    4    0    0  0.33415479108E+02  0.34589295822E+02 -0.82460709184E+02  0.95460893504E+02  0.00000000000E+00 0.  1.
        -11    1    3    3    0    0 -0.25350361359E+02 -0.31899909063E+02  0.12830872073E+02  0.42718570873E+02  0.00000000000E+00 0. -1.
         11    1    3    3    0    0 -0.27848815625E+02  0.48851281888E+02  0.51690709396E+02  0.76380191881E+02  0.00000000000E+00 0.  1.
         -1    1    1    2    0  502  0.37324729460E+02 -0.24440679518E+02 -0.14576490344E+03  0.15243978916E+03  0.00000000000E+00 0.  1.
<scales pt_clust_5="13000.00000" pt_clust_6="13000.00000" pt_clust_7="13000.00000" pt_clust_8="13000.00000" pt_clust_9="44.61482"></scales>
<clustering>
<clus scale="   44.615">  2  9  1 -1</clus>
<clus scale="   78.635">  5  6 -1 -1</clus>
<clus scale="   83.090">  7  8 -1 -1</clus>
<clus scale="   92.933">  2  5  1 -1</clus>
<clus scale="   44.615">  2  5  1 -1</clus>
</clustering>
</event>
<event>
 9    1  0.6345107E-005  0.1853016E+03  0.7546771E-02  0.1163645E+00
          3   -1    0    0  502    0 -0.00000000000E+00  0.00000000000E+00  0.41692095516E+03  0.41692095516E+03  0.00000000000E+00 0. -1.
         21   -1    0    0  501  502  0.00000000000E+00 -0.00000000000E+00 -0.97899451604E+02  0.97899451604E+02  0.00000000000E+00 0. -1.
        -24    2    1    2    0    0  0.10897154275E+03  0.12589017471E+03  0.13647857880E+03  0.23052338972E+03  0.82410542536E+02 0.  0.
         23    2    1    2    0    0 -0.83898139980E+02 -0.13383876355E+03  0.12421942409E+03  0.22031665817E+03  0.90317506756E+02 0.  0.
         11    1    3    3    0    0  0.73555134860E+02  0.59585363525E+02  0.12124979087E+03  0.15382550243E+03  0.00000000000E+00 0. -1.
        -12    1    3    3    0    0  0.35416407890E+02  0.66304811183E+02  0.15228787928E+02  0.76697887295E+02  0.00000000000E+00 0.  1.
        -11    1    4    4    0    0 -0.63195632598E+02 -0.36927238213E+02  0.18670319925E+02  0.75537340088E+02  0.00000000000E+00 0. -1.
         11    1    4    4    0    0 -0.20702507382E+02 -0.96911525336E+02  0.10554910416E+03  0.14477931808E+03  0.00000000000E+00 0.  1.
          4    1    1    2  501    0 -0.25073402769E+02  0.79485888416E+01  0.58323500669E+02  0.63980358871E+02  0.00000000000E+00 0. -1.
<scales pt_clust_5="13000.00000" pt_clust_6="13000.00000" pt_clust_7="13000.00000" pt_clust_8="13000.00000" pt_clust_9="26.30316"></scales>
<clustering>
<clus scale="   26.303">  2  9  1 -1</clus>
<clus scale="   82.411">  5  6 -1 -1</clus>
<clus scale="   90.318">  7  8 -1 -1</clus>
<clus scale="  181.579">  1  5  2 -1</clus>
<clus scale="   26.303">  2  5  1 -1</clus>
</clustering>
</event>
<event>
 9    1  0.6345107E-005  0.1278263E+03  0.7546771E-02  0.1240483E+00
          1   -1    0    0  502    0 -0.00000000000E+00  0.00000000000E+00  0.13531283780E+03  0.13531283780E+03  0.00000000000E+00 0. -1.
         21   -1    0    0  501  502  0.00000000000E+00 -0.00000000000E+00 -0.41222999073E+03  0.41222999073E+03  0.00000000000E+00 0. -1.
        -24    2    1    2    0    0  0.69413884301E+02  0.14945018536E+02 -0.30699834956E+03  0.32435385389E+03  0.76914205351E+02 0.  0.
         23    2    1    2    0    0  0.38614653186E+02 -0.26187093361E+02  0.34885828373E+02  0.11447083612E+03  0.98537789707E+02 0.  0.
         13    1    3    3    0    0  0.33046857725E+02 -0.30569732750E+02 -0.10811312597E+03  0.11711127773E+03  0.00000000000E+00 0. -1.
        -14    1    3    3    0    0  0.36367026576E+02  0.45514751286E+02 -0.19888522360E+03  0.20724257616E+03  0.00000000000E+00 0.  1.
        -11    1    4    4    0    0 -0.66646212312E+01  0.28901156120E+02  0.31228090372E+02  0.43068406396E+02  0.00000000000E+00 0.  1.
         11    1    4    4    0    0  0.45279274417E+02 -0.55088249481E+02  0.36577380012E+01  0.71402429720E+02  0.00000000000E+00 0. -1.
          2    1    1    2  501    0 -0.10802853749E+03  0.11242074825E+02 -0.48046317346E+01  0.10871813852E+03  0.00000000000E+00 0. -1.
<scales pt_clust_5="13000.00000" pt_clust_6="13000.00000" pt_clust_7="13000.00000" pt_clust_8="13000.00000" pt_clust_9="81.42411"></scales>
<clustering>
<clus scale="   76.914">  5  6 -1 -1</clus>
<clus scale="   98.538">  7  8 -1 -1</clus>
<clus scale="  104.678">  1  5  2 -1</clus>
<clus scale="   81.424">  2  9  1 -1</clus>
<clus scale="   81.424">  2  5  1 -1</clus>
</clustering>
</event>
<event>
 9    1  0.6345107E-005  0.1002746E+03  0.7546771E-02  0.1283798E+00
          3   -1    0    0  502    0 -0.00000000000E+00  0.00000000000E+00  0.15410158500E+03  0.15410158500E+03  0.00000000000E+00 0. -1.
         21   -1    0    0  501  502  0.00000000000E+00 -0.00000000000E+00 -0.19670388957E+03  0.19670388957E+03  0.00000000000E+00 0.  1.
        -24    2    1    2    0    0 -0.47102682314E+02  0.11894998317E+01 -0.20069638827E+01  0.95064980376E+02  0.82542383046E+02 0.  0.
         23    2    1    2    0    0  0.25784692629E+02  0.34056089703E+02 -0.12588862184E+03  0.16102168890E+03  0.90859075305E+02 0.  0.
         11    1    3    3    0    0  0.13618963550E+02  0.22156335802E+02  0.13030169023E+02  0.29088910071E+02  0.00000000000E+00 0. -1.
        -12    1    3    3    0    0 -0.60721645863E+02 -0.20966835970E+02 -0.15037132906E+02  0.65976070306E+02  0.00000000000E+00 0.  1.
        -13    1    4    4    0    0  0.57275517309E+02  0.28314650358E+02 -0.59443785644E+02  0.87268367463E+02  0.00000000000E+00 0.  1.
         13    1    4    4    0    0 -0.31490824680E+02  0.57414393450E+01 -0.66444836199E+02  0.73753321432E+02  0.00000000000E+00 0. -1.
          4    1    1    2  501    0  0.21317989685E+02 -0.35245589535E+02  0.85293281163E+02  0.94718805300E+02  0.00000000000E+00 0. -1.
<scales pt_clust_5="13000.00000" pt_clust_6="13000.00000" pt_clust_7="13000.00000" pt_clust_8="13000.00000" pt_clust_9="41.19114"></scales>
<clustering>
<clus scale="   41.191">  2  9  1 -1</clus>
<clus scale="   82.542">  5  6 -1 -1</clus>
<clus scale="   90.859">  7  8 -1 -1</clus>
<clus scale="   92.806">  1  5  2 -1</clus>
<clus scale="   41.191">  2  5  1 -1</clus>
</clustering>
</event>
<event>
 9    1  0.6345107E-005  0.1346105E+03  0.7546771E-02  0.1223114E+00
          1   -1    0    0  502    0 -0.00000000000E+00  0.00000000000E+00  0.69102850955E+03  0.69102850955E+03  0.00000000000E+00 0. -1.
         21   -1    0    0  501  502  0.00000000000E+00 -0.00000000000E+00 -0.37475553077E+03  0.37475553077E+03  0.00000000000E+00 0. -1.
        -24    2    1    2    0    0  0.90832346915E+01 -0.97828083282E+02  0.62044729707E+03  0.63340286783E+03  0.81188087175E+02 0.  0.
         23    2    1    2    0    0 -0.76264949225E+02  0.10653786307E+03 -0.46823733214E+02  0.16626359196E+03  0.91019015989E+02 0.  0.
         13    1    3    3    0    0 -0.94370676910E+01 -0.10655557355E+03  0.51831587340E+03  0.52923954229E+03  0.00000000000E+00 0. -1.
        -14    1    3    3    0    0  0.18520302383E+02  0.87274902703E+01  0.10213142367E+03  0.10416332554E+03  0.00000000000E+00 0.  1.
        -13    1    4    4    0    0 -0.61359431107E+02  0.67607042799E+02  0.14161938541E+02  0.92391842308E+02  0.00000000000E+00 0. -1.
         13    1    4    4    0    0 -0.14905518118E+02  0.38930820273E+02 -0.60985671755E+02  0.73871749654E+02  0.00000000000E+00 0.  1.
          2    1    1    2  501    0  0.67181714533E+02 -0.87097797900E+01 -0.25735058507E+03  0.26611758053E+03  0.00000000000E+00 0. -1.
<scales pt_clust_5="13000.00000" pt_clust_6="13000.00000" pt_clust_7="13000.00000" pt_clust_8="13000.00000" pt_clust_9="67.74395"></scales>
<clustering>
<clus scale="   67.744">  2  9  1 -1</clus>
<clus scale="   81.188">  5  6 -1 -1</clus>
<clus scale="   91.019">  7  8 -1 -1</clus>
<clus scale="  128.168">  1  5  2 -1</clus>
<clus scale="   67.744">  2  5  1 -1</clus>
</clustering>
</event>
<event>
 9    1  0.6345107E-005  0.1604210E+03  0.7546771E-02  0.1188490E+00
         21   -1    0    0  501  502  0.00000000000E+00  0.00000000000E+00  0.45177021413E+03  0.45177021413E+03  0.00000000000E+00 0.  1.
          1   -1    0    0  502    0 -0.00000000000E+00 -0.00000000000E+00 -0.15585331052E+03  0.15585331052E+03  0.00000000000E+00 0. -1.
        -24    2    1    2    0    0 -0.10422859390E+03 -0.11031239090E+03  0.56964880270E+02  0.18314241628E+03  0.85227481975E+02 0.  0.
         23    2    1    2    0    0 -0.50321212545E+02  0.15506186455E+03  0.16615787983E+03  0.24788228224E+03  0.85210202140E+02 0.  0.
         13    1    3    3    0    0 -0.56664438020E+02 -0.10013700815E+03  0.99384819573E+01  0.11548615657E+03  0.00000000000E+00 0. -1.
        -14    1    3    3    0    0 -0.47564155879E+02 -0.10175382750E+02  0.47026398313E+02  0.67656259702E+02  0.00000000000E+00 0.  1.
        -11    1    4    4    0    0 -0.19395027777E+02  0.11454327476E+03  0.61445409872E+02  0.13142247635E+03  0.00000000000E+00 0. -1.
         11    1    4    4    0    0 -0.30926184768E+02  0.40518589783E+02  0.10471246996E+03  0.11645980589E+03  0.00000000000E+00 0.  1.
          2    1    1    2  501    0  0.15454980644E+03 -0.44749473648E+02  0.72794143512E+02  0.17659882614E+03  0.00000000000E+00 0. -1.
<scales pt_clust_5="13000.00000" pt_clust_6="13000.00000" pt_clust_7="13000.00000" pt_clust_8="13000.00000" pt_clust_9="160.89805"></scales>
<clustering>
<clus scale="   85.210">  7  8 -1 -1</clus>
<clus scale="   85.227">  5  6 -1 -1</clus>
<clus scale="  160.898">  1  9  2 -1</clus>
<clus scale="  160.898">  1  7  2 -1</clus>
<clus scale="  160.421">  1  5  2 -1</clus>
</clustering>
</event>
<event>
 9    1  0.6345107E-005  0.1504270E+03  0.7546771E-02  0.1202511E+00
         21   -1    0    0  501  502  0.00000000000E+00  0.00000000000E+00  0.84679960749E+02  0.84679960749E+02  0.00000000000E+00 0. -1.
          1   -1    0    0  502    0 -0.00000000000E+00 -0.00000000000E+00 -0.43756992551E+03  0.43756992551E+03  0.00000000000E+00 0. -1.
         23    2    1    2    0    0 -0.10654899787E+03  0.10705240354E+03 -0.17352898474E+03  0.24785878438E+03  0.92242953108E+02 0.  0.
        -24    2    1    2    0    0  0.33610070958E+02 -0.86050726779E+02 -0.65859975829E+02  0.13784940335E+03  0.78297874412E+02 0.  0.
         11    1    4    4    0    0  0.43699521552E+02 -0.70749924604E+02 -0.79466985935E+02  0.11502261460E+03  0.00000000000E+00 0. -1.
        -12    1    4    4    0    0 -0.10089450594E+02 -0.15300802176E+02  0.13607010106E+02  0.22826788748E+02  0.00000000000E+00 0.  1.
        -11    1    3    3    0    0 -0.52773286210E+02  0.25007624578E+02 -0.12595307708E+03  0.13883291630E+03  0.00000000000E+00 0.  1.
         11    1    3    3    0    0 -0.53775711662E+02  0.82044778960E+02 -0.47575907660E+02  0.10902586807E+03  0.00000000000E+00 0. -1.
          2    1    1    2  501    0  0.72938926915E+02 -0.21001676758E+02 -0.11350100420E+03  0.13654169854E+03  0.00000000000E+00 0. -1.
<scales pt_clust_5="13000.00000" pt_clust_6="13000.00000" pt_clust_7="13000.00000" pt_clust_8="13000.00000" pt_clust_9="75.90233"></scales>
<clustering>
<clus scale="   75.902">  1  9  2 -1</clus>
<clus scale="   78.298">  5  6 -1 -1</clus>
<clus scale="   92.243">  7  8 -1 -1</clus>
<clus scale="  142.303">  1  5  2 -1</clus>
<clus scale="   75.902">  1  5  2 -1</clus>
</clustering>
</event>
<event>
 9    1  0.6345107E-005  0.2019095E+03  0.7546771E-02  0.1182177E+00
         21   -1    0    0  501  502  0.00000000000E+00  0.00000000000E+00  0.25323970345E+03  0.25323970345E+03  0.00000000000E+00 0. -1.
          1   -1    0    0  502    0 -0.00000000000E+00 -0.00000000000E+00 -0.35975087837E+03  0.35975087837E+03  0.00000000000E+00 0. -1.
         23    2    1    2    0    0 -0.21191173552E+02  0.30481788073E+02 -0.56288085727E+01  0.92230657347E+02  0.84241352245E+02 0.  0.
        -24    2    1    2    0    0 -0.14135861106E+03 -0.11519623778E+03 -0.22289223678E+03  0.30056596691E+03  0.86061147592E+02 0.  0.
         13    1    4    4    0    0 -0.20497221239E+02 -0.60557858422E+02 -0.10591204321E+03  0.12371237283E+03  0.00000000000E+00 0. -1.
        -14    1    4    4    0    0 -0.12086138982E+03 -0.54638379360E+02 -0.11698019357E+03  0.17685359407E+03  0.00000000000E+00 0.  1.
        -13    1    3    3    0    0 -0.90305994752E+01 -0.22681231195E+02 -0.24437293106E+02  0.34542311297E+02  0.00000000000E+00 0.  1.
         13    1    3    3    0    0 -0.12160574077E+02  0.53163019268E+02  0.18808484533E+02  0.57688346050E+02  0.00000000000E+00 0. -1.
          2    1    1    2  501    0  0.16254978461E+03  0.84714449709E+02  0.12200987043E+03  0.22019395756E+03  0.00000000000E+00 0. -1.
<scales pt_clust_5="13000.00000" pt_clust_6="13000.00000" pt_clust_7="13000.00000" pt_clust_8="13000.00000" pt_clust_9="182.64977"></scales>
<clustering>
<clus scale="   84.241">  7  8 -1 -1</clus>
<clus scale="   86.061">  5  6 -1 -1</clus>
<clus scale="   92.059">  2  7  1 -1</clus>
<clus scale="  182.650">  1  9  2 -1</clus>
<clus scale="  182.650">  1  5  2 -1</clus>
</clustering>
</event>
<event>
 9    1  0.6345107E-005  0.1055477E+03  0.7546771E-02  0.1308988E+00
         -4   -1    0    0    0  501 -0.00000000000E+00  0.00000000000E+00  0.13991742826E+03  0.13991742826E+03  0.00000000000E+00 0.  1.
         21   -1    0    0  501  502  0.00000000000E+00 -0.00000000000E+00 -0.14209726551E+03  0.14209726551E+03  0.00000000000E+00 0. -1.
        -24    2    1    2    0    0 -0.39318099195E+00 -0.19549293088E+01  0.70889787650E+02  0.86681045486E+02  0.49842404774E+02 0.  0.
         23    2    1    2    0    0 -0.11954754081E+01 -0.53797379320E+02 -0.88535323222E+02  0.13745419104E+03  0.90330304957E+02 0.  0.
         13    1    3    3    0    0 -0.24672971469E+02 -0.14490008542E+01  0.27632719942E+02  0.37073202398E+02  0.00000000000E+00 0. -1.
        -14    1    3    3    0    0  0.24279790478E+02 -0.50592845462E+00  0.43257067708E+02  0.49607843089E+02  0.00000000000E+00 0.  1.
        -11    1    4    4    0    0  0.30053417805E+02 -0.62923014310E+02 -0.74380952808E+02  0.10195606795E+03  0.00000000000E+00 0. -1.
         11    1    4    4    0    0 -0.31248893213E+02  0.91256349901E+01 -0.14154370413E+02  0.35498123089E+02  0.00000000000E+00 0.  1.
         -3    1    1    2    0  502  0.15886564001E+01  0.55752308629E+02  0.15465698319E+02  0.57879457246E+02  0.00000000000E+00 0.  1.
<scales pt_clust_5="13000.00000" pt_clust_6="13000.00000" pt_clust_7="13000.00000" pt_clust_8="13000.00000" pt_clust_9="54.59635"></scales>
<clustering>
<clus scale="   49.842">  5  6 -1 -1</clus>
<clus scale="   49.882">  1  5  2 -1</clus>
<clus scale="   54.596">  2  9  1 -1</clus>
<clus scale="   90.330">  7  8 -1 -1</clus>
<clus scale="   54.596">  2  5  1 -1</clus>
</clustering>
</event>
<event>
 9    1  0.6345107E-005  0.2018649E+03  0.7546771E-02  0.1149764E+00
         -2   -1    0    0    0  501 -0.00000000000E+00  0.00000000000E+00  0.16056755799E+03  0.16056755799E+03  0.00000000000E+00 0.  1.
         21   -1    0    0  501  502  0.00000000000E+00 -0.00000000000E+00 -0.63004730735E+03  0.63004730735E+03  0.00000000000E+00 0.  1.
        -24    2    1    2    0    0 -0.12657897281E+03 -0.15388645929E+03 -0.97097992019E+02  0.23322572964E+03  0.72546138432E+02 0.  0.
         23    2    1    2    0    0 -0.49150143023E+02  0.19433764689E+03 -0.27587429550E+03  0.35286356047E+03  0.90681904665E+02 0.  0.
         13    1    3    3    0    0 -0.48005490365E+02 -0.11182926646E+03 -0.43553301041E+02  0.12925634211E+03  0.00000000000E+00 0. -1.
        -14    1    3    3    0    0 -0.78573482449E+02 -0.42057192825E+02 -0.53544690979E+02  0.10396938754E+03  0.00000000000E+00 0.  1.
        -11    1    4    4    0    0 -0.27340441810E+01  0.15605489641E+03 -0.16777717473E+03  0.22915013866E+03  0.00000000000E+00 0.  1.
         11    1    4    4    0    0 -0.46416098842E+02  0.38282750484E+02 -0.10809712078E+03  0.12371342181E+03  0.00000000000E+00 0. -1.
         -1    1    1    2    0  502  0.17572911584E+03 -0.40451187601E+02 -0.96507461841E+02  0.20452557523E+03  0.00000000000E+00 0.  1.
<scales pt_clust_5="13000.00000" pt_clust_6="13000.00000" pt_clust_7="13000.00000" pt_clust_8="13000.00000" pt_clust_9="180.32485"></scales>
<clustering>
<clus scale="   72.546">  5  6 -1 -1</clus>
<clus scale="   90.682">  7  8 -1 -1</clus>
<clus scale="  180.325">  2  9  1 -1</clus>
<clus scale="  194.394">  1  5  2 -1</clus>
<clus scale="  180.325">  2  5  1 -1</clus>
</clustering>
</event>
<event>
 9    1  0.6345107E-005  0.2078327E+03  0.7546771E-02  0.1143294E+00
         -4   -1    0    0    0  501 -0.00000000000E+00  0.00000000000E+00  0.62802448407E+03  0.62802448407E+03  0.00000000000E+00 0.  1.
         21   -1    0    0  501  502  0.00000000000E+00 -0.00000000000E+00 -0.51928586477E+02  0.51928586477E+02  0.00000000000E+00 0. -1.
        -24    2    1    2    0    0 -0.55233004583E+02 -0.37322753300E+02  0.90058793224E+02  0.13771850445E+03  0.80075761139E+02 0.  0.
         23    2    1    2    0    0 -0.96473376964E+01 -0.46561746727E+02  0.10715445141E+03  0.14879062743E+03  0.91626999138E+02 0.  0.
         11    1    3    3    0    0 -0.65914840747E+02 -0.52981066414E+02  0.67155600486E+02  0.10798904716E+03  0.00000000000E+00 0. -1.
        -12    1    3    3    0    0  0.10681836164E+02  0.15658313114E+02  0.22903192738E+02  0.29729457294E+02  0.00000000000E+00 0.  1.
        -13    1    4    4    0    0 -0.36671457996E+02  0.10980060460E+02  0.52376060827E+02  0.64873795226E+02  0.00000000000E+00 0. -1.
         13    1    4    4    0    0  0.27024120299E+02 -0.57541807187E+02  0.54778390580E+02  0.83916832202E+02  0.00000000000E+00 0.  1.
         -3    1    1    2    0  502  0.64880342280E+02  0.83884500027E+02  0.37888265296E+03  0.39344393867E+03  0.00000000000E+00 0.  1.
<scales pt_clust_5="13000.00000" pt_clust_6="13000.00000" pt_clust_7="13000.00000" pt_clust_8="13000.00000" pt_clust_9="106.04753"></scales>
<clustering>
<clus scale="   80.076">  5  6 -1 -1</clus>
<clus scale="   91.627">  7  8 -1 -1</clus>
<clus scale="   98.378">  5  7 -1 -1</clus>
<clus scale="  106.048">  2  9  1 -1</clus>
<clus scale="  106.048">  2  5  1 -1</clus>
</clustering>
</event>
<event>
 9    1  0.6345107E-005  0.9522466E+02  0.7546771E-02  0.1297775E+00
         21   -1    0    0  501  502  0.00000000000E+00  0.00000000000E+00  0.43045013507E+03  0.43045013507E+03  0.00000000000E+00 0.  1.
         -4   -1    0    0    0  501 -0.00000000000E+00 -0.00000000000E+00 -0.12736414059E+03  0.12736414059E+03  0.00000000000E+00 0.  1.
        -24    2    1    2    0    0  0.13848638992E+01 -0.12980178080E+02 -0.84026299883E+02  0.11896325849E+03  0.83195161682E+02 0.  0.
         23    2    1    2    0    0 -0.56913890213E+01 -0.69548075986E+02  0.17302918784E+03  0.20937109349E+03  0.95014883892E+02 0.  0.
         13    1    3    3    0    0  0.31151729136E+02  0.91696065966E+01 -0.66447544426E+01  0.33146111007E+02  0.00000000000E+00 0. -1.
        -14    1    3    3    0    0 -0.29766865236E+02 -0.22149784676E+02 -0.77381545441E+02  0.85817147482E+02  0.00000000000E+00 0.  1.
        -13    1    4    4    0    0 -0.34463999792E+02 -0.78829712173E+02  0.11167198385E+03  0.14096993573E+03  0.00000000000E+00 0.  1.
         13    1    4    4    0    0  0.28772610770E+02  0.92816361874E+01  0.61357203994E+02  0.68401157759E+02  0.00000000000E+00 0. -1.
         -3    1    1    2    0  502  0.43065251221E+01  0.82528254065E+02  0.21408310652E+03  0.22947992368E+03  0.00000000000E+00 0.  1.
<scales pt_clust_5="13000.00000" pt_clust_6="13000.00000" pt_clust_7="13000.00000" pt_clust_8="13000.00000" pt_clust_9="82.64054"></scales>
<clustering>
<clus scale="   82.641">  1  9  2 -1</clus>
<clus scale="   83.195">  5  6 -1 -1</clus>
<clus scale="   83.435">  2  5  1 -1</clus>
<clus scale="   95.015">  7  8 -1 -1</clus>
<clus scale="   82.641">  1  5  2 -1</clus>
</clustering>
</event>
<event>
 9    1  0.6345107E-005  0.1856403E+03  0.7546771E-02  0.1163535E+00
         -4   -1    0    0    0  501 -0.00000000000E+00  0.00000000000E+00  0.76815719165E+02  0.76815719165E+02  0.00000000000E+00 0.  1.
         21   -1    0    0  501  502  0.00000000000E+00 -0.00000000000E+00 -0.65858457753E+03  0.65858457753E+03  0.00000000000E+00 0. -1.
        -24    2    1    2    0    0 -0.15921519187E+03 -0.50160840628E+02 -0.10327490658E+03  0.21269784082E+03  0.81908961094E+02 0.  0.
         23    2    1    2    0    0  0.13816617041E+03  0.56637249496E+02 -0.34011604462E+03  0.38258304121E+03  0.91614359856E+02 0.  0.
         13    1    3    3    0    0 -0.29292002760E+02 -0.27758539377E+02 -0.63047509889E+02  0.74856839616E+02  0.00000000000E+00 0. -1.
        -14    1    3    3    0    0 -0.12992318911E+03 -0.22402301251E+02 -0.40227396692E+02  0.13784100121E+03  0.00000000000E+00 0.  1.
        -13    1    4    4    0    0  0.10930216934E+03  0.39650311444E+02 -0.32622273333E+03  0.34632410132E+03  0.00000000000E+00 0. -1.
         13    1    4    4    0    0  0.28864001079E+02  0.16986938053E+02 -0.13893311298E+02  0.36258939884E+02  0.00000000000E+00 0.  1.
         -3    1    1    2    0  502  0.21049021453E+02 -0.64764088683E+01 -0.13837790716E+03  0.14011941466E+03  0.00000000000E+00 0.  1.
<scales pt_clust_5="13000.00000" pt_clust_6="13000.00000" pt_clust_7="13000.00000" pt_clust_8="13000.00000" pt_clust_9="22.02283"></scales>
<clustering>
<clus scale="   22.023">  2  9  1 -1</clus>
<clus scale="   81.909">  5  6 -1 -1</clus>
<clus scale="   91.614">  7  8 -1 -1</clus>
<clus scale="  181.048">  1  5  2 -1</clus>
<clus scale="   22.023">  2  5  1 -1</clus>
</clustering>
</event>
<event>
 9    1  0.6345107E-005  0.9363496E+02  0.7546771E-02  0.1300375E+00
          1   -1    0    0  502    0 -0.00000000000E+00  0.00000000000E+00  0.23340326623E+03  0.23340326623E+03  0.00000000000E+00 0. -1.
         21   -1    0    0  501  502  0.00000000000E+00 -0.00000000000E+00 -0.67054042334E+02  0.67054042334E+02  0.00000000000E+00 0. -1.
         23    2    1    2    0    0  0.19992997428E+02  0.14650099309E+02  0.14253349634E+03  0.17049205753E+03  0.90207531521E+02 0.  0.
        -24    2    1    2    0    0 -0.36652281385E+02  0.19333565569E+02  0.16011837459E+02  0.91321727375E+02  0.79787859124E+02 0.  0.
         13    1    4    4    0    0  0.70625866608E+01  0.40566365948E+02  0.48819014432E+01  0.41464962779E+02  0.00000000000E+00 0. -1.
        -14    1    4    4    0    0 -0.43714868046E+02 -0.21232800379E+02  0.11129936016E+02  0.49856764595E+02  0.00000000000E+00 0.  1.
        -11    1    3    3    0    0 -0.35515848184E+02  0.13067696184E+02  0.52689139398E+02  0.64871300020E+02  0.00000000000E+00 0. -1.
         11    1    3    3    0    0  0.55508845613E+02  0.15824031246E+01  0.89844356946E+02  0.10562075750E+03  0.00000000000E+00 0.  1.
          2    1    1    2  501    0  0.16659283957E+02 -0.33983664878E+02  0.78038900898E+01  0.38643523662E+02  0.00000000000E+00 0. -1.
<scales pt_clust_5="13000.00000" pt_clust_6="13000.00000" pt_clust_7="13000.00000" pt_clust_8="13000.00000" pt_clust_9="37.84734"></scales>
<clustering>
<clus scale="   37.847">  2  9  1 -1</clus>
<clus scale="   79.788">  5  6 -1 -1</clus>
<clus scale="   83.643">  2  5  1 -1</clus>
<clus scale="   90.208">  7  8 -1 -1</clus>
<clus scale="   37.847">  2  5  1 -1</clus>
</clustering>
</event>
<event>
 9    1  0.6345107E-005  0.9711504E+02  0.7546771E-02  0.1292962E+00
         21   -1    0    0  501  502  0.00000000000E+00  0.00000000000E+00  0.70423166423E+03  0.70423166423E+03  0.00000000000E+00 0.  1.
         -4   -1    0    0    0  501 -0.00000000000E+00 -0.00000000000E+00 -0.36111596643E+02  0.36111596643E+02  0.00000000000E+00 0.  1.
         23    2    1    2    0    0  0.86405028068E+01 -0.20610637613E+02  0.92247950639E+02  0.13145823304E+03  0.90951228505E+02 0.  0.
        -24    2    1    2    0    0  0.10931323988E+02  0.87176673352E+02  0.44896243200E+03  0.46424699116E+03  0.78985677386E+02 0.  0.
         11    1    4    4    0    0  0.42153856131E+02  0.34452401628E+02  0.16503774320E+03  0.17378542012E+03  0.00000000000E+00 0. -1.
        -12    1    4    4    0    0 -0.31222532143E+02  0.52724271725E+02  0.28392468880E+03  0.29046157104E+03  0.00000000000E+00 0.  1.
        -13    1    3    3    0    0  0.42091541644E+02 -0.14823219440E+02  0.86072556092E+02  0.96953136229E+02  0.00000000000E+00 0. -1.
         13    1    3    3    0    0 -0.33451038837E+02 -0.57874181729E+01  0.61753945474E+01  0.34505096815E+02  0.00000000000E+00 0.  1.
         -3    1    1    2    0  502 -0.19571826795E+02 -0.66566035740E+02  0.12690968495E+03  0.14463803668E+03  0.00000000000E+00 0.  1.
<scales pt_clust_5="13000.00000" pt_clust_6="13000.00000" pt_clust_7="13000.00000" pt_clust_8="13000.00000" pt_clust_9="69.38370"></scales>
<clustering>
<clus scale="   69.384">  1  9  2 -1</clus>
<clus scale="   78.986">  5  6 -1 -1</clus>
<clus scale="   86.011">  1  5  2 -1</clus>
<clus scale="   90.951">  7  8 -1 -1</clus>
<clus scale="   69.384">  1  5  2 -1</clus>
</clustering>
</event>
<event>
 9    1  0.6345107E-005  0.1240434E+03  0.7546771E-02  0.1256763E+00
         21   -1    0    0  501  502  0.00000000000E+00  0.00000000000E+00  0.66536049237E+02  0.66536049237E+02  0.00000000000E+00 0. -1.
          1   -1    0    0  502    0 -0.00000000000E+00 -0.00000000000E+00 -0.51786710269E+03  0.51786710269E+03  0.00000000000E+00 0. -1.
        -24    2    1    2    0    0 -0.22372373292E+02 -0.16131428834E+02 -0.26517002873E+03  0.27776184691E+03  0.77947119140E+02 0.  0.
         23    2    1    2    0    0 -0.42469445644E+02 -0.65727145692E+02 -0.35921792881E+02  0.12367378196E+03  0.88775659089E+02 0.  0.
         11    1    3    3    0    0 -0.28391731957E+02 -0.41258166763E+02 -0.22087398358E+03  0.22648100006E+03  0.00000000000E+00 0. -1.
        -12    1    3    3    0    0  0.60193586648E+01  0.25126737929E+02 -0.44296045147E+02  0.51280846847E+02  0.00000000000E+00 0.  1.
        -11    1    4    4    0    0  0.12432719089E+02 -0.49673056362E+02 -0.41896745052E+02  0.66161335221E+02  0.00000000000E+00 0.  1.
         11    1    4    4    0    0 -0.54902164733E+02 -0.16054089331E+02  0.59749521717E+01  0.57512446740E+02  0.00000000000E+00 0. -1.
          2    1    1    2  501    0  0.64841818936E+02  0.81858574526E+02 -0.15023923184E+03  0.18296752305E+03  0.00000000000E+00 0. -1.
<scales pt_clust_5="13000.00000" pt_clust_6="13000.00000" pt_clust_7="13000.00000" pt_clust_8="13000.00000" pt_clust_9="86.63524"></scales>
<clustering>
<clus scale="   77.947">  5  6 -1 -1</clus>
<clus scale="   82.683">  2  5  1 -1</clus>
<clus scale="   86.635">  1  9  2 -1</clus>
<clus scale="   88.776">  7  8 -1 -1</clus>
<clus scale="   86.635">  1  5  2 -1</clus>
</clustering>
</event>
<event>
 9    1  0.6345107E-005  0.2591286E+03  0.7546771E-02  0.1148640E+00
         -2   -1    0    0    0  501 -0.00000000000E+00  0.00000000000E+00  0.31485288040E+03  0.31485288040E+03  0.00000000000E+00 0.  1.
         21   -1    0    0  501  502  0.00000000000E+00 -0.00000000000E+00 -0.44474516654E+03  0.44474516654E+03  0.00000000000E+00 0.  1.
        -24    2    1    2    0    0  0.48549573651E+02 -0.30757292707E+01  0.14964347721E+03  0.17692291754E+03  0.80882799587E+02 0.  0.
         23    2    1    2    0    0 -0.13858133329E+03 -0.21048971939E+03 -0.21013204945E+03  0.34073961297E+03  0.91854764358E+02 0.  0.
         13    1    3    3    0    0  0.10678247598E+02  0.29010665354E+02  0.16962850915E+02  0.35261622017E+02  0.00000000000E+00 0. -1.
        -14    1    3    3    0    0  0.37871326053E+02 -0.32086394625E+02  0.13268062629E+03  0.14166129553E+03  0.00000000000E+00 0.  1.
        -13    1    4    4    0    0 -0.13362777272E+03 -0.13056987281E+03 -0.16221732075E+03  0.24742540791E+03  0.00000000000E+00 0.  1.
         13    1    4    4    0    0 -0.49535605707E+01 -0.79919846580E+02 -0.47914728701E+02  0.93314205061E+02  0.00000000000E+00 0. -1.
         -1    1    1    2    0  502  0.90031759639E+02  0.21356544866E+03 -0.69403713899E+02  0.24193551642E+03  0.00000000000E+00 0.  1.
<scales pt_clust_5="13000.00000" pt_clust_6="13000.00000" pt_clust_7="13000.00000" pt_clust_8="13000.00000" pt_clust_9="242.30223"></scales>
<clustering>
<clus scale="   80.883">  5  6 -1 -1</clus>
<clus scale="   91.855">  7  8 -1 -1</clus>
<clus scale="   94.385">  1  5  2 -1</clus>
<clus scale="  242.302">  2  9  1 -1</clus>
<clus scale="  242.302">  2  5  1 -1</clus>
</clustering>
</event>
<event>
 9    1  0.6345107E-005  0.1201225E+03  0.7546771E-02  0.1246842E+00
          1   -1    0    0  502    0 -0.00000000000E+00  0.00000000000E+00  0.23033886807E+03  0.23033886807E+03  0.00000000000E+00 0. -1.
         21   -1    0    0  501  502  0.00000000000E+00 -0.00000000000E+00 -0.26750373501E+03  0.26750373501E+03  0.00000000000E+00 0. -1.
         23    2    1    2    0    0  0.68133752903E+02 -0.40898981961E+02  0.19254670351E+03  0.22776008358E+03  0.92116706574E+02 0.  0.
        -24    2    1    2    0    0 -0.39038074687E+02  0.47607107927E+02 -0.12161850397E+03  0.15794123155E+03  0.79774457792E+02 0.  0.
         13    1    4    4    0    0 -0.96477706109E+01  0.19296514291E+02 -0.11450299642E+03  0.11651768591E+03  0.00000000000E+00 0. -1.
        -14    1    4    4    0    0 -0.29390304076E+02  0.28310593636E+02 -0.71155075519E+01  0.41423545640E+02  0.00000000000E+00 0.  1.
        -13    1    3    3    0    0  0.31703617751E+02  0.28726880097E+02  0.75571577468E+02  0.86841328523E+02  0.00000000000E+00 0.  1.
         13    1    3    3    0    0  0.36430135152E+02 -0.69625862058E+02  0.11697512604E+03  0.14091875505E+03  0.00000000000E+00 0. -1.
          2    1    1    2  501    0 -0.29095678216E+02 -0.67081259662E+01 -0.10809306647E+03  0.11214128795E+03  0.00000000000E+00 0. -1.
<scales pt_clust_5="13000.00000" pt_clust_6="13000.00000" pt_clust_7="13000.00000" pt_clust_8="13000.00000" pt_clust_9="29.85896"></scales>
<clustering>
<clus scale="   29.859">  2  9  1 -1</clus>
<clus scale="   79.774">  5  6 -1 -1</clus>
<clus scale="   92.117">  7  8 -1 -1</clus>
<clus scale="  110.941">  2  5  1 -1</clus>
<clus scale="   29.859">  2  5  1 -1</clus>
</clustering>
</event>
<event>
 9    1  0.6345107E-005  0.1160198E+03  0.7546771E-02  0.1253562E+00
          1   -1    0    0  502    0 -0.00000000000E+00  0.00000000000E+00  0.26295401831E+03  0.26295401831E+03  0.00000000000E+00 0. -1.
         21   -1    0    0  501  502  0.00000000000E+00 -0.00000000000E+00 -0.83457791971E+02  0.83457791971E+02  0.00000000000E+00 0.  1.
        -24    2    1    2    0    0  0.69505274668E+02  0.50845021787E+02  0.13610705512E+03  0.17976508036E+03  0.79838300433E+02 0.  0.
         23    2    1    2    0    0 -0.23644255547E+02 -0.51085676345E+02  0.53815437458E+02  0.11961484693E+03  0.90789939695E+02 0.  0.
         13    1    3    3    0    0  0.20562288240E+02  0.36821536507E+02  0.11868319375E+03  0.12595369676E+03  0.00000000000E+00 0. -1.
        -14    1    3    3    0    0  0.48942986428E+02  0.14023485280E+02  0.17423861368E+02  0.53811383599E+02  0.00000000000E+00 0.  1.
        -11    1    4    4    0    0  0.33360869971E+02 -0.67466581761E+01  0.11577656061E+02  0.35951455626E+02  0.00000000000E+00 0.  1.
         11    1    4    4    0    0 -0.57005125518E+02 -0.44339018169E+02  0.42237781398E+02  0.83663391306E+02  0.00000000000E+00 0. -1.
          2    1    1    2  501    0 -0.45861019121E+02  0.24065455816E+00 -0.10426266244E+02  0.47031882986E+02  0.00000000000E+00 0. -1.
<scales pt_clust_5="13000.00000" pt_clust_6="13000.00000" pt_clust_7="13000.00000" pt_clust_8="13000.00000" pt_clust_9="45.86165"></scales>
<clustering>
<clus scale="   45.862">  2  9  1 -1</clus>
<clus scale="   79.838">  5  6 -1 -1</clus>
<clus scale="   90.790">  7  8 -1 -1</clus>
<clus scale="  107.666">  1  5  2 -1</clus>
<clus scale="   45.862">  2  5  1 -1</clus>
</clustering>
</event>
<event>
 9    1  0.6345107E-005  0.9334652E+02  0.7546771E-02  0.1302796E+00
          1   -1    0    0  502    0 -0.00000000000E+00  0.00000000000E+00  0.10735755321E+03  0.10735755321E+03  0.00000000000E+00 0. -1.
         21   -1    0    0  501  502  0.00000000000E+00 -0.00000000000E+00 -0.15498722085E+03  0.15498722085E+03  0.00000000000E+00 0. -1.
        -24    2    1    2    0    0 -0.16963068085E+02  0.60625891217E+00  0.56133187238E+02  0.99054345776E+02  0.79829289604E+02 0.  0.
         23    2    1    2    0    0 -0.12719275900E+02 -0.11580908829E+02 -0.82405780138E+02  0.12511178076E+03  0.92554565831E+02 0.  0.
         11    1    3    3    0    0 -0.42155970286E+02 -0.21749589805E+02  0.38142375761E+02  0.60868804130E+02  0.00000000000E+00 0. -1.
        -12    1    3    3    0    0  0.25192902201E+02  0.22355848717E+02  0.17990811477E+02  0.38185541646E+02  0.00000000000E+00 0.  1.
        -13    1    4    4    0    0  0.19877009668E+02 -0.40325091905E+02 -0.63292712331E+02  0.77634888965E+02  0.00000000000E+00 0.  1.
         13    1    4    4    0    0 -0.32596285567E+02  0.28744183076E+02 -0.19113067807E+02  0.47476891795E+02  0.00000000000E+00 0. -1.
          2    1    1    2  501    0  0.29682343985E+02  0.10974649917E+02 -0.21357074742E+02  0.38178647524E+02  0.00000000000E+00 0. -1.
<scales pt_clust_5="13000.00000" pt_clust_6="13000.00000" pt_clust_7="13000.00000" pt_clust_8="13000.00000" pt_clust_9="31.64624"></scales>
<clustering>
<clus scale="   31.646">  2  9  1 -1</clus>
<clus scale="   79.829">  5  6 -1 -1</clus>
<clus scale="   80.746">  1  5  2 -1</clus>
<clus scale="   92.555">  7  8 -1 -1</clus>
<clus scale="   31.646">  2  5  1 -1</clus>
</clustering>
</event>
<event>
 9    1  0.6345107E-005  0.1030536E+03  0.7546771E-02  0.1279146E+00
         21   -1    0    0  501  502  0.00000000000E+00  0.00000000000E+00  0.54595367260E+02  0.54595367260E+02  0.00000000000E+00 0.  1.
          1   -1    0    0  502    0 -0.00000000000E+00 -0.00000000000E+00 -0.62629329312E+03  0.62629329312E+03  0.00000000000E+00 0. -1.
         23    2    1    2    0    0 -0.37290411675E+02  0.68597265916E+01 -0.28369886565E+03  0.30058267663E+03  0.91800155033E+02 0.  0.
        -24    2    1    2    0    0  0.73405615669E+02 -0.68018160867E+02 -0.60814098298E+02  0.14227726918E+03  0.80806015583E+02 0.  0.
         11    1    4    4    0    0  0.26002685086E+02 -0.39521867440E+01 -0.56666959550E+02  0.62473223996E+02  0.00000000000E+00 0. -1.
        -12    1    4    4    0    0  0.47402930583E+02 -0.64065974123E+02 -0.41471387476E+01  0.79804045186E+02  0.00000000000E+00 0.  1.
        -11    1    3    3    0    0 -0.62608617907E+02 -0.11655195755E+02 -0.14478924913E+03  0.15817588087E+03  0.00000000000E+00 0. -1.
         11    1    3    3    0    0  0.25318206233E+02  0.18514922347E+02 -0.13890961652E+03  0.14240679576E+03  0.00000000000E+00 0.  1.
          2    1    1    2  501    0 -0.36115203995E+02  0.61158434275E+02 -0.22718496191E+03  0.23802871458E+03  0.00000000000E+00 0. -1.
<scales pt_clust_5="13000.00000" pt_clust_6="13000.00000" pt_clust_7="13000.00000" pt_clust_8="13000.00000" pt_clust_9="71.02582"></scales>
<clustering>
<clus scale="   71.026">  1  9  2 -1</clus>
<clus scale="   80.806">  5  6 -1 -1</clus>
<clus scale="   91.800">  7  8 -1 -1</clus>
<clus scale="   93.394">  1  5  2 -1</clus>
<clus scale="   71.026">  1  5  2 -1</clus>
</clustering>
</event>
<event>
 9    1  0.6345107E-005  0.1415824E+03  0.7546771E-02  0.1211982E+00
         21   -1    0    0  501  502  0.00000000000E+00  0.00000000000E+00  0.16096053394E+03  0.16096053394E+03  0.00000000000E+00 0. -1.
          1   -1    0    0  502    0 -0.00000000000E+00 -0.00000000000E+00 -0.16278004092E+03  0.16278004092E+03  0.00000000000E+00 0. -1.
         23    2    1    2    0    0 -0.10638220433E+03  0.71852477237E+02 -0.74064302268E+01  0.15510568230E+03  0.86735030923E+02 0.  0.
        -24    2    1    2    0    0  0.87403807889E+02 -0.39830186422E+02  0.20468541181E+02  0.12854662505E+03  0.82942174132E+02 0.  0.
         11    1    4    4    0    0  0.92188517576E+02 -0.57213362257E+02  0.20983043857E+02  0.11050963634E+03  0.00000000000E+00 0. -1.
        -12    1    4    4    0    0 -0.47847096866E+01  0.17383175834E+02 -0.51450267603E+00  0.18036988714E+02  0.00000000000E+00 0.  1.
        -13    1    3    3    0    0 -0.82715024971E+02  0.15584512963E+02 -0.30949596107E+02  0.89680153319E+02  0.00000000000E+00 0. -1.
         13    1    3    3    0    0 -0.23667179356E+02  0.56267964274E+02  0.23543165880E+02  0.65425528976E+02  0.00000000000E+00 0.  1.
          2    1    1    2  501    0  0.18978396438E+02 -0.32022290814E+02 -0.14881617933E+02  0.40088267518E+02  0.00000000000E+00 0. -1.
<scales pt_clust_5="13000.00000" pt_clust_6="13000.00000" pt_clust_7="13000.00000" pt_clust_8="13000.00000" pt_clust_9="37.22376"></scales>
<clustering>
<clus scale="   37.224">  1  9  2 -1</clus>
<clus scale="   82.942">  5  6 -1 -1</clus>
<clus scale="   86.735">  7  8 -1 -1</clus>
<clus scale="  139.291">  1  5  2 -1</clus>
<clus scale="   37.224">  1  5  2 -1</clus>
</clustering>
</event>
<event>
 9    1  0.6345107E-005  0.1199648E+03  0.7546771E-02  0.1247679E+00
          1   -1    0    0  502    0 -0.00000000000E+00  0.00000000000E+00  0.69766787333E+02  0.69766787333E+02  0.00000000000E+00 0. -1.
         21   -1    0    0  501  502  0.00000000000E+00 -0.00000000000E+00 -0.41728614697E+03  0.41728614697E+03  0.00000000000E+00 0. -1.
         23    2    1    2    0    0  0.13464733757E+02  0.62579866197E+02 -0.39492980312E+02  0.11873655003E+03  0.91875644823E+02 0.  0.
        -24    2    1    2    0    0 -0.44090183637E+02 -0.94167854314E+02 -0.12554133221E+03  0.18060247537E+03  0.77750234321E+02 0.  0.
         11    1    4    4    0    0 -0.40145827016E+02 -0.66002225193E+02 -0.33385737057E+02  0.84158116638E+02  0.00000000000E+00 0. -1.
        -12    1    4    4    0    0 -0.39443566212E+01 -0.28165629121E+02 -0.92155595153E+02  0.96444358731E+02  0.00000000000E+00 0.  1.
        -13    1    3    3    0    0 -0.25479867140E+02  0.89429328264E+01  0.16775121302E+02  0.31790004274E+02  0.00000000000E+00 0.  1.
         13    1    3    3    0    0  0.38944600898E+02  0.53636933371E+02 -0.56268101614E+02  0.86946545761E+02  0.00000000000E+00 0. -1.
          2    1    1    2  501    0  0.30625449880E+02  0.31587988117E+02 -0.18248504711E+03  0.18771390890E+03  0.00000000000E+00 0. -1.
<scales pt_clust_5="13000.00000" pt_clust_6="13000.00000" pt_clust_7="13000.00000" pt_clust_8="13000.00000" pt_clust_9="43.99681"></scales>
<clustering>
<clus scale="   43.997">  2  9  1 -1</clus>
<clus scale="   77.750">  5  6 -1 -1</clus>
<clus scale="   91.876">  7  8 -1 -1</clus>
<clus scale="  109.524">  2  5  1 -1</clus>
<clus scale="   43.997">  2  5  1 -1</clus>
</clustering>
</event>
<event>
 9    1  0.6345107E-005  0.1642194E+03  0.7546771E-02  0.1214240E+00
          3   -1    0    0  502    0 -0.00000000000E+00  0.00000000000E+00  0.40968888544E+03  0.40968888544E+03  0.00000000000E+00 0. -1.
         21   -1    0    0  501  502  0.00000000000E+00 -0.00000000000E+00 -0.10802688059E+03  0.10802688059E+03  0.00000000000E+00 0. -1.
        -24    2    1    2    0    0 -0.24411393619E+02  0.21473333016E+02  0.58845468530E+02  0.10344965723E+03  0.78625837004E+02 0.  0.
         23    2    1    2    0    0  0.91444828075E+02 -0.11317308126E+03  0.33228339960E+02  0.17587664339E+03  0.93049278405E+02 0.  0.
         13    1    3    3    0    0 -0.37164014523E+02  0.35453564569E+02  0.11742512812E+02  0.52687814751E+02  0.00000000000E+00 0. -1.
        -14    1    3    3    0    0  0.12752620904E+02 -0.13980231552E+02  0.47102955718E+02  0.50761842475E+02  0.00000000000E+00 0.  1.
        -13    1    4    4    0    0  0.50935285416E+02 -0.24491382018E+02  0.51757016349E+02  0.76635630323E+02  0.00000000000E+00 0.  1.
         13    1    4    4    0    0  0.40509542659E+02 -0.88681699241E+02 -0.18528676389E+02  0.99241013071E+02  0.00000000000E+00 0. -1.
          4    1    1    2  501    0 -0.67033434456E+02  0.91699748243E+02  0.20958819636E+03  0.23838946541E+03  0.00000000000E+00 0. -1.
<scales pt_clust_5="13000.00000" pt_clust_6="13000.00000" pt_clust_7="13000.00000" pt_clust_8="13000.00000" pt_clust_9="135.31390"></scales>
<clustering>
<clus scale="   78.626">  5  6 -1 -1</clus>
<clus scale="   85.083">  1  5  2 -1</clus>
<clus scale="   93.049">  7  8 -1 -1</clus>
<clus scale="  135.314">  2  9  1 -1</clus>
<clus scale="  135.314">  2  5  1 -1</clus>
</clustering>
</event>
<event>
 9    1  0.6345107E-005  0.7990332E+02  0.7546771E-02  0.1330353E+00
         21   -1    0    0  501  502  0.00000000000E+00  0.00000000000E+00  0.20408184567E+03  0.20408184567E+03  0.00000000000E+00 0. -1.
         -2   -1    0    0    0  501 -0.00000000000E+00 -0.00000000000E+00 -0.18180654363E+03  0.18180654363E+03  0.00000000000E+00 0.  1.
        -24    2    1    2    0    0  0.46595367868E+01  0.12594657894E+01 -0.15702066033E+03  0.17619719087E+03  0.79791382759E+02 0.  0.
         23    2    1    2    0    0  0.13820838790E+02 -0.19407662082E+02  0.12366714996E+03  0.14832796775E+03  0.78357827349E+02 0.  0.
         11    1    3    3    0    0 -0.24572726045E+02  0.29883291067E+02 -0.68273555253E+02  0.78473615293E+02  0.00000000000E+00 0. -1.
        -12    1    3    3    0    0  0.29232262832E+02 -0.28623825278E+02 -0.88747105074E+02  0.97723575573E+02  0.00000000000E+00 0.  1.
        -11    1    4    4    0    0 -0.23558543258E+02 -0.29742679245E+01  0.70516394685E+01  0.24770483430E+02  0.00000000000E+00 0.  1.
         11    1    4    4    0    0  0.37379382048E+02 -0.16433394158E+02  0.11661551049E+03  0.12355748432E+03  0.00000000000E+00 0. -1.
         -1    1    1    2    0  502 -0.18480375576E+02  0.18148196293E+02  0.55628812407E+02  0.61363230683E+02  0.00000000000E+00 0.  1.
<scales pt_clust_5="13000.00000" pt_clust_6="13000.00000" pt_clust_7="13000.00000" pt_clust_8="13000.00000" pt_clust_9="25.90138"></scales>
<clustering>
<clus scale="   25.901">  1  9  2 -1</clus>
<clus scale="   78.358">  7  8 -1 -1</clus>
<clus scale="   78.472">  1  7  2 -1</clus>
<clus scale="   79.791">  5  6 -1 -1</clus>
<clus scale="   25.901">  1  5  2 -1</clus>
</clustering>
</event>
<event>
 9    1  0.6345107E-005  0.9820927E+02  0.7546771E-02  0.1290215E+00
         21   -1    0    0  501  502  0.00000000000E+00  0.00000000000E+00  0.69539434928E+02  0.69539434928E+02  0.00000000000E+00 0.  1.
          1   -1    0    0  502    0 -0.00000000000E+00 -0.00000000000E+00 -0.19941878309E+03  0.19941878309E+03  0.00000000000E+00 0. -1.
        -24    2    1    2    0    0 -0.13687395087E+02 -0.31342072253E+02 -0.10859973637E+03  0.13978644946E+03  0.81096722719E+02 0.  0.
         23    2    1    2    0    0 -0.11640912375E+02  0.34880138371E+02 -0.26626007246E+02  0.10304467506E+03  0.92504734482E+02 0.  0.
         13    1    3    3    0    0  0.78481247994E+01 -0.55262518771E+02 -0.67867406569E+02  0.87872202193E+02  0.00000000000E+00 0. -1.
        -14    1    3    3    0    0 -0.21535519887E+02  0.23920446518E+02 -0.40732329802E+02  0.51914247269E+02  0.00000000000E+00 0.  1.
        -13    1    4    4    0    0  0.27119031307E+02  0.50431242399E+02 -0.10171388542E+02  0.58156764127E+02  0.00000000000E+00 0.  1.
         13    1    4    4    0    0 -0.38759943683E+02 -0.15551104027E+02 -0.16454618705E+02  0.44887910928E+02  0.00000000000E+00 0. -1.
          2    1    1    2  501    0  0.25328307463E+02 -0.35380661182E+01  0.53463954506E+01  0.26127093506E+02  0.00000000000E+00 0. -1.
<scales pt_clust_5="13000.00000" pt_clust_6="13000.00000" pt_clust_7="13000.00000" pt_clust_8="13000.00000" pt_clust_9="25.57423"></scales>
<clustering>
<clus scale="   25.574">  1  9  2 -1</clus>
<clus scale="   81.097">  5  6 -1 -1</clus>
<clus scale="   87.548">  2  5  1 -1</clus>
<clus scale="   92.505">  7  8 -1 -1</clus>
<clus scale="   25.574">  1  5  2 -1</clus>
</clustering>
</event>
<event>
 9    1  0.6345107E-005  0.9712924E+02  0.7546771E-02  0.1291823E+00
          3   -1    0    0  502    0 -0.00000000000E+00  0.00000000000E+00  0.56253583666E+02  0.56253583666E+02  0.00000000000E+00 0. -1.
         21   -1    0    0  501  502  0.00000000000E+00 -0.00000000000E+00 -0.44179414222E+03  0.44179414222E+03  0.00000000000E+00 0. -1.
         23    2    1    2    0    0  0.21961236167E+02  0.14552808448E+01 -0.36050534699E+02  0.10019716331E+03  0.90859323944E+02 0.  0.
        -24    2    1    2    0    0 -0.75247772385E+02 -0.44205541859E+02 -0.25361641258E+03  0.28012720424E+03  0.80830740709E+02 0.  0.
         13    1    4    4    0    0 -0.88442748525E+02 -0.52509523776E+02 -0.22821866118E+03  0.25032604172E+03  0.00000000000E+00 0. -1.
        -14    1    4    4    0    0  0.13194976140E+02  0.83039819168E+01 -0.25397751403E+02  0.29801162517E+02  0.00000000000E+00 0.  1.
        -11    1    3    3    0    0  0.41450061178E+01  0.36684944811E+02  0.11242420710E+02  0.38592204846E+02  0.00000000000E+00 0.  1.
         11    1    3    3    0    0  0.17816230049E+02 -0.35229663966E+02 -0.47292955409E+02  0.61604958467E+02  0.00000000000E+00 0. -1.
          4    1    1    2  501    0  0.53286536218E+02  0.42750261014E+02 -0.95873611272E+02  0.11772335833E+03  0.00000000000E+00 0. -1.
<scales pt_clust_5="13000.00000" pt_clust_6="13000.00000" pt_clust_7="13000.00000" pt_clust_8="13000.00000" pt_clust_9="68.31574"></scales>
<clustering>
<clus scale="   68.316">  2  9  1 -1</clus>
<clus scale="   80.831">  5  6 -1 -1</clus>
<clus scale="   87.820">  2  5  1 -1</clus>
<clus scale="   90.859">  7  8 -1 -1</clus>
<clus scale="   68.316">  2  5  1 -1</clus>
</clustering>
</event>
<event>
 9    1  0.6345107E-005  0.1565127E+03  0.7546771E-02  0.1192723E+00
          1   -1    0    0  502    0 -0.00000000000E+00  0.00000000000E+00  0.59292005763E+03  0.59292005763E+03  0.00000000000E+00 0. -1.
         21   -1    0    0  501  502  0.00000000000E+00 -0.00000000000E+00 -0.57530780975E+02  0.57530780975E+02  0.00000000000E+00 0. -1.
        -24    2    1    2    0    0 -0.49811538383E+02 -0.12752421108E+03  0.31016209420E+03  0.35089020371E+03  0.90442228021E+02 0.  0.
         23    2    1    2    0    0  0.62603283238E+02  0.94801110106E+02  0.11951291718E+03  0.18816074281E+03  0.90635016486E+02 0.  0.
         11    1    3    3    0    0 -0.29447723796E+02 -0.13569547503E+03  0.23884615508E+03  0.27627507339E+03  0.00000000000E+00 0. -1.
        -12    1    3    3    0    0 -0.20363814587E+02  0.81712639504E+01  0.71315939122E+02  0.74615130315E+02  0.00000000000E+00 0.  1.
        -11    1    4    4    0    0  0.15518650443E+02  0.96898188999E+02  0.83387736116E+02  0.12877733526E+03  0.00000000000E+00 0. -1.
         11    1    4    4    0    0  0.47084632795E+02 -0.20970788931E+01  0.36125181059E+02  0.59383407547E+02  0.00000000000E+00 0.  1.
          2    1    1    2  501    0 -0.12791744855E+02  0.32723100977E+02  0.10571426528E+03  0.11139989209E+03  0.00000000000E+00 0. -1.
<scales pt_clust_5="13000.00000" pt_clust_6="13000.00000" pt_clust_7="13000.00000" pt_clust_8="13000.00000" pt_clust_9="35.13447"></scales>
<clustering>
<clus scale="   35.134">  2  9  1 -1</clus>
<clus scale="   90.442">  5  6 -1 -1</clus>
<clus scale="   90.635">  7  8 -1 -1</clus>
<clus scale="  156.401">  1  5  2 -1</clus>
<clus scale="   35.134">  2  5  1 -1</clus>
</clustering>
</event>
<event>
 9    1  0.6345107E-005  0.1128942E+03  0.7546771E-02  0.1265864E+00
         21   -1    0    0  501  502  0.00000000000E+00  0.00000000000E+00  0.12463802300E+03  0.12463802300E+03  0.00000000000E+00 0. -1.
          1   -1    0    0  502    0 -0.00000000000E+00 -0.00000000000E+00 -0.22880472570E+03  0.22880472570E+03  0.00000000000E+00 0. -1.
         23    2    1    2    0    0 -0.38732383995E+01 -0.22670340696E+02 -0.10226553643E+03  0.13739003390E+03  0.88819114776E+02 0.  0.
        -24    2    1    2    0    0  0.12979379469E+02 -0.69144652354E+02  0.39580310259E+02  0.11489132074E+03  0.81755534254E+02 0.  0.
         13    1    4    4    0    0 -0.18118557001E+02 -0.29438424635E+02  0.52472161024E+02  0.62834947564E+02  0.00000000000E+00 0. -1.
        -14    1    4    4    0    0  0.31097936470E+02 -0.39706227719E+02 -0.12891850765E+02  0.52056373179E+02  0.00000000000E+00 0.  1.
        -13    1    3    3    0    0  0.23834133357E+02  0.96869671944E+01 -0.89194118013E+02  0.92830458011E+02  0.00000000000E+00 0. -1.
         13    1    3    3    0    0 -0.27707371756E+02 -0.32357307891E+02 -0.13071418416E+02  0.44559575884E+02  0.00000000000E+00 0.  1.
          2    1    1    2  501    0 -0.91061410699E+01  0.91814993050E+02 -0.41481476525E+02  0.10116139406E+03  0.00000000000E+00 0. -1.
<scales pt_clust_5="13000.00000" pt_clust_6="13000.00000" pt_clust_7="13000.00000" pt_clust_8="13000.00000" pt_clust_9="77.85335"></scales>
<clustering>
<clus scale="   81.756">  5  6 -1 -1</clus>
<clus scale="   88.819">  7  8 -1 -1</clus>
<clus scale="   91.748">  2  7  1 -1</clus>
<clus scale="   77.853">  1  9  2 -1</clus>
<clus scale="   77.853">  1  5  2 -1</clus>
</clustering>
</event>
<event>
 9    1  0.6345107E-005  0.1315247E+03  0.7546771E-02  0.1228041E+00
          1   -1    0    0  502    0 -0.00000000000E+00  0.00000000000E+00  0.13879252084E+03  0.13879252084E+03  0.00000000000E+00 0. -1.
         21   -1    0    0  501  502  0.00000000000E+00 -0.00000000000E+00 -0.34465050600E+03  0.34465050600E+03  0.00000000000E+00 0. -1.
         23    2    1    2    0    0  0.95296220155E+02  0.39252789734E+01  0.62092942948E+02  0.14590073092E+03  0.91294645666E+02 0.  0.
        -24    2    1    2    0    0 -0.90400742628E+02  0.45289026771E+02 -0.25599728240E+03  0.28666102986E+03  0.80103353455E+02 0.  0.
         11    1    4    4    0    0 -0.29643981892E+02  0.17719996799E+00 -0.16802363541E+03  0.17061869510E+03  0.00000000000E+00 0. -1.
        -12    1    4    4    0    0 -0.60756760735E+02  0.45111826803E+02 -0.87973646986E+02  0.11604233476E+03  0.00000000000E+00 0.  1.
        -13    1    3    3    0    0 -0.46240006482E+01  0.26504756133E+02  0.16433771526E+01  0.26955225247E+02  0.00000000000E+00 0.  1.
         13    1    3    3    0    0  0.99920220803E+02 -0.22579477160E+02  0.60449565796E+02  0.11894550567E+03  0.00000000000E+00 0. -1.
          2    1    1    2  501    0 -0.48954775270E+01 -0.49214305745E+02 -0.11953645709E+02  0.50881266060E+02  0.00000000000E+00 0. -1.
<scales pt_clust_5="13000.00000" pt_clust_6="13000.00000" pt_clust_7="13000.00000" pt_clust_8="13000.00000" pt_clust_9="49.45721"></scales>
<clustering>
<clus scale="   49.457">  2  9  1 -1</clus>
<clus scale="   80.103">  5  6 -1 -1</clus>
<clus scale="   91.295">  7  8 -1 -1</clus>
<clus scale="  124.019">  2  5  1 -1</clus>
<clus scale="   49.457">  2  5  1 -1</clus>
</clustering>
</event>
<event>
 9    1  0.6345107E-005  0.9862216E+02  0.7546771E-02  0.1287172E+00
         -2   -1    0    0    0  501 -0.00000000000E+00  0.00000000000E+00  0.14871394438E+03  0.14871394438E+03  0.00000000000E+00 0.  1.
         21   -1    0    0  501  502  0.00000000000E+00 -0.00000000000E+00 -0.19177642254E+03  0.19177642254E+03  0.00000000000E+00 0.  1.
        -24    2    1    2    0    0  0.35747524184E+02  0.34341642270E+02 -0.31038303319E+02  0.10188405927E+03  0.83425124397E+02 0.  0.
         23    2    1    2    0    0 -0.22842919506E+02  0.29417013097E+01 -0.10299511411E+03  0.13944841175E+03  0.91145013192E+02 0.  0.
         13    1    3    3    0    0  0.58383926011E+02  0.39614823647E+01 -0.13103718039E+02  0.59967354330E+02  0.00000000000E+00 0. -1.
        -14    1    3    3    0    0 -0.22636401827E+02  0.30380159906E+02 -0.17934585281E+02  0.41916704937E+02  0.00000000000E+00 0.  1.
        -11    1    4    4    0    0  0.15958154150E+01 -0.41440603646E+02 -0.60342055374E+02  0.73219081557E+02  0.00000000000E+00 0.  1.
         11    1    4    4    0    0 -0.24438734921E+02  0.44382304955E+02 -0.42653058736E+02  0.66229330188E+02  0.00000000000E+00 0. -1.
         -1    1    1    2    0  502 -0.12904604678E+02 -0.37283343580E+02  0.90970939263E+02  0.99157895908E+02  0.00000000000E+00 0.  1.
<scales pt_clust_5="13000.00000" pt_clust_6="13000.00000" pt_clust_7="13000.00000" pt_clust_8="13000.00000" pt_clust_9="39.45349"></scales>
<clustering>
<clus scale="   39.453">  2  9  1 -1</clus>
<clus scale="   83.425">  5  6 -1 -1</clus>
<clus scale="   91.145">  7  8 -1 -1</clus>
<clus scale="   91.535">  1  5  2 -1</clus>
<clus scale="   39.453">  2  5  1 -1</clus>
</clustering>
</event>
<event>
 9    1  0.6345107E-005  0.9827397E+02  0.7546771E-02  0.1288448E+00
         21   -1    0    0  501  502  0.00000000000E+00  0.00000000000E+00  0.53036966296E+02  0.53036966296E+02  0.00000000000E+00 0.  1.
          1   -1    0    0  502    0 -0.00000000000E+00 -0.00000000000E+00 -0.39732923553E+03  0.39732923553E+03  0.00000000000E+00 0. -1.
         23    2    1    2    0    0 -0.15779070182E+02  0.33222918996E+02 -0.30317036559E+03  0.31818460905E+03  0.89310880979E+02 0.  0.
        -24    2    1    2    0    0  0.28583864302E+02 -0.53979207631E+02 -0.36077995456E+02  0.10727723010E+03  0.80473537189E+02 0.  0.
         13    1    4    4    0    0 -0.20591415988E+02  0.76752308466E+01 -0.10614957959E+02  0.24404772349E+02  0.00000000000E+00 0. -1.
        -14    1    4    4    0    0  0.49175280290E+02 -0.61654438478E+02 -0.25463037497E+02  0.82872457754E+02  0.00000000000E+00 0.  1.
        -11    1    3    3    0    0  0.23246428860E+02  0.46711608995E+02 -0.20797363714E+03  0.21441875994E+03  0.00000000000E+00 0. -1.
         11    1    3    3    0    0 -0.39025499042E+02 -0.13488689999E+02 -0.95196728451E+02  0.10376584911E+03  0.00000000000E+00 0.  1.
          2    1    1    2  501    0 -0.12804794119E+02  0.20756288635E+02 -0.50439081879E+01  0.24904362673E+02  0.00000000000E+00 0. -1.
<scales pt_clust_5="13000.00000" pt_clust_6="13000.00000" pt_clust_7="13000.00000" pt_clust_8="13000.00000" pt_clust_9="24.38824"></scales>
<clustering>
<clus scale="   24.388">  1  9  2 -1</clus>
<clus scale="   80.474">  5  6 -1 -1</clus>
<clus scale="   89.311">  7  8 -1 -1</clus>
<clus scale="   90.318">  1  5  2 -1</clus>
<clus scale="   24.388">  1  5  2 -1</clus>
</clustering>
</event>
<event>
 9    1  0.6345107E-005  0.1034498E+03  0.7546771E-02  0.1280891E+00
         -2   -1    0    0    0  501 -0.00000000000E+00  0.00000000000E+00  0.50111470682E+02  0.50111470682E+02  0.00000000000E+00 0.  1.
         21   -1    0    0  501  502  0.00000000000E+00 -0.00000000000E+00 -0.29685638669E+03  0.29685638669E+03  0.00000000000E+00 0. -1.
        -24    2    1    2    0    0 -0.32916676992E+02  0.27573574852E+02 -0.94114714180E+02  0.12770590092E+03  0.74882628501E+02 0.  0.
         23    2    1    2    0    0  0.10206627886E+02 -0.63319961414E+02 -0.12977591815E+03  0.17113848229E+03  0.91285258513E+02 0.  0.
         13    1    3    3    0    0 -0.40135114977E+02  0.23301772631E+02 -0.15921626825E+02  0.49064225895E+02  0.00000000000E+00 0. -1.
        -14    1    3    3    0    0  0.72184379851E+01  0.42718022212E+01 -0.78193087356E+02  0.78641675029E+02  0.00000000000E+00 0.  1.
        -13    1    4    4    0    0 -0.10876842704E+02 -0.28083688301E+02  0.47468888530E+01  0.30488230673E+02  0.00000000000E+00 0.  1.
         13    1    4    4    0    0  0.21083470590E+02 -0.35236273114E+02 -0.13452280701E+03  0.14065025162E+03  0.00000000000E+00 0. -1.
         -1    1    1    2    0  502  0.22710049106E+02  0.35746386562E+02 -0.22854283673E+02  0.48123474156E+02  0.00000000000E+00 0.  1.
<scales pt_clust_5="13000.00000" pt_clust_6="13000.00000" pt_clust_7="13000.00000" pt_clust_8="13000.00000" pt_clust_9="42.35035"></scales>
<clustering>
<clus scale="   42.350">  2  9  1 -1</clus>
<clus scale="   74.883">  5  6 -1 -1</clus>
<clus scale="   89.310">  1  5  2 -1</clus>
<clus scale="   91.285">  7  8 -1 -1</clus>
<clus scale="   42.350">  2  5  1 -1</clus>
</clustering>
</event>
<event>
 9    1  0.6345107E-005  0.2248006E+03  0.7546771E-02  0.1163242E+00
          1   -1    0    0  502    0 -0.00000000000E+00  0.00000000000E+00  0.89961106655E+03  0.89961106655E+03  0.00000000000E+00 0. -1.
         21   -1    0    0  501  502  0.00000000000E+00 -0.00000000000E+00 -0.11720589536E+03  0.11720589536E+03  0.00000000000E+00 0.  1.
        -24    2    1    2    0    0 -0.57480763223E+02  0.93614954707E+01  0.48025676084E+02  0.11333095672E+03  0.84532623580E+02 0.  0.
         23    2    1    2    0    0  0.13019657374E+03 -0.16956525817E+03  0.11635493617E+03  0.26090745736E+03  0.93971833751E+02 0.  0.
         13    1    3    3    0    0 -0.22769047578E+02  0.31688608010E+02  0.58897604788E+02  0.70650727207E+02  0.00000000000E+00 0. -1.
        -14    1    3    3    0    0 -0.34711715645E+02 -0.22327112539E+02 -0.10871928704E+02  0.42680229511E+02  0.00000000000E+00 0.  1.
        -13    1    4    4    0    0  0.50759712987E+02 -0.12387293873E+03  0.10166331162E+03  0.16809664584E+03  0.00000000000E+00 0.  1.
         13    1    4    4    0    0  0.79436860757E+02 -0.45692319449E+02  0.14691624551E+02  0.92810811522E+02  0.00000000000E+00 0. -1.
          2    1    1    2  501    0 -0.72715810520E+02  0.16020376270E+03  0.61802455894E+03  0.64257854783E+03  0.00000000000E+00 0. -1.
<scales pt_clust_5="13000.00000" pt_clust_6="13000.00000" pt_clust_7="13000.00000" pt_clust_8="13000.00000" pt_clust_9="204.21714"></scales>
<clustering>
<clus scale="   84.533">  5  6 -1 -1</clus>
<clus scale="   93.972">  7  8 -1 -1</clus>
<clus scale="  102.652">  1  5  2 -1</clus>
<clus scale="  204.217">  2  9  1 -1</clus>
<clus scale="  204.217">  2  5  1 -1</clus>
</clustering>
</event>
<event>
 9    1  0.6345107E-005  0.1389376E+03  0.7546771E-02  0.1217787E+00
          1   -1    0    0  502    0 -0.00000000000E+00  0.00000000000E+00  0.99035571093E+03  0.99035571093E+03  0.00000000000E+00 0. -1.
         21   -1    0    0  501  502  0.00000000000E+00 -0.00000000000E+00 -0.28807626508E+02  0.28807626508E+02  0.00000000000E+00 0.  1.
        -24    2    1    2    0    0 -0.10677183638E+03 -0.15185044358E+02  0.38888362234E+03  0.41125827276E+03  0.79196493431E+02 0.  0.
         23    2    1    2    0    0  0.86989465480E+02  0.54805540947E+02  0.28475529134E+03  0.31660999684E+03  0.92657971765E+02 0.  0.
         11    1    3    3    0    0 -0.44490398900E+02  0.30546426303E+02  0.12176280052E+03  0.13318655842E+03  0.00000000000E+00 0. -1.
        -12    1    3    3    0    0 -0.62281437479E+02 -0.45731470661E+02  0.26712082182E+03  0.27807171434E+03  0.00000000000E+00 0.  1.
        -11    1    4    4    0    0  0.68773874279E+02  0.19430458074E+02  0.26024006926E+03  0.26987456740E+03  0.00000000000E+00 0.  1.
         11    1    4    4    0    0  0.18215591201E+02  0.35375082873E+02  0.24515222083E+02  0.46735429440E+02  0.00000000000E+00 0. -1.
          2    1    1    2  501    0  0.19782370899E+02 -0.39620496589E+02  0.28790917075E+03  0.29129506784E+03  0.00000000000E+00 0. -1.
<scales pt_clust_5="13000.00000" pt_clust_6="13000.00000" pt_clust_7="13000.00000" pt_clust_8="13000.00000" pt_clust_9="44.28462"></scales>
<clustering>
<clus scale="   44.285">  2  9  1 -1</clus>
<clus scale="   79.196">  5  6 -1 -1</clus>
<clus scale="   92.658">  7  8 -1 -1</clus>
<clus scale="  130.347">  1  5  2 -1</clus>
<clus scale="   44.285">  2  5  1 -1</clus>
</clustering>
</event>
<event>
 9    1  0.9779220E-005  0.1744879E+03  0.7546771E-02  0.1174618E+00
          1   -1    0    0  502    0 -0.00000000000E+00  0.00000000000E+00  0.79467045951E+03  0.79467045951E+03  0.00000000000E+00 0. -1.
         21   -1    0    0  501  502  0.00000000000E+00 -0.00000000000E+00 -0.93521602116E+02  0.93521602116E+02  0.00000000000E+00 0. -1.
        -24    2    1    2    0    0 -0.14993853378E+03 -0.18846846300E+02  0.67409480681E+03  0.69551403028E+03  0.80617555366E+02 0.  0.
         23    2    1    2    0    0  0.13134086314E+03  0.50610880007E+01  0.41263020493E+01  0.16009579480E+03  0.91310460527E+02 0.  0.
         13    1    3    3    0    0 -0.15305966161E+03 -0.14699596078E+02  0.67282349851E+03  0.69017012271E+03  0.00000000000E+00 0. -1.
        -14    1    3    3    0    0  0.31211278358E+01 -0.41472502219E+01  0.12713082981E+01  0.53439075739E+01  0.00000000000E+00 0.  1.
        -11    1    4    4    0    0  0.12649565330E+03 -0.23849972055E+02 -0.65676888993E+01  0.12889183841E+03  0.00000000000E+00 0. -1.
         11    1    4    4    0    0  0.48452098382E+01  0.28911060056E+02  0.10693990949E+02  0.31203956389E+02  0.00000000000E+00 0.  1.
          2    1    1    2  501    0  0.18597670639E+02  0.13785758299E+02  0.22927748537E+02  0.32582236542E+02  0.00000000000E+00 0. -1.
<scales pt_clust_5="13000.00000" pt_clust_6="13000.00000" pt_clust_7="13000.00000" pt_clust_8="13000.00000" pt_clust_9="23.14996"></scales>
<clustering>
<clus scale="   23.150">  2  9  1 -1</clus>
<clus scale="   80.618">  5  6 -1 -1</clus>
<clus scale="   91.310">  7  8 -1 -1</clus>
<clus scale="  169.138">  1  5  2 -1</clus>
<clus scale="   23.150">  2  5  1 -1</clus>
</clustering>
</event>
<event>
 9    1  0.6345107E-005  0.1054026E+03  0.7546771E-02  0.1274759E+00
          1   -1    0    0  502    0 -0.00000000000E+00  0.00000000000E+00  0.33476798471E+03  0.33476798471E+03  0.00000000000E+00 0. -1.
         21   -1    0    0  501  502  0.00000000000E+00 -0.00000000000E+00 -0.11107858820E+03  0.11107858820E+03  0.00000000000E+00 0.  1.
         23    2    1    2    0    0 -0.58869059741E+02 -0.54007560672E+01  0.26736974672E+03  0.28937146807E+03  0.93565649202E+02 0.  0.
        -24    2    1    2    0    0  0.14686438822E+02 -0.76313162540E-01  0.13520004801E+02  0.83990741755E+02  0.81584047838E+02 0.  0.
         11    1    4    4    0    0  0.33220459395E+02  0.13207724355E+02  0.36868159878E+02  0.51354689346E+02  0.00000000000E+00 0. -1.
        -12    1    4    4    0    0 -0.18534020573E+02 -0.13284037517E+02 -0.23348155077E+02  0.32636052409E+02  0.00000000000E+00 0.  1.
        -13    1    3    3    0    0 -0.62974136057E+02 -0.39693189632E+02  0.20470066114E+03  0.21781563715E+03  0.00000000000E+00 0.  1.
         13    1    3    3    0    0  0.41050763150E+01  0.34292433565E+02  0.62669085581E+02  0.71555830922E+02  0.00000000000E+00 0. -1.
          2    1    1    2  501    0  0.44182620919E+02  0.54770692298E+01 -0.57200355009E+02  0.72484363085E+02  0.00000000000E+00 0. -1.
<scales pt_clust_5="13000.00000" pt_clust_6="13000.00000" pt_clust_7="13000.00000" pt_clust_8="13000.00000" pt_clust_9="44.52081"></scales>
<clustering>
<clus scale="   44.521">  2  9  1 -1</clus>
<clus scale="   81.584">  5  6 -1 -1</clus>
<clus scale="   93.566">  7  8 -1 -1</clus>
<clus scale="   94.927">  2  5  1 -1</clus>
<clus scale="   44.521">  2  5  1 -1</clus>
</clustering>
</event>
<event>
 9    1  0.6345107E-005  0.1522814E+03  0.7546771E-02  0.1199832E+00
         21   -1    0    0  501  502  0.00000000000E+00  0.00000000000E+00  0.18011347009E+03  0.18011347009E+03  0.00000000000E+00 0. -1.
          1   -1    0    0  502    0 -0.00000000000E+00 -0.00000000000E+00 -0.16036134957E+03  0.16036134957E+03  0.00000000000E+00 0. -1.
        -24    2    1    2    0    0 -0.10724862299E+02  0.13320450132E+03 -0.40639821217E+02  0.16003092209E+03  0.78101466784E+02 0.  0.
         23    2    1    2    0    0  0.17765305833E+02 -0.10250502653E+03  0.55690231858E+02  0.14859846347E+03  0.90317301029E+02 0.  0.
         13    1    3    3    0    0 -0.30455310108E+02  0.11851527466E+03 -0.13037194955E+02  0.12305837921E+03  0.00000000000E+00 0. -1.
        -14    1    3    3    0    0  0.19730447809E+02  0.14689226659E+02 -0.27602626262E+02  0.36972542882E+02  0.00000000000E+00 0.  1.
        -13    1    4    4    0    0  0.22336465378E+02 -0.17893226462E+02 -0.20052437516E+02  0.34945464500E+02  0.00000000000E+00 0.  1.
         13    1    4    4    0    0 -0.45711595451E+01 -0.84611800067E+02  0.75742669374E+02  0.11365299897E+03  0.00000000000E+00 0. -1.
          2    1    1    2  501    0 -0.70404435340E+01 -0.30699474789E+02  0.47017098825E+01  0.31845434104E+02  0.00000000000E+00 0. -1.
<scales pt_clust_5="13000.00000" pt_clust_6="13000.00000" pt_clust_7="13000.00000" pt_clust_8="13000.00000" pt_clust_9="31.49644"></scales>
<clustering>
<clus scale="   31.496">  1  9  2 -1</clus>
<clus scale="   78.101">  5  6 -1 -1</clus>
<clus scale="   90.317">  7  8 -1 -1</clus>
<clus scale="  145.369">  2  5  1 -1</clus>
<clus scale="   31.496">  1  5  2 -1</clus>
</clustering>
</event>
<event>
 9    1  0.6345107E-005  0.1359451E+03  0.7546771E-02  0.1232206E+00
         21   -1    0    0  501  502  0.00000000000E+00  0.00000000000E+00  0.18843937408E+03  0.18843937408E+03  0.00000000000E+00 0. -1.
          1   -1    0    0  502    0 -0.00000000000E+00 -0.00000000000E+00 -0.33789040993E+03  0.33789040993E+03  0.00000000000E+00 0. -1.
         23    2    1    2    0    0 -0.41845830491E+02 -0.11618038572E+02 -0.23692768215E+03  0.25836991387E+03  0.93457121053E+02 0.  0.
        -24    2    1    2    0    0 -0.54918270255E+02  0.80741533219E+02  0.11653101603E+02  0.12692597835E+03  0.80244611085E+02 0.  0.
         13    1    4    4    0    0 -0.61737153013E+02  0.59562792867E+02 -0.20142508798E+02  0.88118800587E+02  0.00000000000E+00 0. -1.
        -14    1    4    4    0    0  0.68188827577E+01  0.21178740352E+02  0.31795610401E+02  0.38807177761E+02  0.00000000000E+00 0.  1.
        -13    1    3    3    0    0 -0.28166399364E+00 -0.45604588565E+02 -0.75043545659E+02  0.87814529424E+02  0.00000000000E+00 0.  1.
         13    1    3    3    0    0 -0.41564166497E+02  0.33986549993E+02 -0.16188413649E+03  0.17055538445E+03  0.00000000000E+00 0. -1.
          2    1    1    2  501    0  0.96764100746E+02 -0.69123494647E+02  0.75823544697E+02  0.14103389180E+03  0.00000000000E+00 0. -1.
<scales pt_clust_5="13000.00000" pt_clust_6="13000.00000" pt_clust_7="13000.00000" pt_clust_8="13000.00000" pt_clust_9="109.73546"></scales>
<clustering>
<clus scale="   80.245">  5  6 -1 -1</clus>
<clus scale="   93.457">  7  8 -1 -1</clus>
<clus scale="  103.055">  2  7  1 -1</clus>
<clus scale="  109.735">  1  9  2 -1</clus>
<clus scale="  109.735">  1  5  2 -1</clus>
</clustering>
</event>
<event>
 9    1  0.6601381E-005  0.2125482E+03  0.7546771E-02  0.1140937E+00
          1   -1    0    0  502    0 -0.00000000000E+00  0.00000000000E+00  0.35148783053E+03  0.35148783053E+03  0.00000000000E+00 0. -1.
         21   -1    0    0  501  502  0.00000000000E+00 -0.00000000000E+00 -0.36726432033E+03  0.36726432033E+03  0.00000000000E+00 0.  1.
         23    2    1    2    0    0  0.19469686123E+03 -0.43969006724E+02  0.77345258250E+02  0.23418401871E+03  0.94972229210E+02 0.  0.
        -24    2    1    2    0    0 -0.15353136178E+03  0.26800442455E+02 -0.25930788420E+03  0.31250073317E+03  0.78268682517E+02 0.  0.
         11    1    4    4    0    0 -0.24408690475E+02  0.28426027808E+02 -0.25243698246E+02  0.45178175359E+02  0.00000000000E+00 0. -1.
        -12    1    4    4    0    0 -0.12912267130E+03 -0.16255853535E+01 -0.23406418595E+03  0.26732255781E+03  0.00000000000E+00 0.  1.
        -11    1    3    3    0    0  0.14961435039E+03 -0.26032336241E+01  0.21178616213E+02  0.15112830461E+03  0.00000000000E+00 0.  1.
         11    1    3    3    0    0  0.45082510833E+02 -0.41365773100E+02  0.56166642036E+02  0.83055714101E+02  0.00000000000E+00 0. -1.
          2    1    1    2  501    0 -0.41165499451E+02  0.17168564269E+02  0.16618613614E+03  0.17206739898E+03  0.00000000000E+00 0. -1.
<scales pt_clust_5="13000.00000" pt_clust_6="13000.00000" pt_clust_7="13000.00000" pt_clust_8="13000.00000" pt_clust_9="44.60224"></scales>
<clustering>
<clus scale="   44.602">  2  9  1 -1</clus>
<clus scale="   78.269">  5  6 -1 -1</clus>
<clus scale="   94.972">  7  8 -1 -1</clus>
<clus scale="  205.628">  2  5  1 -1</clus>
<clus scale="   44.602">  2  5  1 -1</clus>
</clustering>
</event>
<event>
 9    1  0.6345107E-005  0.1168132E+03  0.7546771E-02  0.1257520E+00
         21   -1    0    0  501  502  0.00000000000E+00  0.00000000000E+00  0.21987487402E+03  0.21987487402E+03  0.00000000000E+00 0. -1.
         -2   -1    0    0    0  501 -0.00000000000E+00 -0.00000000000E+00 -0.13145821600E+03  0.13145821600E+03  0.00000000000E+00 0.  1.
        -24    2    1    2    0    0  0.62698796560E+02 -0.69581778006E-01 -0.81491384172E+02  0.12924785706E+03  0.78313593515E+02 0.  0.
         23    2    1    2    0    0 -0.28219785792E+02  0.10960545790E+02  0.13805074128E+03  0.17389495488E+03  0.10131613045E+03 0.  0.
         11    1    3    3    0    0  0.16434616727E+02  0.21889121699E+02  0.58593590278E+01  0.27992183979E+02  0.00000000000E+00 0. -1.
        -12    1    3    3    0    0  0.46264179833E+02 -0.21958703477E+02 -0.87350743200E+02  0.10125567308E+03  0.00000000000E+00 0.  1.
        -11    1    4    4    0    0  0.14964253903E+02 -0.37398276929E+02  0.43893850590E+02  0.59575415498E+02  0.00000000000E+00 0.  1.
         11    1    4    4    0    0 -0.43184039694E+02  0.48358822719E+02  0.94156890690E+02  0.11431953938E+03  0.00000000000E+00 0. -1.
         -1    1    1    2    0  502 -0.34479010768E+02 -0.10890964012E+02  0.31857300914E+02  0.48190278088E+02  0.00000000000E+00 0.  1.
<scales pt_clust_5="13000.00000" pt_clust_6="13000.00000" pt_clust_7="13000.00000" pt_clust_8="13000.00000" pt_clust_9="36.15820"></scales>
<clustering>
<clus scale="   36.158">  1  9  2 -1</clus>
<clus scale="   78.314">  5  6 -1 -1</clus>
<clus scale="   97.537">  2  5  1 -1</clus>
<clus scale="  101.316">  7  8 -1 -1</clus>
<clus scale="   36.158">  1  5  2 -1</clus>
</clustering>
</event>
<event>
 9    1  0.6345107E-005  0.1215668E+03  0.7546771E-02  0.1246410E+00
         21   -1    0    0  501  502  0.00000000000E+00  0.00000000000E+00  0.38319239972E+02  0.38319239972E+02  0.00000000000E+00 0. -1.
          1   -1    0    0  502    0 -0.00000000000E+00 -0.00000000000E+00 -0.76725048313E+03  0.76725048313E+03  0.00000000000E+00 0. -1.
        -24    2    1    2    0    0 -0.65156692872E+02 -0.13661376226E+02 -0.54985776638E+03  0.56034060239E+03  0.84888159473E+02 0.  0.
         23    2    1    2    0    0  0.60147414173E+02  0.38810248942E+02 -0.92521428098E+02  0.15495832918E+03  0.10162638570E+03 0.  0.
         11    1    3    3    0    0 -0.76545823530E+02 -0.30015671479E+02 -0.35168684748E+03  0.36117010165E+03  0.00000000000E+00 0. -1.
        -12    1    3    3    0    0  0.11389130658E+02  0.16354295253E+02 -0.19817091890E+03  0.19917050075E+03  0.00000000000E+00 0.  1.
        -13    1    4    4    0    0 -0.16515628507E+02 -0.20862950713E+02 -0.26101162476E+02  0.37273306534E+02  0.00000000000E+00 0.  1.
         13    1    4    4    0    0  0.76663042679E+02  0.59673199654E+02 -0.66420265622E+02  0.11768502265E+03  0.00000000000E+00 0. -1.
          2    1    1    2  501    0  0.50092786994E+01 -0.25148872716E+02 -0.86552048681E+02  0.90270791527E+02  0.00000000000E+00 0. -1.
<scales pt_clust_5="13000.00000" pt_clust_6="13000.00000" pt_clust_7="13000.00000" pt_clust_8="13000.00000" pt_clust_9="25.64292"></scales>
<clustering>
<clus scale="   25.643">  1  9  2 -1</clus>
<clus scale="   84.888">  5  6 -1 -1</clus>
<clus scale="  101.626">  7  8 -1 -1</clus>
<clus scale="  107.966">  2  5  1 -1</clus>
<clus scale="   25.643">  1  5  2 -1</clus>
</clustering>
</event>
<event>
 9    1  0.6345107E-005  0.1925904E+03  0.7546771E-02  0.1199959E+00
         21   -1    0    0  501  502  0.00000000000E+00  0.00000000000E+00  0.14225807914E+03  0.14225807914E+03  0.00000000000E+00 0.  1.
         -2   -1    0    0    0  501 -0.00000000000E+00 -0.00000000000E+00 -0.34458735199E+03  0.34458735199E+03  0.00000000000E+00 0.  1.
        -24    2    1    2    0    0  0.77210500407E+01 -0.66301656191E+00 -0.37091550585E+02  0.80694567686E+02  0.71244479958E+02 0.  0.
         23    2    1    2    0    0  0.16465577970E+03 -0.11776275356E+02 -0.13259887862E+03  0.23027078632E+03  0.90509480015E+02 0.  0.
         11    1    3    3    0    0 -0.28437980281E+02 -0.15187698014E+02 -0.12281642472E+02  0.34499617900E+02  0.00000000000E+00 0. -1.
        -12    1    3    3    0    0  0.36159030322E+02  0.14524681453E+02 -0.24809908113E+02  0.46194949786E+02  0.00000000000E+00 0.  1.
        -11    1    4    4    0    0  0.45076139031E+02  0.33349762346E+02 -0.18799901075E+02  0.59139675675E+02  0.00000000000E+00 0. -1.
         11    1    4    4    0    0  0.11957964067E+03 -0.45126037702E+02 -0.11379897755E+03  0.17113111065E+03  0.00000000000E+00 0.  1.
         -1    1    1    2    0  502 -0.17237682974E+03  0.12439291918E+02 -0.32638843635E+02  0.17588007712E+03  0.00000000000E+00 0.  1.
<scales pt_clust_5="13000.00000" pt_clust_6="13000.00000" pt_clust_7="13000.00000" pt_clust_8="13000.00000" pt_clust_9="169.99730"></scales>
<clustering>
<clus scale="   71.244">  5  6 -1 -1</clus>
<clus scale="   71.665">  2  5  1 -1</clus>
<clus scale="   90.509">  7  8 -1 -1</clus>
<clus scale="  169.997">  1  9  2 -1</clus>
<clus scale="  169.997">  1  5  2 -1</clus>
</clustering>
</event>
<event>
 9    1  0.6345107E-005  0.1106644E+03  0.7546771E-02  0.1263411E+00
         -4   -1    0    0    0  501 -0.00000000000E+00  0.00000000000E+00  0.27251381045E+03  0.27251381045E+03  0.00000000000E+00 0.  1.
         21   -1    0    0  501  502  0.00000000000E+00 -0.00000000000E+00 -0.21042991842E+03  0.21042991842E+03  0.00000000000E+00 0. -1.
         23    2    1    2    0    0 -0.50026465851E+02 -0.51726536392E+02  0.19190856807E+03  0.22341330212E+03  0.88917507914E+02 0.  0.
        -24    2    1    2    0    0 -0.47570477944E+02  0.56269523965E+02 -0.12047392079E+03  0.16138136258E+03  0.78107418965E+02 0.  0.
         13    1    4    4    0    0 -0.24696968200E+02  0.73011010014E+02 -0.10074064995E+03  0.12684331426E+03  0.00000000000E+00 0. -1.
        -14    1    4    4    0    0 -0.22873509744E+02 -0.16741486049E+02 -0.19733270844E+02  0.34538048314E+02  0.00000000000E+00 0.  1.
        -11    1    3    3    0    0 -0.63649428602E+02 -0.70303161823E+01  0.13759353141E+03  0.15176513102E+03  0.00000000000E+00 0.  1.
         11    1    3    3    0    0  0.13622962751E+02 -0.44696220210E+02  0.54315036659E+02  0.71648171103E+02  0.00000000000E+00 0. -1.
         -3    1    1    2    0  502  0.97596943795E+02 -0.45429875730E+01 -0.93507552471E+01  0.98149064172E+02  0.00000000000E+00 0.  1.
<scales pt_clust_5="13000.00000" pt_clust_6="13000.00000" pt_clust_7="13000.00000" pt_clust_8="13000.00000" pt_clust_9="97.70262"></scales>
<clustering>
<clus scale="   78.107">  5  6 -1 -1</clus>
<clus scale="   88.918">  7  8 -1 -1</clus>
<clus scale="   97.703">  2  9  1 -1</clus>
<clus scale="  102.181">  2  5  1 -1</clus>
<clus scale="   97.703">  2  5  1 -1</clus>
</clustering>
</event>
<event>
 9    1  0.6345107E-005  0.1334343E+03  0.7546771E-02  0.1224096E+00
         -2   -1    0    0    0  501 -0.00000000000E+00  0.00000000000E+00  0.55491007946E+03  0.55491007946E+03  0.00000000000E+00 0.  1.
         21   -1    0    0  501  502  0.00000000000E+00 -0.00000000000E+00 -0.42755568338E+02  0.42755568338E+02  0.00000000000E+00 0. -1.
        -24    2    1    2    0    0 -0.76538247220E+02  0.73319326971E+02  0.26105702951E+03  0.29747877748E+03  0.95441203897E+02 0.  0.
         23    2    1    2    0    0  0.36992931657E+02 -0.72730446836E+02  0.15664629211E+03  0.19778957562E+03  0.89019438899E+02 0.  0.
         13    1    3    3    0    0 -0.41483097116E+02  0.33403448924E+02  0.31549517719E+02  0.61903229437E+02  0.00000000000E+00 0. -1.
        -14    1    3    3    0    0 -0.35055150104E+02  0.39915878047E+02  0.22950751179E+03  0.23557554804E+03  0.00000000000E+00 0.  1.
        -11    1    4    4    0    0  0.53847560511E+02 -0.13443046455E+02  0.50454853668E+02  0.75006449920E+02  0.00000000000E+00 0.  1.
         11    1    4    4    0    0 -0.16854628855E+02 -0.59287400381E+02  0.10619143844E+03  0.12278312570E+03  0.00000000000E+00 0. -1.
         -1    1    1    2    0  502  0.39545315563E+02 -0.58888013457E+00  0.94451189502E+02  0.10239729470E+03  0.00000000000E+00 0.  1.
<scales pt_clust_5="13000.00000" pt_clust_6="13000.00000" pt_clust_7="13000.00000" pt_clust_8="13000.00000" pt_clust_9="39.54972"></scales>
<clustering>
<clus scale="   39.550">  2  9  1 -1</clus>
<clus scale="   89.019">  7  8 -1 -1</clus>
<clus scale="   95.441">  5  6 -1 -1</clus>
<clus scale="  128.919">  2  7  1 -1</clus>
<clus scale="   39.550">  2  5  1 -1</clus>
</clustering>
</event>
<event>
 9    1  0.6345107E-005  0.1250706E+03  0.7546771E-02  0.1236897E+00
         21   -1    0    0  501  502  0.00000000000E+00  0.00000000000E+00  0.23401553617E+03  0.23401553617E+03  0.00000000000E+00 0.  1.
         -2   -1    0    0    0  501 -0.00000000000E+00 -0.00000000000E+00 -0.16834031713E+03  0.16834031713E+03  0.00000000000E+00 0.  1.
         23    2    1    2    0    0  0.34854417019E+02  0.83405276218E+02  0.28231445783E+02  0.13088637013E+03  0.90349083382E+02 0.  0.
        -24    2    1    2    0    0 -0.59429210782E+02 -0.58589146859E+02  0.12817185931E+03  0.17425144800E+03  0.83492648695E+02 0.  0.
         13    1    4    4    0    0 -0.80724185816E+02 -0.47151361323E+02  0.95858190458E+02  0.13389711621E+03  0.00000000000E+00 0. -1.
        -14    1    4    4    0    0  0.21294975034E+02 -0.11437785536E+02  0.32313668853E+02  0.40354331792E+02  0.00000000000E+00 0.  1.
        -11    1    3    3    0    0  0.70699588719E+01  0.82397465880E+02 -0.10334572676E+02  0.83343446619E+02  0.00000000000E+00 0.  1.
         11    1    3    3    0    0  0.27784458147E+02  0.10078103375E+01  0.38566018458E+02  0.47542923510E+02  0.00000000000E+00 0. -1.
         -1    1    1    2    0  502  0.24574793764E+02 -0.24816129359E+02 -0.90728086053E+02  0.97218035177E+02  0.00000000000E+00 0.  1.
<scales pt_clust_5="13000.00000" pt_clust_6="13000.00000" pt_clust_7="13000.00000" pt_clust_8="13000.00000" pt_clust_9="34.92509"></scales>
<clustering>
<clus scale="   34.925">  1  9  2 -1</clus>
<clus scale="   83.493">  5  6 -1 -1</clus>
<clus scale="   90.349">  7  8 -1 -1</clus>
<clus scale="  120.211">  1  5  2 -1</clus>
<clus scale="   34.925">  1  5  2 -1</clus>
</clustering>
</event>
<event>
 9    1  0.6345107E-005  0.1073368E+03  0.7546771E-02  0.1271983E+00
          1   -1    0    0  502    0 -0.00000000000E+00  0.00000000000E+00  0.66222764714E+03  0.66222764714E+03  0.00000000000E+00 0. -1.
         21   -1    0    0  501  502  0.00000000000E+00 -0.00000000000E+00 -0.25009854791E+02  0.25009854791E+02  0.00000000000E+00 0.  1.
        -24    2    1    2    0    0  0.28959286805E+02  0.52744633353E+02  0.37096732415E+03  0.38409929376E+03  0.79340249768E+02 0.  0.
         23    2    1    2    0    0 -0.22002020624E+02 -0.33400800146E+02  0.26325698992E+03  0.28236446638E+03  0.93945445713E+02 0.  0.
         13    1    3    3    0    0 -0.25910216592E+02  0.29026411756E+02  0.17203618350E+03  0.17638117908E+03  0.00000000000E+00 0. -1.
        -14    1    3    3    0    0  0.54869503398E+02  0.23718221597E+02  0.19893114066E+03  0.20771811467E+03  0.00000000000E+00 0.  1.
        -13    1    4    4    0    0  0.71813430206E+01 -0.61099409993E+02  0.14755423367E+03  0.15986544799E+03  0.00000000000E+00 0. -1.
         13    1    4    4    0    0 -0.29183363645E+02  0.27698609847E+02  0.11570275625E+03  0.12249901839E+03  0.00000000000E+00 0.  1.
          2    1    1    2  501    0 -0.69572661815E+01 -0.19343833207E+02  0.29934782700E+01  0.20773741791E+02  0.00000000000E+00 0. -1.
<scales pt_clust_5="13000.00000" pt_clust_6="13000.00000" pt_clust_7="13000.00000" pt_clust_8="13000.00000" pt_clust_9="20.55693"></scales>
<clustering>
<clus scale="   20.557">  2  9  1 -1</clus>
<clus scale="   79.340">  5  6 -1 -1</clus>
<clus scale="   93.945">  7  8 -1 -1</clus>
<clus scale="   94.817">  1  5  2 -1</clus>
<clus scale="   20.557">  2  5  1 -1</clus>
</clustering>
</event>
<event>
 9    1  0.6345107E-005  0.1092202E+03  0.7546771E-02  0.1266239E+00
         21   -1    0    0  501  502  0.00000000000E+00  0.00000000000E+00  0.54545866611E+03  0.54545866611E+03  0.00000000000E+00 0.  1.
          3   -1    0    0  502    0 -0.00000000000E+00 -0.00000000000E+00 -0.52554788236E+02  0.52554788236E+02  0.00000000000E+00 0. -1.
        -24    2    1    2    0    0  0.49247746799E+02 -0.24289086285E+02  0.25486681341E+02  0.10088908042E+03  0.80707715529E+02 0.  0.
         23    2    1    2    0    0 -0.85691787163E+02  0.17303182699E+02  0.29788579542E+03  0.32357937431E+03  0.91242434462E+02 0.  0.
         13    1    3    3    0    0  0.18408905484E+02 -0.40375523305E+02 -0.15618479907E+02  0.47042614701E+02  0.00000000000E+00 0. -1.
        -14    1    3    3    0    0  0.30838841315E+02  0.16086437021E+02  0.41105161249E+02  0.53846465724E+02  0.00000000000E+00 0.  1.
        -13    1    4    4    0    0 -0.36315996104E+02  0.53749812825E+02  0.14588304217E+03  0.15965511563E+03  0.00000000000E+00 0.  1.
         13    1    4    4    0    0 -0.49375791059E+02 -0.36446630126E+02  0.15200275325E+03  0.16392425868E+03  0.00000000000E+00 0. -1.
          4    1    1    2  501    0  0.36444040364E+02  0.69859035861E+01  0.16953140111E+03  0.17354499961E+03  0.00000000000E+00 0. -1.
<scales pt_clust_5="13000.00000" pt_clust_6="13000.00000" pt_clust_7="13000.00000" pt_clust_8="13000.00000" pt_clust_9="37.10756"></scales>
<clustering>
<clus scale="   37.108">  1  9  2 -1</clus>
<clus scale="   80.708">  5  6 -1 -1</clus>
<clus scale="   91.242">  7  8 -1 -1</clus>
<clus scale="  100.586">  2  5  1 -1</clus>
<clus scale="   37.108">  1  5  2 -1</clus>
</clustering>
</event>
<event>
 9    1  0.7941766E-005  0.9394828E+02  0.7546771E-02  0.1295793E+00
         21   -1    0    0  501  502  0.00000000000E+00  0.00000000000E+00  0.40584191578E+03  0.40584191578E+03  0.00000000000E+00 0. -1.
          3   -1    0    0  502    0 -0.00000000000E+00 -0.00000000000E+00 -0.12450501446E+03  0.12450501446E+03  0.00000000000E+00 0. -1.
         23    2    1    2    0    0 -0.11886086819E+02  0.44665239576E+01 -0.96120364801E+02  0.13168551931E+03  0.89110732068E+02 0.  0.
        -24    2    1    2    0    0  0.34038249687E+02  0.10090011308E+02  0.32488378102E+03  0.33978372098E+03  0.92968247796E+02 0.  0.
         13    1    4    4    0    0  0.23891329520E+02  0.44893426619E+02  0.26457074136E+03  0.26941397990E+03  0.00000000000E+00 0. -1.
        -14    1    4    4    0    0  0.10146920167E+02 -0.34803415311E+02  0.60313039663E+02  0.70369741079E+02  0.00000000000E+00 0.  1.
        -13    1    3    3    0    0  0.28804777758E+02 -0.22643371411E+02 -0.62157611299E+02  0.72152658530E+02  0.00000000000E+00 0.  1.
         13    1    3    3    0    0 -0.40690864577E+02  0.27109895369E+02 -0.33962753502E+02  0.59532860778E+02  0.00000000000E+00 0. -1.
          4    1    1    2  501    0 -0.22152162868E+02 -0.14556535266E+02  0.52573485098E+02  0.58877689952E+02  0.00000000000E+00 0. -1.
<scales pt_clust_5="13000.00000" pt_clust_6="13000.00000" pt_clust_7="13000.00000" pt_clust_8="13000.00000" pt_clust_9="26.50681"></scales>
<clustering>
<clus scale="   26.507">  1  9  2 -1</clus>
<clus scale="   89.111">  7  8 -1 -1</clus>
<clus scale="   90.133">  2  7  1 -1</clus>
<clus scale="   92.968">  5  6 -1 -1</clus>
<clus scale="   26.507">  1  5  2 -1</clus>
</clustering>
</event>
<event>
 9    1  0.6345107E-005  0.1793326E+03  0.7546771E-02  0.1170828E+00
         -2   -1    0    0    0  501 -0.00000000000E+00  0.00000000000E+00  0.12159597003E+03  0.12159597003E+03  0.00000000000E+00 0.  1.
         21   -1    0    0  501  502  0.00000000000E+00 -0.00000000000E+00 -0.32848005717E+03  0.32848005717E+03  0.00000000000E+00 0.  1.
        -24    2    1    2    0    0  0.38651716331E+02 -0.13567112265E+03 -0.45483341386E+02  0.18246259247E+03  0.10641078240E+03 0.  0.
         23    2    1    2    0    0 -0.58459348199E+01  0.15205189430E+03 -0.13858511429E+03  0.22442660781E+03  0.89484718689E+02 0.  0.
         11    1    3    3    0    0  0.21382252143E+01 -0.49702583489E+02  0.33637837789E+02  0.60053500678E+02  0.00000000000E+00 0. -1.
        -12    1    3    3    0    0  0.36513491117E+02 -0.85968539165E+02 -0.79121179174E+02  0.12240909179E+03  0.00000000000E+00 0.  1.
        -11    1    4    4    0    0  0.23050247925E+02  0.53892207899E+02 -0.89825877282E+01  0.59298995640E+02  0.00000000000E+00 0. -1.
         11    1    4    4    0    0 -0.28896182745E+02  0.98159686399E+02 -0.12960252656E+03  0.16512761217E+03  0.00000000000E+00 0.  1.
         -1    1    1    2    0  502 -0.32805781511E+02 -0.16380771644E+02 -0.22815631461E+02  0.43186826917E+02  0.00000000000E+00 0.  1.
<scales pt_clust_5="13000.00000" pt_clust_6="13000.00000" pt_clust_7="13000.00000" pt_clust_8="13000.00000" pt_clust_9="36.66809"></scales>
<clustering>
<clus scale="   36.668">  2  9  1 -1</clus>
<clus scale="   89.485">  7  8 -1 -1</clus>
<clus scale="  106.411">  5  6 -1 -1</clus>
<clus scale="  169.836">  2  7  1 -1</clus>
<clus scale="   36.668">  2  5  1 -1</clus>
</clustering>
</event>
<event>
 9    1  0.6345107E-005  0.1208905E+03  0.7546771E-02  0.1244359E+00
         21   -1    0    0  501  502  0.00000000000E+00  0.00000000000E+00  0.67765629429E+03  0.67765629429E+03  0.00000000000E+00 0.  1.
         -4   -1    0    0    0  501 -0.00000000000E+00 -0.00000000000E+00 -0.53410995360E+02  0.53410995360E+02  0.00000000000E+00 0.  1.
        -24    2    1    2    0    0 -0.62394061816E+02 -0.61416966160E+02  0.36602066391E+02  0.12436055399E+03  0.80378936555E+02 0.  0.
         23    2    1    2    0    0  0.52730287703E+02  0.16637173938E+02  0.40780808383E+03  0.42112845291E+03  0.89355815752E+02 0.  0.
         13    1    3    3    0    0 -0.34762354028E+02  0.13772713581E+02  0.20534673605E+02  0.42658899623E+02  0.00000000000E+00 0. -1.
        -14    1    3    3    0    0 -0.27631707788E+02 -0.75189679741E+02  0.16067392786E+02  0.81701654364E+02  0.00000000000E+00 0.  1.
        -11    1    4    4    0    0  0.59944374110E+02  0.45090490343E+02  0.26978994539E+03  0.28002338284E+03  0.00000000000E+00 0. -1.
         11    1    4    4    0    0 -0.72140864073E+01 -0.28453316405E+02  0.13801813845E+03  0.14110507006E+03  0.00000000000E+00 0.  1.
         -3    1    1    2    0  502  0.96637741128E+01  0.44779792222E+02  0.17983514871E+03  0.18557828276E+03  0.00000000000E+00 0.  1.
<scales pt_clust_5="13000.00000" pt_clust_6="13000.00000" pt_clust_7="13000.00000" pt_clust_8="13000.00000" pt_clust_9="45.81068"></scales>
<clustering>
<clus scale="   45.811">  1  9  2 -1</clus>
<clus scale="   80.379">  5  6 -1 -1</clus>
<clus scale="   89.356">  7  8 -1 -1</clus>
<clus scale="  114.415">  2  5  1 -1</clus>
<clus scale="   45.811">  1  5  2 -1</clus>
</clustering>
</event>
<event>
 9    1  0.6345107E-005  0.9230338E+02  0.7546771E-02  0.1303204E+00
         21   -1    0    0  501  502  0.00000000000E+00  0.00000000000E+00  0.92168994208E+02  0.92168994208E+02  0.00000000000E+00 0.  1.
          1   -1    0    0  502    0 -0.00000000000E+00 -0.00000000000E+00 -0.30722393504E+03  0.30722393504E+03  0.00000000000E+00 0. -1.
         23    2    1    2    0    0  0.24748571572E+02 -0.40963907026E+00 -0.26335371424E+03  0.27930730645E+03  0.89692435761E+02 0.  0.
        -24    2    1    2    0    0 -0.34919619765E+00  0.12790271541E+02  0.26869119284E+02  0.85331635183E+02  0.79973904542E+02 0.  0.
         11    1    4    4    0    0 -0.39776949312E+02  0.10031680647E+02  0.92190697368E+01  0.42045589067E+02  0.00000000000E+00 0. -1.
        -12    1    4    4    0    0  0.39427753114E+02  0.27585908937E+01  0.17650049548E+02  0.43286046116E+02  0.00000000000E+00 0.  1.
        -11    1    3    3    0    0  0.24681627800E+00 -0.43414913929E+02 -0.11560490233E+03  0.12348849790E+03  0.00000000000E+00 0. -1.
         11    1    3    3    0    0  0.24501755294E+02  0.43005274859E+02 -0.14774881191E+03  0.15581880855E+03  0.00000000000E+00 0.  1.
          2    1    1    2  501    0 -0.24399375374E+02 -0.12380632471E+02  0.21429654127E+02  0.34753987614E+02  0.00000000000E+00 0. -1.
<scales pt_clust_5="13000.00000" pt_clust_6="13000.00000" pt_clust_7="13000.00000" pt_clust_8="13000.00000" pt_clust_9="27.36073"></scales>
<clustering>
<clus scale="   27.361">  1  9  2 -1</clus>
<clus scale="   79.974">  5  6 -1 -1</clus>
<clus scale="   82.892">  1  5  2 -1</clus>
<clus scale="   89.692">  7  8 -1 -1</clus>
<clus scale="   27.361">  1  5  2 -1</clus>
</clustering>
</event>
<event>
 9    1  0.6345107E-005  0.9745852E+02  0.7546771E-02  0.1291381E+00
         21   -1    0    0  501  502  0.00000000000E+00  0.00000000000E+00  0.11908690963E+03  0.11908690963E+03  0.00000000000E+00 0. -1.
          1   -1    0    0  502    0 -0.00000000000E+00 -0.00000000000E+00 -0.27083601536E+03  0.27083601536E+03  0.00000000000E+00 0. -1.
        -24    2    1    2    0    0 -0.32039037418E+01  0.36647915925E+02 -0.20418265612E+03  0.22266138877E+03  0.80834412504E+02 0.  0.
         23    2    1    2    0    0 -0.20628832858E+02 -0.21192689723E+02 -0.12055089091E+02  0.96794182274E+02  0.91373462812E+02 0.  0.
         11    1    3    3    0    0 -0.97896238928E+01  0.52272143368E+02 -0.19733489551E+03  0.20437532799E+03  0.00000000000E+00 0. -1.
        -12    1    3    3    0    0  0.65857201510E+01 -0.15624227442E+02 -0.68477606162E+01  0.18286060771E+02  0.00000000000E+00 0.  1.
        -13    1    4    4    0    0  0.12891079479E+00 -0.55289193716E+02 -0.70506938424E+00  0.55293839463E+02  0.00000000000E+00 0.  1.
         13    1    4    4    0    0 -0.20757743653E+02  0.34096503993E+02 -0.11350019706E+02  0.41500342811E+02  0.00000000000E+00 0. -1.
          2    1    1    2  501    0  0.23832736600E+02 -0.15455226202E+02  0.64488639482E+02  0.70467353952E+02  0.00000000000E+00 0. -1.
<scales pt_clust_5="13000.00000" pt_clust_6="13000.00000" pt_clust_7="13000.00000" pt_clust_8="13000.00000" pt_clust_9="28.40534"></scales>
<clustering>
<clus scale="   28.405">  1  9  2 -1</clus>
<clus scale="   80.834">  5  6 -1 -1</clus>
<clus scale="   87.654">  2  5  1 -1</clus>
<clus scale="   91.373">  7  8 -1 -1</clus>
<clus scale="   28.405">  1  5  2 -1</clus>
</clustering>
</event>
<event>
 9    1  0.6345107E-005  0.1004389E+03  0.7546771E-02  0.1284720E+00
         21   -1    0    0  501  502  0.00000000000E+00  0.00000000000E+00  0.17168548806E+03  0.17168548806E+03  0.00000000000E+00 0. -1.
          1   -1    0    0  502    0 -0.00000000000E+00 -0.00000000000E+00 -0.16984681507E+03  0.16984681507E+03  0.00000000000E+00 0. -1.
         23    2    1    2    0    0  0.70017079205E+01 -0.33051515291E+02 -0.17020817713E+02  0.98352037292E+02  0.90785397653E+02 0.  0.
        -24    2    1    2    0    0  0.80656694531E+02  0.54592224906E+02  0.65027455621E+02  0.14179250190E+03  0.79942042868E+02 0.  0.
         11    1    4    4    0    0  0.48391221185E+02 -0.74682159326E+01  0.42831409715E+01  0.49151091886E+02  0.00000000000E+00 0. -1.
        -12    1    4    4    0    0  0.32265473346E+02  0.62060440838E+02  0.60744314650E+02  0.92641410015E+02  0.00000000000E+00 0.  1.
        -11    1    3    3    0    0 -0.23164485586E+02  0.12305447006E+02 -0.32460494876E+02  0.41733693176E+02  0.00000000000E+00 0.  1.
         11    1    3    3    0    0  0.30166193507E+02 -0.45356962298E+02  0.15439677162E+02  0.56618344116E+02  0.00000000000E+00 0. -1.
          2    1    1    2  501    0 -0.87658402452E+02 -0.21540709614E+02 -0.46167964919E+02  0.10138776394E+03  0.00000000000E+00 0. -1.
<scales pt_clust_5="13000.00000" pt_clust_6="13000.00000" pt_clust_7="13000.00000" pt_clust_8="13000.00000" pt_clust_9="90.26631"></scales>
<clustering>
<clus scale="   79.942">  5  6 -1 -1</clus>
<clus scale="   90.266">  1  9  2 -1</clus>
<clus scale="   90.756">  1  5  2 -1</clus>
<clus scale="   90.785">  7  8 -1 -1</clus>
<clus scale="   90.266">  1  5  2 -1</clus>
</clustering>
</event>
<event>
 9    1  0.6345107E-005  0.9985475E+02  0.7546771E-02  0.1286924E+00
         -2   -1    0    0    0  501 -0.00000000000E+00  0.00000000000E+00  0.14489809066E+03  0.14489809066E+03  0.00000000000E+00 0.  1.
         21   -1    0    0  501  502  0.00000000000E+00 -0.00000000000E+00 -0.92237448423E+02  0.92237448423E+02  0.00000000000E+00 0.  1.
        -24    2    1    2    0    0 -0.18923099078E+02  0.26688094529E+02  0.63535459394E+02  0.10712934666E+03  0.79809800446E+02 0.  0.
         23    2    1    2    0    0  0.38084936761E+02 -0.38678441921E+02 -0.91366686712E+01  0.10733538268E+03  0.92146195708E+02 0.  0.
         11    1    3    3    0    0 -0.42672702416E+02 -0.44682033377E-01  0.56302380467E+02  0.70646440633E+02  0.00000000000E+00 0. -1.
        -12    1    3    3    0    0  0.23749603338E+02  0.26732776562E+02  0.72330789273E+01  0.36482906027E+02  0.00000000000E+00 0.  1.
        -11    1    4    4    0    0  0.33508433379E+02 -0.16572016396E+02  0.39089250345E+02  0.54087117944E+02  0.00000000000E+00 0. -1.
         11    1    4    4    0    0  0.45765033820E+01 -0.22106425525E+02 -0.48225919016E+02  0.53248264738E+02  0.00000000000E+00 0.  1.
         -1    1    1    2    0  502 -0.19161837684E+02  0.11990347392E+02 -0.17381484877E+01  0.22670809738E+02  0.00000000000E+00 0.  1.
<scales pt_clust_5="13000.00000" pt_clust_6="13000.00000" pt_clust_7="13000.00000" pt_clust_8="13000.00000" pt_clust_9="22.60408"></scales>
<clustering>
<clus scale="   22.604">  2  9  1 -1</clus>
<clus scale="   79.810">  5  6 -1 -1</clus>
<clus scale="   88.598">  1  5  2 -1</clus>
<clus scale="   92.146">  7  8 -1 -1</clus>
<clus scale="   22.604">  2  5  1 -1</clus>
</clustering>
</event>
<event>
 9    1  0.6345107E-005  0.1361006E+03  0.7546771E-02  0.1220945E+00
         -2   -1    0    0    0  501 -0.00000000000E+00  0.00000000000E+00  0.12335973913E+04  0.12335973913E+04  0.00000000000E+00 0.  1.
         21   -1    0    0  501  502  0.00000000000E+00 -0.00000000000E+00 -0.44875071097E+02  0.44875071097E+02  0.00000000000E+00 0. -1.
        -24    2    1    2    0    0  0.86101166525E+02 -0.46936307369E+02  0.99115387738E+03  0.99923254875E+03  0.80394340602E+02 0.  0.
         23    2    1    2    0    0 -0.12100983886E+03  0.56404963255E+02  0.16064985864E+03  0.22755575063E+03  0.90268164829E+02 0.  0.
         11    1    3    3    0    0  0.21500177624E+02  0.20570841505E+01  0.48421343735E+02  0.53019956264E+02  0.00000000000E+00 0. -1.
        -12    1    3    3    0    0  0.64600988901E+02 -0.48993391519E+02  0.94273253365E+03  0.94621259248E+03  0.00000000000E+00 0.  1.
        -13    1    4    4    0    0 -0.75674325675E+02 -0.42648154719E+01  0.11909343704E+03  0.14116670628E+03  0.00000000000E+00 0.  1.
         13    1    4    4    0    0 -0.45335513190E+02  0.60669778727E+02  0.41556421608E+02  0.86389044351E+02  0.00000000000E+00 0. -1.
         -1    1    1    2    0  502  0.34908672340E+02 -0.94686558859E+01  0.36918584169E+02  0.51684163008E+02  0.00000000000E+00 0.  1.
<scales pt_clust_5="13000.00000" pt_clust_6="13000.00000" pt_clust_7="13000.00000" pt_clust_8="13000.00000" pt_clust_9="36.17003"></scales>
<clustering>
<clus scale="   36.170">  2  9  1 -1</clus>
<clus scale="   80.394">  5  6 -1 -1</clus>
<clus scale="   90.268">  7  8 -1 -1</clus>
<clus scale="  129.762">  1  5  2 -1</clus>
<clus scale="   36.170">  2  5  1 -1</clus>
</clustering>
</event>
<event>
 9    1  0.6345107E-005  0.9601151E+02  0.7546771E-02  0.1296846E+00
         21   -1    0    0  501  502  0.00000000000E+00  0.00000000000E+00  0.19769992859E+03  0.19769992859E+03  0.00000000000E+00 0.  1.
         -2   -1    0    0    0  501 -0.00000000000E+00 -0.00000000000E+00 -0.34415074194E+03  0.34415074194E+03  0.00000000000E+00 0.  1.
        -24    2    1    2    0    0 -0.23100524918E+02 -0.31239885943E+01 -0.26487320788E+03  0.27786752775E+03  0.80679323040E+02 0.  0.
         23    2    1    2    0    0 -0.11685469163E+02  0.23827370656E+02 -0.36065167170E+02  0.10427997395E+03  0.94177082683E+02 0.  0.
         13    1    3    3    0    0 -0.14437468601E+02 -0.39066307104E+02 -0.90581471699E+02  0.99697642226E+02  0.00000000000E+00 0. -1.
        -14    1    3    3    0    0 -0.86630563174E+01  0.35942318510E+02 -0.17429173619E+03  0.17816988552E+03  0.00000000000E+00 0.  1.
        -11    1    4    4    0    0 -0.51446156142E+02  0.24162152698E+02 -0.29303875820E+02  0.63947116767E+02  0.00000000000E+00 0.  1.
         11    1    4    4    0    0  0.39760686979E+02 -0.33478204210E+00 -0.67612913501E+01  0.40332857186E+02  0.00000000000E+00 0. -1.
         -1    1    1    2    0  502  0.34785994081E+02 -0.20703382062E+02  0.15448756170E+03  0.15970316883E+03  0.00000000000E+00 0.  1.
<scales pt_clust_5="13000.00000" pt_clust_6="13000.00000" pt_clust_7="13000.00000" pt_clust_8="13000.00000" pt_clust_9="40.48080"></scales>
<clustering>
<clus scale="   40.481">  1  9  2 -1</clus>
<clus scale="   80.679">  5  6 -1 -1</clus>
<clus scale="   82.813">  2  5  1 -1</clus>
<clus scale="   94.177">  7  8 -1 -1</clus>
<clus scale="   40.481">  1  5  2 -1</clus>
</clustering>
</event>
<event>
 9    1  0.6345107E-005  0.1060981E+03  0.7546771E-02  0.1274557E+00
         21   -1    0    0  501  502  0.00000000000E+00  0.00000000000E+00  0.56300056449E+02  0.56300056449E+02  0.00000000000E+00 0. -1.
          1   -1    0    0  502    0 -0.00000000000E+00 -0.00000000000E+00 -0.28995246180E+03  0.28995246180E+03  0.00000000000E+00 0. -1.
         23    2    1    2    0    0 -0.14435457934E+02 -0.40463466104E+02 -0.17408214582E+03  0.20369690258E+03  0.96654850335E+02 0.  0.
        -24    2    1    2    0    0  0.36414064993E+02  0.32359217043E+02 -0.68144686947E+02  0.11761049938E+03  0.82555606397E+02 0.  0.
         11    1    4    4    0    0  0.51857058185E+02 -0.81584693331E+01 -0.37050790724E+02  0.64253219364E+02  0.00000000000E+00 0. -1.
        -12    1    4    4    0    0 -0.15442993192E+02  0.40517686376E+02 -0.31093896223E+02  0.53357280012E+02  0.00000000000E+00 0.  1.
        -13    1    3    3    0    0 -0.35588116826E+02 -0.35307747755E+02 -0.17486682330E+03  0.18191084905E+03  0.00000000000E+00 0. -1.
         13    1    3    3    0    0  0.21152658892E+02 -0.51557183495E+01  0.78467747737E+00  0.21786053536E+02  0.00000000000E+00 0.  1.
          2    1    1    2  501    0 -0.21978607059E+02  0.81042490618E+01  0.85744274180E+01  0.24945116289E+02  0.00000000000E+00 0. -1.
<scales pt_clust_5="13000.00000" pt_clust_6="13000.00000" pt_clust_7="13000.00000" pt_clust_8="13000.00000" pt_clust_9="23.42516"></scales>
<clustering>
<clus scale="   23.425">  1  9  2 -1</clus>
<clus scale="   82.556">  5  6 -1 -1</clus>
<clus scale="   93.435">  1  5  2 -1</clus>
<clus scale="   96.655">  7  8 -1 -1</clus>
<clus scale="   23.425">  1  5  2 -1</clus>
</clustering>
</event>
<event>
 9    1  0.6345107E-005  0.5275682E+03  0.7546771E-02  0.1006824E+00
         21   -1    0    0  501  502  0.00000000000E+00  0.00000000000E+00  0.37480060168E+03  0.37480060168E+03  0.00000000000E+00 0. -1.
          1   -1    0    0  502    0 -0.00000000000E+00 -0.00000000000E+00 -0.70777940579E+03  0.70777940579E+03  0.00000000000E+00 0. -1.
        -24    2    1    2    0    0 -0.13557820288E+03 -0.40136598172E+03 -0.29412808397E+03  0.52200809498E+03  0.80653710764E+02 0.  0.
         23    2    1    2    0    0 -0.68116428479E+01 -0.35397077511E+02 -0.37592551304E+02  0.10118272991E+03  0.86749025034E+02 0.  0.
         13    1    3    3    0    0 -0.47333008015E+02 -0.25866412630E+03 -0.19189966627E+03  0.32553498398E+03  0.00000000000E+00 0. -1.
        -14    1    3    3    0    0 -0.88245194866E+02 -0.14270185543E+03 -0.10222841770E+03  0.19647311100E+03  0.00000000000E+00 0.  1.
        -13    1    4    4    0    0  0.18700601699E+02 -0.20776470203E+02  0.21442422077E+02  0.35229982722E+02  0.00000000000E+00 0.  1.
         13    1    4    4    0    0 -0.25512244547E+02 -0.14620607307E+02 -0.59034973381E+02  0.65952747191E+02  0.00000000000E+00 0. -1.
          2    1    1    2  501    0  0.14238984573E+03  0.43676305924E+03 -0.12581688385E+01  0.45938918258E+03  0.00000000000E+00 0. -1.
<scales pt_clust_5="13000.00000" pt_clust_6="13000.00000" pt_clust_7="13000.00000" pt_clust_8="13000.00000" pt_clust_9="459.38746"></scales>
<clustering>
<clus scale="   80.654">  5  6 -1 -1</clus>
<clus scale="   86.749">  7  8 -1 -1</clus>
<clus scale="   87.029">  5  7 -1 -1</clus>
<clus scale="  459.387">  1  9  2 -1</clus>
<clus scale="  459.387">  1  5  2 -1</clus>
</clustering>
</event>
<event>
 9    1  0.6345107E-005  0.1195330E+03  0.7546771E-02  0.1247121E+00
         21   -1    0    0  501  502  0.00000000000E+00  0.00000000000E+00  0.51261551542E+03  0.51261551542E+03  0.00000000000E+00 0.  1.
          1   -1    0    0  502    0 -0.00000000000E+00 -0.00000000000E+00 -0.82766919626E+02  0.82766919626E+02  0.00000000000E+00 0. -1.
         23    2    1    2    0    0  0.32947802438E+01 -0.89830484117E+02  0.32035288839E+01  0.12776160368E+03  0.90732537293E+02 0.  0.
        -24    2    1    2    0    0  0.24965798189E+02  0.52912531353E+02  0.11309149269E+03  0.15063906622E+03  0.80494816601E+02 0.  0.
         11    1    4    4    0    0  0.19420592457E+01 -0.21515621687E+02  0.24517177264E+02  0.32676988107E+02  0.00000000000E+00 0. -1.
        -12    1    4    4    0    0  0.23023738943E+02  0.74428153040E+02  0.88574315427E+02  0.11796207812E+03  0.00000000000E+00 0.  1.
        -11    1    3    3    0    0  0.31095829278E+02  0.18040488181E+01  0.70091987108E+01  0.31927011404E+02  0.00000000000E+00 0.  1.
         11    1    3    3    0    0 -0.27801049034E+02 -0.91634532935E+02 -0.38056698269E+01  0.95834592275E+02  0.00000000000E+00 0. -1.
          2    1    1    2  501    0 -0.28260578432E+02  0.36917952765E+02  0.31355357422E+03  0.31698176515E+03  0.00000000000E+00 0. -1.
<scales pt_clust_5="13000.00000" pt_clust_6="13000.00000" pt_clust_7="13000.00000" pt_clust_8="13000.00000" pt_clust_9="46.49296"></scales>
<clustering>
<clus scale="   46.493">  1  9  2 -1</clus>
<clus scale="   80.495">  5  6 -1 -1</clus>
<clus scale="   90.733">  7  8 -1 -1</clus>
<clus scale="  111.961">  1  5  2 -1</clus>
<clus scale="   46.493">  1  5  2 -1</clus>
</clustering>
</event>
<event>
 9    1  0.6345107E-005  0.9140412E+02  0.7546771E-02  0.1305975E+00
         21   -1    0    0  501  502  0.00000000000E+00  0.00000000000E+00  0.19811082634E+02  0.19811082634E+02  0.00000000000E+00 0. -1.
          1   -1    0    0  502    0 -0.00000000000E+00 -0.00000000000E+00 -0.60965672837E+03  0.60965672837E+03  0.00000000000E+00 0. -1.
         23    2    1    2    0    0  0.23791146870E+01  0.26634371870E+02 -0.28083121896E+03  0.29638447835E+03  0.90898490143E+02 0.  0.
        -24    2    1    2    0    0  0.72952410342E+01  0.11329387689E+02 -0.16926851419E+03  0.18794973806E+03  0.80571077758E+02 0.  0.
         13    1    4    4    0    0  0.32658910532E+02  0.22338182603E+02 -0.14762692941E+03  0.15283752526E+03  0.00000000000E+00 0. -1.
        -14    1    4    4    0    0 -0.25363669497E+02 -0.11008794913E+02 -0.21641584782E+02  0.35112212800E+02  0.00000000000E+00 0.  1.
        -13    1    3    3    0    0  0.20968467944E+02 -0.20043441982E+02 -0.34935488657E+02  0.45408199503E+02  0.00000000000E+00 0.  1.
         13    1    3    3    0    0 -0.18589353257E+02  0.46677813853E+02 -0.24589573030E+03  0.25097627884E+03  0.00000000000E+00 0. -1.
          2    1    1    2  501    0 -0.96743557212E+01 -0.37963759560E+02 -0.13974591258E+03  0.14513359460E+03  0.00000000000E+00 0. -1.
<scales pt_clust_5="13000.00000" pt_clust_6="13000.00000" pt_clust_7="13000.00000" pt_clust_8="13000.00000" pt_clust_9="39.17706"></scales>
<clustering>
<clus scale="   39.177">  1  9  2 -1</clus>
<clus scale="   80.571">  5  6 -1 -1</clus>
<clus scale="   81.141">  1  5  2 -1</clus>
<clus scale="   90.898">  7  8 -1 -1</clus>
<clus scale="   39.177">  1  5  2 -1</clus>
</clustering>
</event>
<event>
 9    1  0.6345107E-005  0.9443944E+02  0.7546771E-02  0.1299495E+00
         21   -1    0    0  501  502  0.00000000000E+00  0.00000000000E+00  0.38979063016E+02  0.38979063016E+02  0.00000000000E+00 0.  1.
          3   -1    0    0  502    0 -0.00000000000E+00 -0.00000000000E+00 -0.68648978252E+03  0.68648978252E+03  0.00000000000E+00 0. -1.
        -24    2    1    2    0    0  0.25620880370E+02 -0.12977553290E+02 -0.52848908978E+03  0.53523741978E+03  0.79709040334E+02 0.  0.
         23    2    1    2    0    0  0.15210158954E+02  0.11591472907E+02 -0.11624393082E+03  0.14928254785E+03  0.91689238517E+02 0.  0.
         13    1    3    3    0    0  0.10516442005E+02  0.18058535691E+02 -0.36654156582E+02  0.42192812877E+02  0.00000000000E+00 0. -1.
        -14    1    3    3    0    0  0.15104438365E+02 -0.31036088981E+02 -0.49183493320E+03  0.49304460690E+03  0.00000000000E+00 0.  1.
        -11    1    4    4    0    0  0.34384530084E+02 -0.63854772110E+01 -0.54266448297E+01  0.35390940966E+02  0.00000000000E+00 0.  1.
         11    1    4    4    0    0 -0.19174371130E+02  0.17976950118E+02 -0.11081728599E+03  0.11389160688E+03  0.00000000000E+00 0. -1.
          4    1    1    2  501    0 -0.40831039325E+02  0.13860803828E+01 -0.27776989037E+01  0.40948877913E+02  0.00000000000E+00 0. -1.
<scales pt_clust_5="13000.00000" pt_clust_6="13000.00000" pt_clust_7="13000.00000" pt_clust_8="13000.00000" pt_clust_9="40.85456"></scales>
<clustering>
<clus scale="   40.855">  1  9  2 -1</clus>
<clus scale="   79.709">  5  6 -1 -1</clus>
<clus scale="   82.858">  2  5  1 -1</clus>
<clus scale="   91.689">  7  8 -1 -1</clus>
<clus scale="   40.855">  1  5  2 -1</clus>
</clustering>
</event>
<event>
 9    1  0.6345107E-005  0.1936575E+03  0.7546771E-02  0.1169052E+00
          1   -1    0    0  502    0 -0.00000000000E+00  0.00000000000E+00  0.90296183618E+03  0.90296183618E+03  0.00000000000E+00 0. -1.
         21   -1    0    0  501  502  0.00000000000E+00 -0.00000000000E+00 -0.79313553335E+02  0.79313553335E+02  0.00000000000E+00 0. -1.
         23    2    1    2    0    0 -0.49373422302E+02  0.93785616306E+02  0.27278045047E+03  0.30681863654E+03  0.92168459429E+02 0.  0.
        -24    2    1    2    0    0  0.20217348884E+03 -0.96930166021E+02  0.33805407564E+03  0.41345018133E+03  0.79943215575E+02 0.  0.
         11    1    4    4    0    0  0.18524358043E+03 -0.10016133314E+03  0.33537179749E+03  0.39600722127E+03  0.00000000000E+00 0. -1.
        -12    1    4    4    0    0  0.16929908405E+02  0.32311671173E+01  0.26822781415E+01  0.17442960057E+02  0.00000000000E+00 0.  1.
        -13    1    3    3    0    0  0.26091816995E+02  0.32283506309E+02  0.10394387427E+03  0.11192558551E+03  0.00000000000E+00 0. -1.
         13    1    3    3    0    0 -0.75465239297E+02  0.61502109997E+02  0.16883657620E+03  0.19489305103E+03  0.00000000000E+00 0.  1.
          2    1    1    2  501    0 -0.15280006654E+03  0.31445497146E+01  0.21281375674E+03  0.26200657164E+03  0.00000000000E+00 0. -1.
<scales pt_clust_5="13000.00000" pt_clust_6="13000.00000" pt_clust_7="13000.00000" pt_clust_8="13000.00000" pt_clust_9="176.38686"></scales>
<clustering>
<clus scale="   79.943">  5  6 -1 -1</clus>
<clus scale="   92.168">  7  8 -1 -1</clus>
<clus scale="  140.458">  1  7  2 -1</clus>
<clus scale="  176.387">  2  9  1 -1</clus>
<clus scale="  176.387">  2  5  1 -1</clus>
</clustering>
</event>
<event>
 9    1  0.6345107E-005  0.1464643E+03  0.7546771E-02  0.1226791E+00
         21   -1    0    0  501  502  0.00000000000E+00  0.00000000000E+00  0.14985671061E+03  0.14985671061E+03  0.00000000000E+00 0. -1.
         -2   -1    0    0    0  501 -0.00000000000E+00 -0.00000000000E+00 -0.29719918266E+03  0.29719918266E+03  0.00000000000E+00 0.  1.
        -24    2    1    2    0    0 -0.24853167091E+02  0.35599339046E+02 -0.13958866928E+03  0.16727021806E+03  0.81297825337E+02 0.  0.
         23    2    1    2    0    0  0.12939511023E+03 -0.56299300416E+02 -0.33066046557E+02  0.17024930699E+03  0.89323889955E+02 0.  0.
         13    1    3    3    0    0  0.25346157480E+02  0.30743457429E+02 -0.78663213687E+02  0.88178733611E+02  0.00000000000E+00 0. -1.
        -14    1    3    3    0    0 -0.50199324571E+02  0.48558816171E+01 -0.60925455592E+02  0.79091484451E+02  0.00000000000E+00 0.  1.
        -11    1    4    4    0    0  0.88195119451E+02 -0.53857770860E+02 -0.61384419717E+02  0.12019602972E+03  0.00000000000E+00 0.  1.
         11    1    4    4    0    0  0.41199990781E+02 -0.24415295569E+01  0.28318373160E+02  0.50053277269E+02  0.00000000000E+00 0. -1.
         -1    1    1    2    0  502 -0.10454194314E+03  0.20699961370E+02  0.25312243791E+02  0.10953636822E+03  0.00000000000E+00 0.  1.
<scales pt_clust_5="13000.00000" pt_clust_6="13000.00000" pt_clust_7="13000.00000" pt_clust_8="13000.00000" pt_clust_9="116.07337"></scales>
<clustering>
<clus scale="   81.298">  5  6 -1 -1</clus>
<clus scale="   89.324">  7  8 -1 -1</clus>
<clus scale="   92.165">  2  5  1 -1</clus>
<clus scale="  116.073">  1  9  2 -1</clus>
<clus scale="  116.073">  1  5  2 -1</clus>
</clustering>
</event>
<event>
 9    1  0.6345107E-005  0.1916079E+03  0.7546771E-02  0.1174573E+00
         21   -1    0    0  501  502  0.00000000000E+00  0.00000000000E+00  0.38708952429E+03  0.38708952429E+03  0.00000000000E+00 0. -1.
          1   -1    0    0  502    0 -0.00000000000E+00 -0.00000000000E+00 -0.41480791363E+03  0.41480791363E+03  0.00000000000E+00 0. -1.
         23    2    1    2    0    0  0.89914428196E+02 -0.49293560557E+01 -0.12805097962E+03  0.18095627469E+03  0.90770132851E+02 0.  0.
        -24    2    1    2    0    0  0.64019991205E+02  0.10490026461E+03 -0.21356558519E+03  0.25731765932E+03  0.74158572199E+02 0.  0.
         11    1    4    4    0    0  0.76778103501E+02  0.10581552793E+03 -0.19375607416E+03  0.23373750106E+03  0.00000000000E+00 0. -1.
        -12    1    4    4    0    0 -0.12758112296E+02 -0.91526331485E+00 -0.19809511034E+02  0.23580158263E+02  0.00000000000E+00 0.  1.
        -11    1    3    3    0    0  0.44829896473E+02 -0.28024090396E+02 -0.11830062669E+02  0.54175821572E+02  0.00000000000E+00 0. -1.
         11    1    3    3    0    0  0.45084531723E+02  0.23094734340E+02 -0.11622091695E+03  0.12678045311E+03  0.00000000000E+00 0.  1.
          2    1    1    2  501    0 -0.15393441940E+03 -0.99970908558E+02  0.31389817547E+03  0.36362350392E+03  0.00000000000E+00 0. -1.
<scales pt_clust_5="13000.00000" pt_clust_6="13000.00000" pt_clust_7="13000.00000" pt_clust_8="13000.00000" pt_clust_9="176.67513"></scales>
<clustering>
<clus scale="   74.159">  5  6 -1 -1</clus>
<clus scale="   90.770">  7  8 -1 -1</clus>
<clus scale="  127.860">  2  7  1 -1</clus>
<clus scale="  176.675">  1  9  2 -1</clus>
<clus scale="  176.675">  1  5  2 -1</clus>
</clustering>
</event>
<event>
 9    1  0.6345107E-005  0.2763874E+03  0.7546771E-02  0.1098132E+00
         21   -1    0    0  501  502  0.00000000000E+00  0.00000000000E+00  0.63721492233E+03  0.63721492233E+03  0.00000000000E+00 0. -1.
          3   -1    0    0  502    0 -0.00000000000E+00 -0.00000000000E+00 -0.20948574908E+03  0.20948574908E+03  0.00000000000E+00 0. -1.
         23    2    1    2    0    0  0.10282533647E+03  0.24020190547E+03 -0.49286064919E+02  0.28098411914E+03  0.90845769317E+02 0.  0.
        -24    2    1    2    0    0 -0.76357930668E+02 -0.24977032796E+03  0.45129265936E+03  0.52758874957E+03  0.80430553709E+02 0.  0.
         13    1    4    4    0    0 -0.89807997143E+02 -0.22466904014E+03  0.37632957622E+03  0.44739870796E+03  0.00000000000E+00 0. -1.
        -14    1    4    4    0    0  0.13450066474E+02 -0.25101287823E+02  0.74963083148E+02  0.80190041611E+02  0.00000000000E+00 0.  1.
        -13    1    3    3    0    0  0.60953487715E+02  0.80564683150E+02  0.18255576753E+02  0.10266090745E+03  0.00000000000E+00 0.  1.
         13    1    3    3    0    0  0.41871848752E+02  0.15963722232E+03 -0.67541641672E+02  0.17832321169E+03  0.00000000000E+00 0. -1.
          4    1    1    2  501    0 -0.26467405799E+02  0.95684224867E+01  0.25722578806E+02  0.38127802703E+02  0.00000000000E+00 0. -1.
<scales pt_clust_5="13000.00000" pt_clust_6="13000.00000" pt_clust_7="13000.00000" pt_clust_8="13000.00000" pt_clust_9="28.14389"></scales>
<clustering>
<clus scale="   28.144">  1  9  2 -1</clus>
<clus scale="   80.431">  5  6 -1 -1</clus>
<clus scale="   90.846">  7  8 -1 -1</clus>
<clus scale="  273.141">  1  5  2 -1</clus>
<clus scale="   28.144">  1  5  2 -1</clus>
</clustering>
</event>
<event>
 9    1  0.6345107E-005  0.2085134E+03  0.7546771E-02  0.1143850E+00
         21   -1    0    0  501  502  0.00000000000E+00  0.00000000000E+00  0.51579575363E+03  0.51579575363E+03  0.00000000000E+00 0. -1.
          3   -1    0    0  502    0 -0.00000000000E+00 -0.00000000000E+00 -0.14874151812E+03  0.14874151812E+03  0.00000000000E+00 0. -1.
         23    2    1    2    0    0 -0.18445292011E+03  0.11415270935E+03  0.12419442094E+03  0.26718165104E+03  0.94382517828E+02 0.  0.
        -24    2    1    2    0    0  0.87839043442E+02 -0.12197187586E+03  0.24686520057E+03  0.30034312849E+03  0.81674546377E+02 0.  0.
         13    1    4    4    0    0  0.82109065752E+02 -0.74722408794E+02  0.21809997449E+03  0.24473033308E+03  0.00000000000E+00 0. -1.
        -14    1    4    4    0    0  0.57299776905E+01 -0.47249467067E+02  0.28765226076E+02  0.55612795413E+02  0.00000000000E+00 0.  1.
        -11    1    3    3    0    0 -0.82797203530E+02  0.10008074043E+03  0.44691372621E+02  0.13736393378E+03  0.00000000000E+00 0. -1.
         11    1    3    3    0    0 -0.10165571658E+03  0.14071968924E+02  0.79503048319E+02  0.12981771726E+03  0.00000000000E+00 0.  1.
          4    1    1    2  501    0  0.96613876665E+02  0.78191665070E+01 -0.40053860041E+01  0.97012492217E+02  0.00000000000E+00 0. -1.
<scales pt_clust_5="13000.00000" pt_clust_6="13000.00000" pt_clust_7="13000.00000" pt_clust_8="13000.00000" pt_clust_9="96.92982"></scales>
<clustering>
<clus scale="   81.675">  5  6 -1 -1</clus>
<clus scale="   94.383">  7  8 -1 -1</clus>
<clus scale="   96.930">  1  9  2 -1</clus>
<clus scale="  203.078">  1  5  2 -1</clus>
<clus scale="   96.930">  1  5  2 -1</clus>
</clustering>
</event>
<event>
 9    1  0.6345107E-005  0.1902884E+03  0.7546771E-02  0.1161635E+00
         -4   -1    0    0    0  501 -0.00000000000E+00  0.00000000000E+00  0.37206004903E+03  0.37206004903E+03  0.00000000000E+00 0.  1.
         21   -1    0    0  501  502  0.00000000000E+00 -0.00000000000E+00 -0.14721393421E+03  0.14721393421E+03  0.00000000000E+00 0. -1.
         23    2    1    2    0    0  0.15834693194E+03  0.85279281362E+02  0.22223284763E+03  0.30242082227E+03  0.98613429574E+02 0.  0.
        -24    2    1    2    0    0 -0.13135198418E+03 -0.42764562716E+02  0.34834144956E+02  0.15706676227E+03  0.66139236325E+02 0.  0.
         13    1    4    4    0    0 -0.98110473539E+02  0.44947833001E-01  0.30274114342E+02  0.10267516271E+03  0.00000000000E+00 0. -1.
        -14    1    4    4    0    0 -0.33241510644E+02 -0.42809510549E+02  0.45600306134E+01  0.54391599559E+02  0.00000000000E+00 0.  1.
        -13    1    3    3    0    0  0.20808170027E+02 -0.20463345507E+02  0.50392027901E+02  0.58233022635E+02  0.00000000000E+00 0. -1.
         13    1    3    3    0    0  0.13753876191E+03  0.10574262687E+03  0.17184081973E+03  0.24418779964E+03  0.00000000000E+00 0.  1.
         -3    1    1    2    0  502 -0.26994947754E+02 -0.42514718646E+02 -0.32220877773E+02  0.59786398706E+02  0.00000000000E+00 0.  1.
<scales pt_clust_5="13000.00000" pt_clust_6="13000.00000" pt_clust_7="13000.00000" pt_clust_8="13000.00000" pt_clust_9="50.36098"></scales>
<clustering>
<clus scale="   50.361">  2  9  1 -1</clus>
<clus scale="   66.139">  5  6 -1 -1</clus>
<clus scale="   98.613">  7  8 -1 -1</clus>
<clus scale="  175.669">  2  5  1 -1</clus>
<clus scale="   50.361">  2  5  1 -1</clus>
</clustering>
</event>
<event>
 9    1  0.6345107E-005  0.2147333E+03  0.7546771E-02  0.1170660E+00
         21   -1    0    0  501  502  0.00000000000E+00  0.00000000000E+00  0.84438821473E+02  0.84438821473E+02  0.00000000000E+00 0. -1.
          1   -1    0    0  502    0 -0.00000000000E+00 -0.00000000000E+00 -0.10660786073E+04  0.10660786073E+04  0.00000000000E+00 0. -1.
         23    2    1    2    0    0  0.25510501217E+02  0.31132518289E+02 -0.26839090309E+02  0.10286767248E+03  0.90782167330E+02 0.  0.
        -24    2    1    2    0    0  0.46024895674E+02 -0.20820722549E+03 -0.63716020088E+03  0.67701752784E+03  0.83132855391E+02 0.  0.
         13    1    4    4    0    0  0.52156806801E+02 -0.15692641252E+03 -0.56199221281E+03  0.58581693275E+03  0.00000000000E+00 0. -1.
        -14    1    4    4    0    0 -0.61319111264E+01 -0.51280812976E+02 -0.75167988076E+02  0.91200595091E+02  0.00000000000E+00 0.  1.
        -13    1    3    3    0    0  0.44421358495E+02  0.43998840032E+02  0.60410222688E+01  0.62814400935E+02  0.00000000000E+00 0. -1.
         13    1    3    3    0    0 -0.18910857278E+02 -0.12866321743E+02 -0.32880112577E+02  0.40053271543E+02  0.00000000000E+00 0.  1.
          2    1    1    2  501    0 -0.71535396891E+02  0.17707470721E+03 -0.31764049467E+03  0.37063222849E+03  0.00000000000E+00 0. -1.
<scales pt_clust_5="13000.00000" pt_clust_6="13000.00000" pt_clust_7="13000.00000" pt_clust_8="13000.00000" pt_clust_9="197.98817"></scales>
<clustering>
<clus scale="   83.133">  5  6 -1 -1</clus>
<clus scale="   90.782">  7  8 -1 -1</clus>
<clus scale="   99.305">  2  7  1 -1</clus>
<clus scale="  197.988">  1  9  2 -1</clus>
<clus scale="  197.988">  1  5  2 -1</clus>
</clustering>
</event>
<event>
 9    1  0.6345107E-005  0.1287853E+03  0.7546771E-02  0.1231794E+00
         21   -1    0    0  501  502  0.00000000000E+00  0.00000000000E+00  0.87722192982E+02  0.87722192982E+02  0.00000000000E+00 0.  1.
          3   -1    0    0  502    0 -0.00000000000E+00 -0.00000000000E+00 -0.24790076316E+03  0.24790076316E+03  0.00000000000E+00 0. -1.
        -24    2    1    2    0    0 -0.80437950807E+02  0.29385362299E+02 -0.89076181247E+02  0.14764611924E+03  0.80814893521E+02 0.  0.
         23    2    1    2    0    0  0.87499387390E+02 -0.57021000239E+02 -0.35992004718E+02  0.14274044170E+03  0.90398407238E+02 0.  0.
         11    1    3    3    0    0  0.14124039918E+00  0.34590545619E+02 -0.41110072691E+02  0.53726751919E+02  0.00000000000E+00 0. -1.
        -12    1    3    3    0    0 -0.80579191207E+02 -0.52051833198E+01 -0.47966108556E+02  0.93919367326E+02  0.00000000000E+00 0.  1.
        -13    1    4    4    0    0  0.58950582012E+01 -0.33129080844E+02 -0.46140298565E+02  0.57107047380E+02  0.00000000000E+00 0. -1.
         13    1    4    4    0    0  0.81604329189E+02 -0.23891919395E+02  0.10148293847E+02  0.85633394320E+02  0.00000000000E+00 0.  1.
          4    1    1    2  501    0 -0.70614365825E+01  0.27635637940E+02 -0.35110384213E+02  0.45236395198E+02  0.00000000000E+00 0. -1.
<scales pt_clust_5="13000.00000" pt_clust_6="13000.00000" pt_clust_7="13000.00000" pt_clust_8="13000.00000" pt_clust_9="28.52355"></scales>
<clustering>
<clus scale="   28.524">  1  9  2 -1</clus>
<clus scale="   80.815">  5  6 -1 -1</clus>
<clus scale="   90.398">  7  8 -1 -1</clus>
<clus scale="  122.249">  2  5  1 -1</clus>
<clus scale="   28.524">  1  5  2 -1</clus>
</clustering>
</event>
<event>
 9    1  0.6345107E-005  0.9333616E+02  0.7546771E-02  0.1302134E+00
          1   -1    0    0  502    0 -0.00000000000E+00  0.00000000000E+00  0.12148878972E+03  0.12148878972E+03  0.00000000000E+00 0. -1.
         21   -1    0    0  501  502  0.00000000000E+00 -0.00000000000E+00 -0.21745977368E+03  0.21745977368E+03  0.00000000000E+00 0.  1.
         23    2    1    2    0    0 -0.25248057682E+02 -0.25077684629E+01  0.58893122574E+02  0.11120674347E+03  0.90855856102E+02 0.  0.
        -24    2    1    2    0    0 -0.48031177155E+01 -0.26752563491E+02 -0.16471640242E+03  0.18465692811E+03  0.78917160876E+02 0.  0.
         11    1    4    4    0    0 -0.23517309047E+01  0.24231433070E+02 -0.21019885159E+02  0.32164088033E+02  0.00000000000E+00 0. -1.
        -12    1    4    4    0    0 -0.24513868107E+01 -0.50983996562E+02 -0.14369651726E+03  0.15249284008E+03  0.00000000000E+00 0.  1.
        -13    1    3    3    0    0 -0.73646704501E+01 -0.36581601943E+02 -0.39431952594E+01  0.37523336211E+02  0.00000000000E+00 0.  1.
         13    1    3    3    0    0 -0.17883387232E+02  0.34073833480E+02  0.62836317833E+02  0.73683407262E+02  0.00000000000E+00 0. -1.
          2    1    1    2  501    0  0.30051175397E+02  0.29260331954E+02  0.98522958799E+01  0.43084891818E+02  0.00000000000E+00 0. -1.
<scales pt_clust_5="13000.00000" pt_clust_6="13000.00000" pt_clust_7="13000.00000" pt_clust_8="13000.00000" pt_clust_9="41.94332"></scales>
<clustering>
<clus scale="   41.943">  2  9  1 -1</clus>
<clus scale="   78.917">  5  6 -1 -1</clus>
<clus scale="   81.760">  2  5  1 -1</clus>
<clus scale="   90.856">  7  8 -1 -1</clus>
<clus scale="   41.943">  2  5  1 -1</clus>
</clustering>
</event>
<event>
 9    1  0.6345107E-005  0.2182083E+03  0.7546771E-02  0.1174282E+00
         -2   -1    0    0    0  501 -0.00000000000E+00  0.00000000000E+00  0.27269484190E+03  0.27269484190E+03  0.00000000000E+00 0.  1.
         21   -1    0    0  501  502  0.00000000000E+00 -0.00000000000E+00 -0.38550838047E+03  0.38550838047E+03  0.00000000000E+00 0.  1.
        -24    2    1    2    0    0  0.30795118486E+02  0.78332692365E+01 -0.69856295484E+02  0.11168577141E+03  0.81142529462E+02 0.  0.
         23    2    1    2    0    0  0.81931169367E+02  0.14242990258E+03  0.16919630800E+03  0.26315308126E+03  0.11671829280E+03 0.  0.
         13    1    3    3    0    0  0.39363496640E+02  0.90801071000E+01 -0.85073477064E+02  0.94177649750E+02  0.00000000000E+00 0. -1.
        -14    1    3    3    0    0 -0.85683781543E+01 -0.12468378635E+01  0.15217181580E+02  0.17508121661E+02  0.00000000000E+00 0.  1.
        -11    1    4    4    0    0 -0.81916988933E+01  0.76238320848E+02  0.11667135873E+03  0.13961228973E+03  0.00000000000E+00 0.  1.
         11    1    4    4    0    0  0.90122868261E+02  0.66191581729E+02  0.52524949267E+02  0.12354079153E+03  0.00000000000E+00 0. -1.
         -1    1    1    2    0  502 -0.11272628785E+03 -0.15026317181E+03 -0.21215355109E+03  0.28336436970E+03  0.00000000000E+00 0.  1.
<scales pt_clust_5="13000.00000" pt_clust_6="13000.00000" pt_clust_7="13000.00000" pt_clust_8="13000.00000" pt_clust_9="184.36839"></scales>
<clustering>
<clus scale="   81.143">  5  6 -1 -1</clus>
<clus scale="   87.143">  1  5  2 -1</clus>
<clus scale="  116.718">  7  8 -1 -1</clus>
<clus scale="  184.368">  2  9  1 -1</clus>
<clus scale="  184.368">  2  5  1 -1</clus>
</clustering>
</event>
<event>
 9    1  0.6345107E-005  0.1222676E+03  0.7546771E-02  0.1242463E+00
         21   -1    0    0  501  502  0.00000000000E+00  0.00000000000E+00  0.13161320866E+03  0.13161320866E+03  0.00000000000E+00 0. -1.
          1   -1    0    0  502    0 -0.00000000000E+00 -0.00000000000E+00 -0.24452454869E+03  0.24452454869E+03  0.00000000000E+00 0. -1.
         23    2    1    2    0    0  0.91105096759E+02  0.29777459092E+02 -0.11864628381E+03  0.17744401719E+03  0.90678568854E+02 0.  0.
        -24    2    1    2    0    0 -0.28494851373E+02 -0.75428370222E+02 -0.22683161390E+02  0.11616109682E+03  0.80482787069E+02 0.  0.
         11    1    4    4    0    0 -0.23019551047E+02 -0.90007027832E+02 -0.56407130466E+01  0.93075144014E+02  0.00000000000E+00 0. -1.
        -12    1    4    4    0    0 -0.54753003260E+01  0.14578657610E+02 -0.17042448343E+02  0.23085952805E+02  0.00000000000E+00 0.  1.
        -11    1    3    3    0    0  0.39434910643E+02 -0.20430849547E+02 -0.75780474966E+01  0.45055061808E+02  0.00000000000E+00 0.  1.
         11    1    3    3    0    0  0.51670186115E+02  0.50208308640E+02 -0.11106823631E+03  0.13238895538E+03  0.00000000000E+00 0. -1.
          2    1    1    2  501    0 -0.62610245386E+02  0.45650911129E+02  0.28418105167E+02  0.82532643333E+02  0.00000000000E+00 0. -1.
<scales pt_clust_5="13000.00000" pt_clust_6="13000.00000" pt_clust_7="13000.00000" pt_clust_8="13000.00000" pt_clust_9="77.48580"></scales>
<clustering>
<clus scale="   77.486">  1  9  2 -1</clus>
<clus scale="   80.483">  5  6 -1 -1</clus>
<clus scale="   90.679">  7  8 -1 -1</clus>
<clus scale="  114.910">  1  5  2 -1</clus>
<clus scale="   77.486">  1  5  2 -1</clus>
</clustering>
</event>
<event>
 9    1  0.6345107E-005  0.1166216E+03  0.7546771E-02  0.1258131E+00
         21   -1    0    0  501  502  0.00000000000E+00  0.00000000000E+00  0.11667881525E+03  0.11667881525E+03  0.00000000000E+00 0. -1.
          3   -1    0    0  502    0 -0.00000000000E+00 -0.00000000000E+00 -0.18244284196E+03  0.18244284196E+03  0.00000000000E+00 0. -1.
         23    2    1    2    0    0  0.31606299690E+01  0.79014400819E+02 -0.12083975188E+03  0.16992756472E+03  0.89553707338E+02 0.  0.
        -24    2    1    2    0    0  0.16215541434E+02 -0.61030046288E+02  0.52398006759E+02  0.10262261903E+03  0.61629866872E+02 0.  0.
         11    1    4    4    0    0  0.12307331121E+02 -0.50683323300E+02  0.32630046383E+01  0.52258175047E+02  0.00000000000E+00 0. -1.
        -12    1    4    4    0    0  0.39082103130E+01 -0.10346722988E+02  0.49135002120E+02  0.50364443984E+02  0.00000000000E+00 0.  1.
        -13    1    3    3    0    0 -0.33965204502E+02  0.64331339097E+02 -0.48908491380E+02  0.87659550740E+02  0.00000000000E+00 0.  1.
         13    1    3    3    0    0  0.37125834471E+02  0.14683061722E+02 -0.71931260500E+02  0.82268013978E+02  0.00000000000E+00 0. -1.
          4    1    1    2  501    0 -0.19376171403E+02 -0.17984354532E+02  0.26777184171E+01  0.26571473465E+02  0.00000000000E+00 0. -1.
<scales pt_clust_5="13000.00000" pt_clust_6="13000.00000" pt_clust_7="13000.00000" pt_clust_8="13000.00000" pt_clust_9="26.43621"></scales>
<clustering>
<clus scale="   26.436">  1  9  2 -1</clus>
<clus scale="   61.630">  5  6 -1 -1</clus>
<clus scale="   89.554">  7  8 -1 -1</clus>
<clus scale="   96.845">  1  5  2 -1</clus>
<clus scale="   26.436">  1  5  2 -1</clus>
</clustering>
</event>
<event>
 9    1  0.6345107E-005  0.1235511E+03  0.7546771E-02  0.1241559E+00
         21   -1    0    0  501  502  0.00000000000E+00  0.00000000000E+00  0.13483022183E+03  0.13483022183E+03  0.00000000000E+00 0.  1.
          1   -1    0    0  502    0 -0.00000000000E+00 -0.00000000000E+00 -0.23921337280E+03  0.23921337280E+03  0.00000000000E+00 0. -1.
        -24    2    1    2    0    0 -0.42823545526E+02 -0.85807650509E+02 -0.12553529432E+03  0.17767306075E+03  0.81312959962E+02 0.  0.
         23    2    1    2    0    0  0.26615906070E+02  0.13174365808E+02  0.56052776644E+02  0.11417360068E+03  0.94930116148E+02 0.  0.
         11    1    3    3    0    0  0.12840607983E+02 -0.63838432076E+02 -0.55560070735E+02  0.85598762161E+02  0.00000000000E+00 0. -1.
        -12    1    3    3    0    0 -0.55664153509E+02 -0.21969218433E+02 -0.69975223589E+02  0.92074298590E+02  0.00000000000E+00 0.  1.
        -11    1    4    4    0    0 -0.25542919996E+02 -0.10525387462E+02 -0.74833328704E+01  0.28622103591E+02  0.00000000000E+00 0. -1.
         11    1    4    4    0    0  0.52158826066E+02  0.23699753270E+02  0.63536109514E+02  0.85551497087E+02  0.00000000000E+00 0.  1.
          2    1    1    2  501    0  0.16207639456E+02  0.72633284701E+02 -0.34900633297E+02  0.82196933202E+02  0.00000000000E+00 0. -1.
<scales pt_clust_5="13000.00000" pt_clust_6="13000.00000" pt_clust_7="13000.00000" pt_clust_8="13000.00000" pt_clust_9="74.41967"></scales>
<clustering>
<clus scale="   74.420">  1  9  2 -1</clus>
<clus scale="   81.313">  5  6 -1 -1</clus>
<clus scale="   94.930">  7  8 -1 -1</clus>
<clus scale="  113.424">  2  5  1 -1</clus>
<clus scale="   74.420">  1  5  2 -1</clus>
</clustering>
</event>
<event>
 9    1  0.6345107E-005  0.1327052E+03  0.7546771E-02  0.1225741E+00
          1   -1    0    0  502    0 -0.00000000000E+00  0.00000000000E+00  0.59265508788E+03  0.59265508788E+03  0.00000000000E+00 0. -1.
         21   -1    0    0  501  502  0.00000000000E+00 -0.00000000000E+00 -0.86084402041E+02  0.86084402041E+02  0.00000000000E+00 0. -1.
        -24    2    1    2    0    0  0.65674895221E+01 -0.97384533674E+02  0.38681673817E+03  0.40711645860E+03  0.81177229696E+02 0.  0.
         23    2    1    2    0    0 -0.40787119979E+02  0.90994561578E+02 -0.12242055993E+02  0.13511383809E+03  0.90345348059E+02 0.  0.
         13    1    3    3    0    0  0.27559430184E+02 -0.87785139129E+02  0.36074948843E+03  0.37229819533E+03  0.00000000000E+00 0. -1.
        -14    1    3    3    0    0 -0.20991940662E+02 -0.95993945445E+01  0.26067249736E+02  0.34818263270E+02  0.00000000000E+00 0.  1.
        -13    1    4    4    0    0 -0.50806301142E+02  0.10479783494E+02  0.51631668679E+01  0.52132181902E+02  0.00000000000E+00 0.  1.
         13    1    4    4    0    0  0.10019181162E+02  0.80514778084E+02 -0.17405222861E+02  0.82981656189E+02  0.00000000000E+00 0. -1.
          2    1    1    2  501    0  0.34219630457E+02  0.63899720955E+01  0.13199600366E+03  0.13650919322E+03  0.00000000000E+00 0. -1.
<scales pt_clust_5="13000.00000" pt_clust_6="13000.00000" pt_clust_7="13000.00000" pt_clust_8="13000.00000" pt_clust_9="34.81115"></scales>
<clustering>
<clus scale="   34.811">  2  9  1 -1</clus>
<clus scale="   81.177">  5  6 -1 -1</clus>
<clus scale="   90.345">  7  8 -1 -1</clus>
<clus scale="  126.642">  1  5  2 -1</clus>
<clus scale="   34.811">  2  5  1 -1</clus>
</clustering>
</event>
<event>
 9    1  0.6345107E-005  0.1104703E+03  0.7546771E-02  0.1264047E+00
          1   -1    0    0  502    0 -0.00000000000E+00  0.00000000000E+00  0.24379602183E+03  0.24379602183E+03  0.00000000000E+00 0. -1.
         21   -1    0    0  501  502  0.00000000000E+00 -0.00000000000E+00 -0.11003350790E+03  0.11003350790E+03  0.00000000000E+00 0. -1.
        -24    2    1    2    0    0  0.76202511033E+02  0.50858833378E+01  0.14263195950E+03  0.18152915170E+03  0.82318091252E+02 0.  0.
         23    2    1    2    0    0 -0.20071971018E+02  0.31836822751E+02  0.13651538268E+02  0.10144052720E+03  0.93205948084E+02 0.  0.
         11    1    3    3    0    0  0.85923170316E+02  0.17046898574E+02  0.14104688762E+03  0.16603497359E+03  0.00000000000E+00 0. -1.
        -12    1    3    3    0    0 -0.97206592830E+01 -0.11961015236E+02  0.15850718847E+01  0.15494178108E+02  0.00000000000E+00 0.  1.
        -11    1    4    4    0    0 -0.52180925753E+02  0.29192463869E+02 -0.11099290125E+02  0.60813182785E+02  0.00000000000E+00 0.  1.
         11    1    4    4    0    0  0.32108954735E+02  0.26443588820E+01  0.24750828393E+02  0.40627344415E+02  0.00000000000E+00 0. -1.
          2    1    1    2  501    0 -0.56130540015E+02 -0.36922706089E+02 -0.22520983840E+02  0.70859850836E+02  0.00000000000E+00 0. -1.
<scales pt_clust_5="13000.00000" pt_clust_6="13000.00000" pt_clust_7="13000.00000" pt_clust_8="13000.00000" pt_clust_9="67.18574"></scales>
<clustering>
<clus scale="   67.186">  2  9  1 -1</clus>
<clus scale="   82.318">  5  6 -1 -1</clus>
<clus scale="   93.206">  7  8 -1 -1</clus>
<clus scale="  101.453">  1  5  2 -1</clus>
<clus scale="   67.186">  2  5  1 -1</clus>
</clustering>
</event>
<event>
 9    1  0.6345107E-005  0.1221451E+03  0.7546771E-02  0.1239638E+00
         -2   -1    0    0    0  501 -0.00000000000E+00  0.00000000000E+00  0.11592780008E+03  0.11592780008E+03  0.00000000000E+00 0.  1.
         21   -1    0    0  501  502  0.00000000000E+00 -0.00000000000E+00 -0.29753782882E+03  0.29753782882E+03  0.00000000000E+00 0.  1.
         23    2    1    2    0    0 -0.67996170325E+02  0.50037303026E+02  0.54775981425E+02  0.13657486297E+03  0.92331328273E+02 0.  0.
        -24    2    1    2    0    0  0.38869883295E+02 -0.48052425602E+02 -0.15775527501E+03  0.19301542483E+03  0.92457146794E+02 0.  0.
         13    1    4    4    0    0  0.43756367091E+02 -0.63281830849E+02 -0.70650193439E+02  0.10445410289E+03  0.00000000000E+00 0. -1.
        -14    1    4    4    0    0 -0.48864837963E+01  0.15229405247E+02 -0.87105081575E+02  0.88561321943E+02  0.00000000000E+00 0.  1.
        -13    1    3    3    0    0 -0.58679046331E+02  0.20939894382E+02  0.76813161159E+02  0.98903849178E+02  0.00000000000E+00 0.  1.
         13    1    3    3    0    0 -0.93171239932E+01  0.29097408645E+02 -0.22037179733E+02  0.37671013790E+02  0.00000000000E+00 0. -1.
         -1    1    1    2    0  502  0.29126287030E+02 -0.19848774241E+01 -0.78630735150E+02  0.83875341100E+02  0.00000000000E+00 0.  1.
<scales pt_clust_5="13000.00000" pt_clust_6="13000.00000" pt_clust_7="13000.00000" pt_clust_8="13000.00000" pt_clust_9="29.19384"></scales>
<clustering>
<clus scale="   29.194">  2  9  1 -1</clus>
<clus scale="   92.331">  7  8 -1 -1</clus>
<clus scale="   92.457">  5  6 -1 -1</clus>
<clus scale="  122.050">  1  7  2 -1</clus>
<clus scale="   29.194">  2  5  1 -1</clus>
</clustering>
</event>
<event>
 9    1  0.6345107E-005  0.8970383E+02  0.7546771E-02  0.1308611E+00
          1   -1    0    0  502    0 -0.00000000000E+00  0.00000000000E+00  0.44176276783E+03  0.44176276783E+03  0.00000000000E+00 0. -1.
         21   -1    0    0  501  502  0.00000000000E+00 -0.00000000000E+00 -0.41553628616E+02  0.41553628616E+02  0.00000000000E+00 0. -1.
         23    2    1    2    0    0  0.22059836242E-01 -0.18122091815E+02  0.26180024195E+03  0.27674724084E+03  0.87870688661E+02 0.  0.
        -24    2    1    2    0    0 -0.23865974502E+02  0.10818059260E+02  0.15522418111E+03  0.17649200599E+03  0.79801419981E+02 0.  0.
         11    1    4    4    0    0 -0.45663149494E+02  0.29944866838E+02  0.93093637886E+02  0.10792702945E+03  0.00000000000E+00 0. -1.
        -12    1    4    4    0    0  0.21797174992E+02 -0.19126807579E+02  0.62130543226E+02  0.68564976536E+02  0.00000000000E+00 0.  1.
        -13    1    3    3    0    0  0.37559188728E+02 -0.92245712280E+01  0.20139116268E+03  0.20507117247E+03  0.00000000000E+00 0.  1.
         13    1    3    3    0    0 -0.37537128892E+02 -0.88975205869E+01  0.60409079271E+02  0.71676068366E+02  0.00000000000E+00 0. -1.
          2    1    1    2  501    0  0.23843914665E+02  0.73040325551E+01 -0.16815283853E+02  0.30077149619E+02  0.00000000000E+00 0. -1.
<scales pt_clust_5="13000.00000" pt_clust_6="13000.00000" pt_clust_7="13000.00000" pt_clust_8="13000.00000" pt_clust_9="24.93755"></scales>
<clustering>
<clus scale="   24.938">  2  9  1 -1</clus>
<clus scale="   79.801">  5  6 -1 -1</clus>
<clus scale="   81.816">  2  5  1 -1</clus>
<clus scale="   87.871">  7  8 -1 -1</clus>
<clus scale="   24.938">  2  5  1 -1</clus>
</clustering>
</event>
<event>
 9    1  0.6345107E-005  0.1052777E+03  0.7546771E-02  0.1274395E+00
          1   -1    0    0  502    0 -0.00000000000E+00  0.00000000000E+00  0.69932706208E+03  0.69932706208E+03  0.00000000000E+00 0. -1.
         21   -1    0    0  501  502  0.00000000000E+00 -0.00000000000E+00 -0.24422206829E+02  0.24422206829E+02  0.00000000000E+00 0.  1.
         23    2    1    2    0    0 -0.51258299994E+02 -0.26392987407E+02  0.47903048897E+03  0.49088219412E+03  0.90394225704E+02 0.  0.
        -24    2    1    2    0    0  0.50782311342E+02 -0.48968534758E+01  0.13943722312E+03  0.16833466560E+03  0.79315812620E+02 0.  0.
         13    1    4    4    0    0  0.69209306656E+01  0.34264936759E+02  0.60976008298E+02  0.70285551576E+02  0.00000000000E+00 0. -1.
        -14    1    4    4    0    0  0.43861380676E+02 -0.39161790235E+02  0.78461214824E+02  0.98049114024E+02  0.00000000000E+00 0.  1.
        -13    1    3    3    0    0 -0.63729831660E+02  0.12911842215E+02  0.32405033122E+03  0.33050994581E+03  0.00000000000E+00 0. -1.
         13    1    3    3    0    0  0.12471531666E+02 -0.39304829622E+02  0.15498015775E+03  0.16037224831E+03  0.00000000000E+00 0.  1.
          2    1    1    2  501    0  0.47598865188E+00  0.31289840883E+02  0.56437143161E+02  0.64532409189E+02  0.00000000000E+00 0. -1.
<scales pt_clust_5="13000.00000" pt_clust_6="13000.00000" pt_clust_7="13000.00000" pt_clust_8="13000.00000" pt_clust_9="31.29346"></scales>
<clustering>
<clus scale="   31.293">  2  9  1 -1</clus>
<clus scale="   79.316">  5  6 -1 -1</clus>
<clus scale="   90.394">  7  8 -1 -1</clus>
<clus scale="   95.934">  2  5  1 -1</clus>
<clus scale="   31.293">  2  5  1 -1</clus>
</clustering>
</event>
<event>
 9    1  0.6345107E-005  0.1315645E+03  0.7546771E-02  0.1227420E+00
          1   -1    0    0  502    0 -0.00000000000E+00  0.00000000000E+00  0.72102553406E+03  0.72102553406E+03  0.00000000000E+00 0. -1.
         21   -1    0    0  501  502  0.00000000000E+00 -0.00000000000E+00 -0.49442077007E+02  0.49442077007E+02  0.00000000000E+00 0.  1.
        -24    2    1    2    0    0 -0.45668209726E+02 -0.96852440224E+02  0.28511604108E+03  0.31547102767E+03  0.82248597943E+02 0.  0.
         23    2    1    2    0    0 -0.15412256844E+02  0.79973591198E+02  0.90014684056E+02  0.15184655255E+03  0.91221813314E+02 0.  0.
         13    1    3    3    0    0  0.15767012279E+02 -0.43082316056E+02  0.15688818935E+03  0.16345821665E+03  0.00000000000E+00 0. -1.
        -14    1    3    3    0    0 -0.61435222005E+02 -0.53770124167E+02  0.12822785173E+03  0.15201281102E+03  0.00000000000E+00 0.  1.
        -13    1    4    4    0    0 -0.15891917959E+02  0.33060571257E+02 -0.12786040809E+02  0.38846328885E+02  0.00000000000E+00 0.  1.
         13    1    4    4    0    0  0.47966111474E+00  0.46913019941E+02  0.10280072486E+03  0.11300022366E+03  0.00000000000E+00 0. -1.
          2    1    1    2  501    0  0.61080466570E+02  0.16878849026E+02  0.29645273192E+03  0.30315003085E+03  0.00000000000E+00 0. -1.
<scales pt_clust_5="13000.00000" pt_clust_6="13000.00000" pt_clust_7="13000.00000" pt_clust_8="13000.00000" pt_clust_9="63.36973"></scales>
<clustering>
<clus scale="   63.370">  2  9  1 -1</clus>
<clus scale="   82.249">  5  6 -1 -1</clus>
<clus scale="   91.222">  7  8 -1 -1</clus>
<clus scale="  125.510">  1  5  2 -1</clus>
<clus scale="   63.370">  2  5  1 -1</clus>
</clustering>
</event>
<event>
 9    1  0.6345107E-005  0.3517887E+03  0.7546771E-02  0.1061883E+00
          1   -1    0    0  502    0 -0.00000000000E+00  0.00000000000E+00  0.13641959314E+04  0.13641959314E+04  0.00000000000E+00 0. -1.
         21   -1    0    0  501  502  0.00000000000E+00 -0.00000000000E+00 -0.82573005679E+02  0.82573005679E+02  0.00000000000E+00 0.  1.
        -24    2    1    2    0    0  0.95962244727E+02 -0.40174878286E+02  0.95824861606E+02  0.16407611525E+03  0.83161254416E+02 0.  0.
         23    2    1    2    0    0  0.16994161395E+03 -0.45312174299E+02  0.36502930801E+03  0.41570132867E+03  0.92886240390E+02 0.  0.
         13    1    3    3    0    0  0.28066512917E+02 -0.45878224624E+02  0.76019885313E+02  0.93121230689E+02  0.00000000000E+00 0. -1.
        -14    1    3    3    0    0  0.67895731810E+02  0.57033463376E+01  0.19804976293E+02  0.70954884563E+02  0.00000000000E+00 0.  1.
        -13    1    4    4    0    0  0.26387611772E+02  0.13309868884E+02  0.15615310706E+02  0.33425986795E+02  0.00000000000E+00 0. -1.
         13    1    4    4    0    0  0.14355400218E+03 -0.58622043183E+02  0.34941399731E+03  0.38227534187E+03  0.00000000000E+00 0.  1.
          2    1    1    2  501    0 -0.26590385868E+03  0.85487052585E+02  0.82076875613E+03  0.86699149319E+03  0.00000000000E+00 0. -1.
<scales pt_clust_5="13000.00000" pt_clust_6="13000.00000" pt_clust_7="13000.00000" pt_clust_8="13000.00000" pt_clust_9="279.30803"></scales>
<clustering>
<clus scale="   83.161">  5  6 -1 -1</clus>
<clus scale="   92.886">  7  8 -1 -1</clus>
<clus scale="  131.687">  5  7 -1 -1</clus>
<clus scale="  279.308">  2  9  1 -1</clus>
<clus scale="  279.308">  2  5  1 -1</clus>
</clustering>
</event>
<event>
 9    1  0.6345107E-005  0.1206121E+03  0.7546771E-02  0.1248801E+00
         21   -1    0    0  501  502  0.00000000000E+00  0.00000000000E+00  0.16136332291E+03  0.16136332291E+03  0.00000000000E+00 0. -1.
         -2   -1    0    0    0  501 -0.00000000000E+00 -0.00000000000E+00 -0.22393625893E+03  0.22393625893E+03  0.00000000000E+00 0.  1.
         23    2    1    2    0    0 -0.60255411328E+02  0.38084975502E+02 -0.15650520136E+03  0.19931607345E+03  0.10075633542E+03 0.  0.
        -24    2    1    2    0    0  0.50464487484E+02  0.95567650924E+01  0.97385567400E+02  0.13722365880E+03  0.81904746754E+02 0.  0.
         11    1    4    4    0    0  0.44249139913E+02  0.28623785722E+01  0.11173582777E+03  0.12021262330E+03  0.00000000000E+00 0. -1.
        -12    1    4    4    0    0  0.62153475711E+01  0.66943865202E+01 -0.14350260365E+02  0.17011035502E+02  0.00000000000E+00 0.  1.
        -11    1    3    3    0    0 -0.37445170932E+02  0.72189954334E+02 -0.11594699789E+03  0.14162357379E+03  0.00000000000E+00 0.  1.
         11    1    3    3    0    0 -0.22810240396E+02 -0.34104978832E+02 -0.40558203475E+02  0.57692499661E+02  0.00000000000E+00 0. -1.
         -1    1    1    2    0  502  0.97909238442E+01 -0.47641740594E+02 -0.34533020541E+01  0.48759849586E+02  0.00000000000E+00 0.  1.
<scales pt_clust_5="13000.00000" pt_clust_6="13000.00000" pt_clust_7="13000.00000" pt_clust_8="13000.00000" pt_clust_9="48.63741"></scales>
<clustering>
<clus scale="   48.637">  1  9  2 -1</clus>
<clus scale="   81.905">  5  6 -1 -1</clus>
<clus scale="  100.756">  7  8 -1 -1</clus>
<clus scale="  105.375">  1  5  2 -1</clus>
<clus scale="   48.637">  1  5  2 -1</clus>
</clustering>
</event>
<event>
 9    1  0.6345107E-005  0.9162547E+02  0.7546771E-02  0.1304762E+00
         -4   -1    0    0    0  501 -0.00000000000E+00  0.00000000000E+00  0.63953923398E+02  0.63953923398E+02  0.00000000000E+00 0.  1.
         21   -1    0    0  501  502  0.00000000000E+00 -0.00000000000E+00 -0.22463581100E+03  0.22463581100E+03  0.00000000000E+00 0.  1.
        -24    2    1    2    0    0 -0.47029432228E+01  0.12078195472E+02 -0.15810689859E+02  0.82532887946E+02  0.79960610291E+02 0.  0.
         23    2    1    2    0    0  0.46204597648E+02 -0.52498488038E+00 -0.82115363799E+02  0.12993747514E+03  0.89474432220E+02 0.  0.
         11    1    3    3    0    0  0.13952248241E+02 -0.15299352114E+02  0.23370029782E+02  0.31223287753E+02  0.00000000000E+00 0. -1.
        -12    1    3    3    0    0 -0.18655191464E+02  0.27377547586E+02 -0.39180719641E+02  0.51309600193E+02  0.00000000000E+00 0.  1.
        -11    1    4    4    0    0  0.56392851154E+02 -0.22432368823E+02 -0.86212197592E+02  0.10543200579E+03  0.00000000000E+00 0.  1.
         11    1    4    4    0    0 -0.10188253506E+02  0.21907383943E+02  0.40968337928E+01  0.24505469346E+02  0.00000000000E+00 0. -1.
         -3    1    1    2    0  502 -0.41501654425E+02 -0.11553210592E+02 -0.62755833946E+02  0.76119371314E+02  0.00000000000E+00 0.  1.
<scales pt_clust_5="13000.00000" pt_clust_6="13000.00000" pt_clust_7="13000.00000" pt_clust_8="13000.00000" pt_clust_9="43.07974"></scales>
<clustering>
<clus scale="   43.080">  2  9  1 -1</clus>
<clus scale="   79.961">  5  6 -1 -1</clus>
<clus scale="   82.361">  1  5  2 -1</clus>
<clus scale="   89.474">  7  8 -1 -1</clus>
<clus scale="   43.080">  2  5  1 -1</clus>
</clustering>
</event>
<event>
 9    1  0.6345107E-005  0.1366891E+03  0.7546771E-02  0.1234351E+00
         21   -1    0    0  501  502  0.00000000000E+00  0.00000000000E+00  0.22390072962E+03  0.22390072962E+03  0.00000000000E+00 0. -1.
          3   -1    0    0  502    0 -0.00000000000E+00 -0.00000000000E+00 -0.14013660045E+03  0.14013660045E+03  0.00000000000E+00 0. -1.
         23    2    1    2    0    0 -0.31463369521E+01  0.24289696904E+01  0.51785195520E+02  0.10996928010E+03  0.96931608673E+02 0.  0.
        -24    2    1    2    0    0  0.10440742173E+03  0.40566963890E+02  0.41685916759E+02  0.14362945565E+03  0.79656240194E+02 0.  0.
         11    1    4    4    0    0  0.10679150289E+03  0.13052295194E+02  0.22262443946E+02  0.10986538995E+03  0.00000000000E+00 0. -1.
        -12    1    4    4    0    0 -0.23840811530E+01  0.27514668696E+02  0.19423472813E+02  0.33764065699E+02  0.00000000000E+00 0.  1.
        -11    1    3    3    0    0  0.22001459082E+02 -0.14987939872E+01 -0.22463639401E+02  0.31478972033E+02  0.00000000000E+00 0.  1.
         11    1    3    3    0    0 -0.25147796034E+02  0.39277636776E+01  0.74248834921E+02  0.78490308064E+02  0.00000000000E+00 0. -1.
          4    1    1    2  501    0 -0.10126108478E+03 -0.42995933581E+02 -0.97069831103E+01  0.11043859433E+03  0.00000000000E+00 0. -1.
<scales pt_clust_5="13000.00000" pt_clust_6="13000.00000" pt_clust_7="13000.00000" pt_clust_8="13000.00000" pt_clust_9="111.08021"></scales>
<clustering>
<clus scale="   79.656">  5  6 -1 -1</clus>
<clus scale="   96.932">  7  8 -1 -1</clus>
<clus scale="   97.013">  2  7  1 -1</clus>
<clus scale="  111.080">  1  9  2 -1</clus>
<clus scale="  111.080">  1  5  2 -1</clus>
</clustering>
</event>
<event>
 9    1  0.6345107E-005  0.8922047E+02  0.7546771E-02  0.1309218E+00
          1   -1    0    0  502    0 -0.00000000000E+00  0.00000000000E+00  0.49505651159E+03  0.49505651159E+03  0.00000000000E+00 0. -1.
         21   -1    0    0  501  502  0.00000000000E+00 -0.00000000000E+00 -0.35249141487E+02  0.35249141487E+02  0.00000000000E+00 0. -1.
        -24    2    1    2    0    0 -0.86675396155E+00  0.12885422850E+02  0.31071516659E+03  0.32137051987E+03  0.81045116510E+02 0.  0.
         23    2    1    2    0    0 -0.30728092056E+02 -0.15415014715E+02  0.54482115847E+02  0.10915686995E+03  0.88119708296E+02 0.  0.
         13    1    3    3    0    0  0.27499157380E+02 -0.71353186763E+01  0.43801051234E+02  0.52207743856E+02  0.00000000000E+00 0. -1.
        -14    1    3    3    0    0 -0.28365911342E+02  0.20020741526E+02  0.26691411536E+03  0.26916277602E+03  0.00000000000E+00 0.  1.
        -13    1    4    4    0    0  0.14579717353E+02  0.25574359144E+02  0.33406048746E+02  0.44526173163E+02  0.00000000000E+00 0.  1.
         13    1    4    4    0    0 -0.45307809409E+02 -0.40989373859E+02  0.21076067102E+02  0.64630696788E+02  0.00000000000E+00 0. -1.
          2    1    1    2  501    0  0.31594846017E+02  0.25295918651E+01  0.94610087669E+02  0.99778263257E+02  0.00000000000E+00 0. -1.
<scales pt_clust_5="13000.00000" pt_clust_6="13000.00000" pt_clust_7="13000.00000" pt_clust_8="13000.00000" pt_clust_9="31.69596"></scales>
<clustering>
<clus scale="   31.696">  2  9  1 -1</clus>
<clus scale="   81.045">  5  6 -1 -1</clus>
<clus scale="   82.241">  1  5  2 -1</clus>
<clus scale="   88.120">  7  8 -1 -1</clus>
<clus scale="   31.696">  2  5  1 -1</clus>
</clustering>
</event>
<event>
 9    1  0.6345107E-005  0.1799944E+03  0.7546771E-02  0.1190554E+00
         21   -1    0    0  501  502  0.00000000000E+00  0.00000000000E+00  0.41820533450E+03  0.41820533450E+03  0.00000000000E+00 0. -1.
         -2   -1    0    0    0  501 -0.00000000000E+00 -0.00000000000E+00 -0.23411146545E+03  0.23411146545E+03  0.00000000000E+00 0.  1.
        -24    2    1    2    0    0  0.61718505533E+02 -0.40666863198E+02  0.18986716568E+03  0.21836673130E+03  0.78559029063E+02 0.  0.
         23    2    1    2    0    0  0.54950111100E+02 -0.78631300634E+02 -0.15919319328E+03  0.20727567070E+03  0.91751483520E+02 0.  0.
         11    1    3    3    0    0  0.18522218869E+02 -0.50121504198E+02  0.14847519955E+03  0.15779772703E+03  0.00000000000E+00 0. -1.
        -12    1    3    3    0    0  0.43196286664E+02  0.94546410002E+01  0.41391966137E+02  0.60569004274E+02  0.00000000000E+00 0.  1.
        -13    1    4    4    0    0  0.35240055334E+02 -0.79986240456E+01 -0.11747687129E+03  0.12290913219E+03  0.00000000000E+00 0.  1.
         13    1    4    4    0    0  0.19710055767E+02 -0.70632676588E+02 -0.41716321985E+02  0.84366538511E+02  0.00000000000E+00 0. -1.
         -1    1    1    2    0  502 -0.11666861663E+03  0.11929816383E+03  0.15341989664E+03  0.22667439795E+03  0.00000000000E+00 0.  1.
<scales pt_clust_5="13000.00000" pt_clust_6="13000.00000" pt_clust_7="13000.00000" pt_clust_8="13000.00000" pt_clust_9="154.85367"></scales>
<clustering>
<clus scale="   78.559">  5  6 -1 -1</clus>
<clus scale="   91.751">  7  8 -1 -1</clus>
<clus scale="  107.863">  2  5  1 -1</clus>
<clus scale="  154.854">  1  9  2 -1</clus>
<clus scale="  154.854">  1  5  2 -1</clus>
</clustering>
</event>
<event>
 9    1  0.6345107E-005  0.1673216E+03  0.7546771E-02  0.1182292E+00
          3   -1    0    0  502    0 -0.00000000000E+00  0.00000000000E+00  0.33605008277E+03  0.33605008277E+03  0.00000000000E+00 0. -1.
         21   -1    0    0  501  502  0.00000000000E+00 -0.00000000000E+00 -0.13599550740E+03  0.13599550740E+03  0.00000000000E+00 0.  1.
         23    2    1    2    0    0  0.12403612106E+03  0.52733333414E+02  0.21322496307E+03  0.26840464306E+03  0.91708253497E+02 0.  0.
        -24    2    1    2    0    0 -0.14987637518E+03 -0.49652035806E+02 -0.98160370326E+01  0.17740233441E+03  0.80293095441E+02 0.  0.
         11    1    4    4    0    0 -0.14203712292E+02  0.19496846547E+02 -0.69263727318E+01  0.25096754917E+02  0.00000000000E+00 0. -1.
        -12    1    4    4    0    0 -0.13567266289E+03 -0.69148882353E+02 -0.28896643008E+01  0.15230557949E+03  0.00000000000E+00 0.  1.
        -11    1    3    3    0    0  0.11733743542E+03  0.81531795012E+01  0.16149678678E+03  0.19978928957E+03  0.00000000000E+00 0. -1.
         11    1    3    3    0    0  0.66986856407E+01  0.44580153913E+02  0.51728176294E+02  0.68615353492E+02  0.00000000000E+00 0.  1.
          4    1    1    2  501    0  0.25840254116E+02 -0.30812976087E+01 -0.33543506709E+01  0.26238612695E+02  0.00000000000E+00 0. -1.
<scales pt_clust_5="13000.00000" pt_clust_6="13000.00000" pt_clust_7="13000.00000" pt_clust_8="13000.00000" pt_clust_9="26.02332"></scales>
<clustering>
<clus scale="   26.023">  2  9  1 -1</clus>
<clus scale="   80.293">  5  6 -1 -1</clus>
<clus scale="   91.708">  7  8 -1 -1</clus>
<clus scale="  161.348">  2  5  1 -1</clus>
<clus scale="   26.023">  2  5  1 -1</clus>
</clustering>
</event>
<event>
 9    1  0.6345107E-005  0.1186358E+03  0.7546771E-02  0.1247993E+00
          1   -1    0    0  502    0 -0.00000000000E+00  0.00000000000E+00  0.21616561313E+03  0.21616561313E+03  0.00000000000E+00 0. -1.
         21   -1    0    0  501  502  0.00000000000E+00 -0.00000000000E+00 -0.16357969813E+03  0.16357969813E+03  0.00000000000E+00 0.  1.
         23    2    1    2    0    0 -0.69663748151E+02  0.45605099074E+02  0.90710313332E+02  0.15405149368E+03  0.92577745127E+02 0.  0.
        -24    2    1    2    0    0 -0.10388374315E+02 -0.82798056697E+02 -0.62286389393E+02  0.13417627708E+03  0.84618216199E+02 0.  0.
         11    1    4    4    0    0  0.17805688852E+02 -0.58755937290E+02  0.35614060772E+00  0.61395680292E+02  0.00000000000E+00 0. -1.
        -12    1    4    4    0    0 -0.28194063166E+02 -0.24042119407E+02 -0.62642530000E+02  0.72780596784E+02  0.00000000000E+00 0.  1.
        -13    1    3    3    0    0 -0.78655134394E+02  0.13247591792E+01  0.65130991907E+02  0.10212948282E+03  0.00000000000E+00 0. -1.
         13    1    3    3    0    0  0.89913862432E+01  0.44280339895E+02  0.25579321425E+02  0.51922010866E+02  0.00000000000E+00 0.  1.
          2    1    1    2  501    0  0.80052122466E+02  0.37192957623E+02  0.24161991063E+02  0.91517540505E+02  0.00000000000E+00 0. -1.
<scales pt_clust_5="13000.00000" pt_clust_6="13000.00000" pt_clust_7="13000.00000" pt_clust_8="13000.00000" pt_clust_9="88.27042"></scales>
<clustering>
<clus scale="   84.618">  5  6 -1 -1</clus>
<clus scale="   88.270">  2  9  1 -1</clus>
<clus scale="   92.578">  7  8 -1 -1</clus>
<clus scale="  112.535">  2  5  1 -1</clus>
<clus scale="   88.270">  2  5  1 -1</clus>
</clustering>
</event>
<event>
 9    1  0.6345107E-005  0.1338618E+03  0.7546771E-02  0.1223408E+00
          1   -1    0    0  502    0 -0.00000000000E+00  0.00000000000E+00  0.41184048412E+03  0.41184048412E+03  0.00000000000E+00 0. -1.
         21   -1    0    0  501  502  0.00000000000E+00 -0.00000000000E+00 -0.29025581794E+03  0.29025581794E+03  0.00000000000E+00 0. -1.
        -24    2    1    2    0    0 -0.87705086703E+02 -0.21907403695E+02  0.35692895523E+03  0.38069262229E+03  0.96728884073E+02 0.  0.
         23    2    1    2    0    0  0.11248676814E+03  0.26822911159E+02 -0.86652842911E+02  0.17058113470E+03  0.90644728265E+02 0.  0.
         13    1    3    3    0    0 -0.18550049642E+02  0.12968775823E+02  0.91829679797E+01  0.24425813988E+02  0.00000000000E+00 0. -1.
        -14    1    3    3    0    0 -0.69155037061E+02 -0.34876179519E+02  0.34774598725E+03  0.35626680830E+03  0.00000000000E+00 0.  1.
        -13    1    4    4    0    0  0.78116471600E+02 -0.17032616767E+02 -0.17625590582E+02  0.81871573898E+02  0.00000000000E+00 0. -1.
         13    1    4    4    0    0  0.34370296537E+02  0.43855527926E+02 -0.69027252330E+02  0.88709560803E+02  0.00000000000E+00 0.  1.
          2    1    1    2  501    0 -0.24781681434E+02 -0.49155074638E+01 -0.14869144613E+03  0.15082254507E+03  0.00000000000E+00 0. -1.
<scales pt_clust_5="13000.00000" pt_clust_6="13000.00000" pt_clust_7="13000.00000" pt_clust_8="13000.00000" pt_clust_9="25.26448"></scales>
<clustering>
<clus scale="   25.264">  2  9  1 -1</clus>
<clus scale="   90.645">  7  8 -1 -1</clus>
<clus scale="   96.729">  5  6 -1 -1</clus>
<clus scale="  129.534">  2  7  1 -1</clus>
<clus scale="   25.264">  2  5  1 -1</clus>
</clustering>
</event>
<event>
 9    1  0.6345107E-005  0.9243402E+02  0.7546771E-02  0.1304136E+00
         21   -1    0    0  501  502  0.00000000000E+00  0.00000000000E+00  0.50974955903E+03  0.50974955903E+03  0.00000000000E+00 0.  1.
          3   -1    0    0  502    0 -0.00000000000E+00 -0.00000000000E+00 -0.28249943684E+02  0.28249943684E+02  0.00000000000E+00 0. -1.
         23    2    1    2    0    0 -0.12056521302E+02 -0.51163190133E+01  0.93214719059E+02  0.13148755852E+03  0.91806632495E+02 0.  0.
        -24    2    1    2    0    0  0.63583024507E+01 -0.21073537295E+02  0.34987936368E+03  0.35967858849E+03  0.80427581751E+02 0.  0.
         13    1    4    4    0    0  0.33919339697E+02  0.21281214727E+01  0.73692706098E+02  0.81152112965E+02  0.00000000000E+00 0. -1.
        -14    1    4    4    0    0 -0.27561037247E+02 -0.23201658768E+02  0.27618665758E+03  0.27852647552E+03  0.00000000000E+00 0.  1.
        -13    1    3    3    0    0 -0.34424516401E+02  0.33466131626E+02  0.51770870674E+02  0.70606319447E+02  0.00000000000E+00 0. -1.
         13    1    3    3    0    0  0.22367995099E+02 -0.38582450640E+02  0.41443848386E+02  0.60881239074E+02  0.00000000000E+00 0.  1.
          4    1    1    2  501    0  0.56982188513E+01  0.26189856309E+02  0.38405532612E+02  0.46833355707E+02  0.00000000000E+00 0. -1.
<scales pt_clust_5="13000.00000" pt_clust_6="13000.00000" pt_clust_7="13000.00000" pt_clust_8="13000.00000" pt_clust_9="26.80259"></scales>
<clustering>
<clus scale="   26.803">  1  9  2 -1</clus>
<clus scale="   80.428">  5  6 -1 -1</clus>
<clus scale="   81.143">  1  5  2 -1</clus>
<clus scale="   91.807">  7  8 -1 -1</clus>
<clus scale="   26.803">  1  5  2 -1</clus>
</clustering>
</event>
<event>
 9    1  0.6345107E-005  0.1868130E+03  0.7546771E-02  0.1190858E+00
          1   -1    0    0  502    0 -0.00000000000E+00  0.00000000000E+00  0.64251489578E+03  0.64251489578E+03  0.00000000000E+00 0. -1.
         21   -1    0    0  501  502  0.00000000000E+00 -0.00000000000E+00 -0.98059625799E+02  0.98059625799E+02  0.00000000000E+00 0. -1.
         23    2    1    2    0    0 -0.19129581959E+02 -0.20227928375E+02  0.65407496357E+02  0.11602508966E+03  0.91698259841E+02 0.  0.
        -24    2    1    2    0    0 -0.44938547921E+02 -0.14227308600E+03  0.39649102330E+03  0.43134766701E+03  0.81206983612E+02 0.  0.
         13    1    4    4    0    0  0.16447497180E+01 -0.85960043132E+02  0.13684189291E+03  0.16160921345E+03  0.00000000000E+00 0. -1.
        -14    1    4    4    0    0 -0.46583297639E+02 -0.56313042873E+02  0.25964913039E+03  0.26973845356E+03  0.00000000000E+00 0.  1.
        -13    1    3    3    0    0 -0.53206387996E+01 -0.49391039805E+02  0.82056526031E+01  0.50349942849E+02  0.00000000000E+00 0.  1.
         13    1    3    3    0    0 -0.13808943159E+02  0.29163111430E+02  0.57201843754E+02  0.65675146808E+02  0.00000000000E+00 0. -1.
          2    1    1    2  501    0  0.64068129880E+02  0.16250101438E+03  0.82556750324E+02  0.19320176491E+03  0.00000000000E+00 0. -1.
<scales pt_clust_5="13000.00000" pt_clust_6="13000.00000" pt_clust_7="13000.00000" pt_clust_8="13000.00000" pt_clust_9="168.23948"></scales>
<clustering>
<clus scale="   81.207">  5  6 -1 -1</clus>
<clus scale="   91.698">  7  8 -1 -1</clus>
<clus scale="   95.832">  1  7  2 -1</clus>
<clus scale="  168.239">  2  9  1 -1</clus>
<clus scale="  168.239">  2  5  1 -1</clus>
</clustering>
</event>
<event>
 9    1  0.6345107E-005  0.9534491E+02  0.7546771E-02  0.1294841E+00
         -2   -1    0    0    0  501 -0.00000000000E+00  0.00000000000E+00  0.34404674934E+03  0.34404674934E+03  0.00000000000E+00 0.  1.
         21   -1    0    0  501  502  0.00000000000E+00 -0.00000000000E+00 -0.19529320395E+03  0.19529320395E+03  0.00000000000E+00 0.  1.
         23    2    1    2    0    0 -0.35684344764E+01 -0.29988528575E+02  0.24687593704E+03  0.26388399631E+03  0.88175901739E+02 0.  0.
        -24    2    1    2    0    0  0.19767445868E+02  0.53401828001E+02  0.59846642108E+02  0.11494176389E+03  0.79921720224E+02 0.  0.
         13    1    4    4    0    0 -0.28857288410E+02  0.33636617925E+02  0.18085452712E+02  0.47866990292E+02  0.00000000000E+00 0. -1.
        -14    1    4    4    0    0  0.48624734278E+02  0.19765210076E+02  0.41761189395E+02  0.67074773594E+02  0.00000000000E+00 0.  1.
        -13    1    3    3    0    0  0.36811605788E+02 -0.28526038859E+02  0.17837050986E+03  0.18434985219E+03  0.00000000000E+00 0.  1.
         13    1    3    3    0    0 -0.40380040265E+02 -0.14624897163E+01  0.68505427180E+02  0.79534144121E+02  0.00000000000E+00 0. -1.
         -1    1    1    2    0  502 -0.16199011392E+02 -0.23413299426E+02 -0.15796903376E+03  0.16051419310E+03  0.00000000000E+00 0.  1.
<scales pt_clust_5="13000.00000" pt_clust_6="13000.00000" pt_clust_7="13000.00000" pt_clust_8="13000.00000" pt_clust_9="28.47087"></scales>
<clustering>
<clus scale="   28.471">  2  9  1 -1</clus>
<clus scale="   79.922">  5  6 -1 -1</clus>
<clus scale="   87.768">  2  5  1 -1</clus>
<clus scale="   88.176">  7  8 -1 -1</clus>
<clus scale="   28.471">  2  5  1 -1</clus>
</clustering>
</event>
<event>
 9    1  0.6345107E-005  0.1261684E+03  0.7546771E-02  0.1236566E+00
          1   -1    0    0  502    0 -0.00000000000E+00  0.00000000000E+00  0.10481052654E+04  0.10481052654E+04  0.00000000000E+00 0. -1.
         21   -1    0    0  501  502  0.00000000000E+00 -0.00000000000E+00 -0.30121839572E+02  0.30121839572E+02  0.00000000000E+00 0. -1.
        -24    2    1    2    0    0  0.88501063207E+02 -0.71878288975E+02  0.55822665060E+03  0.57604339463E+03  0.84912145389E+02 0.  0.
         23    2    1    2    0    0 -0.49064325042E+02 -0.10949190124E+02  0.21486593880E+03  0.24067430444E+03  0.96070580338E+02 0.  0.
         11    1    3    3    0    0  0.10554426840E+03 -0.60341554015E+02  0.47840407963E+03  0.49361033127E+03  0.00000000000E+00 0. -1.
        -12    1    3    3    0    0 -0.17043205197E+02 -0.11536734960E+02  0.79822570977E+02  0.82433063357E+02  0.00000000000E+00 0.  1.
        -13    1    4    4    0    0 -0.26293421519E+02 -0.51600142671E+02  0.86347504783E+02  0.10397023767E+03  0.00000000000E+00 0. -1.
         13    1    4    4    0    0 -0.22770903523E+02  0.40650952547E+02  0.12851843401E+03  0.13670406677E+03  0.00000000000E+00 0.  1.
          2    1    1    2  501    0 -0.39436738165E+02  0.82827479099E+02  0.24489083644E+03  0.26150940592E+03  0.00000000000E+00 0. -1.
<scales pt_clust_5="13000.00000" pt_clust_6="13000.00000" pt_clust_7="13000.00000" pt_clust_8="13000.00000" pt_clust_9="91.73684"></scales>
<clustering>
<clus scale="   84.912">  5  6 -1 -1</clus>
<clus scale="   91.737">  2  9  1 -1</clus>
<clus scale="   96.071">  7  8 -1 -1</clus>
<clus scale="  117.894">  1  5  2 -1</clus>
<clus scale="   91.737">  2  5  1 -1</clus>
</clustering>
</event>
<event>
 9    1  0.6345107E-005  0.3488430E+03  0.7546771E-02  0.1063557E+00
          1   -1    0    0  502    0 -0.00000000000E+00  0.00000000000E+00  0.69943413131E+03  0.69943413131E+03  0.00000000000E+00 0. -1.
         21   -1    0    0  501  502  0.00000000000E+00 -0.00000000000E+00 -0.31974917901E+03  0.31974917901E+03  0.00000000000E+00 0.  1.
         23    2    1    2    0    0  0.53015581342E+02 -0.40929586726E+03  0.38325211594E+03  0.57158509617E+03  0.97434998671E+02 0.  0.
        -24    2    1    2    0    0 -0.62039757231E+02  0.24174459695E+03  0.58838517940E+02  0.26857493906E+03  0.79882069728E+02 0.  0.
         13    1    4    4    0    0 -0.98160935093E+01  0.17877340165E+03  0.52201175010E+02  0.18649731231E+03  0.00000000000E+00 0. -1.
        -14    1    4    4    0    0 -0.52223663722E+02  0.62971195306E+02  0.66373429295E+01  0.82077626744E+02  0.00000000000E+00 0.  1.
        -13    1    3    3    0    0 -0.70608871734E+01 -0.19133789682E+03  0.12651789696E+03  0.22949253831E+03  0.00000000000E+00 0.  1.
         13    1    3    3    0    0  0.60076468515E+02 -0.21795797044E+03  0.25673421898E+03  0.34209255786E+03  0.00000000000E+00 0. -1.
          2    1    1    2  501    0  0.90241758896E+01  0.16755127031E+03 -0.62405681576E+02  0.17902327510E+03  0.00000000000E+00 0. -1.
<scales pt_clust_5="13000.00000" pt_clust_6="13000.00000" pt_clust_7="13000.00000" pt_clust_8="13000.00000" pt_clust_9="167.79411"></scales>
<clustering>
<clus scale="   79.882">  5  6 -1 -1</clus>
<clus scale="   97.435">  7  8 -1 -1</clus>
<clus scale="  167.794">  2  9  1 -1</clus>
<clus scale="  344.353">  2  5  1 -1</clus>
<clus scale="  167.794">  2  5  1 -1</clus>
</clustering>
</event>
<event>
 9    1  0.6345107E-005  0.1219986E+03  0.7546771E-02  0.1242323E+00
         21   -1    0    0  501  502  0.00000000000E+00  0.00000000000E+00  0.32133990795E+03  0.32133990795E+03  0.00000000000E+00 0.  1.
         -4   -1    0    0    0  501 -0.00000000000E+00 -0.00000000000E+00 -0.45926567420E+03  0.45926567420E+03  0.00000000000E+00 0.  1.
        -24    2    1    2    0    0 -0.80302991058E+02  0.40332451636E+02 -0.39054906412E+03  0.40889550529E+03  0.81189197164E+02 0.  0.
         23    2    1    2    0    0  0.54470160966E+02  0.58043534491E+02  0.24997567302E+02  0.12239372567E+03  0.89550518596E+02 0.  0.
         11    1    3    3    0    0 -0.68727303681E+00  0.39874666879E+02 -0.10067187019E+03  0.10828336368E+03  0.00000000000E+00 0. -1.
        -12    1    3    3    0    0 -0.79615718021E+02  0.45778475760E+00 -0.28987719393E+03  0.30061214161E+03  0.00000000000E+00 0.  1.
        -13    1    4    4    0    0  0.24852248296E+02 -0.22704355944E+02  0.43509747666E+01  0.33941906335E+02  0.00000000000E+00 0. -1.
         13    1    4    4    0    0  0.29617912669E+02  0.80747890435E+02  0.20646592535E+02  0.88451819336E+02  0.00000000000E+00 0.  1.
         -3    1    1    2    0  502  0.25832830092E+02 -0.98375986128E+02  0.22762573056E+03  0.24931635119E+03  0.00000000000E+00 0.  1.
<scales pt_clust_5="13000.00000" pt_clust_6="13000.00000" pt_clust_7="13000.00000" pt_clust_8="13000.00000" pt_clust_9="101.71121"></scales>
<clustering>
<clus scale="   81.189">  5  6 -1 -1</clus>
<clus scale="   89.551">  7  8 -1 -1</clus>
<clus scale="  101.711">  1  9  2 -1</clus>
<clus scale="  116.000">  2  5  1 -1</clus>
<clus scale="  101.711">  1  5  2 -1</clus>
</clustering>
</event>
<event>
 9    1  0.6345107E-005  0.1163408E+03  0.7546771E-02  0.1251622E+00
         21   -1    0    0  501  502  0.00000000000E+00  0.00000000000E+00  0.50845969398E+02  0.50845969398E+02  0.00000000000E+00 0.  1.
          1   -1    0    0  502    0 -0.00000000000E+00 -0.00000000000E+00 -0.50306143731E+03  0.50306143731E+03  0.00000000000E+00 0. -1.
        -24    2    1    2    0    0 -0.75365650452E+02 -0.39489549904E+02 -0.13900084244E+03  0.18205678445E+03  0.81142052897E+02 0.  0.
         23    2    1    2    0    0  0.74025676155E+02 -0.19840696815E+02 -0.11147572356E+03  0.16156401247E+03  0.88332548943E+02 0.  0.
         11    1    3    3    0    0 -0.58714165268E+02  0.12443090746E+02 -0.52187135756E+02  0.79534148948E+02  0.00000000000E+00 0. -1.
        -12    1    3    3    0    0 -0.16651485185E+02 -0.51932640650E+02 -0.86813706680E+02  0.10252263551E+03  0.00000000000E+00 0.  1.
        -11    1    4    4    0    0  0.31284789836E+02  0.13239734778E+02  0.38631426590E+01  0.34189947693E+02  0.00000000000E+00 0.  1.
         11    1    4    4    0    0  0.42740886319E+02 -0.33080431592E+02 -0.11533886622E+03  0.12737406478E+03  0.00000000000E+00 0. -1.
          2    1    1    2  501    0  0.13399742978E+01  0.59330246719E+02 -0.20173890191E+03  0.21028660978E+03  0.00000000000E+00 0. -1.
<scales pt_clust_5="13000.00000" pt_clust_6="13000.00000" pt_clust_7="13000.00000" pt_clust_8="13000.00000" pt_clust_9="59.34541"></scales>
<clustering>
<clus scale="   59.345">  1  9  2 -1</clus>
<clus scale="   81.142">  5  6 -1 -1</clus>
<clus scale="   88.333">  7  8 -1 -1</clus>
<clus scale="  110.980">  2  5  1 -1</clus>
<clus scale="   59.345">  1  5  2 -1</clus>
</clustering>
</event>
<event>
 9    1  0.6345107E-005  0.1111805E+03  0.7546771E-02  0.1262127E+00
          3   -1    0    0  502    0 -0.00000000000E+00  0.00000000000E+00  0.11485118404E+03  0.11485118404E+03  0.00000000000E+00 0. -1.
         21   -1    0    0  501  502  0.00000000000E+00 -0.00000000000E+00 -0.60043795141E+03  0.60043795141E+03  0.00000000000E+00 0.  1.
         23    2    1    2    0    0 -0.16778242810E+02 -0.66915292235E+02  0.73451879525E+02  0.13522208946E+03  0.90170222946E+02 0.  0.
        -24    2    1    2    0    0  0.37260513756E+02  0.68337461282E+01 -0.37584168740E+03  0.38618450015E+03  0.80289776452E+02 0.  0.
         11    1    4    4    0    0 -0.19073852269E+02  0.21858060992E+02 -0.93967918086E+02  0.98344070997E+02  0.00000000000E+00 0. -1.
        -12    1    4    4    0    0  0.56334366024E+02 -0.15024314863E+02 -0.28187376931E+03  0.28784042916E+03  0.00000000000E+00 0.  1.
        -13    1    3    3    0    0  0.11707368945E+02 -0.76396394516E+02  0.71250488281E+02  0.10511947328E+03  0.00000000000E+00 0. -1.
         13    1    3    3    0    0 -0.28485611755E+02  0.94811022814E+01  0.22013912447E+01  0.30102616181E+02  0.00000000000E+00 0.  1.
          4    1    1    2  501    0 -0.20482270946E+02  0.60081546106E+02 -0.18319695951E+03  0.19388254583E+03  0.00000000000E+00 0. -1.
<scales pt_clust_5="13000.00000" pt_clust_6="13000.00000" pt_clust_7="13000.00000" pt_clust_8="13000.00000" pt_clust_9="63.47689"></scales>
<clustering>
<clus scale="   63.477">  2  9  1 -1</clus>
<clus scale="   80.290">  5  6 -1 -1</clus>
<clus scale="   90.170">  7  8 -1 -1</clus>
<clus scale="  103.329">  2  5  1 -1</clus>
<clus scale="   63.477">  2  5  1 -1</clus>
</clustering>
</event>
<event>
 9    1  0.6345107E-005  0.1008301E+03  0.7546771E-02  0.1284308E+00
         -2   -1    0    0    0  501 -0.00000000000E+00  0.00000000000E+00  0.17479315019E+03  0.17479315019E+03  0.00000000000E+00 0.  1.
         21   -1    0    0  501  502  0.00000000000E+00 -0.00000000000E+00 -0.34710252169E+03  0.34710252169E+03  0.00000000000E+00 0. -1.
        -24    2    1    2    0    0 -0.52140100890E+01  0.38537176224E+02  0.10353058075E+03  0.13697928074E+03  0.80823525967E+02 0.  0.
         23    2    1    2    0    0 -0.56903220763E+02 -0.74739075482E+02 -0.28350733186E+03  0.31261205800E+03  0.92336264022E+02 0.  0.
         11    1    3    3    0    0 -0.43004982808E+02  0.23605336325E+02  0.56301590932E+02  0.74676030899E+02  0.00000000000E+00 0. -1.
        -12    1    3    3    0    0  0.37790972719E+02  0.14931839899E+02  0.47228989821E+02  0.62303249846E+02  0.00000000000E+00 0.  1.
        -13    1    4    4    0    0 -0.21792662248E+01 -0.76908277921E+02 -0.16345558013E+03  0.18065812766E+03  0.00000000000E+00 0. -1.
         13    1    4    4    0    0 -0.54723954539E+02  0.21692024385E+01 -0.12005175173E+03  0.13195393034E+03  0.00000000000E+00 0.  1.
         -1    1    1    2    0  502  0.62117230852E+02  0.36201899258E+02  0.76673796099E+01  0.72304333126E+02  0.00000000000E+00 0.  1.
<scales pt_clust_5="13000.00000" pt_clust_6="13000.00000" pt_clust_7="13000.00000" pt_clust_8="13000.00000" pt_clust_9="71.89668"></scales>
<clustering>
<clus scale="   71.897">  2  9  1 -1</clus>
<clus scale="   80.824">  5  6 -1 -1</clus>
<clus scale="   90.406">  1  5  2 -1</clus>
<clus scale="   92.336">  7  8 -1 -1</clus>
<clus scale="   71.897">  2  5  1 -1</clus>
</clustering>
</event>
<event>
 9    1  0.6345107E-005  0.9550307E+02  0.7546771E-02  0.1298532E+00
         -4   -1    0    0    0  501 -0.00000000000E+00  0.00000000000E+00  0.12666043386E+03  0.12666043386E+03  0.00000000000E+00 0.  1.
         21   -1    0    0  501  502  0.00000000000E+00 -0.00000000000E+00 -0.22185153596E+03  0.22185153596E+03  0.00000000000E+00 0. -1.
        -24    2    1    2    0    0  0.73952335921E+01 -0.28597368296E+02  0.96175111924E+02  0.12647250185E+03  0.76636431403E+02 0.  0.
         23    2    1    2    0    0 -0.23989650466E+01  0.87088150131E+01 -0.16253981868E+03  0.18666322848E+03  0.91336573822E+02 0.  0.
         11    1    3    3    0    0 -0.76967351637E+01  0.20293008476E+02  0.55521017533E+01  0.22402494483E+02  0.00000000000E+00 0. -1.
        -12    1    3    3    0    0  0.15091968756E+02 -0.48890376772E+02  0.90623010171E+02  0.10407000737E+03  0.00000000000E+00 0.  1.
        -13    1    4    4    0    0  0.21900114111E+02  0.43781294437E+02 -0.81306785923E+02  0.94906323171E+02  0.00000000000E+00 0.  1.
         13    1    4    4    0    0 -0.24299079157E+02 -0.35072479424E+02 -0.81233032756E+02  0.91756905307E+02  0.00000000000E+00 0. -1.
         -3    1    1    2    0  502 -0.49962685455E+01  0.19888553283E+02 -0.28826395350E+02  0.35376239483E+02  0.00000000000E+00 0.  1.
<scales pt_clust_5="13000.00000" pt_clust_6="13000.00000" pt_clust_7="13000.00000" pt_clust_8="13000.00000" pt_clust_9="20.50652"></scales>
<clustering>
<clus scale="   20.507">  2  9  1 -1</clus>
<clus scale="   76.636">  5  6 -1 -1</clus>
<clus scale="   81.557">  1  5  2 -1</clus>
<clus scale="   91.337">  7  8 -1 -1</clus>
<clus scale="   20.507">  2  5  1 -1</clus>
</clustering>
</event>
<event>
 9    1  0.6345107E-005  0.1296586E+03  0.7546771E-02  0.1246594E+00
         21   -1    0    0  501  502  0.00000000000E+00  0.00000000000E+00  0.67492267526E+02  0.67492267526E+02  0.00000000000E+00 0.  1.
         -2   -1    0    0    0  501 -0.00000000000E+00 -0.00000000000E+00 -0.10793227157E+04  0.10793227157E+04  0.00000000000E+00 0.  1.
         23    2    1    2    0    0 -0.57832347801E+01 -0.35852016801E+02 -0.14158007969E+03  0.16704901147E+03  0.80880407720E+02 0.  0.
        -24    2    1    2    0    0 -0.88622386572E+02 -0.46398675015E+01 -0.86881014958E+03  0.87703287937E+03  0.80499314980E+02 0.  0.
         13    1    4    4    0    0 -0.39050080003E+02  0.57251748033E+01 -0.11618074741E+03  0.12270147694E+03  0.00000000000E+00 0. -1.
        -14    1    4    4    0    0 -0.49572306568E+02 -0.10365042305E+02 -0.75262940217E+03  0.75433140243E+03  0.00000000000E+00 0.  1.
        -13    1    3    3    0    0 -0.18425147076E+02 -0.57320386320E+02 -0.76423425885E+02  0.97291586258E+02  0.00000000000E+00 0. -1.
         13    1    3    3    0    0  0.12641912296E+02  0.21468369519E+02 -0.65156653809E+02  0.69757425210E+02  0.00000000000E+00 0.  1.
         -1    1    1    2    0  502  0.94405621352E+02  0.40491884302E+02 -0.14402188819E+01  0.10273309237E+03  0.00000000000E+00 0.  1.
<scales pt_clust_5="13000.00000" pt_clust_6="13000.00000" pt_clust_7="13000.00000" pt_clust_8="13000.00000" pt_clust_9="101.64260"></scales>
<clustering>
<clus scale="   80.499">  5  6 -1 -1</clus>
<clus scale="   80.880">  7  8 -1 -1</clus>
<clus scale="   88.659">  2  7  1 -1</clus>
<clus scale="  101.643">  1  9  2 -1</clus>
<clus scale="  101.643">  1  5  2 -1</clus>
</clustering>
</event>
<event>
 9    1  0.6345107E-005  0.1359912E+03  0.7546771E-02  0.1230669E+00
         -4   -1    0    0    0  501 -0.00000000000E+00  0.00000000000E+00  0.96149158769E+02  0.96149158769E+02  0.00000000000E+00 0.  1.
         21   -1    0    0  501  502  0.00000000000E+00 -0.00000000000E+00 -0.42720718587E+03  0.42720718587E+03  0.00000000000E+00 0.  1.
         23    2    1    2    0    0 -0.29414721644E+02 -0.41849654412E+02 -0.20591216938E+03  0.23171428797E+03  0.93140057568E+02 0.  0.
        -24    2    1    2    0    0 -0.62213126885E+02 -0.42436981813E+02  0.66295594977E+01  0.11035592854E+03  0.80393465665E+02 0.  0.
         13    1    4    4    0    0 -0.28217742843E+02  0.65916933967E+01 -0.28892486385E+02  0.40920254184E+02  0.00000000000E+00 0. -1.
        -14    1    4    4    0    0 -0.33995384043E+02 -0.49028675210E+02  0.35522045883E+02  0.69435674352E+02  0.00000000000E+00 0.  1.
        -11    1    3    3    0    0 -0.35093944966E+02 -0.67268572887E+02 -0.12029898974E+03  0.14222690605E+03  0.00000000000E+00 0. -1.
         11    1    3    3    0    0  0.56792233219E+01  0.25418918475E+02 -0.85613179644E+02  0.89487381919E+02  0.00000000000E+00 0.  1.
         -3    1    1    2    0  502  0.91627848529E+02  0.84286636225E+02 -0.13177541721E+03  0.18128612813E+03  0.00000000000E+00 0.  1.
<scales pt_clust_5="13000.00000" pt_clust_6="13000.00000" pt_clust_7="13000.00000" pt_clust_8="13000.00000" pt_clust_9="109.68358"></scales>
<clustering>
<clus scale="   80.393">  5  6 -1 -1</clus>
<clus scale="   93.140">  7  8 -1 -1</clus>
<clus scale="  106.262">  1  7  2 -1</clus>
<clus scale="  109.684">  2  9  1 -1</clus>
<clus scale="  109.684">  2  5  1 -1</clus>
</clustering>
</event>
<event>
 9    1  0.6345107E-005  0.9571176E+02  0.7546771E-02  0.1295301E+00
         21   -1    0    0  501  502  0.00000000000E+00  0.00000000000E+00  0.25928814003E+03  0.25928814003E+03  0.00000000000E+00 0.  1.
         -4   -1    0    0    0  501 -0.00000000000E+00 -0.00000000000E+00 -0.10004243878E+03  0.10004243878E+03  0.00000000000E+00 0.  1.
        -24    2    1    2    0    0  0.21051019812E+02 -0.22784960474E+02 -0.59146578362E+02  0.10385514461E+03  0.79531587889E+02 0.  0.
         23    2    1    2    0    0 -0.16396415350E+02  0.44920618939E+02  0.13523266860E+03  0.16929438277E+03  0.89922238299E+02 0.  0.
         13    1    3    3    0    0  0.26999322666E+02  0.24134260251E+02 -0.36504406439E+02  0.51419817500E+02  0.00000000000E+00 0. -1.
        -14    1    3    3    0    0 -0.59483028533E+01 -0.46919220725E+02 -0.22642171923E+02  0.52435327115E+02  0.00000000000E+00 0.  1.
        -13    1    4    4    0    0  0.31835148430E+02  0.42995015861E+02  0.74401344596E+02  0.91638464316E+02  0.00000000000E+00 0.  1.
         13    1    4    4    0    0 -0.48231563780E+02  0.19256030781E+01  0.60831323999E+02  0.77655918457E+02  0.00000000000E+00 0. -1.
         -3    1    1    2    0  502 -0.46546044624E+01 -0.22135658465E+02  0.83159611026E+02  0.86181051423E+02  0.00000000000E+00 0.  1.
<scales pt_clust_5="13000.00000" pt_clust_6="13000.00000" pt_clust_7="13000.00000" pt_clust_8="13000.00000" pt_clust_9="22.61974"></scales>
<clustering>
<clus scale="   22.620">  1  9  2 -1</clus>
<clus scale="   79.532">  5  6 -1 -1</clus>
<clus scale="   86.023">  2  5  1 -1</clus>
<clus scale="   89.922">  7  8 -1 -1</clus>
<clus scale="   22.620">  1  5  2 -1</clus>
</clustering>
</event>
<event>
 9    1  0.6345107E-005  0.9118866E+02  0.7546771E-02  0.1306509E+00
          1   -1    0    0  502    0 -0.00000000000E+00  0.00000000000E+00  0.26822570863E+03  0.26822570863E+03  0.00000000000E+00 0. -1.
         21   -1    0    0  501  502  0.00000000000E+00 -0.00000000000E+00 -0.13484959230E+03  0.13484959230E+03  0.00000000000E+00 0.  1.
        -24    2    1    2    0    0 -0.19968116586E+01  0.34460611702E+01  0.23316975447E+03  0.24679052593E+03  0.80756217679E+02 0.  0.
         23    2    1    2    0    0  0.25535420600E+02 -0.11278041656E+02 -0.83090373750E+02  0.12637816920E+03  0.91039439323E+02 0.  0.
         11    1    3    3    0    0 -0.28680379536E+02 -0.17184254769E+02  0.18493462175E+03  0.18793263980E+03  0.00000000000E+00 0. -1.
        -12    1    3    3    0    0  0.26683567878E+02  0.20630315939E+02  0.48235132724E+02  0.58857886127E+02  0.00000000000E+00 0.  1.
        -11    1    4    4    0    0  0.22809570246E+02 -0.31360438933E+02  0.20758543173E+01  0.38833784210E+02  0.00000000000E+00 0. -1.
         11    1    4    4    0    0  0.27258503544E+01  0.20082397277E+02 -0.85166228067E+02  0.87544384993E+02  0.00000000000E+00 0.  1.
          2    1    1    2  501    0 -0.23538608942E+02  0.78319804860E+01 -0.16703264386E+02  0.29906605798E+02  0.00000000000E+00 0. -1.
<scales pt_clust_5="13000.00000" pt_clust_6="13000.00000" pt_clust_7="13000.00000" pt_clust_8="13000.00000" pt_clust_9="24.80738"></scales>
<clustering>
<clus scale="   24.807">  2  9  1 -1</clus>
<clus scale="   80.756">  5  6 -1 -1</clus>
<clus scale="   80.924">  1  5  2 -1</clus>
<clus scale="   91.039">  7  8 -1 -1</clus>
<clus scale="   24.807">  2  5  1 -1</clus>
</clustering>
</event>
<event>
 9    1  0.6345107E-005  0.9295956E+02  0.7546771E-02  0.1297256E+00
         21   -1    0    0  501  502  0.00000000000E+00  0.00000000000E+00  0.50075402962E+02  0.50075402962E+02  0.00000000000E+00 0. -1.
          1   -1    0    0  502    0 -0.00000000000E+00 -0.00000000000E+00 -0.27966192086E+03  0.27966192086E+03  0.00000000000E+00 0. -1.
        -24    2    1    2    0    0  0.35406718008E+02  0.17897297153E+02 -0.18344567869E+03  0.20581960798E+03  0.84471563700E+02 0.  0.
         23    2    1    2    0    0 -0.13776099619E+02 -0.21819632225E+01 -0.33085883064E+02  0.94163938733E+02  0.87049582511E+02 0.  0.
         13    1    3    3    0    0  0.39965472634E+02  0.46390316054E+02 -0.14764044535E+03  0.15983429398E+03  0.00000000000E+00 0. -1.
        -14    1    3    3    0    0 -0.45587546260E+01 -0.28493018901E+02 -0.35805233331E+02  0.45985314001E+02  0.00000000000E+00 0.  1.
        -13    1    4    4    0    0 -0.15140839450E+02  0.25992053674E+02 -0.52090551705E+02  0.60151953006E+02  0.00000000000E+00 0.  1.
         13    1    4    4    0    0  0.13647398315E+01 -0.28174016897E+02  0.19004668642E+02  0.34011985727E+02  0.00000000000E+00 0. -1.
          2    1    1    2  501    0 -0.21630618389E+02 -0.15715333931E+02 -0.13054956152E+02  0.29753777115E+02  0.00000000000E+00 0. -1.
<scales pt_clust_5="13000.00000" pt_clust_6="13000.00000" pt_clust_7="13000.00000" pt_clust_8="13000.00000" pt_clust_9="26.73678"></scales>
<clustering>
<clus scale="   26.737">  1  9  2 -1</clus>
<clus scale="   84.472">  5  6 -1 -1</clus>
<clus scale="   87.050">  7  8 -1 -1</clus>
<clus scale="   90.550">  2  5  1 -1</clus>
<clus scale="   26.737">  1  5  2 -1</clus>
</clustering>
</event>
<event>
 9    1  0.6345107E-005  0.1312092E+03  0.7546771E-02  0.1228519E+00
         -2   -1    0    0    0  501 -0.00000000000E+00  0.00000000000E+00  0.82468834010E+03  0.82468834010E+03  0.00000000000E+00 0.  1.
         21   -1    0    0  501  502  0.00000000000E+00 -0.00000000000E+00 -0.45546083745E+02  0.45546083745E+02  0.00000000000E+00 0.  1.
         23    2    1    2    0    0 -0.28065769313E+02 -0.69451701320E+02  0.38441893474E+03  0.40220483580E+03  0.91540080456E+02 0.  0.
        -24    2    1    2    0    0  0.90244676683E+02  0.97674059097E+02  0.35851056085E+03  0.39073740188E+03  0.80383900724E+02 0.  0.
         13    1    4    4    0    0  0.19943424965E+02 -0.11617699749E+02  0.33224078310E+02  0.40454301704E+02  0.00000000000E+00 0. -1.
        -14    1    4    4    0    0  0.70301251718E+02  0.10929175885E+03  0.32528648254E+03  0.35028310018E+03  0.00000000000E+00 0.  1.
        -11    1    3    3    0    0 -0.17385604354E+02 -0.91497246628E+02  0.28595776823E+03  0.30074216630E+03  0.00000000000E+00 0.  1.
         11    1    3    3    0    0 -0.10680164959E+02  0.22045545308E+02  0.98461166510E+02  0.10146266950E+03  0.00000000000E+00 0. -1.
         -1    1    1    2    0  502 -0.62178907370E+02 -0.28222357777E+02  0.36212760763E+02  0.77292186166E+02  0.00000000000E+00 0.  1.
<scales pt_clust_5="13000.00000" pt_clust_6="13000.00000" pt_clust_7="13000.00000" pt_clust_8="13000.00000" pt_clust_9="68.28410"></scales>
<clustering>
<clus scale="   68.284">  2  9  1 -1</clus>
<clus scale="   80.384">  5  6 -1 -1</clus>
<clus scale="   91.540">  7  8 -1 -1</clus>
<clus scale="  123.684">  2  5  1 -1</clus>
<clus scale="   68.284">  2  5  1 -1</clus>
</clustering>
</event>
<event>
 9    1  0.6345107E-005  0.2824533E+03  0.7546771E-02  0.1094846E+00
         -2   -1    0    0    0  501 -0.00000000000E+00  0.00000000000E+00  0.76486775963E+02  0.76486775963E+02  0.00000000000E+00 0.  1.
         21   -1    0    0  501  502  0.00000000000E+00 -0.00000000000E+00 -0.16144854913E+04  0.16144854913E+04  0.00000000000E+00 0. -1.
        -24    2    1    2    0    0 -0.32976940446E+02  0.27954504127E+03 -0.42066790679E+03  0.51255701576E+03  0.80748361612E+02 0.  0.
         23    2    1    2    0    0 -0.17314884570E+01 -0.23396392949E+03 -0.10825444308E+04  0.11113898469E+04  0.92427424361E+02 0.  0.
         11    1    3    3    0    0 -0.47947181336E+02  0.96044350202E+02 -0.17942917437E+03  0.20908916284E+03  0.00000000000E+00 0. -1.
        -12    1    3    3    0    0  0.14970240890E+02  0.18350069106E+03 -0.24123873243E+03  0.30346785292E+03  0.00000000000E+00 0.  1.
        -13    1    4    4    0    0 -0.23003250190E+02 -0.87873471929E+01 -0.83064436819E+02  0.86637564913E+02  0.00000000000E+00 0.  1.
         13    1    4    4    0    0  0.21271761733E+02 -0.22517658230E+03 -0.99947999395E+03  0.10247522820E+04  0.00000000000E+00 0. -1.
         -1    1    1    2    0  502  0.34708428903E+02 -0.45581111775E+02 -0.34786377773E+02  0.67025404632E+02  0.00000000000E+00 0.  1.
<scales pt_clust_5="13000.00000" pt_clust_6="13000.00000" pt_clust_7="13000.00000" pt_clust_8="13000.00000" pt_clust_9="57.29150"></scales>
<clustering>
<clus scale="   57.292">  2  9  1 -1</clus>
<clus scale="   80.748">  5  6 -1 -1</clus>
<clus scale="   92.427">  7  8 -1 -1</clus>
<clus scale="  278.850">  1  5  2 -1</clus>
<clus scale="   57.292">  2  5  1 -1</clus>
</clustering>
</event>
<event>
 9    1  0.6345107E-005  0.1192919E+03  0.7546771E-02  0.1249758E+00
         21   -1    0    0  501  502  0.00000000000E+00  0.00000000000E+00  0.64425313481E+03  0.64425313481E+03  0.00000000000E+00 0. -1.
          1   -1    0    0  502    0 -0.00000000000E+00 -0.00000000000E+00 -0.75040527036E+02  0.75040527036E+02  0.00000000000E+00 0. -1.
         23    2    1    2    0    0 -0.68170118559E+02  0.38109694442E+02  0.78773257703E+00  0.12401836125E+03  0.96334934107E+02 0.  0.
        -24    2    1    2    0    0 -0.52843077115E+01 -0.59318027025E+02  0.33768947637E+03  0.35220294433E+03  0.80412556885E+02 0.  0.
         11    1    4    4    0    0  0.21510688194E+02 -0.68448583701E+02  0.24397865893E+03  0.25430985889E+03  0.00000000000E+00 0. -1.
        -12    1    4    4    0    0 -0.26794995905E+02  0.91305566756E+01  0.93710817443E+02  0.97893085438E+02  0.00000000000E+00 0.  1.
        -13    1    3    3    0    0 -0.64073077842E+02 -0.77181194937E+01 -0.27342861347E+02  0.70089662143E+02  0.00000000000E+00 0. -1.
         13    1    3    3    0    0 -0.40970407166E+01  0.45827813936E+02  0.28130593924E+02  0.53928699106E+02  0.00000000000E+00 0.  1.
          2    1    1    2  501    0  0.73454426270E+02  0.21208332583E+02  0.23073539882E+03  0.24307235626E+03  0.00000000000E+00 0. -1.
<scales pt_clust_5="13000.00000" pt_clust_6="13000.00000" pt_clust_7="13000.00000" pt_clust_8="13000.00000" pt_clust_9="76.45486"></scales>
<clustering>
<clus scale="   76.455">  1  9  2 -1</clus>
<clus scale="   80.413">  5  6 -1 -1</clus>
<clus scale="   96.335">  7  8 -1 -1</clus>
<clus scale="  106.847">  1  5  2 -1</clus>
<clus scale="   76.455">  1  5  2 -1</clus>
</clustering>
</event>
<event>
 9    1  0.6345107E-005  0.1189180E+03  0.7546771E-02  0.1248751E+00
          1   -1    0    0  502    0 -0.00000000000E+00  0.00000000000E+00  0.51492517280E+03  0.51492517280E+03  0.00000000000E+00 0. -1.
         21   -1    0    0  501  502  0.00000000000E+00 -0.00000000000E+00 -0.11264078504E+03  0.11264078504E+03  0.00000000000E+00 0. -1.
         23    2    1    2    0    0 -0.19242327231E+01 -0.82227656342E+02  0.44876904269E+03  0.46502126675E+03  0.89922381599E+02 0.  0.
        -24    2    1    2    0    0 -0.33839681804E+02  0.36213569705E+02 -0.48497115578E+02  0.10423171013E+03  0.77818586989E+02 0.  0.
         13    1    4    4    0    0 -0.45177199718E+02  0.50606055985E+02 -0.20674200164E+02  0.70918085346E+02  0.00000000000E+00 0. -1.
        -14    1    4    4    0    0  0.11337517914E+02 -0.14392486281E+02 -0.27822915414E+02  0.33313624779E+02  0.00000000000E+00 0.  1.
        -13    1    3    3    0    0  0.40454210591E+02 -0.50974175101E+02  0.18675374953E+03  0.19776721833E+03  0.00000000000E+00 0.  1.
         13    1    3    3    0    0 -0.42378443314E+02 -0.31253481241E+02  0.26201529316E+03  0.26725404842E+03  0.00000000000E+00 0. -1.
          2    1    1    2  501    0  0.35763914527E+02  0.46014086638E+02  0.20124606489E+01  0.58312980967E+02  0.00000000000E+00 0. -1.
<scales pt_clust_5="13000.00000" pt_clust_6="13000.00000" pt_clust_7="13000.00000" pt_clust_8="13000.00000" pt_clust_9="58.27824"></scales>
<clustering>
<clus scale="   58.278">  2  9  1 -1</clus>
<clus scale="   77.819">  5  6 -1 -1</clus>
<clus scale="   89.922">  7  8 -1 -1</clus>
<clus scale="  110.051">  2  5  1 -1</clus>
<clus scale="   58.278">  2  5  1 -1</clus>
</clustering>
</event>
<event>
 9    1  0.6345107E-005  0.1326522E+03  0.7546771E-02  0.1252965E+00
         21   -1    0    0  501  502  0.00000000000E+00  0.00000000000E+00  0.19965885234E+03  0.19965885234E+03  0.00000000000E+00 0. -1.
          1   -1    0    0  502    0 -0.00000000000E+00 -0.00000000000E+00 -0.22781329860E+03  0.22781329860E+03  0.00000000000E+00 0. -1.
        -24    2    1    2    0    0 -0.19596247127E+02 -0.55068622249E+01 -0.20212761757E+01  0.72921256771E+02  0.69993468972E+02 0.  0.
         23    2    1    2    0    0  0.66729864701E+02 -0.78619891893E+02 -0.14620214406E+03  0.20055268906E+03  0.90622027754E+02 0.  0.
         13    1    3    3    0    0 -0.29283761631E+02 -0.30255482523E+02 -0.13144704263E+02  0.44110272818E+02  0.00000000000E+00 0. -1.
        -14    1    3    3    0    0  0.96875145041E+01  0.24748620298E+02  0.11123428087E+02  0.28810983953E+02  0.00000000000E+00 0.  1.
        -11    1    4    4    0    0  0.63800306287E+02 -0.12324791991E+02 -0.10157965410E+03  0.12058526322E+03  0.00000000000E+00 0. -1.
         11    1    4    4    0    0  0.29295584141E+01 -0.66295099901E+02 -0.44622489965E+02  0.79967425831E+02  0.00000000000E+00 0.  1.
          2    1    1    2  501    0 -0.47133617574E+02  0.84126754118E+02  0.12006897398E+03  0.15399820511E+03  0.00000000000E+00 0. -1.
<scales pt_clust_5="13000.00000" pt_clust_6="13000.00000" pt_clust_7="13000.00000" pt_clust_8="13000.00000" pt_clust_9="96.87230"></scales>
<clustering>
<clus scale="   69.993">  5  6 -1 -1</clus>
<clus scale="   72.893">  2  5  1 -1</clus>
<clus scale="   90.622">  7  8 -1 -1</clus>
<clus scale="   96.872">  1  9  2 -1</clus>
<clus scale="   96.872">  1  5  2 -1</clus>
</clustering>
</event>
<event>
 9    1  0.6345107E-005  0.1442716E+03  0.7546771E-02  0.1209813E+00
         21   -1    0    0  501  502  0.00000000000E+00  0.00000000000E+00  0.27636189264E+03  0.27636189264E+03  0.00000000000E+00 0. -1.
          1   -1    0    0  502    0 -0.00000000000E+00 -0.00000000000E+00 -0.19414449364E+03  0.19414449364E+03  0.00000000000E+00 0. -1.
        -24    2    1    2    0    0 -0.20754230150E+02  0.13059489396E+03 -0.29170540369E+00  0.15477193210E+03  0.80426994703E+02 0.  0.
         23    2    1    2    0    0 -0.17707353616E+02 -0.66099111842E+02  0.16737796720E+03  0.20241312693E+03  0.90956292200E+02 0.  0.
         11    1    3    3    0    0  0.16914651543E+02  0.74356924216E+02  0.28238371199E+02  0.81317053707E+02  0.00000000000E+00 0. -1.
        -12    1    3    3    0    0 -0.37668881693E+02  0.56237969741E+02 -0.28530076603E+02  0.73454878392E+02  0.00000000000E+00 0.  1.
        -13    1    4    4    0    0 -0.30806656676E+02  0.44657577097E+01  0.97086346488E+02  0.10195465542E+03  0.00000000000E+00 0. -1.
         13    1    4    4    0    0  0.13099303060E+02 -0.70564869552E+02  0.70291620710E+02  0.10045847151E+03  0.00000000000E+00 0.  1.
          2    1    1    2  501    0  0.38461583767E+02 -0.64495782115E+02 -0.84868862796E+02  0.11332132725E+03  0.00000000000E+00 0. -1.
<scales pt_clust_5="13000.00000" pt_clust_6="13000.00000" pt_clust_7="13000.00000" pt_clust_8="13000.00000" pt_clust_9="75.09331"></scales>
<clustering>
<clus scale="   75.093">  1  9  2 -1</clus>
<clus scale="   80.427">  5  6 -1 -1</clus>
<clus scale="   90.956">  7  8 -1 -1</clus>
<clus scale="  137.876">  2  5  1 -1</clus>
<clus scale="   75.093">  1  5  2 -1</clus>
</clustering>
</event>
<event>
 9    1  0.6345107E-005  0.1557009E+03  0.7546771E-02  0.1220104E+00
         21   -1    0    0  501  502  0.00000000000E+00  0.00000000000E+00  0.16063034125E+03  0.16063034125E+03  0.00000000000E+00 0.  1.
         -4   -1    0    0    0  501 -0.00000000000E+00 -0.00000000000E+00 -0.22738851507E+03  0.22738851507E+03  0.00000000000E+00 0.  1.
        -24    2    1    2    0    0  0.31401695854E+02  0.15867556798E+02 -0.46450142419E+02  0.99693186099E+02  0.80890480049E+02 0.  0.
         23    2    1    2    0    0  0.97256343087E+02 -0.55826345035E+02 -0.44233184452E+02  0.15149727883E+03  0.91757690763E+02 0.  0.
         13    1    3    3    0    0 -0.22085545324E+02  0.22779317360E+02 -0.60310819276E+01  0.32296169445E+02  0.00000000000E+00 0. -1.
        -14    1    3    3    0    0  0.53487241178E+02 -0.69117605618E+01 -0.40419060491E+02  0.67397016654E+02  0.00000000000E+00 0.  1.
        -11    1    4    4    0    0  0.29385308382E+01 -0.24012692103E+02 -0.45966070029E+02  0.51943468689E+02  0.00000000000E+00 0. -1.
         11    1    4    4    0    0  0.94317812248E+02 -0.31813652933E+02  0.17328855774E+01  0.99553810136E+02  0.00000000000E+00 0.  1.
         -3    1    1    2    0  502 -0.12865803894E+03  0.39958788238E+02  0.23925153049E+02  0.13682839139E+03  0.00000000000E+00 0.  1.
<scales pt_clust_5="13000.00000" pt_clust_6="13000.00000" pt_clust_7="13000.00000" pt_clust_8="13000.00000" pt_clust_9="125.79063"></scales>
<clustering>
<clus scale="   80.890">  5  6 -1 -1</clus>
<clus scale="   88.211">  2  5  1 -1</clus>
<clus scale="   91.758">  7  8 -1 -1</clus>
<clus scale="  125.791">  1  9  2 -1</clus>
<clus scale="  125.791">  1  5  2 -1</clus>
</clustering>
</event>
<event>
 9    1  0.6345107E-005  0.2481665E+03  0.7546771E-02  0.1115025E+00
         21   -1    0    0  501  502  0.00000000000E+00  0.00000000000E+00  0.15971259039E+03  0.15971259039E+03  0.00000000000E+00 0.  1.
          1   -1    0    0  502    0 -0.00000000000E+00 -0.00000000000E+00 -0.48311109982E+03  0.48311109982E+03  0.00000000000E+00 0. -1.
        -24    2    1    2    0    0 -0.72887952335E+02  0.21303658534E+03 -0.24506282309E+03  0.34252678204E+03  0.81065213676E+02 0.  0.
         23    2    1    2    0    0  0.54837052240E+02 -0.23705748872E+03 -0.72395794805E+02  0.26966814546E+03  0.90974734462E+02 0.  0.
         13    1    3    3    0    0 -0.56827320863E+02  0.86905098466E+02 -0.15557198429E+03  0.18704139336E+03  0.00000000000E+00 0. -1.
        -14    1    3    3    0    0 -0.16060631472E+02  0.12613148687E+03 -0.89490838800E+02  0.15548538868E+03  0.00000000000E+00 0.  1.
        -13    1    4    4    0    0 -0.76405590256E+01 -0.68049550030E+02  0.13914809393E+02  0.69876614986E+02  0.00000000000E+00 0. -1.
         13    1    4    4    0    0  0.62477611265E+02 -0.16900793869E+03 -0.86310604198E+02  0.19979153047E+03  0.00000000000E+00 0.  1.
          2    1    1    2  501    0  0.18050900095E+02  0.24020903389E+02 -0.59398915298E+01  0.30628762712E+02  0.00000000000E+00 0. -1.
<scales pt_clust_5="13000.00000" pt_clust_6="13000.00000" pt_clust_7="13000.00000" pt_clust_8="13000.00000" pt_clust_9="30.04728"></scales>
<clustering>
<clus scale="   30.047">  1  9  2 -1</clus>
<clus scale="   81.065">  5  6 -1 -1</clus>
<clus scale="   90.975">  7  8 -1 -1</clus>
<clus scale="  244.708">  2  5  1 -1</clus>
<clus scale="   30.047">  1  5  2 -1</clus>
</clustering>
</event>
<event>
 9    1  0.6345107E-005  0.9936719E+02  0.7546771E-02  0.1289136E+00
         -2   -1    0    0    0  501 -0.00000000000E+00  0.00000000000E+00  0.44170055592E+03  0.44170055592E+03  0.00000000000E+00 0.  1.
         21   -1    0    0  501  502  0.00000000000E+00 -0.00000000000E+00 -0.57095883856E+02  0.57095883856E+02  0.00000000000E+00 0. -1.
         23    2    1    2    0    0  0.11759484920E+02  0.31404893959E+02  0.33408100572E+03  0.34885217688E+03  0.94674020103E+02 0.  0.
        -24    2    1    2    0    0  0.12868067261E+01 -0.97189560662E+01 -0.12207255758E+02  0.82300680672E+02  0.80797716349E+02 0.  0.
         11    1    4    4    0    0 -0.96266931251E+01 -0.44142642331E+02 -0.87882257269E+01  0.46026937807E+02  0.00000000000E+00 0. -1.
        -12    1    4    4    0    0  0.10913499851E+02  0.34423686265E+02 -0.34190300315E+01  0.36273742865E+02  0.00000000000E+00 0.  1.
        -11    1    3    3    0    0  0.51028895781E+02  0.58679387342E+01  0.21090938219E+03  0.21707406203E+03  0.00000000000E+00 0.  1.
         11    1    3    3    0    0 -0.39269410861E+02  0.25536955225E+02  0.12317162353E+03  0.13177811485E+03  0.00000000000E+00 0. -1.
         -1    1    1    2    0  502 -0.13046291646E+02 -0.21685937893E+02  0.62730922103E+02  0.67643582222E+02  0.00000000000E+00 0.  1.
<scales pt_clust_5="13000.00000" pt_clust_6="13000.00000" pt_clust_7="13000.00000" pt_clust_8="13000.00000" pt_clust_9="25.30783"></scales>
<clustering>
<clus scale="   25.308">  2  9  1 -1</clus>
<clus scale="   80.798">  5  6 -1 -1</clus>
<clus scale="   86.249">  2  5  1 -1</clus>
<clus scale="   94.674">  7  8 -1 -1</clus>
<clus scale="   25.308">  2  5  1 -1</clus>
</clustering>
</event>
<event>
 9    1  0.6345107E-005  0.2119416E+03  0.7546771E-02  0.1181120E+00
         -2   -1    0    0    0  501 -0.00000000000E+00  0.00000000000E+00  0.14140909502E+03  0.14140909502E+03  0.00000000000E+00 0.  1.
         21   -1    0    0  501  502  0.00000000000E+00 -0.00000000000E+00 -0.71163187414E+03  0.71163187414E+03  0.00000000000E+00 0.  1.
        -24    2    1    2    0    0 -0.15476518658E+02 -0.17239616387E+02 -0.17874148611E+02  0.83439906581E+02  0.78140935615E+02 0.  0.
         23    2    1    2    0    0 -0.86628796219E+02 -0.14859204219E+03 -0.11953825038E+02  0.19518642133E+03  0.91491539517E+02 0.  0.
         13    1    3    3    0    0 -0.34772175720E+02  0.16830414916E+02  0.35730869181E+01  0.38796056767E+02  0.00000000000E+00 0. -1.
        -14    1    3    3    0    0  0.19295657062E+02 -0.34070031303E+02 -0.21447235529E+02  0.44643849815E+02  0.00000000000E+00 0.  1.
        -13    1    4    4    0    0 -0.23527481266E+02 -0.30428738535E+02 -0.42986178593E+02  0.57682424131E+02  0.00000000000E+00 0. -1.
         13    1    4    4    0    0 -0.63101314953E+02 -0.11816330365E+03  0.31032353555E+02  0.13750399720E+03  0.00000000000E+00 0.  1.
         -1    1    1    2    0  502  0.10210531488E+03  0.16583165857E+03 -0.54039480547E+03  0.57441464125E+03  0.00000000000E+00 0.  1.
<scales pt_clust_5="13000.00000" pt_clust_6="13000.00000" pt_clust_7="13000.00000" pt_clust_8="13000.00000" pt_clust_9="191.17673"></scales>
<clustering>
<clus scale="   78.141">  5  6 -1 -1</clus>
<clus scale="   81.503">  1  5  2 -1</clus>
<clus scale="   91.492">  7  8 -1 -1</clus>
<clus scale="  191.177">  2  9  1 -1</clus>
<clus scale="  191.177">  2  5  1 -1</clus>
</clustering>
</event>
<event>
 9    1  0.6345107E-005  0.2213012E+03  0.7546771E-02  0.1133771E+00
         21   -1    0    0  501  502  0.00000000000E+00  0.00000000000E+00  0.20295138759E+03  0.20295138759E+03  0.00000000000E+00 0. -1.
          1   -1    0    0  502    0 -0.00000000000E+00 -0.00000000000E+00 -0.12617228278E+04  0.12617228278E+04  0.00000000000E+00 0. -1.
        -24    2    1    2    0    0  0.20365737535E+03  0.24096890130E+02 -0.11524264373E+04  0.11732647105E+04  0.80039995292E+02 0.  0.
         23    2    1    2    0    0 -0.16610869138E+03  0.38560759086E+02  0.32873647870E+02  0.19638183999E+03  0.91684899848E+02 0.  0.
         13    1    3    3    0    0  0.18950911108E+03  0.41754287480E+02 -0.95283152985E+03  0.97239140678E+03  0.00000000000E+00 0. -1.
        -14    1    3    3    0    0  0.14148264269E+02 -0.17657397350E+02 -0.19959490748E+03  0.20087330373E+03  0.00000000000E+00 0.  1.
        -13    1    4    4    0    0 -0.14763282453E+03  0.16783934628E+02 -0.53352299831E+01  0.14867957499E+03  0.00000000000E+00 0.  1.
         13    1    4    4    0    0 -0.18475866853E+02  0.21776824459E+02  0.38208877853E+02  0.47702265001E+02  0.00000000000E+00 0. -1.
          2    1    1    2  501    0 -0.37548683968E+02 -0.62657649216E+02  0.60781349260E+02  0.95027664871E+02  0.00000000000E+00 0. -1.
<scales pt_clust_5="13000.00000" pt_clust_6="13000.00000" pt_clust_7="13000.00000" pt_clust_8="13000.00000" pt_clust_9="73.04714"></scales>
<clustering>
<clus scale="   73.047">  1  9  2 -1</clus>
<clus scale="   80.040">  5  6 -1 -1</clus>
<clus scale="   91.685">  7  8 -1 -1</clus>
<clus scale="  216.736">  2  5  1 -1</clus>
<clus scale="   73.047">  1  5  2 -1</clus>
</clustering>
</event>
<event>
 9    1  0.6345107E-005  0.1903877E+03  0.7546771E-02  0.1187986E+00
          1   -1    0    0  502    0 -0.00000000000E+00  0.00000000000E+00  0.58405749425E+03  0.58405749425E+03  0.00000000000E+00 0. -1.
         21   -1    0    0  501  502  0.00000000000E+00 -0.00000000000E+00 -0.12887570145E+03  0.12887570145E+03  0.00000000000E+00 0. -1.
         23    2    1    2    0    0  0.78191120329E+01  0.30006980108E+02  0.25362867964E+03  0.27135669690E+03  0.91353119553E+02 0.  0.
        -24    2    1    2    0    0  0.84060903188E+02  0.12248873798E+03  0.19986196873E+03  0.26353228743E+03  0.86224901251E+02 0.  0.
         13    1    4    4    0    0  0.82533350620E+02  0.85821198651E+02  0.19212094384E+03  0.22602541707E+03  0.00000000000E+00 0. -1.
        -14    1    4    4    0    0  0.15275525682E+01  0.36667539331E+02  0.77410248924E+01  0.37506870355E+02  0.00000000000E+00 0.  1.
        -11    1    3    3    0    0 -0.40907303044E+02  0.23866355889E+02  0.12484137912E+03  0.13352295805E+03  0.00000000000E+00 0.  1.
         11    1    3    3    0    0  0.48726415077E+02  0.61406242192E+01  0.12878730051E+03  0.13783373885E+03  0.00000000000E+00 0. -1.
          2    1    1    2  501    0 -0.91880015221E+02 -0.15249571809E+03  0.16911444297E+01  0.17804421137E+03  0.00000000000E+00 0. -1.
<scales pt_clust_5="13000.00000" pt_clust_6="13000.00000" pt_clust_7="13000.00000" pt_clust_8="13000.00000" pt_clust_9="169.74321"></scales>
<clustering>
<clus scale="   86.225">  5  6 -1 -1</clus>
<clus scale="   91.353">  7  8 -1 -1</clus>
<clus scale="   96.473">  1  7  2 -1</clus>
<clus scale="  169.743">  2  9  1 -1</clus>
<clus scale="  169.743">  2  5  1 -1</clus>
</clustering>
</event>
<event>
 9    1  0.6345107E-005  0.2072676E+03  0.7546771E-02  0.1167793E+00
         21   -1    0    0  501  502  0.00000000000E+00  0.00000000000E+00  0.11564451224E+03  0.11564451224E+03  0.00000000000E+00 0.  1.
         -2   -1    0    0    0  501 -0.00000000000E+00 -0.00000000000E+00 -0.60098146101E+03  0.60098146101E+03  0.00000000000E+00 0.  1.
        -24    2    1    2    0    0 -0.85049519931E+02 -0.45273151075E+01 -0.12807394645E+03  0.17409313398E+03  0.81557134060E+02 0.  0.
         23    2    1    2    0    0  0.22177276647E+03  0.39193144527E+02 -0.12912664202E+03  0.27431433738E+03  0.88630714126E+02 0.  0.
         13    1    3    3    0    0 -0.91603880489E+00 -0.29675680245E+02 -0.38973668451E+02  0.48994203306E+02  0.00000000000E+00 0. -1.
        -14    1    3    3    0    0 -0.84133481126E+02  0.25148365137E+02 -0.89100278000E+02  0.12509893067E+03  0.00000000000E+00 0.  1.
        -11    1    4    4    0    0  0.35697152223E+02 -0.19692522625E+02 -0.87878541268E+00  0.40778111628E+02  0.00000000000E+00 0. -1.
         11    1    4    4    0    0  0.18607561424E+03  0.58885667152E+02 -0.12824785661E+03  0.23353622575E+03  0.00000000000E+00 0.  1.
         -1    1    1    2    0  502 -0.13672324653E+03 -0.34665829419E+02 -0.22813636029E+03  0.26821850190E+03  0.00000000000E+00 0.  1.
<scales pt_clust_5="13000.00000" pt_clust_6="13000.00000" pt_clust_7="13000.00000" pt_clust_8="13000.00000" pt_clust_9="187.36190"></scales>
<clustering>
<clus scale="   81.557">  5  6 -1 -1</clus>
<clus scale="   88.631">  7  8 -1 -1</clus>
<clus scale="  117.922">  2  5  1 -1</clus>
<clus scale="  187.362">  1  9  2 -1</clus>
<clus scale="  187.362">  1  5  2 -1</clus>
</clustering>
</event>
<event>
 9    1  0.6345107E-005  0.1232592E+03  0.7546771E-02  0.1255747E+00
         21   -1    0    0  501  502  0.00000000000E+00  0.00000000000E+00  0.11369469650E+03  0.11369469650E+03  0.00000000000E+00 0. -1.
          3   -1    0    0  502    0 -0.00000000000E+00 -0.00000000000E+00 -0.30701147064E+03  0.30701147064E+03  0.00000000000E+00 0. -1.
        -24    2    1    2    0    0  0.31725251922E+02  0.14619403299E+02 -0.22929573983E+03  0.24549399795E+03  0.80439717569E+02 0.  0.
         23    2    1    2    0    0  0.76208229415E+01  0.16499867368E+02  0.31348310022E+02  0.12483394387E+03  0.11945909105E+03 0.  0.
         13    1    3    3    0    0  0.52489769330E+02  0.30372302121E+02 -0.17624294067E+03  0.18638462049E+03  0.00000000000E+00 0. -1.
        -14    1    3    3    0    0 -0.20764517408E+02 -0.15752898823E+02 -0.53052799160E+02  0.59109377456E+02  0.00000000000E+00 0.  1.
        -11    1    4    4    0    0  0.29473150281E+02  0.61706796491E+02  0.29809424119E+02  0.74598908081E+02  0.00000000000E+00 0. -1.
         11    1    4    4    0    0 -0.21852327339E+02 -0.45206929123E+02  0.15388859032E+01  0.50235035789E+02  0.00000000000E+00 0.  1.
          4    1    1    2  501    0 -0.39346074863E+02 -0.31119270666E+02  0.46306556693E+01  0.50378225315E+02  0.00000000000E+00 0. -1.
<scales pt_clust_5="13000.00000" pt_clust_6="13000.00000" pt_clust_7="13000.00000" pt_clust_8="13000.00000" pt_clust_9="50.16495"></scales>
<clustering>
<clus scale="   50.165">  1  9  2 -1</clus>
<clus scale="   80.440">  5  6 -1 -1</clus>
<clus scale="   85.982">  2  5  1 -1</clus>
<clus scale="  119.459">  7  8 -1 -1</clus>
<clus scale="   50.165">  1  5  2 -1</clus>
</clustering>
</event>
<event>
 9    1  0.6345107E-005  0.1453919E+03  0.7546771E-02  0.1208170E+00
          1   -1    0    0  502    0 -0.00000000000E+00  0.00000000000E+00  0.19773011896E+03  0.19773011896E+03  0.00000000000E+00 0. -1.
         21   -1    0    0  501  502  0.00000000000E+00 -0.00000000000E+00 -0.16473638361E+03  0.16473638361E+03  0.00000000000E+00 0. -1.
         23    2    1    2    0    0 -0.54797318039E+02 -0.10832824631E+03  0.67611518850E+02  0.16593813783E+03  0.90699465782E+02 0.  0.
        -24    2    1    2    0    0  0.59698299531E+01  0.10849143492E+03  0.19519108540E+01  0.13552432579E+03  0.80975320954E+02 0.  0.
         13    1    4    4    0    0  0.37296686262E+02  0.59585881156E+02  0.22670000797E+02  0.73861011199E+02  0.00000000000E+00 0. -1.
        -14    1    4    4    0    0 -0.31326856309E+02  0.48905553762E+02 -0.20718089943E+02  0.61663314587E+02  0.00000000000E+00 0.  1.
        -11    1    3    3    0    0 -0.37652498728E+01 -0.37398517048E+02  0.68970031117E+02  0.78547383000E+02  0.00000000000E+00 0.  1.
         11    1    3    3    0    0 -0.51032068166E+02 -0.70929729260E+02 -0.13585122669E+01  0.87390754830E+02  0.00000000000E+00 0. -1.
          2    1    1    2  501    0  0.48827488086E+02 -0.16318860916E+00 -0.36569694357E+02  0.61004038954E+02  0.00000000000E+00 0. -1.
<scales pt_clust_5="13000.00000" pt_clust_6="13000.00000" pt_clust_7="13000.00000" pt_clust_8="13000.00000" pt_clust_9="48.82776"></scales>
<clustering>
<clus scale="   48.828">  2  9  1 -1</clus>
<clus scale="   80.975">  5  6 -1 -1</clus>
<clus scale="   90.699">  7  8 -1 -1</clus>
<clus scale="  139.533">  2  5  1 -1</clus>
<clus scale="   48.828">  2  5  1 -1</clus>
</clustering>
</event>
<event>
 9    1  0.6345107E-005  0.9256316E+02  0.7546771E-02  0.1303417E+00
          1   -1    0    0  502    0 -0.00000000000E+00  0.00000000000E+00  0.81753758828E+03  0.81753758828E+03  0.00000000000E+00 0. -1.
         21   -1    0    0  501  502  0.00000000000E+00 -0.00000000000E+00 -0.28871987844E+02  0.28871987844E+02  0.00000000000E+00 0. -1.
        -24    2    1    2    0    0 -0.23520871175E+01  0.30919409895E+01  0.23809485098E+03  0.25120545936E+03  0.79999577104E+02 0.  0.
         23    2    1    2    0    0 -0.42065557542E+02  0.63512387516E+02  0.17641262406E+03  0.21257718811E+03  0.90908264069E+02 0.  0.
         13    1    3    3    0    0 -0.14533855963E+02  0.36445921731E+02  0.16929662019E+03  0.17378401477E+03  0.00000000000E+00 0. -1.
        -14    1    3    3    0    0  0.12181768846E+02 -0.33353980741E+02  0.68798230783E+02  0.77421444590E+02  0.00000000000E+00 0.  1.
        -13    1    4    4    0    0 -0.17505399435E+02 -0.18155926568E+02  0.79892008549E+02  0.83778336752E+02  0.00000000000E+00 0.  1.
         13    1    4    4    0    0 -0.24560158107E+02  0.81668314084E+02  0.96520615511E+02  0.12879885135E+03  0.00000000000E+00 0. -1.
          2    1    1    2  501    0  0.44417644659E+02 -0.66604328506E+02  0.37415812539E+03  0.38262692865E+03  0.00000000000E+00 0. -1.
<scales pt_clust_5="13000.00000" pt_clust_6="13000.00000" pt_clust_7="13000.00000" pt_clust_8="13000.00000" pt_clust_9="80.05667"></scales>
<clustering>
<clus scale="   80.000">  5  6 -1 -1</clus>
<clus scale="   80.057">  2  9  1 -1</clus>
<clus scale="   81.875">  1  5  2 -1</clus>
<clus scale="   90.908">  7  8 -1 -1</clus>
<clus scale="   80.057">  2  5  1 -1</clus>
</clustering>
</event>
<event>
 9    1  0.6345107E-005  0.1158278E+03  0.7546771E-02  0.1253753E+00
          1   -1    0    0  502    0 -0.00000000000E+00  0.00000000000E+00  0.23557091094E+03  0.23557091094E+03  0.00000000000E+00 0. -1.
         21   -1    0    0  501  502  0.00000000000E+00 -0.00000000000E+00 -0.24950544869E+03  0.24950544869E+03  0.00000000000E+00 0. -1.
        -24    2    1    2    0    0  0.74629848494E+01  0.79551955493E+02  0.17334241497E+03  0.20646548271E+03  0.78715900273E+02 0.  0.
         23    2    1    2    0    0 -0.50544464416E+02 -0.34109446469E+01 -0.15373702205E+03  0.18491779094E+03  0.89404362471E+02 0.  0.
         13    1    3    3    0    0 -0.22821104081E+02  0.49784676461E+02  0.43757185956E+02  0.70099986623E+02  0.00000000000E+00 0. -1.
        -14    1    3    3    0    0  0.30284088930E+02  0.29767279032E+02  0.12958522901E+03  0.13636549608E+03  0.00000000000E+00 0.  1.
        -11    1    4    4    0    0 -0.25382965611E+02  0.32032332072E+01  0.32497659298E+01  0.25789855075E+02  0.00000000000E+00 0.  1.
         11    1    4    4    0    0 -0.25161498805E+02 -0.66141778540E+01 -0.15698678798E+03  0.15912793586E+03  0.00000000000E+00 0. -1.
          2    1    1    2  501    0  0.43081479566E+02 -0.76141010846E+02 -0.33539930669E+02  0.93693085997E+02  0.00000000000E+00 0. -1.
<scales pt_clust_5="13000.00000" pt_clust_6="13000.00000" pt_clust_7="13000.00000" pt_clust_8="13000.00000" pt_clust_9="87.48410"></scales>
<clustering>
<clus scale="   78.716">  5  6 -1 -1</clus>
<clus scale="   87.484">  2  9  1 -1</clus>
<clus scale="   89.404">  7  8 -1 -1</clus>
<clus scale="  107.792">  1  5  2 -1</clus>
<clus scale="   87.484">  2  5  1 -1</clus>
</clustering>
</event>
<event>
 9    1  0.1596320E-004  0.1014445E+03  0.7546771E-02  0.1283352E+00
          3   -1    0    0  502    0 -0.00000000000E+00  0.00000000000E+00  0.53036083372E+03  0.53036083372E+03  0.00000000000E+00 0. -1.
         21   -1    0    0  501  502  0.00000000000E+00 -0.00000000000E+00 -0.12342129416E+03  0.12342129416E+03  0.00000000000E+00 0.  1.
        -24    2    1    2    0    0 -0.14188929197E+02 -0.38047255804E+02  0.48170583144E+03  0.49007120328E+03  0.80500663714E+02 0.  0.
         23    2    1    2    0    0  0.36534411155E+02  0.44556284582E+02 -0.84919793005E+02  0.13831837442E+03  0.92739289213E+02 0.  0.
         11    1    3    3    0    0  0.22947871235E+01 -0.59999731628E+02  0.27018610754E+03  0.27677746756E+03  0.00000000000E+00 0. -1.
        -12    1    3    3    0    0 -0.16483716320E+02  0.21952475824E+02  0.21151972390E+03  0.21329373572E+03  0.00000000000E+00 0.  1.
        -11    1    4    4    0    0  0.30450256914E+01  0.44534203712E+02 -0.93620043455E+02  0.10371730819E+03  0.00000000000E+00 0.  1.
         11    1    4    4    0    0  0.33489385463E+02  0.22080870048E-01  0.87002504501E+01  0.34601066229E+02  0.00000000000E+00 0. -1.
          4    1    1    2  501    0 -0.22345481958E+02 -0.65090287773E+01  0.10153501127E+02  0.25392550181E+02  0.00000000000E+00 0. -1.
<scales pt_clust_5="13000.00000" pt_clust_6="13000.00000" pt_clust_7="13000.00000" pt_clust_8="13000.00000" pt_clust_9="23.27419"></scales>
<clustering>
<clus scale="   23.274">  2  9  1 -1</clus>
<clus scale="   80.501">  5  6 -1 -1</clus>
<clus scale="   90.392">  1  5  2 -1</clus>
<clus scale="   92.739">  7  8 -1 -1</clus>
<clus scale="   23.274">  2  5  1 -1</clus>
</clustering>
</event>
<event>
 9    1  0.6345107E-005  0.9831182E+02  0.7546771E-02  0.1289113E+00
          1   -1    0    0  502    0 -0.00000000000E+00  0.00000000000E+00  0.22386153683E+03  0.22386153683E+03  0.00000000000E+00 0. -1.
         21   -1    0    0  501  502  0.00000000000E+00 -0.00000000000E+00 -0.21345425403E+03  0.21345425403E+03  0.00000000000E+00 0. -1.
        -24    2    1    2    0    0  0.45695377531E+02  0.14691642120E+01  0.11424249502E+03  0.14754128383E+03  0.81405508390E+02 0.  0.
         23    2    1    2    0    0 -0.20750507299E+02 -0.14255564322E+02  0.67361038097E+02  0.11629858737E+03  0.91400477593E+02 0.  0.
         11    1    3    3    0    0  0.41369656356E+02  0.18007318185E+02  0.12101628852E+03  0.12915360646E+03  0.00000000000E+00 0. -1.
        -12    1    3    3    0    0  0.43257211754E+01 -0.16538153973E+02 -0.67737935057E+01  0.18387677368E+02  0.00000000000E+00 0.  1.
        -11    1    4    4    0    0  0.73889841132E+01  0.18817964701E+02 -0.13642809654E+02  0.24389324242E+02  0.00000000000E+00 0.  1.
         11    1    4    4    0    0 -0.28139491412E+02 -0.33073529023E+02  0.81003847751E+02  0.91909263132E+02  0.00000000000E+00 0. -1.
          2    1    1    2  501    0 -0.24944870232E+02  0.12786400110E+02 -0.17119625031E+03  0.17347591965E+03  0.00000000000E+00 0. -1.
<scales pt_clust_5="13000.00000" pt_clust_6="13000.00000" pt_clust_7="13000.00000" pt_clust_8="13000.00000" pt_clust_9="28.03103"></scales>
<clustering>
<clus scale="   28.031">  2  9  1 -1</clus>
<clus scale="   81.406">  5  6 -1 -1</clus>
<clus scale="   89.096">  1  5  2 -1</clus>
<clus scale="   91.400">  7  8 -1 -1</clus>
<clus scale="   28.031">  2  5  1 -1</clus>
</clustering>
</event>
<event>
 9    1  0.6345107E-005  0.2800865E+03  0.7546771E-02  0.1096071E+00
         21   -1    0    0  501  502  0.00000000000E+00  0.00000000000E+00  0.43852955291E+03  0.43852955291E+03  0.00000000000E+00 0. -1.
          1   -1    0    0  502    0 -0.00000000000E+00 -0.00000000000E+00 -0.25171509604E+03  0.25171509604E+03  0.00000000000E+00 0. -1.
         23    2    1    2    0    0 -0.45066471652E+01 -0.26837008377E+03 -0.23463665243E+02  0.28416930483E+03  0.90326289039E+02 0.  0.
        -24    2    1    2    0    0 -0.14053485200E+02  0.26030426635E+03  0.94622665157E+02  0.28866273556E+03  0.80105646587E+02 0.  0.
         13    1    4    4    0    0 -0.47154410089E+02  0.13172124321E+03  0.50730622829E+02  0.14882076601E+03  0.00000000000E+00 0. -1.
        -14    1    4    4    0    0  0.33100924889E+02  0.12858302314E+03  0.43892042327E+02  0.13984196955E+03  0.00000000000E+00 0.  1.
        -11    1    3    3    0    0 -0.18769831726E+02 -0.58725103412E+02  0.28179446553E+02  0.67786617866E+02  0.00000000000E+00 0.  1.
         11    1    3    3    0    0  0.14263184561E+02 -0.20964498036E+03 -0.51643111796E+02  0.21638268696E+03  0.00000000000E+00 0. -1.
          2    1    1    2  501    0  0.18560132366E+02  0.80658174154E+01  0.11565545695E+03  0.11741260855E+03  0.00000000000E+00 0. -1.
<scales pt_clust_5="13000.00000" pt_clust_6="13000.00000" pt_clust_7="13000.00000" pt_clust_8="13000.00000" pt_clust_9="20.23699"></scales>
<clustering>
<clus scale="   20.237">  1  9  2 -1</clus>
<clus scale="   80.106">  5  6 -1 -1</clus>
<clus scale="   90.326">  7  8 -1 -1</clus>
<clus scale="  276.959">  1  5  2 -1</clus>
<clus scale="   20.237">  1  5  2 -1</clus>
</clustering>
</event>
<event>
 9    1  0.6345107E-005  0.1304051E+03  0.7546771E-02  0.1247539E+00
         21   -1    0    0  501  502  0.00000000000E+00  0.00000000000E+00  0.26386829201E+02  0.26386829201E+02  0.00000000000E+00 0. -1.
          1   -1    0    0  502    0 -0.00000000000E+00 -0.00000000000E+00 -0.95137042974E+03  0.95137042974E+03  0.00000000000E+00 0. -1.
        -24    2    1    2    0    0  0.17339323350E+02 -0.22296672621E+02 -0.27810208729E+03  0.29095051846E+03  0.80707121687E+02 0.  0.
         23    2    1    2    0    0 -0.10366957917E+03  0.51964351015E-01 -0.31685340262E+03  0.34494961547E+03  0.88582019160E+02 0.  0.
         11    1    3    3    0    0  0.43622625028E+02 -0.33908769744E+02 -0.20737765924E+03  0.21461181615E+03  0.00000000000E+00 0. -1.
        -12    1    3    3    0    0 -0.26283301678E+02  0.11612097123E+02 -0.70724428052E+02  0.76338702307E+02  0.00000000000E+00 0.  1.
        -11    1    4    4    0    0 -0.21756135907E+02 -0.26221116035E+02 -0.29737973163E+02  0.45224146466E+02  0.00000000000E+00 0.  1.
         11    1    4    4    0    0 -0.81913443260E+02  0.26273080386E+02 -0.28711542945E+03  0.29972546901E+03  0.00000000000E+00 0. -1.
          2    1    1    2  501    0  0.86330255817E+02  0.22244708270E+02 -0.33002811063E+03  0.34185712502E+03  0.00000000000E+00 0. -1.
<scales pt_clust_5="13000.00000" pt_clust_6="13000.00000" pt_clust_7="13000.00000" pt_clust_8="13000.00000" pt_clust_9="95.70118"></scales>
<clustering>
<clus scale="   80.707">  5  6 -1 -1</clus>
<clus scale="   85.507">  2  5  1 -1</clus>
<clus scale="   88.582">  7  8 -1 -1</clus>
<clus scale="   95.701">  1  9  2 -1</clus>
<clus scale="   95.701">  1  5  2 -1</clus>
</clustering>
</event>
<event>
 9    1  0.6345107E-005  0.1461339E+03  0.7546771E-02  0.1216727E+00
         21   -1    0    0  501  502  0.00000000000E+00  0.00000000000E+00  0.20237554669E+03  0.20237554669E+03  0.00000000000E+00 0.  1.
         -2   -1    0    0    0  501 -0.00000000000E+00 -0.00000000000E+00 -0.21520262956E+03  0.21520262956E+03  0.00000000000E+00 0.  1.
         23    2    1    2    0    0  0.61492364707E+02  0.40633775393E+02  0.59016748035E+01  0.11470759654E+03  0.87695999441E+02 0.  0.
        -24    2    1    2    0    0 -0.23230570446E+02  0.90735772092E+02 -0.86438952805E+02  0.15020560851E+03  0.79482026438E+02 0.  0.
         11    1    4    4    0    0 -0.39053288273E+02  0.89387254999E+02 -0.91290576704E+02  0.13360093591E+03  0.00000000000E+00 0. -1.
        -12    1    4    4    0    0  0.15822717828E+02  0.13485170926E+01  0.48516238990E+01  0.16604672603E+02  0.00000000000E+00 0.  1.
        -11    1    3    3    0    0  0.83373396415E+02  0.24542617036E+02  0.89782661201E+01  0.87373179771E+02  0.00000000000E+00 0.  1.
         11    1    3    3    0    0 -0.21881031708E+02  0.16091158357E+02 -0.30765913166E+01  0.27334416767E+02  0.00000000000E+00 0. -1.
         -1    1    1    2    0  502 -0.38261794262E+02 -0.13136954748E+03  0.67710195128E+02  0.15266497120E+03  0.00000000000E+00 0.  1.
<scales pt_clust_5="13000.00000" pt_clust_6="13000.00000" pt_clust_7="13000.00000" pt_clust_8="13000.00000" pt_clust_9="122.62841"></scales>
<clustering>
<clus scale="   79.482">  5  6 -1 -1</clus>
<clus scale="   87.696">  7  8 -1 -1</clus>
<clus scale="  114.556">  2  7  1 -1</clus>
<clus scale="  122.628">  1  9  2 -1</clus>
<clus scale="  122.628">  1  5  2 -1</clus>
</clustering>
</event>
<event>
 9    1  0.6345107E-005  0.2026335E+03  0.7546771E-02  0.1180160E+00
         21   -1    0    0  501  502  0.00000000000E+00  0.00000000000E+00  0.92527545135E+02  0.92527545135E+02  0.00000000000E+00 0. -1.
          1   -1    0    0  502    0 -0.00000000000E+00 -0.00000000000E+00 -0.64641082612E+03  0.64641082612E+03  0.00000000000E+00 0. -1.
         23    2    1    2    0    0 -0.42244764382E+00  0.26166294584E+02 -0.12746913451E+03  0.15915023823E+03  0.91627313838E+02 0.  0.
        -24    2    1    2    0    0 -0.90423525101E+02 -0.17815957845E+03 -0.25249737314E+03  0.33159064482E+03  0.79247605693E+02 0.  0.
         11    1    4    4    0    0 -0.39914532030E+02 -0.15040001217E+03 -0.20183711273E+03  0.25485594677E+03  0.00000000000E+00 0. -1.
        -12    1    4    4    0    0 -0.50508993071E+02 -0.27759566280E+02 -0.50660260407E+02  0.76734698055E+02  0.00000000000E+00 0.  1.
        -11    1    3    3    0    0 -0.35220399584E+02  0.33647487635E+02 -0.34751846303E+02  0.59835781874E+02  0.00000000000E+00 0. -1.
         11    1    3    3    0    0  0.34797951940E+02 -0.74811930504E+01 -0.92717288203E+02  0.99314456351E+02  0.00000000000E+00 0.  1.
          2    1    1    2  501    0  0.90845972745E+02  0.15199328386E+03 -0.17391677334E+03  0.24819748821E+03  0.00000000000E+00 0. -1.
<scales pt_clust_5="13000.00000" pt_clust_6="13000.00000" pt_clust_7="13000.00000" pt_clust_8="13000.00000" pt_clust_9="186.49440"></scales>
<clustering>
<clus scale="   79.248">  5  6 -1 -1</clus>
<clus scale="   91.627">  7  8 -1 -1</clus>
<clus scale="   95.291">  2  7  1 -1</clus>
<clus scale="  186.494">  1  9  2 -1</clus>
<clus scale="  186.494">  1  5  2 -1</clus>
</clustering>
</event>
<event>
 9    1  0.6345107E-005  0.3340514E+03  0.7546771E-02  0.1069358E+00
         21   -1    0    0  501  502  0.00000000000E+00  0.00000000000E+00  0.14724990044E+03  0.14724990044E+03  0.00000000000E+00 0. -1.
          1   -1    0    0  502    0 -0.00000000000E+00 -0.00000000000E+00 -0.58527212172E+03  0.58527212172E+03  0.00000000000E+00 0. -1.
        -24    2    1    2    0    0 -0.14355521132E+03 -0.17210691955E+03 -0.10525404391E+03  0.26012437146E+03  0.79733207725E+02 0.  0.
         23    2    1    2    0    0 -0.10934369674E+02 -0.11263138351E+02 -0.71596228855E+02  0.11785231445E+03  0.92286127395E+02 0.  0.
         11    1    3    3    0    0 -0.14437764287E+03 -0.13690036492E+03 -0.10486233986E+03  0.22490603370E+03  0.00000000000E+00 0. -1.
        -12    1    3    3    0    0  0.82243154820E+00 -0.35206554624E+02 -0.39170405492E+00  0.35218337755E+02  0.00000000000E+00 0.  1.
        -13    1    4    4    0    0  0.59651429708E+00  0.35074844413E+02 -0.43094226651E+01  0.35343622672E+02  0.00000000000E+00 0. -1.
         13    1    4    4    0    0 -0.11530883971E+02 -0.46337982764E+02 -0.67286806190E+02  0.82508691779E+02  0.00000000000E+00 0.  1.
          2    1    1    2  501    0  0.15448958100E+03  0.18337005790E+03 -0.26117194851E+03  0.35454533625E+03  0.00000000000E+00 0. -1.
<scales pt_clust_5="13000.00000" pt_clust_6="13000.00000" pt_clust_7="13000.00000" pt_clust_8="13000.00000" pt_clust_9="239.77420"></scales>
<clustering>
<clus scale="   79.733">  5  6 -1 -1</clus>
<clus scale="   92.286">  7  8 -1 -1</clus>
<clus scale="   92.474">  5  7 -1 -1</clus>
<clus scale="  239.774">  1  9  2 -1</clus>
<clus scale="  239.774">  1  5  2 -1</clus>
</clustering>
</event>
<event>
 9    1  0.6345107E-005  0.9683983E+02  0.7546771E-02  0.1292521E+00
          3   -1    0    0  502    0 -0.00000000000E+00  0.00000000000E+00  0.17610484354E+03  0.17610484354E+03  0.00000000000E+00 0. -1.
         21   -1    0    0  501  502  0.00000000000E+00 -0.00000000000E+00 -0.19896302050E+03  0.19896302050E+03  0.00000000000E+00 0.  1.
        -24    2    1    2    0    0 -0.13457810058E+02 -0.33420964287E+02  0.13245492235E+03  0.15950005808E+03  0.81227388032E+02 0.  0.
         23    2    1    2    0    0 -0.73938121281E+01  0.15771404678E+02 -0.47475248396E+02  0.10432348389E+03  0.91247380334E+02 0.  0.
         13    1    3    3    0    0  0.15049383632E+02  0.21929415060E+02  0.40186284900E+02  0.48190462611E+02  0.00000000000E+00 0. -1.
        -14    1    3    3    0    0 -0.28507193691E+02 -0.55350379347E+02  0.92268637452E+02  0.11130959547E+03  0.00000000000E+00 0.  1.
        -11    1    4    4    0    0  0.13000386923E+02 -0.35446293905E+02 -0.20094224897E+02  0.42769471425E+02  0.00000000000E+00 0. -1.
         11    1    4    4    0    0 -0.20394199051E+02  0.51217698582E+02 -0.27381023499E+02  0.61554012468E+02  0.00000000000E+00 0.  1.
          4    1    1    2  501    0  0.20851622187E+02  0.17649559609E+02 -0.10783785092E+03  0.11124432207E+03  0.00000000000E+00 0. -1.
<scales pt_clust_5="13000.00000" pt_clust_6="13000.00000" pt_clust_7="13000.00000" pt_clust_8="13000.00000" pt_clust_9="27.31844"></scales>
<clustering>
<clus scale="   27.318">  2  9  1 -1</clus>
<clus scale="   81.227">  5  6 -1 -1</clus>
<clus scale="   87.463">  1  5  2 -1</clus>
<clus scale="   91.247">  7  8 -1 -1</clus>
<clus scale="   27.318">  2  5  1 -1</clus>
</clustering>
</event>
<event>
 9    1  0.6345107E-005  0.1035101E+03  0.7546771E-02  0.1278881E+00
          1   -1    0    0  502    0 -0.00000000000E+00  0.00000000000E+00  0.43284751989E+03  0.43284751989E+03  0.00000000000E+00 0. -1.
         21   -1    0    0  501  502  0.00000000000E+00 -0.00000000000E+00 -0.73274634942E+02  0.73274634942E+02  0.00000000000E+00 0.  1.
         23    2    1    2    0    0  0.58826497555E+02  0.45352508958E+02  0.10662339343E+03  0.15987474878E+03  0.93134206326E+02 0.  0.
        -24    2    1    2    0    0  0.88954633157E+01 -0.10640707447E+02 -0.49115721023E-01  0.82051515824E+02  0.80870853304E+02 0.  0.
         13    1    4    4    0    0 -0.56408714085E+01  0.26776845137E+02  0.23014246661E+02  0.35755760587E+02  0.00000000000E+00 0. -1.
        -14    1    4    4    0    0  0.14536334724E+02 -0.37417552584E+02 -0.23063362382E+02  0.46295755237E+02  0.00000000000E+00 0.  1.
        -13    1    3    3    0    0  0.45699247901E+02  0.74257112597E+02  0.82071416306E+02  0.11974246283E+03  0.00000000000E+00 0.  1.
         13    1    3    3    0    0  0.13127249654E+02 -0.28904603639E+02  0.24551977123E+02  0.40132285951E+02  0.00000000000E+00 0. -1.
          2    1    1    2  501    0 -0.67721960871E+02 -0.34711801511E+02  0.25299860724E+03  0.26419589023E+03  0.00000000000E+00 0. -1.
<scales pt_clust_5="13000.00000" pt_clust_6="13000.00000" pt_clust_7="13000.00000" pt_clust_8="13000.00000" pt_clust_9="76.09980"></scales>
<clustering>
<clus scale="   76.100">  2  9  1 -1</clus>
<clus scale="   80.871">  5  6 -1 -1</clus>
<clus scale="   92.631">  2  5  1 -1</clus>
<clus scale="   93.134">  7  8 -1 -1</clus>
<clus scale="   76.100">  2  5  1 -1</clus>
</clustering>
</event>
<event>
 9    1  0.6345107E-005  0.1602190E+03  0.7546771E-02  0.1190197E+00
         21   -1    0    0  501  502  0.00000000000E+00  0.00000000000E+00  0.26842426226E+03  0.26842426226E+03  0.00000000000E+00 0.  1.
         -2   -1    0    0    0  501 -0.00000000000E+00 -0.00000000000E+00 -0.22216548723E+03  0.22216548723E+03  0.00000000000E+00 0.  1.
         23    2    1    2    0    0  0.67828019579E+02 -0.11559190707E+03 -0.13691833595E+03  0.21231604055E+03  0.91484103207E+02 0.  0.
        -24    2    1    2    0    0 -0.14239291111E+02  0.12956097831E+03  0.12227601213E+03  0.19595827533E+03  0.80370504637E+02 0.  0.
         11    1    4    4    0    0 -0.20242205813E+02  0.32981086783E+02 -0.16443224903E+01  0.38732451227E+02  0.00000000000E+00 0. -1.
        -12    1    4    4    0    0  0.60029147021E+01  0.96579891525E+02  0.12392033462E+03  0.15722582410E+03  0.00000000000E+00 0.  1.
        -11    1    3    3    0    0  0.81793094999E+02 -0.10049075607E+03 -0.81173284087E+02  0.15289736588E+03  0.00000000000E+00 0.  1.
         11    1    3    3    0    0 -0.13965075420E+02 -0.15101150997E+02 -0.55745051858E+02  0.59418674671E+02  0.00000000000E+00 0. -1.
         -1    1    1    2    0  502 -0.53588728468E+02 -0.13969071243E+02  0.60901098840E+02  0.82315433608E+02  0.00000000000E+00 0.  1.
<scales pt_clust_5="13000.00000" pt_clust_6="13000.00000" pt_clust_7="13000.00000" pt_clust_8="13000.00000" pt_clust_9="55.37948"></scales>
<clustering>
<clus scale="   55.379">  1  9  2 -1</clus>
<clus scale="   80.371">  5  6 -1 -1</clus>
<clus scale="   91.484">  7  8 -1 -1</clus>
<clus scale="  154.143">  1  5  2 -1</clus>
<clus scale="   55.379">  1  5  2 -1</clus>
</clustering>
</event>
<event>
 9    1  0.6345107E-005  0.1109708E+03  0.7546771E-02  0.1262770E+00
         21   -1    0    0  501  502  0.00000000000E+00  0.00000000000E+00  0.11037824240E+03  0.11037824240E+03  0.00000000000E+00 0. -1.
          1   -1    0    0  502    0 -0.00000000000E+00 -0.00000000000E+00 -0.24225617177E+03  0.24225617177E+03  0.00000000000E+00 0. -1.
         23    2    1    2    0    0  0.55368507643E+02  0.47664803698E+02 -0.17484781904E+03  0.21014732358E+03  0.90843451263E+02 0.  0.
        -24    2    1    2    0    0 -0.11254056686E+02 -0.37943089567E+02  0.20128736802E+02  0.91867778326E+02  0.80425063330E+02 0.  0.
         11    1    4    4    0    0  0.30433222920E+02 -0.15563045228E+02  0.27642312377E+02  0.43960059914E+02  0.00000000000E+00 0. -1.
        -12    1    4    4    0    0 -0.41687279606E+02 -0.22380044339E+02 -0.75135755750E+01  0.47907718412E+02  0.00000000000E+00 0.  1.
        -13    1    3    3    0    0  0.76284584249E+02  0.33022808324E+02 -0.16077768765E+03  0.18099532732E+03  0.00000000000E+00 0. -1.
         13    1    3    3    0    0 -0.20916076606E+02  0.14641995374E+02 -0.14070131383E+02  0.29151996266E+02  0.00000000000E+00 0.  1.
          2    1    1    2  501    0 -0.44114450957E+02 -0.97217141308E+01  0.22841152863E+02  0.50619312253E+02  0.00000000000E+00 0. -1.
<scales pt_clust_5="13000.00000" pt_clust_6="13000.00000" pt_clust_7="13000.00000" pt_clust_8="13000.00000" pt_clust_9="45.17296"></scales>
<clustering>
<clus scale="   45.173">  1  9  2 -1</clus>
<clus scale="   80.425">  5  6 -1 -1</clus>
<clus scale="   90.843">  7  8 -1 -1</clus>
<clus scale="  102.617">  1  5  2 -1</clus>
<clus scale="   45.173">  1  5  2 -1</clus>
</clustering>
</event>
<event>
 9    1  0.6345107E-005  0.3217208E+03  0.7546771E-02  0.1074860E+00
         21   -1    0    0  501  502  0.00000000000E+00  0.00000000000E+00  0.10804368867E+03  0.10804368867E+03  0.00000000000E+00 0.  1.
          1   -1    0    0  502    0 -0.00000000000E+00 -0.00000000000E+00 -0.74376826141E+03  0.74376826141E+03  0.00000000000E+00 0. -1.
        -24    2    1    2    0    0 -0.43085504626E+01  0.15644151555E+03 -0.19460283529E+03  0.26278525177E+03  0.81812674130E+02 0.  0.
         23    2    1    2    0    0  0.89073874413E+02  0.73636686581E+02 -0.16127510173E+03  0.21695778163E+03  0.87775303234E+02 0.  0.
         11    1    3    3    0    0 -0.32903805942E+02  0.41078281101E+02 -0.32782385235E+02  0.62006212635E+02  0.00000000000E+00 0. -1.
        -12    1    3    3    0    0  0.28595255480E+02  0.11536323445E+03 -0.16182045005E+03  0.20077903913E+03  0.00000000000E+00 0.  1.
        -11    1    4    4    0    0  0.35539151292E+01  0.45439734010E+02 -0.20803971765E+02  0.50101945879E+02  0.00000000000E+00 0.  1.
         11    1    4    4    0    0  0.85519959283E+02  0.28196952572E+02 -0.14047112997E+03  0.16685583575E+03  0.00000000000E+00 0. -1.
          2    1    1    2  501    0 -0.84765323950E+02 -0.23007820214E+03 -0.27984663571E+03  0.37206891668E+03  0.00000000000E+00 0. -1.
<scales pt_clust_5="13000.00000" pt_clust_6="13000.00000" pt_clust_7="13000.00000" pt_clust_8="13000.00000" pt_clust_9="245.19625"></scales>
<clustering>
<clus scale="   81.813">  5  6 -1 -1</clus>
<clus scale="   87.775">  7  8 -1 -1</clus>
<clus scale="  134.055">  5  7 -1 -1</clus>
<clus scale="  245.196">  1  9  2 -1</clus>
<clus scale="  245.196">  1  5  2 -1</clus>
</clustering>
</event>
<event>
 9    1  0.6345107E-005  0.1512996E+03  0.7546771E-02  0.1200791E+00
          1   -1    0    0  502    0 -0.00000000000E+00  0.00000000000E+00  0.51782522573E+03  0.51782522573E+03  0.00000000000E+00 0. -1.
         21   -1    0    0  501  502  0.00000000000E+00 -0.00000000000E+00 -0.64759756303E+02  0.64759756303E+02  0.00000000000E+00 0.  1.
         23    2    1    2    0    0 -0.13117710051E+03 -0.60445536727E+02  0.30914664045E+03  0.35280183851E+03  0.89645955533E+02 0.  0.
        -24    2    1    2    0    0  0.89645383216E+02  0.34175240300E+02  0.12747235525E+03  0.17796134778E+03  0.78846675077E+02 0.  0.
         13    1    4    4    0    0  0.10213286678E+03  0.39702468417E+02  0.10562670328E+03  0.15219858383E+03  0.00000000000E+00 0. -1.
        -14    1    4    4    0    0 -0.12487483564E+02 -0.55272281168E+01  0.21845651968E+02  0.25762763950E+02  0.00000000000E+00 0.  1.
        -11    1    3    3    0    0 -0.11481139087E+02 -0.27324681811E+02  0.14385769681E+02  0.32945487705E+02  0.00000000000E+00 0. -1.
         11    1    3    3    0    0 -0.11969596143E+03 -0.33120854916E+02  0.29476087077E+03  0.31985635080E+03  0.00000000000E+00 0.  1.
          2    1    1    2  501    0  0.41531717296E+02  0.26270296427E+02  0.16446473732E+02  0.51821795745E+02  0.00000000000E+00 0. -1.
<scales pt_clust_5="13000.00000" pt_clust_6="13000.00000" pt_clust_7="13000.00000" pt_clust_8="13000.00000" pt_clust_9="49.14277"></scales>
<clustering>
<clus scale="   49.143">  2  9  1 -1</clus>
<clus scale="   78.847">  5  6 -1 -1</clus>
<clus scale="   89.646">  7  8 -1 -1</clus>
<clus scale="  145.162">  2  5  1 -1</clus>
<clus scale="   49.143">  2  5  1 -1</clus>
</clustering>
</event>
<event>
 9    1  0.6345107E-005  0.8823050E+02  0.7546771E-02  0.1308000E+00
         21   -1    0    0  501  502  0.00000000000E+00  0.00000000000E+00  0.16425814728E+02  0.16425814728E+02  0.00000000000E+00 0.  1.
          3   -1    0    0  502    0 -0.00000000000E+00 -0.00000000000E+00 -0.68327510020E+03  0.68327510020E+03  0.00000000000E+00 0. -1.
         23    2    1    2    0    0 -0.28723463621E+02 -0.21385109755E+02 -0.41866594869E+03  0.42838105788E+03  0.83347428726E+02 0.  0.
        -24    2    1    2    0    0  0.20628775309E+02 -0.23276035714E+01 -0.19247358769E+03  0.21023472878E+03  0.81985334763E+02 0.  0.
         13    1    4    4    0    0  0.25530977346E+01 -0.38295206791E+02 -0.13293905256E+03  0.13836846775E+03  0.00000000000E+00 0. -1.
        -14    1    4    4    0    0  0.18075677574E+02  0.35967603220E+02 -0.59534535133E+02  0.71866261031E+02  0.00000000000E+00 0.  1.
        -11    1    3    3    0    0  0.23525630677E+02 -0.29433781254E+02 -0.16147214566E+03  0.16581030306E+03  0.00000000000E+00 0. -1.
         11    1    3    3    0    0 -0.52249094297E+02  0.80486714985E+01 -0.25719380303E+03  0.26257075481E+03  0.00000000000E+00 0.  1.
          4    1    1    2  501    0  0.80946883119E+01  0.23712713326E+02 -0.55709749088E+02  0.61085128269E+02  0.00000000000E+00 0. -1.
<scales pt_clust_5="13000.00000" pt_clust_6="13000.00000" pt_clust_7="13000.00000" pt_clust_8="13000.00000" pt_clust_9="25.05627"></scales>
<clustering>
<clus scale="   25.056">  1  9  2 -1</clus>
<clus scale="   81.985">  5  6 -1 -1</clus>
<clus scale="   83.347">  7  8 -1 -1</clus>
<clus scale="   86.945">  1  5  2 -1</clus>
<clus scale="   25.056">  1  5  2 -1</clus>
</clustering>
</event>
<event>
 9    1  0.6345107E-005  0.1096455E+03  0.7546771E-02  0.1266049E+00
         21   -1    0    0  501  502  0.00000000000E+00  0.00000000000E+00  0.26050164311E+03  0.26050164311E+03  0.00000000000E+00 0. -1.
          1   -1    0    0  502    0 -0.00000000000E+00 -0.00000000000E+00 -0.31155051607E+03  0.31155051607E+03  0.00000000000E+00 0. -1.
        -24    2    1    2    0    0 -0.40023193604E+02 -0.50044972162E+02 -0.25241737640E+03  0.27285619600E+03  0.81422457122E+02 0.  0.
         23    2    1    2    0    0  0.16726912660E+02  0.20601925647E+02  0.26692254418E+01  0.96980699739E+02  0.93241098287E+02 0.  0.
         11    1    3    3    0    0 -0.25020719081E+02 -0.71548053514E+02 -0.16470503246E+03  0.18130887475E+03  0.00000000000E+00 0. -1.
        -12    1    3    3    0    0 -0.15002474523E+02  0.21503081352E+02 -0.87712343938E+02  0.91547321252E+02  0.00000000000E+00 0.  1.
        -13    1    4    4    0    0 -0.55100342000E+01  0.51005673373E+02  0.20573819214E+02  0.55274055669E+02  0.00000000000E+00 0. -1.
         13    1    4    4    0    0  0.22236946860E+02 -0.30403747726E+02 -0.17904593772E+02  0.41706644069E+02  0.00000000000E+00 0.  1.
          2    1    1    2  501    0  0.23296280944E+02  0.29443046515E+02  0.19869927799E+03  0.20221526344E+03  0.00000000000E+00 0. -1.
<scales pt_clust_5="13000.00000" pt_clust_6="13000.00000" pt_clust_7="13000.00000" pt_clust_8="13000.00000" pt_clust_9="37.54477"></scales>
<clustering>
<clus scale="   37.545">  1  9  2 -1</clus>
<clus scale="   81.422">  5  6 -1 -1</clus>
<clus scale="   93.241">  7  8 -1 -1</clus>
<clus scale="   99.789">  2  5  1 -1</clus>
<clus scale="   37.545">  1  5  2 -1</clus>
</clustering>
</event>
<event>
 9    1  0.8734038E-005  0.1277674E+03  0.7546771E-02  0.1253587E+00
         21   -1    0    0  501  502  0.00000000000E+00  0.00000000000E+00  0.22824155199E+03  0.22824155199E+03  0.00000000000E+00 0.  1.
          1   -1    0    0  502    0 -0.00000000000E+00 -0.00000000000E+00 -0.22467542450E+03  0.22467542450E+03  0.00000000000E+00 0. -1.
         23    2    1    2    0    0  0.20246502221E+02  0.18438006906E+02 -0.42736783818E+02  0.91206828730E+02  0.75778439974E+02 0.  0.
        -24    2    1    2    0    0 -0.10298329045E+03 -0.15611810580E+02  0.16918519171E+03  0.21354328794E+03  0.78280393405E+02 0.  0.
         13    1    4    4    0    0 -0.45796764071E+01  0.22898201154E+02  0.20126119923E+02  0.30827937901E+02  0.00000000000E+00 0. -1.
        -14    1    4    4    0    0 -0.98403614040E+02 -0.38510011734E+02  0.14905907178E+03  0.18271535004E+03  0.00000000000E+00 0.  1.
        -11    1    3    3    0    0 -0.23948370429E+02  0.37123297671E+01 -0.37057561558E+02  0.44278309669E+02  0.00000000000E+00 0.  1.
         11    1    3    3    0    0  0.44194872650E+02  0.14725677139E+02 -0.56792222608E+01  0.46928519061E+02  0.00000000000E+00 0. -1.
          2    1    1    2  501    0  0.82736788226E+02 -0.28261963261E+01 -0.12288228039E+03  0.14816685981E+03  0.00000000000E+00 0. -1.
<scales pt_clust_5="13000.00000" pt_clust_6="13000.00000" pt_clust_7="13000.00000" pt_clust_8="13000.00000" pt_clust_9="100.97866"></scales>
<clustering>
<clus scale="   75.778">  7  8 -1 -1</clus>
<clus scale="   78.280">  5  6 -1 -1</clus>
<clus scale="   80.575">  2  7  1 -1</clus>
<clus scale="  100.979">  1  9  2 -1</clus>
<clus scale="  100.979">  1  5  2 -1</clus>
</clustering>
</event>
<event>
 9    1  0.6345107E-005  0.2257831E+03  0.7546771E-02  0.1159339E+00
          1   -1    0    0  502    0 -0.00000000000E+00  0.00000000000E+00  0.18192979254E+03  0.18192979254E+03  0.00000000000E+00 0. -1.
         21   -1    0    0  501  502  0.00000000000E+00 -0.00000000000E+00 -0.63110103949E+03  0.63110103949E+03  0.00000000000E+00 0. -1.
         23    2    1    2    0    0  0.39589947292E+02  0.45668550376E+02  0.67421614881E+02  0.12981166503E+03  0.93018351984E+02 0.  0.
        -24    2    1    2    0    0  0.63972262687E+02  0.16251288996E+03 -0.13385581295E+03  0.23538851594E+03  0.83591177652E+02 0.  0.
         13    1    4    4    0    0  0.47382219592E+02  0.12420833009E+03 -0.50579653927E+02  0.14223602001E+03  0.00000000000E+00 0. -1.
        -14    1    4    4    0    0  0.16590043094E+02  0.38304559869E+02 -0.83276159023E+02  0.93152495932E+02  0.00000000000E+00 0.  1.
        -11    1    3    3    0    0  0.24465418616E+02 -0.26831378374E+02  0.28410941053E+02  0.46104892853E+02  0.00000000000E+00 0.  1.
         11    1    3    3    0    0  0.15124528676E+02  0.72499928750E+02  0.39010673828E+02  0.83706772181E+02  0.00000000000E+00 0. -1.
          2    1    1    2  501    0 -0.10356220998E+03 -0.20818144034E+03 -0.38273704888E+03  0.44783065105E+03  0.00000000000E+00 0. -1.
<scales pt_clust_5="13000.00000" pt_clust_6="13000.00000" pt_clust_7="13000.00000" pt_clust_8="13000.00000" pt_clust_9="209.73919"></scales>
<clustering>
<clus scale="   83.591">  5  6 -1 -1</clus>
<clus scale="   93.018">  7  8 -1 -1</clus>
<clus scale="  110.930">  1  7  2 -1</clus>
<clus scale="  209.739">  2  9  1 -1</clus>
<clus scale="  209.739">  2  5  1 -1</clus>
</clustering>
</event>
<event>
 9    1  0.6345107E-005  0.1677736E+03  0.7546771E-02  0.1205966E+00
         21   -1    0    0  501  502  0.00000000000E+00  0.00000000000E+00  0.69728213390E+02  0.69728213390E+02  0.00000000000E+00 0. -1.
          1   -1    0    0  502    0 -0.00000000000E+00 -0.00000000000E+00 -0.86106119177E+03  0.86106119177E+03  0.00000000000E+00 0. -1.
        -24    2    1    2    0    0 -0.34971688941E+02 -0.36427423104E+02 -0.18088292210E+02  0.96909647064E+02  0.80711320132E+02 0.  0.
         23    2    1    2    0    0 -0.88841645965E+02 -0.69445443858E+02 -0.42928256350E+03  0.45328975863E+03  0.92046608988E+02 0.  0.
         11    1    3    3    0    0 -0.39429392593E+02 -0.12029764895E+02  0.24260595546E+02  0.47832716209E+02  0.00000000000E+00 0. -1.
        -12    1    3    3    0    0  0.44577036513E+01 -0.24397658209E+02 -0.42348887756E+02  0.49076930855E+02  0.00000000000E+00 0.  1.
        -11    1    4    4    0    0 -0.55894580519E+02 -0.89123099960E+02 -0.27869793389E+03  0.29789204325E+03  0.00000000000E+00 0. -1.
         11    1    4    4    0    0 -0.32947065446E+02  0.19677656102E+02 -0.15058462961E+03  0.15539771538E+03  0.00000000000E+00 0.  1.
          2    1    1    2  501    0  0.12381333491E+03  0.10587286696E+03 -0.34396212267E+03  0.38058999946E+03  0.00000000000E+00 0. -1.
<scales pt_clust_5="13000.00000" pt_clust_6="13000.00000" pt_clust_7="13000.00000" pt_clust_8="13000.00000" pt_clust_9="140.26907"></scales>
<clustering>
<clus scale="   80.711">  5  6 -1 -1</clus>
<clus scale="   92.047">  7  8 -1 -1</clus>
<clus scale="   95.207">  2  5  1 -1</clus>
<clus scale="  140.269">  1  9  2 -1</clus>
<clus scale="  140.269">  1  5  2 -1</clus>
</clustering>
</event>
<event>
 9    1  0.6345107E-005  0.1593534E+03  0.7546771E-02  0.1191199E+00
         21   -1    0    0  501  502  0.00000000000E+00  0.00000000000E+00  0.78972809342E+02  0.78972809342E+02  0.00000000000E+00 0. -1.
          1   -1    0    0  502    0 -0.00000000000E+00 -0.00000000000E+00 -0.65980493335E+03  0.65980493335E+03  0.00000000000E+00 0. -1.
         23    2    1    2    0    0  0.15607627065E+03 -0.84986864029E+01 -0.18433426349E+03  0.25817847118E+03  0.90801830143E+02 0.  0.
        -24    2    1    2    0    0 -0.10297126411E+03 -0.44311832623E+02 -0.88221670314E+02  0.16335598618E+03  0.79595825044E+02 0.  0.
         11    1    4    4    0    0 -0.22274286260E+02 -0.41993065399E+02 -0.62711387168E+02  0.78691037930E+02  0.00000000000E+00 0. -1.
        -12    1    4    4    0    0 -0.80696977851E+02 -0.23187672239E+01 -0.25510283146E+02  0.84664948248E+02  0.00000000000E+00 0.  1.
        -11    1    3    3    0    0  0.74331196674E+02 -0.49149072326E+02 -0.82888351785E+02  0.12170142551E+03  0.00000000000E+00 0.  1.
         11    1    3    3    0    0  0.81745073971E+02  0.40650385923E+02 -0.10144591170E+03  0.13647704567E+03  0.00000000000E+00 0. -1.
          2    1    1    2  501    0 -0.53105006534E+02  0.52810519026E+02 -0.30827619021E+03  0.31724328533E+03  0.00000000000E+00 0. -1.
<scales pt_clust_5="13000.00000" pt_clust_6="13000.00000" pt_clust_7="13000.00000" pt_clust_8="13000.00000" pt_clust_9="74.89391"></scales>
<clustering>
<clus scale="   74.894">  1  9  2 -1</clus>
<clus scale="   79.596">  5  6 -1 -1</clus>
<clus scale="   90.802">  7  8 -1 -1</clus>
<clus scale="  153.245">  1  5  2 -1</clus>
<clus scale="   74.894">  1  5  2 -1</clus>
</clustering>
</event>
<event>
 9    1  0.6345107E-005  0.1756268E+03  0.7546771E-02  0.1172853E+00
          1   -1    0    0  502    0 -0.00000000000E+00  0.00000000000E+00  0.60248538327E+03  0.60248538327E+03  0.00000000000E+00 0. -1.
         21   -1    0    0  501  502  0.00000000000E+00 -0.00000000000E+00 -0.13849517653E+03  0.13849517653E+03  0.00000000000E+00 0. -1.
         23    2    1    2    0    0 -0.50490111203E+02  0.14553243457E+03  0.49842118470E+03  0.52967915497E+03  0.91691815372E+02 0.  0.
        -24    2    1    2    0    0  0.50937826041E+02 -0.10791268326E+03 -0.66982194525E+02  0.16155175320E+03  0.85863526884E+02 0.  0.
         11    1    4    4    0    0  0.19487229133E+02 -0.12263856781E+02 -0.55654922496E+02  0.60229765735E+02  0.00000000000E+00 0. -1.
        -12    1    4    4    0    0  0.31450596907E+02 -0.95648826477E+02 -0.11327272029E+02  0.10132198747E+03  0.00000000000E+00 0.  1.
        -13    1    3    3    0    0 -0.62804088223E+01  0.65185177673E+02  0.91304395064E+02  0.11236121876E+03  0.00000000000E+00 0.  1.
         13    1    3    3    0    0 -0.44209702381E+02  0.80347256900E+02  0.40711678964E+03  0.41731793621E+03  0.00000000000E+00 0. -1.
          2    1    1    2  501    0 -0.44771483736E+00 -0.37619751314E+02  0.32551216556E+02  0.49749651625E+02  0.00000000000E+00 0. -1.
<scales pt_clust_5="13000.00000" pt_clust_6="13000.00000" pt_clust_7="13000.00000" pt_clust_8="13000.00000" pt_clust_9="37.62243"></scales>
<clustering>
<clus scale="   37.622">  2  9  1 -1</clus>
<clus scale="   85.864">  5  6 -1 -1</clus>
<clus scale="   91.692">  7  8 -1 -1</clus>
<clus scale="  172.656">  2  5  1 -1</clus>
<clus scale="   37.622">  2  5  1 -1</clus>
</clustering>
</event>
<event>
 9    1  0.6345107E-005  0.1740786E+03  0.7546771E-02  0.1175187E+00
         -2   -1    0    0    0  501 -0.00000000000E+00  0.00000000000E+00  0.74961094823E+02  0.74961094823E+02  0.00000000000E+00 0.  1.
         21   -1    0    0  501  502  0.00000000000E+00 -0.00000000000E+00 -0.73504855742E+03  0.73504855742E+03  0.00000000000E+00 0.  1.
        -24    2    1    2    0    0  0.14524487934E+03 -0.13915737645E+02 -0.65830739401E+02  0.18953444450E+03  0.10148840660E+03 0.  0.
         23    2    1    2    0    0 -0.12255072427E+03  0.39564156999E+01 -0.53189198770E+03  0.55336654212E+03  0.90945643723E+02 0.  0.
         13    1    3    3    0    0  0.62346904018E+02  0.42221584256E+02 -0.43489183077E+02  0.86954629908E+02  0.00000000000E+00 0. -1.
        -14    1    3    3    0    0  0.82897975326E+02 -0.56137321902E+02 -0.22341556323E+02  0.10257981460E+03  0.00000000000E+00 0.  1.
        -11    1    4    4    0    0 -0.26707800357E+02  0.39450237088E+02 -0.22205443469E+03  0.22710746305E+03  0.00000000000E+00 0.  1.
         11    1    4    4    0    0 -0.95842923917E+02 -0.35493821388E+02 -0.30983755301E+03  0.32625907907E+03  0.00000000000E+00 0. -1.
         -1    1    1    2    0  502 -0.22694155069E+02  0.99593219452E+01 -0.62364735494E+02  0.67108665619E+02  0.00000000000E+00 0.  1.
<scales pt_clust_5="13000.00000" pt_clust_6="13000.00000" pt_clust_7="13000.00000" pt_clust_8="13000.00000" pt_clust_9="24.78332"></scales>
<clustering>
<clus scale="   24.783">  2  9  1 -1</clus>
<clus scale="   90.946">  7  8 -1 -1</clus>
<clus scale="  101.488">  5  6 -1 -1</clus>
<clus scale="  168.150">  2  7  1 -1</clus>
<clus scale="   24.783">  2  5  1 -1</clus>
</clustering>
</event>
<event>
 9    1  0.6345107E-005  0.1331766E+03  0.7546771E-02  0.1226089E+00
         -2   -1    0    0    0  501 -0.00000000000E+00  0.00000000000E+00  0.29647131020E+03  0.29647131020E+03  0.00000000000E+00 0.  1.
         21   -1    0    0  501  502  0.00000000000E+00 -0.00000000000E+00 -0.10652813388E+03  0.10652813388E+03  0.00000000000E+00 0.  1.
        -24    2    1    2    0    0  0.51417457590E+02  0.76710255238E+02  0.83942796011E+02  0.14922202022E+03  0.81808313219E+02 0.  0.
         23    2    1    2    0    0 -0.74689701921E+02 -0.65074413995E+02 -0.76319235170E+01  0.13720431106E+03  0.94623177856E+02 0.  0.
         11    1    3    3    0    0  0.27575270968E+02 -0.19373365326E+01 -0.50353429598E+01  0.28098105283E+02  0.00000000000E+00 0. -1.
        -12    1    3    3    0    0  0.23842186623E+02  0.78647591770E+02  0.88978138970E+02  0.12112391493E+03  0.00000000000E+00 0.  1.
        -11    1    4    4    0    0 -0.79510900890E+02 -0.29683037863E+02 -0.35404343795E+02  0.91959413095E+02  0.00000000000E+00 0.  1.
         11    1    4    4    0    0  0.48211989694E+01 -0.35391376131E+02  0.27772420278E+02  0.45244897967E+02  0.00000000000E+00 0. -1.
         -1    1    1    2    0  502  0.23272244330E+02 -0.11635841243E+02  0.11363230383E+03  0.11657311281E+03  0.00000000000E+00 0.  1.
<scales pt_clust_5="13000.00000" pt_clust_6="13000.00000" pt_clust_7="13000.00000" pt_clust_8="13000.00000" pt_clust_9="26.01905"></scales>
<clustering>
<clus scale="   26.019">  2  9  1 -1</clus>
<clus scale="   81.808">  5  6 -1 -1</clus>
<clus scale="   94.623">  7  8 -1 -1</clus>
<clus scale="  124.399">  1  5  2 -1</clus>
<clus scale="   26.019">  2  5  1 -1</clus>
</clustering>
</event>
<event>
 9    1  0.6345107E-005  0.1246932E+03  0.7546771E-02  0.1238587E+00
         21   -1    0    0  501  502  0.00000000000E+00  0.00000000000E+00  0.63668366863E+02  0.63668366863E+02  0.00000000000E+00 0.  1.
          3   -1    0    0  502    0 -0.00000000000E+00 -0.00000000000E+00 -0.34747066768E+03  0.34747066768E+03  0.00000000000E+00 0. -1.
         23    2    1    2    0    0  0.60280135158E+02 -0.71974257052E+02 -0.21497867151E+03  0.25171097664E+03  0.91261153747E+02 0.  0.
        -24    2    1    2    0    0 -0.44720569515E+02  0.47428470015E+02 -0.24802176787E+02  0.10667880174E+03  0.80720689176E+02 0.  0.
         11    1    4    4    0    0  0.44772634913E+01  0.39760638573E+02 -0.37985693836E+02  0.55171253423E+02  0.00000000000E+00 0. -1.
        -12    1    4    4    0    0 -0.49197833006E+02  0.76678314423E+01  0.13183517050E+02  0.51507548314E+02  0.00000000000E+00 0.  1.
        -11    1    3    3    0    0  0.18074981072E+02 -0.83637136453E+02 -0.15982139457E+03  0.18128638586E+03  0.00000000000E+00 0. -1.
         11    1    3    3    0    0  0.42205154086E+02  0.11662879401E+02 -0.55157276942E+02  0.70424590783E+02  0.00000000000E+00 0.  1.
          4    1    1    2  501    0 -0.15559565643E+02  0.24545787038E+02 -0.44021452520E+02  0.52749256168E+02  0.00000000000E+00 0. -1.
<scales pt_clust_5="13000.00000" pt_clust_6="13000.00000" pt_clust_7="13000.00000" pt_clust_8="13000.00000" pt_clust_9="29.06194"></scales>
<clustering>
<clus scale="   29.062">  1  9  2 -1</clus>
<clus scale="   80.721">  5  6 -1 -1</clus>
<clus scale="   91.261">  7  8 -1 -1</clus>
<clus scale="  117.199">  1  5  2 -1</clus>
<clus scale="   29.062">  1  5  2 -1</clus>
</clustering>
</event>
<event>
 9    1  0.6345107E-005  0.1855893E+03  0.7546771E-02  0.1189412E+00
         21   -1    0    0  501  502  0.00000000000E+00  0.00000000000E+00  0.31073258635E+03  0.31073258635E+03  0.00000000000E+00 0. -1.
          1   -1    0    0  502    0 -0.00000000000E+00 -0.00000000000E+00 -0.18096789106E+03  0.18096789106E+03  0.00000000000E+00 0. -1.
        -24    2    1    2    0    0 -0.11778728439E+02  0.49241601198E+02  0.85271968503E+02  0.13211621287E+03  0.87292103644E+02 0.  0.
         23    2    1    2    0    0  0.16582812381E+03  0.24431254937E+01  0.55861573066E+02  0.19669848292E+03  0.89804467220E+02 0.  0.
         13    1    3    3    0    0 -0.87810822348E+01  0.20902767830E+02  0.98229248530E+02  0.10081179680E+03  0.00000000000E+00 0. -1.
        -14    1    3    3    0    0 -0.29976462042E+01  0.28338833369E+02 -0.12957280028E+02  0.31304416065E+02  0.00000000000E+00 0.  1.
        -13    1    4    4    0    0  0.16670520671E+03  0.22518134212E+02  0.46481779375E+02  0.17452291576E+03  0.00000000000E+00 0. -1.
         13    1    4    4    0    0 -0.87708290037E+00 -0.20075008718E+02  0.93797936912E+01  0.22175567166E+02  0.00000000000E+00 0.  1.
          2    1    1    2  501    0 -0.15404939537E+03 -0.51684726692E+02 -0.11368846286E+02  0.16288578161E+03  0.00000000000E+00 0. -1.
<scales pt_clust_5="13000.00000" pt_clust_6="13000.00000" pt_clust_7="13000.00000" pt_clust_8="13000.00000" pt_clust_9="162.41477"></scales>
<clustering>
<clus scale="   87.292">  5  6 -1 -1</clus>
<clus scale="   89.804">  7  8 -1 -1</clus>
<clus scale="  100.913">  2  5  1 -1</clus>
<clus scale="  162.415">  1  9  2 -1</clus>
<clus scale="  162.415">  1  5  2 -1</clus>
</clustering>
</event>
<event>
 9    1  0.6345107E-005  0.1339681E+03  0.7546771E-02  0.1224032E+00
         -2   -1    0    0    0  501 -0.00000000000E+00  0.00000000000E+00  0.83244942623E+02  0.83244942623E+02  0.00000000000E+00 0.  1.
         21   -1    0    0  501  502  0.00000000000E+00 -0.00000000000E+00 -0.42852197048E+03  0.42852197048E+03  0.00000000000E+00 0.  1.
         23    2    1    2    0    0  0.10049545714E+03 -0.44499044057E+02 -0.11851058123E+03  0.18507320608E+03  0.90154489157E+02 0.  0.
        -24    2    1    2    0    0 -0.96011693343E+02 -0.40548989268E+02 -0.19614575875E+03  0.23619012347E+03  0.80312825627E+02 0.  0.
         11    1    4    4    0    0 -0.27353486508E+02 -0.21359274120E+02 -0.88933346601E+01  0.35826292251E+02  0.00000000000E+00 0. -1.
        -12    1    4    4    0    0 -0.68658206835E+02 -0.19189715148E+02 -0.18725242409E+03  0.20036383122E+03  0.00000000000E+00 0.  1.
        -13    1    3    3    0    0  0.65072306812E+02 -0.42292257666E+02 -0.19682390335E+02  0.80065202564E+02  0.00000000000E+00 0. -1.
         13    1    3    3    0    0  0.35423150330E+02 -0.22067863911E+01 -0.98828190899E+02  0.10500800351E+03  0.00000000000E+00 0.  1.
         -1    1    1    2    0  502 -0.44837637987E+01  0.85048033326E+02 -0.30620687870E+02  0.90503583553E+02  0.00000000000E+00 0.  1.
<scales pt_clust_5="13000.00000" pt_clust_6="13000.00000" pt_clust_7="13000.00000" pt_clust_8="13000.00000" pt_clust_9="85.16619"></scales>
<clustering>
<clus scale="   80.313">  5  6 -1 -1</clus>
<clus scale="   85.166">  2  9  1 -1</clus>
<clus scale="   90.154">  7  8 -1 -1</clus>
<clus scale="  127.553">  2  5  1 -1</clus>
<clus scale="   85.166">  2  5  1 -1</clus>
</clustering>
</event>
<event>
 9    1  0.6345107E-005  0.1061939E+03  0.7546771E-02  0.1270974E+00
         -4   -1    0    0    0  501 -0.00000000000E+00  0.00000000000E+00  0.43999455741E+03  0.43999455741E+03  0.00000000000E+00 0.  1.
         21   -1    0    0  501  502  0.00000000000E+00 -0.00000000000E+00 -0.91596102014E+02  0.91596102014E+02  0.00000000000E+00 0. -1.
        -24    2    1    2    0    0  0.61642602690E+02 -0.10508536930E+02  0.37608248613E+03  0.38947125846E+03  0.79621510788E+02 0.  0.
         23    2    1    2    0    0 -0.41184645512E+02  0.21898377253E+02  0.79941356033E+01  0.99444021308E+02  0.87461381292E+02 0.  0.
         13    1    3    3    0    0  0.35115168071E+02  0.30953064194E+02  0.24543926909E+03  0.24986316660E+03  0.00000000000E+00 0. -1.
        -14    1    3    3    0    0  0.26527434619E+02 -0.41461601124E+02  0.13064321704E+03  0.13960809186E+03  0.00000000000E+00 0.  1.
        -11    1    4    4    0    0 -0.27733601781E+02 -0.31722185045E+02  0.12575260053E+02  0.43972569372E+02  0.00000000000E+00 0.  1.
         11    1    4    4    0    0 -0.13451043731E+02  0.53620562298E+02 -0.45811244497E+01  0.55471451936E+02  0.00000000000E+00 0. -1.
         -3    1    1    2    0  502 -0.20457957178E+02 -0.11389840323E+02 -0.35678166343E+02  0.42675379648E+02  0.00000000000E+00 0.  1.
<scales pt_clust_5="13000.00000" pt_clust_6="13000.00000" pt_clust_7="13000.00000" pt_clust_8="13000.00000" pt_clust_9="23.41488"></scales>
<clustering>
<clus scale="   23.415">  2  9  1 -1</clus>
<clus scale="   79.622">  5  6 -1 -1</clus>
<clus scale="   87.461">  7  8 -1 -1</clus>
<clus scale="   99.836">  1  5  2 -1</clus>
<clus scale="   23.415">  2  5  1 -1</clus>
</clustering>
</event>
<event>
 9    1  0.6345107E-005  0.9257974E+02  0.7546771E-02  0.1302016E+00
         -4   -1    0    0    0  501 -0.00000000000E+00  0.00000000000E+00  0.89633612402E+02  0.89633612402E+02  0.00000000000E+00 0.  1.
         21   -1    0    0  501  502  0.00000000000E+00 -0.00000000000E+00 -0.27916286699E+03  0.27916286699E+03  0.00000000000E+00 0.  1.
        -24    2    1    2    0    0  0.31552325498E+00 -0.26472979636E+02  0.28865228775E+02  0.90778914637E+02  0.81894393610E+02 0.  0.
         23    2    1    2    0    0 -0.31888853318E+02 -0.31597984331E+02 -0.16256381542E+03  0.19149487692E+03  0.90708115529E+02 0.  0.
         13    1    3    3    0    0 -0.63290551117E+01  0.21019024808E+02  0.36131496593E+02  0.42276960493E+02  0.00000000000E+00 0. -1.
        -14    1    3    3    0    0  0.66445783667E+01 -0.47492004444E+02 -0.72662678184E+01  0.48501954144E+02  0.00000000000E+00 0.  1.
        -13    1    4    4    0    0  0.26170456585E+02 -0.30151691315E+02 -0.90688674321E+02  0.99088106941E+02  0.00000000000E+00 0.  1.
         13    1    4    4    0    0 -0.58059309903E+02 -0.14462930163E+01 -0.71875141095E+02  0.92406769975E+02  0.00000000000E+00 0. -1.
         -3    1    1    2    0  502  0.31573330063E+02  0.58070963967E+02 -0.55830667945E+02  0.86522687837E+02  0.00000000000E+00 0.  1.
<scales pt_clust_5="13000.00000" pt_clust_6="13000.00000" pt_clust_7="13000.00000" pt_clust_8="13000.00000" pt_clust_9="66.09926"></scales>
<clustering>
<clus scale="   66.099">  2  9  1 -1</clus>
<clus scale="   81.894">  5  6 -1 -1</clus>
<clus scale="   83.963">  1  5  2 -1</clus>
<clus scale="   90.708">  7  8 -1 -1</clus>
<clus scale="   66.099">  2  5  1 -1</clus>
</clustering>
</event>
<event>
 9    1  0.6345107E-005  0.1541397E+03  0.7546771E-02  0.1218514E+00
          1   -1    0    0  502    0 -0.00000000000E+00  0.00000000000E+00  0.79199510447E+03  0.79199510447E+03  0.00000000000E+00 0. -1.
         21   -1    0    0  501  502  0.00000000000E+00 -0.00000000000E+00 -0.46068713616E+02  0.46068713616E+02  0.00000000000E+00 0. -1.
        -24    2    1    2    0    0  0.42323034513E+02  0.25959237353E+02  0.12685150690E+03  0.15788821508E+03  0.79826451776E+02 0.  0.
         23    2    1    2    0    0 -0.81624988334E+02 -0.12284350878E+03  0.33699652312E+03  0.37934440902E+03  0.92641015170E+02 0.  0.
         13    1    3    3    0    0  0.39624604753E+02 -0.97609883067E+01  0.11183131897E+03  0.11904465590E+03  0.00000000000E+00 0. -1.
        -14    1    3    3    0    0  0.26984297601E+01  0.35720225660E+02  0.15020187927E+02  0.38843559180E+02  0.00000000000E+00 0.  1.
        -11    1    4    4    0    0 -0.23304018583E+02  0.12719258564E+02  0.48307017364E+02  0.55121908050E+02  0.00000000000E+00 0.  1.
         11    1    4    4    0    0 -0.58320969752E+02 -0.13556276734E+03  0.28868950575E+03  0.32422250097E+03  0.00000000000E+00 0. -1.
          2    1    1    2  501    0  0.39301953821E+02  0.96884271426E+02  0.28207836084E+03  0.30083119399E+03  0.00000000000E+00 0. -1.
<scales pt_clust_5="13000.00000" pt_clust_6="13000.00000" pt_clust_7="13000.00000" pt_clust_8="13000.00000" pt_clust_9="123.19383"></scales>
<clustering>
<clus scale="   79.826">  5  6 -1 -1</clus>
<clus scale="   92.641">  7  8 -1 -1</clus>
<clus scale="   94.007">  1  5  2 -1</clus>
<clus scale="  123.194">  2  9  1 -1</clus>
<clus scale="  123.194">  2  5  1 -1</clus>
</clustering>
</event>
<event>
 9    1  0.6345107E-005  0.1138447E+03  0.7546771E-02  0.1257734E+00
         21   -1    0    0  501  502  0.00000000000E+00  0.00000000000E+00  0.60422787289E+02  0.60422787289E+02  0.00000000000E+00 0. -1.
          1   -1    0    0  502    0 -0.00000000000E+00 -0.00000000000E+00 -0.40091893052E+03  0.40091893052E+03  0.00000000000E+00 0. -1.
        -24    2    1    2    0    0  0.46733463045E+02 -0.54215329406E+02 -0.17290827961E+03  0.20341190824E+03  0.79723351317E+02 0.  0.
         23    2    1    2    0    0 -0.83841863569E+02 -0.67717771435E+01 -0.11631568033E+03  0.17003613896E+03  0.91146234200E+02 0.  0.
         13    1    3    3    0    0  0.14512872681E+02 -0.68562125197E+02 -0.13157935324E+03  0.14907888745E+03  0.00000000000E+00 0. -1.
        -14    1    3    3    0    0  0.32220590365E+02  0.14346795791E+02 -0.41328926364E+02  0.54333020782E+02  0.00000000000E+00 0.  1.
        -13    1    4    4    0    0 -0.29134108789E+02  0.26093575999E+01  0.10918102902E+02  0.31221947617E+02  0.00000000000E+00 0. -1.
         13    1    4    4    0    0 -0.54707754780E+02 -0.93811347434E+01 -0.12723378323E+03  0.13881419134E+03  0.00000000000E+00 0.  1.
          2    1    1    2  501    0  0.37108400523E+02  0.60987106549E+02 -0.51272183300E+02  0.87893670620E+02  0.00000000000E+00 0. -1.
<scales pt_clust_5="13000.00000" pt_clust_6="13000.00000" pt_clust_7="13000.00000" pt_clust_8="13000.00000" pt_clust_9="71.38950"></scales>
<clustering>
<clus scale="   71.389">  1  9  2 -1</clus>
<clus scale="   79.723">  5  6 -1 -1</clus>
<clus scale="   91.146">  7  8 -1 -1</clus>
<clus scale="  104.923">  2  5  1 -1</clus>
<clus scale="   71.389">  1  5  2 -1</clus>
</clustering>
</event>
<event>
 9    1  0.6345107E-005  0.1459714E+03  0.7546771E-02  0.1208247E+00
         21   -1    0    0  501  502  0.00000000000E+00  0.00000000000E+00  0.26384332609E+02  0.26384332609E+02  0.00000000000E+00 0. -1.
          1   -1    0    0  502    0 -0.00000000000E+00 -0.00000000000E+00 -0.10030612013E+04  0.10030612013E+04  0.00000000000E+00 0. -1.
         23    2    1    2    0    0  0.85028281429E+02 -0.98235342440E+02 -0.51491980986E+03  0.53936100984E+03  0.94275644811E+02 0.  0.
        -24    2    1    2    0    0 -0.67814332683E+02  0.64775315254E+02 -0.31164513007E+03  0.33532831383E+03  0.80794590011E+02 0.  0.
         11    1    4    4    0    0 -0.83809930351E+02  0.37312679793E+02 -0.24067382171E+03  0.25756597011E+03  0.00000000000E+00 0. -1.
        -12    1    4    4    0    0  0.15995597668E+02  0.27462635461E+02 -0.70971308356E+02  0.77762343721E+02  0.00000000000E+00 0.  1.
        -13    1    3    3    0    0  0.95281411582E+02 -0.45540337110E+02 -0.37169249770E+03  0.38640365234E+03  0.00000000000E+00 0. -1.
         13    1    3    3    0    0 -0.10253130153E+02 -0.52695005330E+02 -0.14322731216E+03  0.15295735750E+03  0.00000000000E+00 0.  1.
          2    1    1    2  501    0 -0.17213948746E+02  0.33460027186E+02 -0.15011192874E+03  0.15475621021E+03  0.00000000000E+00 0. -1.
<scales pt_clust_5="13000.00000" pt_clust_6="13000.00000" pt_clust_7="13000.00000" pt_clust_8="13000.00000" pt_clust_9="37.62838"></scales>
<clustering>
<clus scale="   37.628">  1  9  2 -1</clus>
<clus scale="   80.795">  5  6 -1 -1</clus>
<clus scale="   94.276">  7  8 -1 -1</clus>
<clus scale="  137.650">  1  5  2 -1</clus>
<clus scale="   37.628">  1  5  2 -1</clus>
</clustering>
</event>
<event>
 9    1  0.6345107E-005  0.1414451E+03  0.7546771E-02  0.1213735E+00
          1   -1    0    0  502    0 -0.00000000000E+00  0.00000000000E+00  0.63232552223E+03  0.63232552223E+03  0.00000000000E+00 0. -1.
         21   -1    0    0  501  502  0.00000000000E+00 -0.00000000000E+00 -0.42799179025E+02  0.42799179025E+02  0.00000000000E+00 0.  1.
         23    2    1    2    0    0 -0.11611796282E+03 -0.43868738018E+02  0.39171578662E+03  0.42062555523E+03  0.89870755884E+02 0.  0.
        -24    2    1    2    0    0  0.74475254968E+02  0.46369192489E+02  0.13608700752E+03  0.17999972388E+03  0.78635624039E+02 0.  0.
         13    1    4    4    0    0  0.68519258092E+02  0.29119062089E+02  0.14240118879E+03  0.16068885175E+03  0.00000000000E+00 0. -1.
        -14    1    4    4    0    0  0.59559968764E+01  0.17250130400E+02 -0.63141812707E+01  0.19310872138E+02  0.00000000000E+00 0.  1.
        -11    1    3    3    0    0 -0.45730401059E+02 -0.43634784680E+02  0.29078054602E+03  0.29757115109E+03  0.00000000000E+00 0. -1.
         11    1    3    3    0    0 -0.70387561762E+02 -0.23395333726E+00  0.10093524060E+03  0.12305440414E+03  0.00000000000E+00 0.  1.
          2    1    1    2  501    0  0.41642707853E+02 -0.25004544712E+01  0.61723549072E+02  0.74499422145E+02  0.00000000000E+00 0. -1.
<scales pt_clust_5="13000.00000" pt_clust_6="13000.00000" pt_clust_7="13000.00000" pt_clust_8="13000.00000" pt_clust_9="41.71771"></scales>
<clustering>
<clus scale="   41.718">  2  9  1 -1</clus>
<clus scale="   78.636">  5  6 -1 -1</clus>
<clus scale="   89.871">  7  8 -1 -1</clus>
<clus scale="  134.586">  2  5  1 -1</clus>
<clus scale="   41.718">  2  5  1 -1</clus>
</clustering>
</event>
<event>
 9    1  0.6345107E-005  0.1449439E+03  0.7546771E-02  0.1209467E+00
         21   -1    0    0  501  502  0.00000000000E+00  0.00000000000E+00  0.18908831123E+03  0.18908831123E+03  0.00000000000E+00 0. -1.
         -2   -1    0    0    0  501 -0.00000000000E+00 -0.00000000000E+00 -0.36344621911E+03  0.36344621911E+03  0.00000000000E+00 0.  1.
         23    2    1    2    0    0  0.14668862136E+02 -0.10812221945E+03 -0.27585177541E+03  0.31076072925E+03  0.92587466700E+02 0.  0.
        -24    2    1    2    0    0 -0.67856576604E+02  0.12163642479E+03  0.95247205037E+02  0.18654167721E+03  0.79535101962E+02 0.  0.
         13    1    4    4    0    0 -0.69150157467E+02  0.49312047126E+02  0.69555134191E+02  0.10977859063E+03  0.00000000000E+00 0. -1.
        -14    1    4    4    0    0  0.12935808624E+01  0.72324377664E+02  0.25692070847E+02  0.76763086574E+02  0.00000000000E+00 0.  1.
        -11    1    3    3    0    0 -0.38884905223E+02 -0.57307387488E+02 -0.13080381817E+03  0.14800611934E+03  0.00000000000E+00 0.  1.
         11    1    3    3    0    0  0.53553767359E+02 -0.50814831965E+02 -0.14504795724E+03  0.16275460991E+03  0.00000000000E+00 0. -1.
         -1    1    1    2    0  502  0.53187714468E+02 -0.13514205337E+02  0.62466624987E+01  0.55232123883E+02  0.00000000000E+00 0.  1.
<scales pt_clust_5="13000.00000" pt_clust_6="13000.00000" pt_clust_7="13000.00000" pt_clust_8="13000.00000" pt_clust_9="54.87774"></scales>
<clustering>
<clus scale="   54.878">  1  9  2 -1</clus>
<clus scale="   79.535">  5  6 -1 -1</clus>
<clus scale="   92.587">  7  8 -1 -1</clus>
<clus scale="  136.975">  1  5  2 -1</clus>
<clus scale="   54.878">  1  5  2 -1</clus>
</clustering>
</event>
<event>
 9    1  0.6345107E-005  0.1021744E+03  0.7546771E-02  0.1285997E+00
         21   -1    0    0  501  502  0.00000000000E+00  0.00000000000E+00  0.21288341915E+03  0.21288341915E+03  0.00000000000E+00 0.  1.
          1   -1    0    0  502    0 -0.00000000000E+00 -0.00000000000E+00 -0.15794732169E+03  0.15794732169E+03  0.00000000000E+00 0. -1.
         23    2    1    2    0    0 -0.91090562348E+01 -0.70010150828E+01 -0.10158200907E+03  0.14400589855E+03  0.10142388837E+03 0.  0.
        -24    2    1    2    0    0 -0.87861070190E+01  0.23791199664E+02  0.21558880621E+02  0.89652907019E+02  0.83244468558E+02 0.  0.
         11    1    4    4    0    0  0.11934614934E+02 -0.24796030272E+02  0.24368235500E+02  0.36757163278E+02  0.00000000000E+00 0. -1.
        -12    1    4    4    0    0 -0.20720721953E+02  0.48587229936E+02 -0.28093548797E+01  0.52895743741E+02  0.00000000000E+00 0.  1.
        -11    1    3    3    0    0 -0.36722355193E+02 -0.36343142188E+02 -0.24834299443E+02  0.57324495496E+02  0.00000000000E+00 0.  1.
         11    1    3    3    0    0  0.27613298959E+02  0.29342127105E+02 -0.76747709629E+02  0.86681403056E+02  0.00000000000E+00 0. -1.
          2    1    1    2  501    0  0.17895163254E+02 -0.16790184581E+02  0.13495922591E+03  0.13717193526E+03  0.00000000000E+00 0. -1.
<scales pt_clust_5="13000.00000" pt_clust_6="13000.00000" pt_clust_7="13000.00000" pt_clust_8="13000.00000" pt_clust_9="24.53869"></scales>
<clustering>
<clus scale="   24.539">  1  9  2 -1</clus>
<clus scale="   83.244">  5  6 -1 -1</clus>
<clus scale="   84.157">  1  5  2 -1</clus>
<clus scale="  101.424">  7  8 -1 -1</clus>
<clus scale="   24.539">  1  5  2 -1</clus>
</clustering>
</event>
<event>
 9    1  0.6345107E-005  0.1247381E+03  0.7546771E-02  0.1242474E+00
          3   -1    0    0  502    0 -0.00000000000E+00  0.00000000000E+00  0.24343357969E+03  0.24343357969E+03  0.00000000000E+00 0. -1.
         21   -1    0    0  501  502  0.00000000000E+00 -0.00000000000E+00 -0.53671149332E+03  0.53671149332E+03  0.00000000000E+00 0. -1.
         23    2    1    2    0    0  0.12496605363E+01  0.25757970709E+02  0.18479728610E+03  0.22180201719E+03  0.11992107059E+03 0.  0.
        -24    2    1    2    0    0 -0.63679061480E+02 -0.11412202765E+03 -0.15753904947E+03  0.22003984819E+03  0.80747276241E+02 0.  0.
         13    1    4    4    0    0 -0.23934057328E+02 -0.11113347607E+03 -0.11973389564E+03  0.16510510097E+03  0.00000000000E+00 0. -1.
        -14    1    4    4    0    0 -0.39745004152E+02 -0.29885515745E+01 -0.37805153833E+02  0.54934747218E+02  0.00000000000E+00 0.  1.
        -11    1    3    3    0    0  0.48000703456E+02  0.47601395468E+02  0.78183967335E+02  0.10335711456E+03  0.00000000000E+00 0.  1.
         11    1    3    3    0    0 -0.46751042920E+02 -0.21843424759E+02  0.10661331877E+03  0.11844490263E+03  0.00000000000E+00 0. -1.
          4    1    1    2  501    0  0.62429400944E+02  0.88364056936E+02 -0.32053615027E+03  0.33830320763E+03  0.00000000000E+00 0. -1.
<scales pt_clust_5="13000.00000" pt_clust_6="13000.00000" pt_clust_7="13000.00000" pt_clust_8="13000.00000" pt_clust_9="108.19259"></scales>
<clustering>
<clus scale="   80.747">  5  6 -1 -1</clus>
<clus scale="  108.193">  2  9  1 -1</clus>
<clus scale="  108.193">  2  5  1 -1</clus>
<clus scale="  119.921">  7  8 -1 -1</clus>
<clus scale="  108.193">  2  5  1 -1</clus>
</clustering>
</event>
<event>
 9    1  0.6345107E-005  0.1637408E+03  0.7546771E-02  0.1212146E+00
          1   -1    0    0  502    0 -0.00000000000E+00  0.00000000000E+00  0.42382780605E+02  0.42382780605E+02  0.00000000000E+00 0. -1.
         21   -1    0    0  501  502  0.00000000000E+00 -0.00000000000E+00 -0.15880215280E+04  0.15880215280E+04  0.00000000000E+00 0. -1.
         23    2    1    2    0    0  0.18198867427E+02 -0.58703292093E+01 -0.34481313647E+03  0.35629833625E+03  0.87674088481E+02 0.  0.
        -24    2    1    2    0    0  0.72120022559E+02  0.11461389542E+03 -0.16788193325E+03  0.23153448496E+03  0.84179757288E+02 0.  0.
         13    1    4    4    0    0  0.59191092950E+02  0.12786776064E+03 -0.14979550324E+03  0.20565126425E+03  0.00000000000E+00 0. -1.
        -14    1    4    4    0    0  0.12928929609E+02 -0.13253865218E+02 -0.18086430015E+02  0.25883220718E+02  0.00000000000E+00 0.  1.
        -11    1    3    3    0    0  0.74512712621E+00 -0.43513117183E+02 -0.23311820865E+03  0.23714562148E+03  0.00000000000E+00 0. -1.
         11    1    3    3    0    0  0.17453740301E+02  0.37642787974E+02 -0.11169492782E+03  0.11915271477E+03  0.00000000000E+00 0.  1.
          2    1    1    2  501    0 -0.90318889986E+02 -0.10874356621E+03 -0.10329436777E+04  0.10425714874E+04  0.00000000000E+00 0. -1.
<scales pt_clust_5="13000.00000" pt_clust_6="13000.00000" pt_clust_7="13000.00000" pt_clust_8="13000.00000" pt_clust_9="140.44503"></scales>
<clustering>
<clus scale="   84.180">  5  6 -1 -1</clus>
<clus scale="   87.674">  7  8 -1 -1</clus>
<clus scale="   89.735">  1  7  2 -1</clus>
<clus scale="  140.445">  2  9  1 -1</clus>
<clus scale="  140.445">  2  5  1 -1</clus>
</clustering>
</event>
<event>
 9    1  0.6345107E-005  0.6382810E+03  0.7546771E-02  0.1033135E+00
         -4   -1    0    0    0  501 -0.00000000000E+00  0.00000000000E+00  0.58610894210E+03  0.58610894210E+03  0.00000000000E+00 0.  1.
         21   -1    0    0  501  502  0.00000000000E+00 -0.00000000000E+00 -0.87386630795E+03  0.87386630795E+03  0.00000000000E+00 0.  1.
         23    2    1    2    0    0  0.62894776888E+02 -0.75398618789E+02 -0.41453194529E+02  0.14056454678E+03  0.91647803024E+02 0.  0.
        -24    2    1    2    0    0 -0.39552403483E+03 -0.48283531024E+03 -0.22739783076E+03  0.66931471615E+03  0.81873175541E+02 0.  0.
         11    1    4    4    0    0 -0.36639005295E+02 -0.88609262332E+02 -0.44387272953E+02  0.10566100549E+03  0.00000000000E+00 0. -1.
        -12    1    4    4    0    0 -0.35888502953E+03 -0.39422604791E+03 -0.18301055781E+03  0.56365371066E+03  0.00000000000E+00 0.  1.
        -11    1    3    3    0    0  0.43800431755E+02 -0.96346340083E+02 -0.30112933747E+02  0.11003582984E+03  0.00000000000E+00 0.  1.
         11    1    3    3    0    0  0.19094345132E+02  0.20947721293E+02 -0.11340260782E+02  0.30528716940E+02  0.00000000000E+00 0. -1.
         -3    1    1    2    0  502  0.33262925794E+03  0.55823392903E+03 -0.18906340561E+02  0.65009598712E+03  0.00000000000E+00 0.  1.
<scales pt_clust_5="13000.00000" pt_clust_6="13000.00000" pt_clust_7="13000.00000" pt_clust_8="13000.00000" pt_clust_9="633.00857"></scales>
<clustering>
<clus scale="   81.873">  5  6 -1 -1</clus>
<clus scale="   91.648">  7  8 -1 -1</clus>
<clus scale="  134.313">  1  7  2 -1</clus>
<clus scale="  633.009">  2  9  1 -1</clus>
<clus scale="  633.009">  2  5  1 -1</clus>
</clustering>
</event>
<event>
 9    1  0.6345107E-005  0.1636490E+03  0.7546771E-02  0.1186449E+00
          1   -1    0    0  502    0 -0.00000000000E+00  0.00000000000E+00  0.30329272748E+03  0.30329272748E+03  0.00000000000E+00 0. -1.
         21   -1    0    0  501  502  0.00000000000E+00 -0.00000000000E+00 -0.11216051104E+03  0.11216051104E+03  0.00000000000E+00 0.  1.
        -24    2    1    2    0    0 -0.48112319297E+02 -0.13979667511E+03  0.13545761237E+03  0.21682149193E+03  0.82491750927E+02 0.  0.
         23    2    1    2    0    0  0.28112077126E+02  0.11369246316E+03  0.65986260883E+02  0.16416770975E+03  0.94236857121E+02 0.  0.
         13    1    3    3    0    0 -0.87129844579E+01 -0.11318371071E+03  0.12360045325E+03  0.16781996458E+03  0.00000000000E+00 0. -1.
        -14    1    3    3    0    0 -0.39399334839E+02 -0.26612964404E+02  0.11857159128E+02  0.49001527351E+02  0.00000000000E+00 0.  1.
        -11    1    4    4    0    0  0.20684194782E+02  0.76712897348E+02  0.89532820034E+02  0.11970309268E+03  0.00000000000E+00 0. -1.
         11    1    4    4    0    0  0.74278823443E+01  0.36979565808E+02 -0.23546559151E+02  0.44464617071E+02  0.00000000000E+00 0.  1.
          2    1    1    2  501    0  0.20000242171E+02  0.26104211960E+02 -0.10311656814E+02  0.34464036838E+02  0.00000000000E+00 0. -1.
<scales pt_clust_5="13000.00000" pt_clust_6="13000.00000" pt_clust_7="13000.00000" pt_clust_8="13000.00000" pt_clust_9="32.88525"></scales>
<clustering>
<clus scale="   32.885">  2  9  1 -1</clus>
<clus scale="   82.492">  5  6 -1 -1</clus>
<clus scale="   94.237">  7  8 -1 -1</clus>
<clus scale="  157.179">  1  5  2 -1</clus>
<clus scale="   32.885">  2  5  1 -1</clus>
</clustering>
</event>
<event>
 9    1  0.6345107E-005  0.9130315E+02  0.7546771E-02  0.1301758E+00
          1   -1    0    0  502    0 -0.00000000000E+00  0.00000000000E+00  0.20514931086E+03  0.20514931086E+03  0.00000000000E+00 0. -1.
         21   -1    0    0  501  502  0.00000000000E+00 -0.00000000000E+00 -0.80476517331E+02  0.80476517331E+02  0.00000000000E+00 0. -1.
         23    2    1    2    0    0  0.10616457745E+02 -0.80192016609E+01  0.11972586011E+03  0.15079201414E+03  0.90702443059E+02 0.  0.
        -24    2    1    2    0    0 -0.95324250144E+01 -0.23300596027E+02  0.28924539555E+02  0.95374588884E+02  0.87326389565E+02 0.  0.
         11    1    4    4    0    0 -0.90417985509E+01 -0.54587338966E+02  0.41918511791E+01  0.55489668522E+02  0.00000000000E+00 0. -1.
        -12    1    4    4    0    0 -0.49062646342E+00  0.31286742938E+02  0.24732688376E+02  0.39884920362E+02  0.00000000000E+00 0.  1.
        -11    1    3    3    0    0  0.17255450576E+02 -0.30937668655E+02  0.12179471872E+03  0.12684180472E+03  0.00000000000E+00 0. -1.
         11    1    3    3    0    0 -0.66389928306E+01  0.22918466994E+02 -0.20688586068E+01  0.23950209416E+02  0.00000000000E+00 0.  1.
          2    1    1    2  501    0 -0.10840327306E+01  0.31319797688E+02 -0.23977606144E+02  0.39459225165E+02  0.00000000000E+00 0. -1.
<scales pt_clust_5="13000.00000" pt_clust_6="13000.00000" pt_clust_7="13000.00000" pt_clust_8="13000.00000" pt_clust_9="31.33855"></scales>
<clustering>
<clus scale="   31.339">  2  9  1 -1</clus>
<clus scale="   87.326">  5  6 -1 -1</clus>
<clus scale="   87.950">  2  5  1 -1</clus>
<clus scale="   90.702">  7  8 -1 -1</clus>
<clus scale="   31.339">  2  5  1 -1</clus>
</clustering>
</event>
<event>
 9    1  0.6345107E-005  0.9792889E+02  0.7546771E-02  0.1291459E+00
          3   -1    0    0  502    0 -0.00000000000E+00  0.00000000000E+00  0.16323833371E+03  0.16323833371E+03  0.00000000000E+00 0. -1.
         21   -1    0    0  501  502  0.00000000000E+00 -0.00000000000E+00 -0.10478068985E+03  0.10478068985E+03  0.00000000000E+00 0. -1.
        -24    2    1    2    0    0 -0.56294714316E+01  0.45105474151E+02  0.56578076120E+02  0.10656147342E+03  0.78026112123E+02 0.  0.
         23    2    1    2    0    0  0.46721771968E+01 -0.10585215829E+02 -0.46020508423E+02  0.10240687746E+03  0.90749133998E+02 0.  0.
         11    1    3    3    0    0  0.19824442221E+02 -0.32460060052E+01 -0.83025779304E+01  0.21736555952E+02  0.00000000000E+00 0. -1.
        -12    1    3    3    0    0 -0.25453913652E+02  0.48351480156E+02  0.64880654050E+02  0.84824917468E+02  0.00000000000E+00 0.  1.
        -11    1    4    4    0    0  0.40971802882E+02 -0.27644023801E+02 -0.35764957543E+02  0.61008301660E+02  0.00000000000E+00 0.  1.
         11    1    4    4    0    0 -0.36299625686E+02  0.17058807972E+02 -0.10255550880E+02  0.41398575799E+02  0.00000000000E+00 0. -1.
          4    1    1    2  501    0  0.95729423484E+00 -0.34520258322E+02  0.47900076172E+02  0.59050672682E+02  0.00000000000E+00 0. -1.
<scales pt_clust_5="13000.00000" pt_clust_6="13000.00000" pt_clust_7="13000.00000" pt_clust_8="13000.00000" pt_clust_9="34.53355"></scales>
<clustering>
<clus scale="   34.534">  2  9  1 -1</clus>
<clus scale="   78.026">  5  6 -1 -1</clus>
<clus scale="   86.271">  1  5  2 -1</clus>
<clus scale="   90.749">  7  8 -1 -1</clus>
<clus scale="   34.534">  2  5  1 -1</clus>
</clustering>
</event>
<event>
 9    1  0.6345107E-005  0.3065240E+03  0.7546771E-02  0.1121323E+00
         -2   -1    0    0    0  501 -0.00000000000E+00  0.00000000000E+00  0.14382077774E+04  0.14382077774E+04  0.00000000000E+00 0.  1.
         21   -1    0    0  501  502  0.00000000000E+00 -0.00000000000E+00 -0.95338002509E+02  0.95338002509E+02  0.00000000000E+00 0.  1.
         23    2    1    2    0    0  0.63402236656E+02  0.49961615700E+01  0.10818646043E+03  0.15491456855E+03  0.90826252183E+02 0.  0.
        -24    2    1    2    0    0  0.26227966842E+03  0.19638708157E+02  0.71528764141E+03  0.76507807977E+03  0.67318310008E+02 0.  0.
         13    1    4    4    0    0  0.92664201248E+02 -0.13059967223E+02  0.18425788206E+03  0.20665958491E+03  0.00000000000E+00 0. -1.
        -14    1    4    4    0    0  0.16961546717E+03  0.32698675380E+02  0.53102975936E+03  0.55841849486E+03  0.00000000000E+00 0.  1.
        -13    1    3    3    0    0  0.66194932919E+02  0.37292581656E+02  0.59871318818E+02  0.96732004051E+02  0.00000000000E+00 0.  1.
         13    1    3    3    0    0 -0.27926962633E+01 -0.32296420086E+02  0.48315141613E+02  0.58182564501E+02  0.00000000000E+00 0. -1.
         -1    1    1    2    0  502 -0.32568190508E+03 -0.24634869727E+02  0.51939567304E+03  0.61355313158E+03  0.00000000000E+00 0.  1.
<scales pt_clust_5="13000.00000" pt_clust_6="13000.00000" pt_clust_7="13000.00000" pt_clust_8="13000.00000" pt_clust_9="299.04048"></scales>
<clustering>
<clus scale="   67.318">  5  6 -1 -1</clus>
<clus scale="   90.826">  7  8 -1 -1</clus>
<clus scale="  110.879">  1  7  2 -1</clus>
<clus scale="  299.040">  2  9  1 -1</clus>
<clus scale="  299.040">  2  5  1 -1</clus>
</clustering>
</event>
<event>
 9    1  0.6345107E-005  0.9102793E+02  0.7546771E-02  0.1307310E+00
         21   -1    0    0  501  502  0.00000000000E+00  0.00000000000E+00  0.67457937164E+03  0.67457937164E+03  0.00000000000E+00 0.  1.
         -2   -1    0    0    0  501 -0.00000000000E+00 -0.00000000000E+00 -0.25773581035E+02  0.25773581035E+02  0.00000000000E+00 0.  1.
         23    2    1    2    0    0 -0.17219412699E+02 -0.11415400134E+02  0.12064874459E+03  0.15228818597E+03  0.90602165978E+02 0.  0.
        -24    2    1    2    0    0 -0.39401600962E+02  0.27342262201E+01  0.30902883034E+03  0.32157309606E+03  0.79689873743E+02 0.  0.
         13    1    4    4    0    0  0.78825067323E+01  0.31153911505E+02  0.85575646685E+02  0.91410565144E+02  0.00000000000E+00 0. -1.
        -14    1    4    4    0    0 -0.47284107694E+02 -0.28419685285E+02  0.22345318365E+03  0.23016253091E+03  0.00000000000E+00 0.  1.
        -13    1    3    3    0    0  0.74987691315E+01  0.37392092730E+02  0.52710572393E+02  0.65060007526E+02  0.00000000000E+00 0.  1.
         13    1    3    3    0    0 -0.24718181830E+02 -0.48807492864E+02  0.67938172199E+02  0.87228178443E+02  0.00000000000E+00 0. -1.
         -1    1    1    2    0  502  0.56621013661E+02  0.86811739139E+01  0.21912821567E+03  0.22649167065E+03  0.00000000000E+00 0.  1.
<scales pt_clust_5="13000.00000" pt_clust_6="13000.00000" pt_clust_7="13000.00000" pt_clust_8="13000.00000" pt_clust_9="57.28265"></scales>
<clustering>
<clus scale="   57.283">  1  9  2 -1</clus>
<clus scale="   79.690">  5  6 -1 -1</clus>
<clus scale="   80.174">  1  5  2 -1</clus>
<clus scale="   90.602">  7  8 -1 -1</clus>
<clus scale="   57.283">  1  5  2 -1</clus>
</clustering>
</event>
<event>
 9    1  0.6345107E-005  0.1034750E+03  0.7546771E-02  0.1279801E+00
         21   -1    0    0  501  502  0.00000000000E+00  0.00000000000E+00  0.76816204219E+02  0.76816204219E+02  0.00000000000E+00 0.  1.
         -2   -1    0    0    0  501 -0.00000000000E+00 -0.00000000000E+00 -0.36592433007E+03  0.36592433007E+03  0.00000000000E+00 0.  1.
        -24    2    1    2    0    0 -0.30493252429E+02 -0.34363909910E+02 -0.10932098702E+03  0.14195372573E+03  0.78032463096E+02 0.  0.
         23    2    1    2    0    0  0.78346510740E+02 -0.19729165719E+02 -0.18347587941E+02  0.12392888888E+03  0.92164634168E+02 0.  0.
         11    1    3    3    0    0 -0.13602045594E+02  0.17682332046E+02 -0.31745395227E+01  0.22533490899E+02  0.00000000000E+00 0. -1.
        -12    1    3    3    0    0 -0.16891206835E+02 -0.52046241955E+02 -0.10614644750E+03  0.11942023483E+03  0.00000000000E+00 0.  1.
        -11    1    4    4    0    0  0.59730360141E+02  0.10983976065E+01  0.30938753925E+02  0.67276510718E+02  0.00000000000E+00 0.  1.
         11    1    4    4    0    0  0.18616150599E+02 -0.20827563326E+02 -0.49286341866E+02  0.56652378165E+02  0.00000000000E+00 0. -1.
         -1    1    1    2    0  502 -0.47853258310E+02  0.54093075629E+02 -0.16143955089E+03  0.17685791968E+03  0.00000000000E+00 0.  1.
<scales pt_clust_5="13000.00000" pt_clust_6="13000.00000" pt_clust_7="13000.00000" pt_clust_8="13000.00000" pt_clust_9="72.22188"></scales>
<clustering>
<clus scale="   72.222">  1  9  2 -1</clus>
<clus scale="   78.032">  5  6 -1 -1</clus>
<clus scale="   91.114">  2  5  1 -1</clus>
<clus scale="   92.165">  7  8 -1 -1</clus>
<clus scale="   72.222">  1  5  2 -1</clus>
</clustering>
</event>
<event>
 9    1  0.6345107E-005  0.1359225E+03  0.7546771E-02  0.1219168E+00
         21   -1    0    0  501  502  0.00000000000E+00  0.00000000000E+00  0.11533693661E+03  0.11533693661E+03  0.00000000000E+00 0. -1.
         -2   -1    0    0    0  501 -0.00000000000E+00 -0.00000000000E+00 -0.37432611288E+03  0.37432611288E+03  0.00000000000E+00 0.  1.
        -24    2    1    2    0    0  0.68670263940E+02 -0.59874494289E+02 -0.25360844753E+03  0.28674119057E+03  0.97993395149E+02 0.  0.
         23    2    1    2    0    0 -0.85282849170E+02  0.72835103844E+02  0.39392251467E+02  0.15343877955E+03  0.97023671755E+02 0.  0.
         11    1    3    3    0    0 -0.19447105306E+02 -0.96639528853E+01 -0.12232423976E+02  0.24924166716E+02  0.00000000000E+00 0. -1.
        -12    1    3    3    0    0  0.88117369246E+02 -0.50210541403E+02 -0.24137602356E+03  0.26181702385E+03  0.00000000000E+00 0.  1.
        -13    1    4    4    0    0 -0.56126423030E+02  0.95772860113E+02  0.26124702460E+02  0.11403997621E+03  0.00000000000E+00 0. -1.
         13    1    4    4    0    0 -0.29156426140E+02 -0.22937756269E+02  0.13267549007E+02  0.39398803339E+02  0.00000000000E+00 0.  1.
         -1    1    1    2    0  502  0.16612585230E+02 -0.12960609555E+02 -0.44772980203E+02  0.49483079374E+02  0.00000000000E+00 0.  1.
<scales pt_clust_5="13000.00000" pt_clust_6="13000.00000" pt_clust_7="13000.00000" pt_clust_8="13000.00000" pt_clust_9="21.07026"></scales>
<clustering>
<clus scale="   21.070">  1  9  2 -1</clus>
<clus scale="   97.024">  7  8 -1 -1</clus>
<clus scale="   97.993">  5  6 -1 -1</clus>
<clus scale="  135.225">  1  7  2 -1</clus>
<clus scale="   21.070">  1  5  2 -1</clus>
</clustering>
</event>
<event>
 9    1  0.6345107E-005  0.9286354E+02  0.7546771E-02  0.1297027E+00
         21   -1    0    0  501  502  0.00000000000E+00  0.00000000000E+00  0.18458205976E+03  0.18458205976E+03  0.00000000000E+00 0. -1.
          3   -1    0    0  502    0 -0.00000000000E+00 -0.00000000000E+00 -0.12554536303E+03  0.12554536303E+03  0.00000000000E+00 0. -1.
         23    2    1    2    0    0  0.53569719058E+01  0.51779865412E+02 -0.65238682359E+02  0.11675071061E+03  0.81638172085E+02 0.  0.
        -24    2    1    2    0    0 -0.54470732773E+01 -0.27499230300E+02  0.20763751404E+02  0.87055432917E+02  0.79759869318E+02 0.  0.
         13    1    4    4    0    0 -0.35657544862E+02  0.53977290758E+01  0.22234575736E+02  0.42367113932E+02  0.00000000000E+00 0. -1.
        -14    1    4    4    0    0  0.30210471584E+02 -0.32896959375E+02 -0.14708243328E+01  0.44688318985E+02  0.00000000000E+00 0.  1.
        -11    1    3    3    0    0 -0.16613738975E+02  0.61568039389E+02 -0.67171153040E+02  0.92620751442E+02  0.00000000000E+00 0. -1.
         11    1    3    3    0    0  0.21970710881E+02 -0.97881739773E+01  0.19324706810E+01  0.24129959166E+02  0.00000000000E+00 0.  1.
          4    1    1    2  501    0  0.90101371554E-01 -0.24280635112E+02  0.10351162768E+03  0.10632127927E+03  0.00000000000E+00 0. -1.
<scales pt_clust_5="13000.00000" pt_clust_6="13000.00000" pt_clust_7="13000.00000" pt_clust_8="13000.00000" pt_clust_9="24.28080"></scales>
<clustering>
<clus scale="   24.281">  1  9  2 -1</clus>
<clus scale="   79.760">  5  6 -1 -1</clus>
<clus scale="   81.638">  7  8 -1 -1</clus>
<clus scale="   91.217">  1  5  2 -1</clus>
<clus scale="   24.281">  1  5  2 -1</clus>
</clustering>
</event>
<event>
 9    1  0.6345107E-005  0.1598015E+03  0.7546771E-02  0.1190269E+00
         21   -1    0    0  501  502  0.00000000000E+00  0.00000000000E+00  0.63853427651E+02  0.63853427651E+02  0.00000000000E+00 0.  1.
          1   -1    0    0  502    0 -0.00000000000E+00 -0.00000000000E+00 -0.92386431387E+03  0.92386431387E+03  0.00000000000E+00 0. -1.
        -24    2    1    2    0    0 -0.16556920129E+01 -0.13035242356E+03 -0.72816635877E+03  0.74416456240E+03  0.80994779117E+02 0.  0.
         23    2    1    2    0    0 -0.27321166371E+02  0.14394148080E+03 -0.10185532571E+03  0.19969348214E+03  0.89651455130E+02 0.  0.
         11    1    3    3    0    0  0.27303220290E+02 -0.11908873630E+03 -0.56370894007E+03  0.57679750526E+03  0.00000000000E+00 0. -1.
        -12    1    3    3    0    0 -0.28958912303E+02 -0.11263687258E+02 -0.16445741870E+03  0.16736705714E+03  0.00000000000E+00 0.  1.
        -11    1    4    4    0    0 -0.75238976784E+01  0.63534538675E+02  0.53829408231E+01  0.64204537946E+02  0.00000000000E+00 0.  1.
         11    1    4    4    0    0 -0.19797268693E+02  0.80406942121E+02 -0.10723826653E+03  0.13548894419E+03  0.00000000000E+00 0. -1.
          2    1    1    2  501    0  0.28976858384E+02 -0.13589057236E+02 -0.29989201733E+02  0.43859696978E+02  0.00000000000E+00 0. -1.
<scales pt_clust_5="13000.00000" pt_clust_6="13000.00000" pt_clust_7="13000.00000" pt_clust_8="13000.00000" pt_clust_9="32.00501"></scales>
<clustering>
<clus scale="   32.005">  1  9  2 -1</clus>
<clus scale="   80.995">  5  6 -1 -1</clus>
<clus scale="   89.651">  7  8 -1 -1</clus>
<clus scale="  155.111">  2  5  1 -1</clus>
<clus scale="   32.005">  1  5  2 -1</clus>
</clustering>
</event>
<event>
 9    1  0.6345107E-005  0.1009504E+03  0.7546771E-02  0.1283107E+00
          1   -1    0    0  502    0 -0.00000000000E+00  0.00000000000E+00  0.57503699913E+02  0.57503699913E+02  0.00000000000E+00 0. -1.
         21   -1    0    0  501  502  0.00000000000E+00 -0.00000000000E+00 -0.38208955793E+03  0.38208955793E+03  0.00000000000E+00 0.  1.
         23    2    1    2    0    0  0.44956841289E+02 -0.93518436245E+01 -0.38664384227E+02  0.10893122062E+03  0.90898303947E+02 0.  0.
        -24    2    1    2    0    0 -0.42200302454E+02 -0.20438368317E+02 -0.81655476381E+02  0.12421675892E+03  0.81016010442E+02 0.  0.
         13    1    4    4    0    0  0.11681136437E+02 -0.27735593583E+02 -0.54226622350E+01  0.30579688775E+02  0.00000000000E+00 0. -1.
        -14    1    4    4    0    0 -0.53881438891E+02  0.72972252652E+01 -0.76232814146E+02  0.93637070149E+02  0.00000000000E+00 0.  1.
        -13    1    3    3    0    0  0.62876805450E+02 -0.33457853146E+02 -0.32401531157E+02  0.78248193730E+02  0.00000000000E+00 0.  1.
         13    1    3    3    0    0 -0.17919964161E+02  0.24106009521E+02 -0.62628530702E+01  0.30683026890E+02  0.00000000000E+00 0. -1.
          2    1    1    2  501    0 -0.27565388351E+01  0.29790211942E+02 -0.20426599741E+03  0.20644527829E+03  0.00000000000E+00 0. -1.
<scales pt_clust_5="13000.00000" pt_clust_6="13000.00000" pt_clust_7="13000.00000" pt_clust_8="13000.00000" pt_clust_9="29.91747"></scales>
<clustering>
<clus scale="   29.917">  2  9  1 -1</clus>
<clus scale="   81.016">  5  6 -1 -1</clus>
<clus scale="   90.898">  7  8 -1 -1</clus>
<clus scale="   92.152">  2  5  1 -1</clus>
<clus scale="   29.917">  2  5  1 -1</clus>
</clustering>
</event>
<event>
 9    1  0.6345107E-005  0.1176300E+03  0.7546771E-02  0.1256890E+00
          1   -1    0    0  502    0 -0.00000000000E+00  0.00000000000E+00  0.43225431491E+03  0.43225431491E+03  0.00000000000E+00 0. -1.
         21   -1    0    0  501  502  0.00000000000E+00 -0.00000000000E+00 -0.57695545171E+02  0.57695545171E+02  0.00000000000E+00 0. -1.
         23    2    1    2    0    0 -0.42894272966E+02 -0.34100512266E+02  0.33176212939E+03  0.35229376884E+03  0.10508104242E+03 0.  0.
        -24    2    1    2    0    0  0.48791170162E+02  0.13833953941E+02  0.57875771214E+02  0.11171602628E+03  0.80987091975E+02 0.  0.
         13    1    4    4    0    0  0.61398570920E+02 -0.15598654608E+02  0.41710263834E+02  0.75847535528E+02  0.00000000000E+00 0. -1.
        -14    1    4    4    0    0 -0.12607400758E+02  0.29432608549E+02  0.16165507379E+02  0.35868490750E+02  0.00000000000E+00 0.  1.
        -13    1    3    3    0    0 -0.10248527191E+02  0.27056495008E+02  0.26418671015E+02  0.39179489659E+02  0.00000000000E+00 0.  1.
         13    1    3    3    0    0 -0.32645745776E+02 -0.61157007274E+02  0.30534345837E+03  0.31311427918E+03  0.00000000000E+00 0. -1.
          2    1    1    2  501    0 -0.58968971954E+01  0.20266558325E+02 -0.15079130861E+02  0.25940064965E+02  0.00000000000E+00 0. -1.
<scales pt_clust_5="13000.00000" pt_clust_6="13000.00000" pt_clust_7="13000.00000" pt_clust_8="13000.00000" pt_clust_9="21.10703"></scales>
<clustering>
<clus scale="   21.107">  2  9  1 -1</clus>
<clus scale="   80.987">  5  6 -1 -1</clus>
<clus scale="   96.715">  2  5  1 -1</clus>
<clus scale="  105.081">  7  8 -1 -1</clus>
<clus scale="   21.107">  2  5  1 -1</clus>
</clustering>
</event>
<event>
 9    1  0.6345107E-005  0.2021444E+03  0.7546771E-02  0.1169331E+00
          1   -1    0    0  502    0 -0.00000000000E+00  0.00000000000E+00  0.89706515611E+03  0.89706515611E+03  0.00000000000E+00 0. -1.
         21   -1    0    0  501  502  0.00000000000E+00 -0.00000000000E+00 -0.22159683513E+03  0.22159683513E+03  0.00000000000E+00 0. -1.
        -24    2    1    2    0    0 -0.12847725008E+02  0.97168003328E+02  0.60499917899E+03  0.61731865443E+03  0.73835151633E+02 0.  0.
         23    2    1    2    0    0 -0.16731856599E+03 -0.10791397591E+02  0.19475254779E+03  0.26604103043E+03  0.68828178960E+02 0.  0.
         13    1    3    3    0    0 -0.10052637406E+02  0.10326782683E+03  0.60011803556E+03  0.60902131012E+03  0.00000000000E+00 0. -1.
        -14    1    3    3    0    0 -0.27950876025E+01 -0.60998234985E+01  0.48811434382E+01  0.82973443150E+01  0.00000000000E+00 0.  1.
        -13    1    4    4    0    0 -0.10817971339E+03  0.26260505029E+02  0.11467647943E+03  0.15982227457E+03  0.00000000000E+00 0. -1.
         13    1    4    4    0    0 -0.59138852595E+02 -0.37051902620E+02  0.80076068360E+02  0.10621875587E+03  0.00000000000E+00 0.  1.
          2    1    1    2  501    0  0.18016629099E+03 -0.86376605737E+02 -0.12428340580E+03  0.23530230638E+03  0.00000000000E+00 0. -1.
<scales pt_clust_5="13000.00000" pt_clust_6="13000.00000" pt_clust_7="13000.00000" pt_clust_8="13000.00000" pt_clust_9="190.06592"></scales>
<clustering>
<clus scale="   68.828">  7  8 -1 -1</clus>
<clus scale="   73.835">  5  6 -1 -1</clus>
<clus scale="  122.712">  1  5  2 -1</clus>
<clus scale="  190.066">  2  9  1 -1</clus>
<clus scale="  190.066">  2  5  1 -1</clus>
</clustering>
</event>
<event>
 9    1  0.6345107E-005  0.1278659E+03  0.7546771E-02  0.1234163E+00
         21   -1    0    0  501  502  0.00000000000E+00  0.00000000000E+00  0.48651496781E+02  0.48651496781E+02  0.00000000000E+00 0. -1.
          1   -1    0    0  502    0 -0.00000000000E+00 -0.00000000000E+00 -0.11572891385E+04  0.11572891385E+04  0.00000000000E+00 0. -1.
        -24    2    1    2    0    0 -0.69831081479E+02 -0.56728416578E+02 -0.72906170845E+03  0.73872085138E+03  0.77993771218E+02 0.  0.
         23    2    1    2    0    0  0.87294003630E+01  0.11566595107E+03 -0.34568970121E+03  0.37581231632E+03  0.90987432655E+02 0.  0.
         11    1    3    3    0    0 -0.13221344130E+02 -0.60409802828E+02 -0.34631486097E+03  0.35179273890E+03  0.00000000000E+00 0. -1.
        -12    1    3    3    0    0 -0.56609737349E+02  0.36813862500E+01 -0.38274684749E+03  0.38692811248E+03  0.00000000000E+00 0.  1.
        -13    1    4    4    0    0 -0.27649328348E+02  0.45649103155E+01 -0.97857867838E+02  0.10179138501E+03  0.00000000000E+00 0. -1.
         13    1    4    4    0    0  0.36378728711E+02  0.11110104075E+03 -0.24783183338E+03  0.27402093131E+03  0.00000000000E+00 0.  1.
          2    1    1    2  501    0  0.61101681116E+02 -0.58937534492E+02 -0.33886232053E+02  0.91407467583E+02  0.00000000000E+00 0. -1.
<scales pt_clust_5="13000.00000" pt_clust_6="13000.00000" pt_clust_7="13000.00000" pt_clust_8="13000.00000" pt_clust_9="84.89434"></scales>
<clustering>
<clus scale="   77.994">  5  6 -1 -1</clus>
<clus scale="   84.894">  1  9  2 -1</clus>
<clus scale="   90.987">  7  8 -1 -1</clus>
<clus scale="  118.971">  2  5  1 -1</clus>
<clus scale="   84.894">  1  5  2 -1</clus>
</clustering>
</event>
<event>
 9    1  0.6345107E-005  0.1062821E+03  0.7546771E-02  0.1273980E+00
         21   -1    0    0  501  502  0.00000000000E+00  0.00000000000E+00  0.94611049458E+02  0.94611049458E+02  0.00000000000E+00 0.  1.
          1   -1    0    0  502    0 -0.00000000000E+00 -0.00000000000E+00 -0.33640592793E+03  0.33640592793E+03  0.00000000000E+00 0. -1.
        -24    2    1    2    0    0  0.11039878141E+01  0.48566884910E+02 -0.28248611397E+03  0.29785673384E+03  0.80995482671E+02 0.  0.
         23    2    1    2    0    0  0.17475465430E+02 -0.39918423569E+02  0.25286701045E+02  0.10752254380E+03  0.94988461108E+02 0.  0.
         11    1    3    3    0    0 -0.16471719497E+02  0.52802646406E+02 -0.27065860628E+03  0.27625263467E+03  0.00000000000E+00 0. -1.
        -12    1    3    3    0    0  0.17575707312E+02 -0.42357614952E+01 -0.11827507690E+02  0.21604099174E+02  0.00000000000E+00 0.  1.
        -13    1    4    4    0    0  0.46199728018E+02  0.71342233519E+00  0.33523832234E+02  0.57085647654E+02  0.00000000000E+00 0.  1.
         13    1    4    4    0    0 -0.28724262588E+02 -0.40631845905E+02 -0.82371311895E+01  0.50436896149E+02  0.00000000000E+00 0. -1.
          2    1    1    2  501    0 -0.18579453244E+02 -0.86484613409E+01  0.15404534451E+02  0.25637699742E+02  0.00000000000E+00 0. -1.
<scales pt_clust_5="13000.00000" pt_clust_6="13000.00000" pt_clust_7="13000.00000" pt_clust_8="13000.00000" pt_clust_9="20.49371"></scales>
<clustering>
<clus scale="   20.494">  1  9  2 -1</clus>
<clus scale="   80.995">  5  6 -1 -1</clus>
<clus scale="   93.986">  2  5  1 -1</clus>
<clus scale="   94.988">  7  8 -1 -1</clus>
<clus scale="   20.494">  1  5  2 -1</clus>
</clustering>
</event>
<event>
 9    1  0.6345107E-005  0.1453869E+03  0.7546771E-02  0.1208785E+00
         21   -1    0    0  501  502  0.00000000000E+00  0.00000000000E+00  0.10438923207E+03  0.10438923207E+03  0.00000000000E+00 0. -1.
          3   -1    0    0  502    0 -0.00000000000E+00 -0.00000000000E+00 -0.63228945397E+03  0.63228945397E+03  0.00000000000E+00 0. -1.
        -24    2    1    2    0    0  0.69064274643E+02 -0.10830117585E+03 -0.27402968738E+03  0.31258337821E+03  0.78211764100E+02 0.  0.
         23    2    1    2    0    0 -0.12679639087E+03  0.55299544093E+01 -0.26298161585E+03  0.30586699901E+03  0.91035079381E+02 0.  0.
         13    1    3    3    0    0  0.45065502130E+02 -0.11379326523E+03 -0.19907659607E+03  0.23369060272E+03  0.00000000000E+00 0. -1.
        -14    1    3    3    0    0  0.23998772513E+02  0.54920893829E+01 -0.74953091313E+02  0.78892775495E+02  0.00000000000E+00 0.  1.
        -11    1    4    4    0    0 -0.83956320404E+02  0.20601990599E+02 -0.23974309937E+03  0.25485262299E+03  0.00000000000E+00 0. -1.
         11    1    4    4    0    0 -0.42840070467E+02 -0.15072036190E+02 -0.23238516481E+02  0.51014376020E+02  0.00000000000E+00 0.  1.
          4    1    1    2  501    0  0.57732116228E+02  0.10277122144E+03  0.91110813307E+01  0.11822830881E+03  0.00000000000E+00 0. -1.
<scales pt_clust_5="13000.00000" pt_clust_6="13000.00000" pt_clust_7="13000.00000" pt_clust_8="13000.00000" pt_clust_9="117.87672"></scales>
<clustering>
<clus scale="   78.212">  5  6 -1 -1</clus>
<clus scale="   91.035">  7  8 -1 -1</clus>
<clus scale="  117.877">  1  9  2 -1</clus>
<clus scale="  137.721">  2  5  1 -1</clus>
<clus scale="  117.877">  1  5  2 -1</clus>
</clustering>
</event>
<event>
 9    1  0.6345107E-005  0.1359123E+03  0.7546771E-02  0.1236140E+00
         21   -1    0    0  501  502  0.00000000000E+00  0.00000000000E+00  0.49768290740E+03  0.49768290740E+03  0.00000000000E+00 0.  1.
         -2   -1    0    0    0  501 -0.00000000000E+00 -0.00000000000E+00 -0.67831226864E+02  0.67831226864E+02  0.00000000000E+00 0.  1.
         23    2    1    2    0    0 -0.27864521931E+02  0.13521187856E+02  0.12620281030E+03  0.15804495328E+03  0.89954454185E+02 0.  0.
        -24    2    1    2    0    0 -0.52319078833E+02 -0.96764271278E+02  0.79089329965E+02  0.15491065727E+03  0.75110448121E+02 0.  0.
         11    1    4    4    0    0 -0.40994143746E+02 -0.57054554950E+02  0.54272943863E+01  0.70464158169E+02  0.00000000000E+00 0. -1.
        -12    1    4    4    0    0 -0.11324935087E+02 -0.39709716328E+02  0.73662035579E+02  0.84446499106E+02  0.00000000000E+00 0.  1.
        -11    1    3    3    0    0 -0.49141306136E+02  0.99149040830E+01  0.27841007416E+02  0.57343656891E+02  0.00000000000E+00 0.  1.
         11    1    3    3    0    0  0.21276784205E+02  0.36062837725E+01  0.98361802883E+02  0.10070129639E+03  0.00000000000E+00 0. -1.
         -1    1    1    2    0  502  0.80183600764E+02  0.83243083423E+02  0.22455954027E+03  0.25255852371E+03  0.00000000000E+00 0.  1.
<scales pt_clust_5="13000.00000" pt_clust_6="13000.00000" pt_clust_7="13000.00000" pt_clust_8="13000.00000" pt_clust_9="113.27209"></scales>
<clustering>
<clus scale="   75.110">  5  6 -1 -1</clus>
<clus scale="   89.954">  7  8 -1 -1</clus>
<clus scale="   95.137">  2  7  1 -1</clus>
<clus scale="  113.272">  1  9  2 -1</clus>
<clus scale="  113.272">  1  5  2 -1</clus>
</clustering>
</event>
<event>
 9    1  0.6345107E-005  0.1017521E+03  0.7546771E-02  0.1279185E+00
          1   -1    0    0  502    0 -0.00000000000E+00  0.00000000000E+00  0.46472820470E+03  0.46472820470E+03  0.00000000000E+00 0. -1.
         21   -1    0    0  501  502  0.00000000000E+00 -0.00000000000E+00 -0.67815053541E+02  0.67815053541E+02  0.00000000000E+00 0. -1.
         23    2    1    2    0    0 -0.44384759781E+02 -0.23788927890E+02  0.27479792043E+03  0.29396071199E+03  0.91449894111E+02 0.  0.
        -24    2    1    2    0    0  0.70812911263E+01  0.10597455262E+02 -0.21486013888E+02  0.89629932373E+02  0.86078018346E+02 0.  0.
         13    1    4    4    0    0  0.24749310296E+02 -0.73819959509E+01 -0.47085104808E+02  0.53703159303E+02  0.00000000000E+00 0. -1.
        -14    1    4    4    0    0 -0.17668019170E+02  0.17979451213E+02  0.25599090920E+02  0.35926773070E+02  0.00000000000E+00 0.  1.
        -11    1    3    3    0    0 -0.21098926875E+02  0.29450224807E+02  0.49820320721E+02  0.61599876731E+02  0.00000000000E+00 0. -1.
         11    1    3    3    0    0 -0.23285832906E+02 -0.53239152697E+02  0.22497759971E+03  0.23236083526E+03  0.00000000000E+00 0.  1.
          2    1    1    2  501    0  0.37303468655E+02  0.13191472628E+02  0.14360124462E+03  0.14895261387E+03  0.00000000000E+00 0. -1.
<scales pt_clust_5="13000.00000" pt_clust_6="13000.00000" pt_clust_7="13000.00000" pt_clust_8="13000.00000" pt_clust_9="39.56722"></scales>
<clustering>
<clus scale="   39.567">  2  9  1 -1</clus>
<clus scale="   86.078">  5  6 -1 -1</clus>
<clus scale="   91.450">  7  8 -1 -1</clus>
<clus scale="   96.953">  2  5  1 -1</clus>
<clus scale="   39.567">  2  5  1 -1</clus>
</clustering>
</event>
<event>
 9    1  0.6345107E-005  0.1466765E+03  0.7546771E-02  0.1206248E+00
          1   -1    0    0  502    0 -0.00000000000E+00  0.00000000000E+00  0.84682530412E+03  0.84682530412E+03  0.00000000000E+00 0. -1.
         21   -1    0    0  501  502  0.00000000000E+00 -0.00000000000E+00 -0.31910874305E+02  0.31910874305E+02  0.00000000000E+00 0.  1.
        -24    2    1    2    0    0  0.34111211191E+02 -0.10361377555E+03  0.36210691695E+03  0.38707801963E+03  0.82514148873E+02 0.  0.
         23    2    1    2    0    0 -0.58856849968E+02  0.10724667143E+03  0.43506712144E+03  0.46099440073E+03  0.90920074908E+02 0.  0.
         11    1    3    3    0    0  0.29392956713E+02 -0.10652117457E+03  0.36461715094E+03  0.38099392816E+03  0.00000000000E+00 0. -1.
        -12    1    3    3    0    0  0.47182544781E+01  0.29073990227E+01 -0.25102339839E+01  0.60840914730E+01  0.00000000000E+00 0.  1.
        -13    1    4    4    0    0  0.61246172309E+01  0.77472266517E+02  0.27340500164E+03  0.28423539177E+03  0.00000000000E+00 0. -1.
         13    1    4    4    0    0 -0.64981467199E+02  0.29774404917E+02  0.16166211980E+03  0.17675900895E+03  0.00000000000E+00 0.  1.
          2    1    1    2  501    0  0.24745638777E+02 -0.36328958872E+01  0.17740391423E+02  0.30663758068E+02  0.00000000000E+00 0. -1.
<scales pt_clust_5="13000.00000" pt_clust_6="13000.00000" pt_clust_7="13000.00000" pt_clust_8="13000.00000" pt_clust_9="25.01089"></scales>
<clustering>
<clus scale="   25.011">  2  9  1 -1</clus>
<clus scale="   82.514">  5  6 -1 -1</clus>
<clus scale="   90.920">  7  8 -1 -1</clus>
<clus scale="  141.620">  1  5  2 -1</clus>
<clus scale="   25.011">  2  5  1 -1</clus>
</clustering>
</event>
<event>
 9    1  0.6345107E-005  0.9370738E+02  0.7546771E-02  0.1301695E+00
          3   -1    0    0  502    0 -0.00000000000E+00  0.00000000000E+00  0.26143068337E+03  0.26143068337E+03  0.00000000000E+00 0. -1.
         21   -1    0    0  501  502  0.00000000000E+00 -0.00000000000E+00 -0.15860442618E+03  0.15860442618E+03  0.00000000000E+00 0. -1.
        -24    2    1    2    0    0  0.16763506506E+02  0.30058206134E+01  0.21896599071E+03  0.23376548210E+03  0.80063383808E+02 0.  0.
         23    2    1    2    0    0  0.18987109779E+01  0.16407296402E+02 -0.34170236705E+02  0.99990163610E+02  0.92507422749E+02 0.  0.
         11    1    3    3    0    0  0.35032909717E+02  0.31187403618E+02  0.14797808938E+03  0.15523361055E+03  0.00000000000E+00 0. -1.
        -12    1    3    3    0    0 -0.18269403211E+02 -0.28181583005E+02  0.70987901328E+02  0.78531871551E+02  0.00000000000E+00 0.  1.
        -11    1    4    4    0    0 -0.43825205255E+02  0.71836294267E+01 -0.43383570530E+01  0.44621457722E+02  0.00000000000E+00 0.  1.
         11    1    4    4    0    0  0.45723916232E+02  0.92236669750E+01 -0.29831879652E+02  0.55368705888E+02  0.00000000000E+00 0. -1.
          4    1    1    2  501    0 -0.18662217484E+02 -0.19413117015E+02 -0.81969496805E+02  0.86279463838E+02  0.00000000000E+00 0. -1.
<scales pt_clust_5="13000.00000" pt_clust_6="13000.00000" pt_clust_7="13000.00000" pt_clust_8="13000.00000" pt_clust_9="26.92856"></scales>
<clustering>
<clus scale="   26.929">  2  9  1 -1</clus>
<clus scale="   80.063">  5  6 -1 -1</clus>
<clus scale="   81.447">  1  5  2 -1</clus>
<clus scale="   92.507">  7  8 -1 -1</clus>
<clus scale="   26.929">  2  5  1 -1</clus>
</clustering>
</event>
<event>
 9    1  0.6345107E-005  0.1796321E+03  0.7546771E-02  0.1169583E+00
          1   -1    0    0  502    0 -0.00000000000E+00  0.00000000000E+00  0.43621814535E+03  0.43621814535E+03  0.00000000000E+00 0. -1.
         21   -1    0    0  501  502  0.00000000000E+00 -0.00000000000E+00 -0.85630607304E+02  0.85630607304E+02  0.00000000000E+00 0. -1.
         23    2    1    2    0    0  0.15388478831E+03 -0.46298767057E+02  0.17275165351E+03  0.25176094477E+03  0.87842675394E+02 0.  0.
        -24    2    1    2    0    0 -0.13615472526E+03  0.72467460389E+02  0.14954059338E+03  0.22766400385E+03  0.75358261370E+02 0.  0.
         13    1    4    4    0    0 -0.14045461385E+03  0.51441345190E+02  0.12391507797E+03  0.19423866014E+03  0.00000000000E+00 0. -1.
        -14    1    4    4    0    0  0.42998885867E+01  0.21026115199E+02  0.25625515407E+02  0.33425343709E+02  0.00000000000E+00 0.  1.
        -11    1    3    3    0    0  0.15163640609E+02 -0.15496520005E+02 -0.68551912923E+01  0.22739212309E+02  0.00000000000E+00 0.  1.
         11    1    3    3    0    0  0.13872114770E+03 -0.30802247052E+02  0.17960684480E+03  0.22902173246E+03  0.00000000000E+00 0. -1.
          2    1    1    2  501    0 -0.17730063045E+02 -0.26168693332E+02  0.28295291162E+02  0.42423804028E+02  0.00000000000E+00 0. -1.
<scales pt_clust_5="13000.00000" pt_clust_6="13000.00000" pt_clust_7="13000.00000" pt_clust_8="13000.00000" pt_clust_9="31.60942"></scales>
<clustering>
<clus scale="   31.609">  2  9  1 -1</clus>
<clus scale="   75.358">  5  6 -1 -1</clus>
<clus scale="   87.843">  7  8 -1 -1</clus>
<clus scale="  173.868">  2  5  1 -1</clus>
<clus scale="   31.609">  2  5  1 -1</clus>
</clustering>
</event>
<event>
 9    1  0.6345107E-005  0.2460180E+03  0.7546771E-02  0.1155216E+00
          1   -1    0    0  502    0 -0.00000000000E+00  0.00000000000E+00  0.24257024192E+03  0.24257024192E+03  0.00000000000E+00 0. -1.
         21   -1    0    0  501  502  0.00000000000E+00 -0.00000000000E+00 -0.34087152887E+03  0.34087152887E+03  0.00000000000E+00 0.  1.
         23    2    1    2    0    0 -0.14562097022E+02  0.33795124501E+02 -0.39334964747E+01  0.94510757533E+02  0.86963473856E+02 0.  0.
        -24    2    1    2    0    0 -0.22378993432E+03  0.17170532209E+01 -0.33908676436E+02  0.24047958927E+03  0.81214232374E+02 0.  0.
         13    1    4    4    0    0 -0.20359413866E+03  0.20051616011E+02 -0.11026816886E+02  0.20487613646E+03  0.00000000000E+00 0. -1.
        -14    1    4    4    0    0 -0.20195795665E+02 -0.18334562790E+02 -0.22881859550E+02  0.35603452806E+02  0.00000000000E+00 0.  1.
        -11    1    3    3    0    0 -0.34950787351E+02  0.32665314959E+02  0.28866668572E+02  0.55873651145E+02  0.00000000000E+00 0.  1.
         11    1    3    3    0    0  0.20388690329E+02  0.11298095419E+01 -0.32800165047E+02  0.38637106387E+02  0.00000000000E+00 0. -1.
          2    1    1    2  501    0  0.23835203134E+03 -0.35512177722E+02 -0.60459114042E+02  0.24845142399E+03  0.00000000000E+00 0. -1.
<scales pt_clust_5="13000.00000" pt_clust_6="13000.00000" pt_clust_7="13000.00000" pt_clust_8="13000.00000" pt_clust_9="232.22643"></scales>
<clustering>
<clus scale="   81.214">  5  6 -1 -1</clus>
<clus scale="   86.963">  7  8 -1 -1</clus>
<clus scale="   94.429">  1  7  2 -1</clus>
<clus scale="  232.226">  2  9  1 -1</clus>
<clus scale="  232.226">  2  5  1 -1</clus>
</clustering>
</event>
<event>
 9    1  0.6345107E-005  0.1056188E+03  0.7546771E-02  0.1272598E+00
          1   -1    0    0  502    0 -0.00000000000E+00  0.00000000000E+00  0.40334558734E+03  0.40334558734E+03  0.00000000000E+00 0. -1.
         21   -1    0    0  501  502  0.00000000000E+00 -0.00000000000E+00 -0.52212157911E+02  0.52212157911E+02  0.00000000000E+00 0.  1.
        -24    2    1    2    0    0  0.42889523334E+02 -0.51473639398E+02  0.21425755605E+03  0.23952459538E+03  0.83526550886E+02 0.  0.
         23    2    1    2    0    0  0.19480537566E+02  0.41424099854E+02  0.97200678597E+02  0.14143329181E+03  0.91978023023E+02 0.  0.
         11    1    3    3    0    0  0.32575420584E+02 -0.70696357112E+02  0.12195748981E+03  0.14468158921E+03  0.00000000000E+00 0. -1.
        -12    1    3    3    0    0  0.10314102750E+02  0.19222717714E+02  0.92300066240E+02  0.94843006172E+02  0.00000000000E+00 0.  1.
        -13    1    4    4    0    0  0.18385057053E+02  0.20602085875E+02  0.11232857985E+03  0.11567266798E+03  0.00000000000E+00 0. -1.
         13    1    4    4    0    0  0.10954805129E+01  0.20822013979E+02 -0.15127901256E+02  0.25760623830E+02  0.00000000000E+00 0.  1.
          2    1    1    2  501    0 -0.62370060900E+02  0.10049539544E+02  0.39675194778E+02  0.74599858059E+02  0.00000000000E+00 0. -1.
<scales pt_clust_5="13000.00000" pt_clust_6="13000.00000" pt_clust_7="13000.00000" pt_clust_8="13000.00000" pt_clust_9="63.17450"></scales>
<clustering>
<clus scale="   63.175">  2  9  1 -1</clus>
<clus scale="   83.527">  5  6 -1 -1</clus>
<clus scale="   91.978">  7  8 -1 -1</clus>
<clus scale="   98.347">  1  5  2 -1</clus>
<clus scale="   63.175">  2  5  1 -1</clus>
</clustering>
</event>
<event>
 9    1  0.6345107E-005  0.1927493E+03  0.7546771E-02  0.1185633E+00
         21   -1    0    0  501  502  0.00000000000E+00  0.00000000000E+00  0.42402564504E+03  0.42402564504E+03  0.00000000000E+00 0. -1.
          1   -1    0    0  502    0 -0.00000000000E+00 -0.00000000000E+00 -0.46215935196E+03  0.46215935196E+03  0.00000000000E+00 0. -1.
        -24    2    1    2    0    0 -0.34772851137E+02 -0.43653912760E+02  0.94858401096E+02  0.13635982161E+03  0.80505089370E+02 0.  0.
         23    2    1    2    0    0 -0.13288074903E+03  0.51499201451E+02 -0.39925715288E+03  0.43507709785E+03  0.97858805084E+02 0.  0.
         13    1    3    3    0    0  0.14943266236E+02 -0.33860150679E+02  0.71611164979E+02  0.80609986723E+02  0.00000000000E+00 0. -1.
        -14    1    3    3    0    0 -0.49716117374E+02 -0.97937620811E+01  0.23247236117E+02  0.55749834883E+02  0.00000000000E+00 0.  1.
        -13    1    4    4    0    0 -0.46678941821E+02 -0.28491074889E+02 -0.11049657495E+03  0.12328892097E+03  0.00000000000E+00 0. -1.
         13    1    4    4    0    0 -0.86201807210E+02  0.79990276340E+02 -0.28876057793E+03  0.31178817688E+03  0.00000000000E+00 0.  1.
          2    1    1    2  501    0  0.16765360017E+03 -0.78452886906E+01  0.26626504487E+03  0.31474807755E+03  0.00000000000E+00 0. -1.
<scales pt_clust_5="13000.00000" pt_clust_6="13000.00000" pt_clust_7="13000.00000" pt_clust_8="13000.00000" pt_clust_9="166.06012"></scales>
<clustering>
<clus scale="   80.505">  5  6 -1 -1</clus>
<clus scale="   97.859">  7  8 -1 -1</clus>
<clus scale="   97.959">  2  5  1 -1</clus>
<clus scale="  166.060">  1  9  2 -1</clus>
<clus scale="  166.060">  1  5  2 -1</clus>
</clustering>
</event>
<event>
 9    1  0.6345107E-005  0.1064909E+03  0.7546771E-02  0.1270811E+00
         -2   -1    0    0    0  501 -0.00000000000E+00  0.00000000000E+00  0.17808129777E+03  0.17808129777E+03  0.00000000000E+00 0.  1.
         21   -1    0    0  501  502  0.00000000000E+00 -0.00000000000E+00 -0.22455965108E+03  0.22455965108E+03  0.00000000000E+00 0. -1.
         23    2    1    2    0    0  0.22720294998E+02  0.56747420342E+02  0.13004572693E+03  0.16956818694E+03  0.90027759092E+02 0.  0.
        -24    2    1    2    0    0  0.10220154212E+02 -0.24523997003E+02 -0.16448678102E+03  0.18544589157E+03  0.81414983816E+02 0.  0.
         11    1    4    4    0    0 -0.32399580742E+02 -0.19727654675E+02 -0.10836450679E+03  0.11481193110E+03  0.00000000000E+00 0. -1.
        -12    1    4    4    0    0  0.42619734954E+02 -0.47963423280E+01 -0.56122274232E+02  0.70633960474E+02  0.00000000000E+00 0.  1.
        -13    1    3    3    0    0  0.95812976202E+01 -0.24423427280E+02  0.25802499340E+02  0.36797744991E+02  0.00000000000E+00 0. -1.
         13    1    3    3    0    0  0.13138997378E+02  0.81170847621E+02  0.10424322759E+03  0.13277044195E+03  0.00000000000E+00 0.  1.
         -1    1    1    2    0  502 -0.32940449211E+02 -0.32223423339E+02 -0.12037299229E+02  0.47626870343E+02  0.00000000000E+00 0.  1.
<scales pt_clust_5="13000.00000" pt_clust_6="13000.00000" pt_clust_7="13000.00000" pt_clust_8="13000.00000" pt_clust_9="46.08061"></scales>
<clustering>
<clus scale="   46.081">  2  9  1 -1</clus>
<clus scale="   81.415">  5  6 -1 -1</clus>
<clus scale="   90.028">  7  8 -1 -1</clus>
<clus scale="   99.316">  2  5  1 -1</clus>
<clus scale="   46.081">  2  5  1 -1</clus>
</clustering>
</event>
<event>
 9    1  0.6345107E-005  0.1285944E+03  0.7546771E-02  0.1232932E+00
          3   -1    0    0  502    0 -0.00000000000E+00  0.00000000000E+00  0.24045009807E+03  0.24045009807E+03  0.00000000000E+00 0. -1.
         21   -1    0    0  501  502  0.00000000000E+00 -0.00000000000E+00 -0.27985938154E+03  0.27985938154E+03  0.00000000000E+00 0. -1.
         23    2    1    2    0    0  0.10008039759E+03  0.11293700464E+02 -0.10439398059E+03  0.17196976744E+03  0.92368090157E+02 0.  0.
        -24    2    1    2    0    0 -0.63176252678E+02 -0.62181640362E+02 -0.11006452735E+03  0.16234581623E+03  0.79900992277E+02 0.  0.
         13    1    4    4    0    0 -0.67019627519E+02 -0.35219585218E+02 -0.11183661849E+03  0.13505361487E+03  0.00000000000E+00 0. -1.
        -14    1    4    4    0    0  0.38433748415E+01 -0.26962055144E+02  0.17720911428E+01  0.27292201355E+02  0.00000000000E+00 0.  1.
        -11    1    3    3    0    0  0.79667899965E+02 -0.24045274734E+02 -0.10121862918E+03  0.13103572191E+03  0.00000000000E+00 0. -1.
         11    1    3    3    0    0  0.20412497628E+02  0.35338975197E+02 -0.31753514019E+01  0.40934045536E+02  0.00000000000E+00 0.  1.
          4    1    1    2  501    0 -0.36904144915E+02  0.50887939898E+02  0.17504922447E+03  0.18599389594E+03  0.00000000000E+00 0. -1.
<scales pt_clust_5="13000.00000" pt_clust_6="13000.00000" pt_clust_7="13000.00000" pt_clust_8="13000.00000" pt_clust_9="62.86098"></scales>
<clustering>
<clus scale="   62.861">  2  9  1 -1</clus>
<clus scale="   79.901">  5  6 -1 -1</clus>
<clus scale="   92.368">  7  8 -1 -1</clus>
<clus scale="  119.953">  2  5  1 -1</clus>
<clus scale="   62.861">  2  5  1 -1</clus>
</clustering>
</event>
<event>
 9    1  0.6345107E-005  0.1050101E+03  0.7546771E-02  0.1276606E+00
         -2   -1    0    0    0  501 -0.00000000000E+00  0.00000000000E+00  0.21383350702E+03  0.21383350702E+03  0.00000000000E+00 0.  1.
         21   -1    0    0  501  502  0.00000000000E+00 -0.00000000000E+00 -0.14464023311E+03  0.14464023311E+03  0.00000000000E+00 0.  1.
         23    2    1    2    0    0  0.25151181158E+02  0.32392795906E+02  0.10467947489E+03  0.14474641699E+03  0.91169389749E+02 0.  0.
        -24    2    1    2    0    0 -0.36674282143E+02 -0.58780001377E+02  0.56221658070E+02  0.11760553644E+03  0.76616550652E+02 0.  0.
         11    1    4    4    0    0 -0.33129797074E+02  0.77480578378E+01  0.69084807762E+01  0.34718049500E+02  0.00000000000E+00 0. -1.
        -12    1    4    4    0    0 -0.35444850691E+01 -0.66528059215E+02  0.49313177294E+02  0.82887486945E+02  0.00000000000E+00 0.  1.
        -13    1    3    3    0    0  0.53391760073E+02  0.37728689891E+02  0.47698390119E+02  0.80927563318E+02  0.00000000000E+00 0.  1.
         13    1    3    3    0    0 -0.28240578915E+02 -0.53358939847E+01  0.56981084769E+02  0.63818853669E+02  0.00000000000E+00 0. -1.
         -1    1    1    2    0  502  0.11523100985E+02  0.26387205471E+02 -0.91707859047E+02  0.96121786707E+02  0.00000000000E+00 0.  1.
<scales pt_clust_5="13000.00000" pt_clust_6="13000.00000" pt_clust_7="13000.00000" pt_clust_8="13000.00000" pt_clust_9="28.79351"></scales>
<clustering>
<clus scale="   28.794">  2  9  1 -1</clus>
<clus scale="   76.617">  5  6 -1 -1</clus>
<clus scale="   91.169">  7  8 -1 -1</clus>
<clus scale="   92.657">  2  5  1 -1</clus>
<clus scale="   28.794">  2  5  1 -1</clus>
</clustering>
</event>
<event>
 9    1  0.6345107E-005  0.1106605E+03  0.7546771E-02  0.1261224E+00
          3   -1    0    0  502    0 -0.00000000000E+00  0.00000000000E+00  0.69067788129E+03  0.69067788129E+03  0.00000000000E+00 0. -1.
         21   -1    0    0  501  502  0.00000000000E+00 -0.00000000000E+00 -0.25130143366E+02  0.25130143366E+02  0.00000000000E+00 0. -1.
        -24    2    1    2    0    0  0.67397472915E+02 -0.32373670575E+02  0.28204227265E+03  0.30291017952E+03  0.81340392140E+02 0.  0.
         23    2    1    2    0    0 -0.79452418396E+02  0.73271587005E+00  0.21958453401E+03  0.24551641417E+03  0.75813708458E+02 0.  0.
         11    1    3    3    0    0  0.12978728007E+02  0.26846707984E+02  0.67732277916E+02  0.74005773978E+02  0.00000000000E+00 0. -1.
        -12    1    3    3    0    0  0.54418744908E+02 -0.59220378559E+02  0.21430999474E+03  0.22890440555E+03  0.00000000000E+00 0.  1.
        -13    1    4    4    0    0 -0.28510196953E+01 -0.23389045566E+02  0.90260356341E+02  0.93285088265E+02  0.00000000000E+00 0.  1.
         13    1    4    4    0    0 -0.76601398701E+02  0.24121761436E+02  0.12932417767E+03  0.15223132591E+03  0.00000000000E+00 0. -1.
          4    1    1    2  501    0  0.12054945481E+02  0.31640954705E+02  0.16392093126E+03  0.16738143096E+03  0.00000000000E+00 0. -1.
<scales pt_clust_5="13000.00000" pt_clust_6="13000.00000" pt_clust_7="13000.00000" pt_clust_8="13000.00000" pt_clust_9="33.85961"></scales>
<clustering>
<clus scale="   33.860">  2  9  1 -1</clus>
<clus scale="   75.814">  7  8 -1 -1</clus>
<clus scale="   81.340">  5  6 -1 -1</clus>
<clus scale="  106.664">  2  7  1 -1</clus>
<clus scale="   33.860">  2  5  1 -1</clus>
</clustering>
</event>
<event>
 9    1  0.6345107E-005  0.9821084E+02  0.7546771E-02  0.1301561E+00
         21   -1    0    0  501  502  0.00000000000E+00  0.00000000000E+00  0.47081622932E+02  0.47081622932E+02  0.00000000000E+00 0. -1.
          3   -1    0    0  502    0 -0.00000000000E+00 -0.00000000000E+00 -0.40205797812E+03  0.40205797812E+03  0.00000000000E+00 0. -1.
         23    2    1    2    0    0 -0.46771835333E+02  0.16044632924E+02 -0.16700217952E+03  0.19629026506E+03  0.90526821247E+02 0.  0.
        -24    2    1    2    0    0  0.18098255585E+02  0.11687868155E+02 -0.30442151407E+01  0.63665943247E+02  0.59832532676E+02 0.  0.
         11    1    4    4    0    0  0.37538042733E+02  0.40747574868E+01  0.99850134932E+01  0.39056482116E+02  0.00000000000E+00 0. -1.
        -12    1    4    4    0    0 -0.19439787147E+02  0.76131106683E+01 -0.13029228634E+02  0.24609461131E+02  0.00000000000E+00 0.  1.
        -13    1    3    3    0    0  0.19454105828E+01  0.37946414287E+02 -0.27476856794E+02  0.46890219010E+02  0.00000000000E+00 0.  1.
         13    1    3    3    0    0 -0.48717245916E+02 -0.21901781363E+02 -0.13952532273E+03  0.14940004605E+03  0.00000000000E+00 0. -1.
          4    1    1    2  501    0  0.28673579748E+02 -0.27732501079E+02 -0.18492996052E+03  0.18918339275E+03  0.00000000000E+00 0. -1.
<scales pt_clust_5="13000.00000" pt_clust_6="13000.00000" pt_clust_7="13000.00000" pt_clust_8="13000.00000" pt_clust_9="39.89069"></scales>
<clustering>
<clus scale="   39.891">  1  9  2 -1</clus>
<clus scale="   59.833">  5  6 -1 -1</clus>
<clus scale="   70.924">  1  5  2 -1</clus>
<clus scale="   90.527">  7  8 -1 -1</clus>
<clus scale="   39.891">  1  5  2 -1</clus>
</clustering>
</event>
<event>
 9    1  0.6345107E-005  0.1086180E+03  0.7546771E-02  0.1269668E+00
         -2   -1    0    0    0  501 -0.00000000000E+00  0.00000000000E+00  0.48008789796E+03  0.48008789796E+03  0.00000000000E+00 0.  1.
         21   -1    0    0  501  502  0.00000000000E+00 -0.00000000000E+00 -0.56742967826E+02  0.56742967826E+02  0.00000000000E+00 0.  1.
         23    2    1    2    0    0 -0.27690136229E+02 -0.63506359307E+02  0.33453704342E+03  0.35344249383E+03  0.90591178998E+02 0.  0.
        -24    2    1    2    0    0  0.24239129965E+01  0.20049649001E+02 -0.44874693662E+01  0.77412472930E+02  0.74596848489E+02 0.  0.
         11    1    4    4    0    0 -0.32510360361E+02  0.15602678890E+02  0.12692561532E+02  0.38229154288E+02  0.00000000000E+00 0. -1.
        -12    1    4    4    0    0  0.34934273357E+02  0.44469701111E+01 -0.17180030898E+02  0.39183318642E+02  0.00000000000E+00 0.  1.
        -11    1    3    3    0    0  0.27450763237E+02 -0.16552244715E+02  0.17929353429E+03  0.18213646710E+03  0.00000000000E+00 0. -1.
         11    1    3    3    0    0 -0.55140899466E+02 -0.46954114592E+02  0.15524350912E+03  0.17130602674E+03  0.00000000000E+00 0.  1.
         -1    1    1    2    0  502  0.25266223232E+02  0.43456710306E+02  0.93295356088E+02  0.10597589903E+03  0.00000000000E+00 0.  1.
<scales pt_clust_5="13000.00000" pt_clust_6="13000.00000" pt_clust_7="13000.00000" pt_clust_8="13000.00000" pt_clust_9="50.26798"></scales>
<clustering>
<clus scale="   50.268">  2  9  1 -1</clus>
<clus scale="   74.597">  5  6 -1 -1</clus>
<clus scale="   90.591">  7  8 -1 -1</clus>
<clus scale="   95.686">  2  5  1 -1</clus>
<clus scale="   50.268">  2  5  1 -1</clus>
</clustering>
</event>
<event>
 9    1  0.6345107E-005  0.2482359E+03  0.7546771E-02  0.1157711E+00
         21   -1    0    0  501  502  0.00000000000E+00  0.00000000000E+00  0.74762603224E+03  0.74762603224E+03  0.00000000000E+00 0.  1.
         -2   -1    0    0    0  501 -0.00000000000E+00 -0.00000000000E+00 -0.20515032976E+03  0.20515032976E+03  0.00000000000E+00 0.  1.
        -24    2    1    2    0    0  0.24640487572E+02 -0.16534892467E+01 -0.28141009557E+01  0.86747744217E+02  0.83110554733E+02 0.  0.
         23    2    1    2    0    0  0.16006673923E+02  0.22993017608E+03 -0.26810201255E+02  0.24872735191E+03  0.89567902819E+02 0.  0.
         13    1    3    3    0    0 -0.23159695998E+02 -0.23196367754E+02  0.67121880749E+01  0.33458877214E+02  0.00000000000E+00 0. -1.
        -14    1    3    3    0    0  0.47800183570E+02  0.21542878507E+02 -0.95262890305E+01  0.53288867002E+02  0.00000000000E+00 0.  1.
        -11    1    4    4    0    0  0.38706241673E+02  0.20569253242E+03 -0.39830053349E+02  0.21305873412E+03  0.00000000000E+00 0.  1.
         11    1    4    4    0    0 -0.22699567749E+02  0.24237643661E+02  0.13019852094E+02  0.35668617787E+02  0.00000000000E+00 0. -1.
         -1    1    1    2    0  502 -0.40647161495E+02 -0.22827668683E+03  0.57210000468E+03  0.61730126587E+03  0.00000000000E+00 0.  1.
<scales pt_clust_5="13000.00000" pt_clust_6="13000.00000" pt_clust_7="13000.00000" pt_clust_8="13000.00000" pt_clust_9="231.51380"></scales>
<clustering>
<clus scale="   83.111">  5  6 -1 -1</clus>
<clus scale="   86.702">  2  5  1 -1</clus>
<clus scale="   89.568">  7  8 -1 -1</clus>
<clus scale="  231.514">  1  9  2 -1</clus>
<clus scale="  231.514">  1  5  2 -1</clus>
</clustering>
</event>
<event>
 9    1  0.6345107E-005  0.1678488E+03  0.7546771E-02  0.1180524E+00
          1   -1    0    0  502    0 -0.00000000000E+00  0.00000000000E+00  0.69410510595E+03  0.69410510595E+03  0.00000000000E+00 0. -1.
         21   -1    0    0  501  502  0.00000000000E+00 -0.00000000000E+00 -0.16669545044E+03  0.16669545044E+03  0.00000000000E+00 0. -1.
        -24    2    1    2    0    0  0.12879705052E+03  0.77151114143E+02  0.59889464425E+03  0.62309728964E+03  0.83871704455E+02 0.  0.
         23    2    1    2    0    0 -0.11168692923E+03 -0.15927774736E+02 -0.49972255343E+00  0.14241443448E+03  0.86913504442E+02 0.  0.
         11    1    3    3    0    0  0.10116487933E+03  0.13206511445E+02  0.37353726562E+03  0.38721936103E+03  0.00000000000E+00 0. -1.
        -12    1    3    3    0    0  0.27632171185E+02  0.63944602698E+02  0.22535737864E+03  0.23587792861E+03  0.00000000000E+00 0.  1.
        -11    1    4    4    0    0 -0.39770176164E+01  0.24231587603E+02 -0.11150833672E+02  0.26969011818E+02  0.00000000000E+00 0. -1.
         11    1    4    4    0    0 -0.10770991162E+03 -0.40159362339E+02  0.10651111119E+02  0.11544542266E+03  0.00000000000E+00 0.  1.
          2    1    1    2  501    0 -0.17110121280E+02 -0.61223339407E+02 -0.70985266198E+02  0.95288832271E+02  0.00000000000E+00 0. -1.
<scales pt_clust_5="13000.00000" pt_clust_6="13000.00000" pt_clust_7="13000.00000" pt_clust_8="13000.00000" pt_clust_9="63.56928"></scales>
<clustering>
<clus scale="   63.569">  2  9  1 -1</clus>
<clus scale="   83.872">  5  6 -1 -1</clus>
<clus scale="   86.914">  7  8 -1 -1</clus>
<clus scale="  166.294">  1  5  2 -1</clus>
<clus scale="   63.569">  2  5  1 -1</clus>
</clustering>
</event>
<event>
 9    1  0.6345107E-005  0.1553225E+03  0.7546771E-02  0.1222206E+00
         -2   -1    0    0    0  501 -0.00000000000E+00  0.00000000000E+00  0.42941160082E+03  0.42941160082E+03  0.00000000000E+00 0.  1.
         21   -1    0    0  501  502  0.00000000000E+00 -0.00000000000E+00 -0.10285617862E+03  0.10285617862E+03  0.00000000000E+00 0.  1.
        -24    2    1    2    0    0  0.11803091314E+02 -0.18633866737E+02  0.19416321982E+03  0.21196407291E+03  0.82115031027E+02 0.  0.
         23    2    1    2    0    0  0.94335703542E+02  0.81617901307E+02  0.27937538245E+02  0.15861508836E+03  0.93901722221E+02 0.  0.
         11    1    3    3    0    0  0.45586353694E+02 -0.18462651981E+02  0.13703795501E+03  0.14559665612E+03  0.00000000000E+00 0. -1.
        -12    1    3    3    0    0 -0.33783262380E+02 -0.17121475609E+00  0.57125264814E+02  0.66367416792E+02  0.00000000000E+00 0.  1.
        -11    1    4    4    0    0  0.91396748304E+02  0.22430199342E+02  0.31517787061E+02  0.99246412249E+02  0.00000000000E+00 0.  1.
         11    1    4    4    0    0  0.29389552384E+01  0.59187701964E+02 -0.35802488158E+01  0.59368676112E+02  0.00000000000E+00 0. -1.
         -1    1    1    2    0  502 -0.10613879486E+03 -0.62984034570E+02  0.10445466413E+03  0.16168861816E+03  0.00000000000E+00 0.  1.
<scales pt_clust_5="13000.00000" pt_clust_6="13000.00000" pt_clust_7="13000.00000" pt_clust_8="13000.00000" pt_clust_9="123.72376"></scales>
<clustering>
<clus scale="   82.115">  5  6 -1 -1</clus>
<clus scale="   85.026">  1  5  2 -1</clus>
<clus scale="   93.902">  7  8 -1 -1</clus>
<clus scale="  123.724">  2  9  1 -1</clus>
<clus scale="  123.724">  2  5  1 -1</clus>
</clustering>
</event>
<event>
 9    1  0.6345107E-005  0.1036848E+03  0.7546771E-02  0.1276832E+00
          1   -1    0    0  502    0 -0.00000000000E+00  0.00000000000E+00  0.24018205843E+03  0.24018205843E+03  0.00000000000E+00 0. -1.
         21   -1    0    0  501  502  0.00000000000E+00 -0.00000000000E+00 -0.10059308595E+03  0.10059308595E+03  0.00000000000E+00 0. -1.
         23    2    1    2    0    0  0.51582095576E+02  0.47212280125E+00  0.16884728999E+03  0.19845042993E+03  0.90621356851E+02 0.  0.
        -24    2    1    2    0    0 -0.45453259082E+02  0.24539136808E+02  0.82053243646E+01  0.96864289840E+02  0.81530333630E+02 0.  0.
         11    1    4    4    0    0  0.75024404655E+01  0.34119811344E+02  0.22030769325E+02  0.41301367243E+02  0.00000000000E+00 0. -1.
        -12    1    4    4    0    0 -0.52955699547E+02 -0.95806745364E+01 -0.13825444961E+02  0.55562922597E+02  0.00000000000E+00 0.  1.
        -11    1    3    3    0    0  0.34147507601E+00  0.25790956946E+02  0.12157081042E+03  0.12427691665E+03  0.00000000000E+00 0. -1.
         11    1    3    3    0    0  0.51240620500E+02 -0.25318834145E+02  0.47276479569E+02  0.74173513279E+02  0.00000000000E+00 0.  1.
          2    1    1    2  501    0 -0.61288364944E+01 -0.25011259609E+02 -0.37463641868E+02  0.45460424613E+02  0.00000000000E+00 0. -1.
<scales pt_clust_5="13000.00000" pt_clust_6="13000.00000" pt_clust_7="13000.00000" pt_clust_8="13000.00000" pt_clust_9="25.75123"></scales>
<clustering>
<clus scale="   25.751">  2  9  1 -1</clus>
<clus scale="   81.530">  5  6 -1 -1</clus>
<clus scale="   90.621">  7  8 -1 -1</clus>
<clus scale="   95.841">  2  5  1 -1</clus>
<clus scale="   25.751">  2  5  1 -1</clus>
</clustering>
</event>
<event>
 9    1  0.6345107E-005  0.1131294E+03  0.7546771E-02  0.1259227E+00
          1   -1    0    0  502    0 -0.00000000000E+00  0.00000000000E+00  0.15607929123E+03  0.15607929123E+03  0.00000000000E+00 0. -1.
         21   -1    0    0  501  502  0.00000000000E+00 -0.00000000000E+00 -0.68819949520E+03  0.68819949520E+03  0.00000000000E+00 0. -1.
        -24    2    1    2    0    0 -0.48355844378E+02  0.52680141967E+02  0.11113167898E+03  0.15544013770E+03  0.81840706825E+02 0.  0.
         23    2    1    2    0    0  0.46459940737E+02  0.32348766896E+02 -0.13551133269E+03  0.17402414217E+03  0.93360119728E+02 0.  0.
         11    1    3    3    0    0 -0.35483699820E+02  0.23453914061E+02  0.11561566470E+03  0.12319156206E+03  0.00000000000E+00 0. -1.
        -12    1    3    3    0    0 -0.12872144557E+02  0.29226227906E+02 -0.44839857257E+01  0.32248575645E+02  0.00000000000E+00 0.  1.
        -13    1    4    4    0    0  0.28217379468E+02  0.65483238977E+02 -0.91155028474E+02  0.11573035171E+03  0.00000000000E+00 0. -1.
         13    1    4    4    0    0  0.18242561269E+02 -0.33134472081E+02 -0.44356304217E+02  0.58293790455E+02  0.00000000000E+00 0.  1.
          2    1    1    2  501    0  0.18959036404E+01 -0.85028908863E+02 -0.50774055025E+03  0.51481450656E+03  0.00000000000E+00 0. -1.
<scales pt_clust_5="13000.00000" pt_clust_6="13000.00000" pt_clust_7="13000.00000" pt_clust_8="13000.00000" pt_clust_9="85.05004"></scales>
<clustering>
<clus scale="   81.841">  5  6 -1 -1</clus>
<clus scale="   85.050">  2  9  1 -1</clus>
<clus scale="   93.360">  7  8 -1 -1</clus>
<clus scale="  103.827">  1  5  2 -1</clus>
<clus scale="   85.050">  2  5  1 -1</clus>
</clustering>
</event>
<event>
 9    1  0.6345107E-005  0.1502754E+03  0.7546771E-02  0.1224514E+00
         21   -1    0    0  501  502  0.00000000000E+00  0.00000000000E+00  0.25511399961E+03  0.25511399961E+03  0.00000000000E+00 0.  1.
         -2   -1    0    0    0  501 -0.00000000000E+00 -0.00000000000E+00 -0.15426901448E+03  0.15426901448E+03  0.00000000000E+00 0.  1.
         23    2    1    2    0    0 -0.85218456072E+01  0.11949279609E+02 -0.23852896489E+02  0.92593705168E+02  0.88256594258E+02 0.  0.
        -24    2    1    2    0    0 -0.31560744860E+02  0.11519299884E+03  0.13110925952E+02  0.14294046163E+03  0.77424618784E+02 0.  0.
         13    1    4    4    0    0 -0.55091442909E+02  0.55618424883E+02  0.72589897270E+01  0.78620412109E+02  0.00000000000E+00 0. -1.
        -14    1    4    4    0    0  0.23530698049E+02  0.59574573961E+02  0.58519362246E+01  0.64320049525E+02  0.00000000000E+00 0.  1.
        -13    1    3    3    0    0  0.23859758959E+02  0.12988298613E+02 -0.45948322894E+02  0.53378201311E+02  0.00000000000E+00 0.  1.
         13    1    3    3    0    0 -0.32381604566E+02 -0.10390190037E+01  0.22095426404E+02  0.39215503857E+02  0.00000000000E+00 0. -1.
         -1    1    1    2    0  502  0.40082590468E+02 -0.12714227845E+03  0.11158695566E+03  0.17384884729E+03  0.00000000000E+00 0.  1.
<scales pt_clust_5="13000.00000" pt_clust_6="13000.00000" pt_clust_7="13000.00000" pt_clust_8="13000.00000" pt_clust_9="128.79484"></scales>
<clustering>
<clus scale="   77.425">  5  6 -1 -1</clus>
<clus scale="   88.257">  7  8 -1 -1</clus>
<clus scale="   89.469">  2  7  1 -1</clus>
<clus scale="  128.795">  1  9  2 -1</clus>
<clus scale="  128.795">  1  5  2 -1</clus>
</clustering>
</event>
<event>
 9    1  0.6345107E-005  0.9412949E+02  0.7546771E-02  0.1300612E+00
         -2   -1    0    0    0  501 -0.00000000000E+00  0.00000000000E+00  0.52564436464E+02  0.52564436464E+02  0.00000000000E+00 0.  1.
         21   -1    0    0  501  502  0.00000000000E+00 -0.00000000000E+00 -0.21771100341E+03  0.21771100341E+03  0.00000000000E+00 0. -1.
        -24    2    1    2    0    0  0.18031218653E+02 -0.71945378552E+01 -0.44595282642E+02  0.93570459402E+02  0.79936258467E+02 0.  0.
         23    2    1    2    0    0 -0.29527003856E+00  0.26113902163E+02 -0.11568771425E+03  0.15032012624E+03  0.92360543810E+02 0.  0.
         13    1    3    3    0    0  0.44246734334E+02 -0.20635101409E+01 -0.33382372110E+01  0.44420439000E+02  0.00000000000E+00 0. -1.
        -14    1    3    3    0    0 -0.26215515681E+02 -0.51310277144E+01 -0.41257045431E+02  0.49150020402E+02  0.00000000000E+00 0.  1.
        -13    1    4    4    0    0  0.26324222094E+02  0.51860858539E+02 -0.79849420920E+02  0.98784833545E+02  0.00000000000E+00 0. -1.
         13    1    4    4    0    0 -0.26619492132E+02 -0.25746956376E+02 -0.35838293333E+02  0.51535292694E+02  0.00000000000E+00 0.  1.
         -1    1    1    2    0  502 -0.17735948614E+02 -0.18919364308E+02 -0.48635700461E+01  0.26384854228E+02  0.00000000000E+00 0.  1.
<scales pt_clust_5="13000.00000" pt_clust_6="13000.00000" pt_clust_7="13000.00000" pt_clust_8="13000.00000" pt_clust_9="25.93274"></scales>
<clustering>
<clus scale="   25.933">  2  9  1 -1</clus>
<clus scale="   79.936">  5  6 -1 -1</clus>
<clus scale="   81.974">  1  5  2 -1</clus>
<clus scale="   92.361">  7  8 -1 -1</clus>
<clus scale="   25.933">  2  5  1 -1</clus>
</clustering>
</event>
<event>
 9    1  0.6345107E-005  0.9837390E+02  0.7546771E-02  0.1287815E+00
         21   -1    0    0  501  502  0.00000000000E+00  0.00000000000E+00  0.32679488422E+03  0.32679488422E+03  0.00000000000E+00 0.  1.
          3   -1    0    0  502    0 -0.00000000000E+00 -0.00000000000E+00 -0.10180313631E+03  0.10180313631E+03  0.00000000000E+00 0. -1.
         23    2    1    2    0    0  0.39762989501E+02 -0.31601907676E+01 -0.59672730255E+02  0.11395039401E+03  0.88502968416E+02 0.  0.
        -24    2    1    2    0    0 -0.66041810097E+02  0.57315768451E+01  0.19381414104E+03  0.22003804881E+03  0.80364482218E+02 0.  0.
         13    1    4    4    0    0 -0.30763910566E+02 -0.35721147351E+02  0.65918982038E+02  0.81041537216E+02  0.00000000000E+00 0. -1.
        -14    1    4    4    0    0 -0.35277899531E+02  0.41452724196E+02  0.12789515901E+03  0.13899651159E+03  0.00000000000E+00 0.  1.
        -11    1    3    3    0    0 -0.21222191929E+02  0.19278891512E+02 -0.51626534357E+01  0.29132629108E+02  0.00000000000E+00 0.  1.
         11    1    3    3    0    0  0.60985181430E+02 -0.22439082280E+02 -0.54510076820E+02  0.84817764899E+02  0.00000000000E+00 0. -1.
          4    1    1    2  501    0  0.26278820596E+02 -0.25713860775E+01  0.90850337122E+02  0.94609577705E+02  0.00000000000E+00 0. -1.
<scales pt_clust_5="13000.00000" pt_clust_6="13000.00000" pt_clust_7="13000.00000" pt_clust_8="13000.00000" pt_clust_9="26.40433"></scales>
<clustering>
<clus scale="   26.404">  1  9  2 -1</clus>
<clus scale="   80.364">  5  6 -1 -1</clus>
<clus scale="   88.503">  7  8 -1 -1</clus>
<clus scale="   91.121">  1  5  2 -1</clus>
<clus scale="   26.404">  1  5  2 -1</clus>
</clustering>
</event>
<event>
 9    1  0.6345107E-005  0.1015052E+03  0.7546771E-02  0.1282742E+00
         21   -1    0    0  501  502  0.00000000000E+00  0.00000000000E+00  0.69260849393E+02  0.69260849393E+02  0.00000000000E+00 0. -1.
         -4   -1    0    0    0  501 -0.00000000000E+00 -0.00000000000E+00 -0.25944296209E+03  0.25944296209E+03  0.00000000000E+00 0.  1.
         23    2    1    2    0    0 -0.21413654691E+02 -0.36121170732E+02 -0.13469179240E+03  0.16828131741E+03  0.91724801819E+02 0.  0.
        -24    2    1    2    0    0  0.57739422991E+02  0.13887092619E+02 -0.13743362626E+02  0.10078421654E+03  0.80261360429E+02 0.  0.
         13    1    4    4    0    0  0.57324034494E+02  0.40828793674E+02  0.34460397357E+00  0.70378647866E+02  0.00000000000E+00 0. -1.
        -14    1    4    4    0    0  0.41538849780E+00 -0.26941701055E+02 -0.14087966599E+02  0.30405568672E+02  0.00000000000E+00 0.  1.
        -13    1    3    3    0    0 -0.55208849222E+02 -0.12491394143E+02 -0.97552057110E+02  0.11278499814E+03  0.00000000000E+00 0.  1.
         13    1    3    3    0    0  0.33795194531E+02 -0.23629776589E+02 -0.37139735285E+02  0.55496319266E+02  0.00000000000E+00 0. -1.
         -3    1    1    2    0  502 -0.36325768301E+02  0.22234078113E+02 -0.41746957677E+02  0.59638277536E+02  0.00000000000E+00 0.  1.
<scales pt_clust_5="13000.00000" pt_clust_6="13000.00000" pt_clust_7="13000.00000" pt_clust_8="13000.00000" pt_clust_9="42.59011"></scales>
<clustering>
<clus scale="   42.590">  1  9  2 -1</clus>
<clus scale="   80.261">  5  6 -1 -1</clus>
<clus scale="   91.278">  1  5  2 -1</clus>
<clus scale="   91.725">  7  8 -1 -1</clus>
<clus scale="   42.590">  1  5  2 -1</clus>
</clustering>
</event>
<event>
 9    1  0.6345107E-005  0.1445975E+03  0.7546771E-02  0.1208208E+00
         21   -1    0    0  501  502  0.00000000000E+00  0.00000000000E+00  0.19348343582E+03  0.19348343582E+03  0.00000000000E+00 0. -1.
          1   -1    0    0  502    0 -0.00000000000E+00 -0.00000000000E+00 -0.21779982238E+03  0.21779982238E+03  0.00000000000E+00 0. -1.
        -24    2    1    2    0    0  0.49449544106E+02 -0.11326398739E+03 -0.14244897677E+03  0.20713944525E+03  0.85679930812E+02 0.  0.
         23    2    1    2    0    0 -0.35904882192E+02  0.66453924563E+02  0.83275988298E+02  0.14423035416E+03  0.90345006386E+02 0.  0.
         13    1    3    3    0    0 -0.28595788411E+01 -0.77554790242E+02 -0.11351337662E+03  0.13750712474E+03  0.00000000000E+00 0. -1.
        -14    1    3    3    0    0  0.52309122947E+02 -0.35709197146E+02 -0.28935600149E+02  0.69632320515E+02  0.00000000000E+00 0.  1.
        -11    1    4    4    0    0  0.13299527831E+02  0.23250498572E+02 -0.11405081637E+02  0.29112523276E+02  0.00000000000E+00 0.  1.
         11    1    4    4    0    0 -0.49204410023E+02  0.43203425992E+02  0.94681069935E+02  0.11511783088E+03  0.00000000000E+00 0. -1.
          2    1    1    2  501    0 -0.13544661914E+02  0.46810062825E+02  0.34856601909E+02  0.59913458795E+02  0.00000000000E+00 0. -1.
<scales pt_clust_5="13000.00000" pt_clust_6="13000.00000" pt_clust_7="13000.00000" pt_clust_8="13000.00000" pt_clust_9="48.73028"></scales>
<clustering>
<clus scale="   48.730">  1  9  2 -1</clus>
<clus scale="   85.680">  5  6 -1 -1</clus>
<clus scale="   90.345">  7  8 -1 -1</clus>
<clus scale="  141.730">  2  5  1 -1</clus>
<clus scale="   48.730">  1  5  2 -1</clus>
</clustering>
</event>
<event>
 9    1  0.6345107E-005  0.9055420E+02  0.7546771E-02  0.1307551E+00
         21   -1    0    0  501  502  0.00000000000E+00  0.00000000000E+00  0.17097155989E+03  0.17097155989E+03  0.00000000000E+00 0. -1.
          3   -1    0    0  502    0 -0.00000000000E+00 -0.00000000000E+00 -0.11786696478E+03  0.11786696478E+03  0.00000000000E+00 0. -1.
         23    2    1    2    0    0  0.23217301493E+01 -0.38571686885E+01 -0.54388275419E+02  0.10543645218E+03  0.90213595223E+02 0.  0.
        -24    2    1    2    0    0 -0.28211374077E+02 -0.36753001650E+02  0.96387789185E+02  0.13397756007E+03  0.80701399861E+02 0.  0.
         11    1    4    4    0    0 -0.49774222537E+02 -0.88963556549E+01  0.29921175284E+02  0.58752830599E+02  0.00000000000E+00 0. -1.
        -12    1    4    4    0    0  0.21562848460E+02 -0.27856645995E+02  0.66466613901E+02  0.75224729466E+02  0.00000000000E+00 0.  1.
        -13    1    3    3    0    0  0.45956893421E+02  0.32620532290E+01 -0.26161673465E+02  0.52982168724E+02  0.00000000000E+00 0.  1.
         13    1    3    3    0    0 -0.43635163272E+02 -0.71192219175E+01 -0.28226601954E+02  0.52454283451E+02  0.00000000000E+00 0. -1.
          4    1    1    2  501    0  0.25889643928E+02  0.40610170339E+02  0.11105081347E+02  0.49424512434E+02  0.00000000000E+00 0. -1.
<scales pt_clust_5="13000.00000" pt_clust_6="13000.00000" pt_clust_7="13000.00000" pt_clust_8="13000.00000" pt_clust_9="48.16077"></scales>
<clustering>
<clus scale="   48.161">  1  9  2 -1</clus>
<clus scale="   80.701">  5  6 -1 -1</clus>
<clus scale="   81.082">  1  5  2 -1</clus>
<clus scale="   90.214">  7  8 -1 -1</clus>
<clus scale="   48.161">  1  5  2 -1</clus>
</clustering>
</event>
<event>
 9    1  0.6345107E-005  0.9859183E+02  0.7546771E-02  0.1288223E+00
          1   -1    0    0  502    0 -0.00000000000E+00  0.00000000000E+00  0.53211795432E+03  0.53211795432E+03  0.00000000000E+00 0. -1.
         21   -1    0    0  501  502  0.00000000000E+00 -0.00000000000E+00 -0.33277209969E+02  0.33277209969E+02  0.00000000000E+00 0.  1.
        -24    2    1    2    0    0 -0.23474216707E+02  0.32349016145E+02  0.28332056888E+03  0.29724501230E+03  0.80539151293E+02 0.  0.
         23    2    1    2    0    0  0.49923358636E+02 -0.74987584626E+01  0.88620409103E+02  0.13616286806E+03  0.90211842968E+02 0.  0.
         13    1    3    3    0    0  0.19517408611E+02 -0.50919469969E+01  0.22290800262E+02  0.30062217806E+02  0.00000000000E+00 0. -1.
        -14    1    3    3    0    0 -0.42991625318E+02  0.37440963142E+02  0.26102976862E+03  0.26718279450E+03  0.00000000000E+00 0.  1.
        -13    1    4    4    0    0  0.26117991651E+01 -0.21681869970E+02 -0.11382950647E+02  0.24627150580E+02  0.00000000000E+00 0.  1.
         13    1    4    4    0    0  0.47311559471E+02  0.14183111507E+02  0.10000335975E+03  0.11153571748E+03  0.00000000000E+00 0. -1.
          2    1    1    2  501    0 -0.26449141929E+02 -0.24850257682E+02  0.12689976637E+03  0.13198728393E+03  0.00000000000E+00 0. -1.
<scales pt_clust_5="13000.00000" pt_clust_6="13000.00000" pt_clust_7="13000.00000" pt_clust_8="13000.00000" pt_clust_9="36.29179"></scales>
<clustering>
<clus scale="   36.292">  2  9  1 -1</clus>
<clus scale="   80.539">  5  6 -1 -1</clus>
<clus scale="   89.826">  1  5  2 -1</clus>
<clus scale="   90.212">  7  8 -1 -1</clus>
<clus scale="   36.292">  2  5  1 -1</clus>
</clustering>
</event>
<event>
 9    1  0.6345107E-005  0.9182045E+02  0.7546771E-02  0.1300934E+00
         21   -1    0    0  501  502  0.00000000000E+00  0.00000000000E+00  0.95229359502E+02  0.95229359502E+02  0.00000000000E+00 0. -1.
         -2   -1    0    0    0  501 -0.00000000000E+00 -0.00000000000E+00 -0.28710776550E+03  0.28710776550E+03  0.00000000000E+00 0.  1.
        -24    2    1    2    0    0  0.24582506137E+02  0.28203391086E+01 -0.14389364117E+03  0.16957471091E+03  0.86243542896E+02 0.  0.
         23    2    1    2    0    0  0.32223186068E+02  0.54118035942E+02  0.14276789470E+02  0.11105023997E+03  0.90339545855E+02 0.  0.
         13    1    3    3    0    0 -0.26011609955E+02  0.23509916180E+02 -0.56436239982E+02  0.66440719401E+02  0.00000000000E+00 0. -1.
        -14    1    3    3    0    0  0.50594116092E+02 -0.20689577071E+02 -0.87457401190E+02  0.10313399151E+03  0.00000000000E+00 0.  1.
        -11    1    4    4    0    0  0.27103429201E+02 -0.38841030681E+01 -0.27947113290E+02  0.39124458748E+02  0.00000000000E+00 0.  1.
         11    1    4    4    0    0  0.51197568667E+01  0.58002139010E+02  0.42223902760E+02  0.71925781222E+02  0.00000000000E+00 0. -1.
         -1    1    1    2    0  502 -0.56805692205E+02 -0.56938375050E+02 -0.62261554298E+02  0.10171217412E+03  0.00000000000E+00 0.  1.
<scales pt_clust_5="13000.00000" pt_clust_6="13000.00000" pt_clust_7="13000.00000" pt_clust_8="13000.00000" pt_clust_9="80.42930"></scales>
<clustering>
<clus scale="   80.429">  1  9  2 -1</clus>
<clus scale="   86.244">  5  6 -1 -1</clus>
<clus scale="   87.794">  2  5  1 -1</clus>
<clus scale="   90.340">  7  8 -1 -1</clus>
<clus scale="   80.429">  1  5  2 -1</clus>
</clustering>
</event>
<event>
 9    1  0.6345107E-005  0.2379816E+03  0.7546771E-02  0.1121893E+00
         -2   -1    0    0    0  501 -0.00000000000E+00  0.00000000000E+00  0.15536077777E+03  0.15536077777E+03  0.00000000000E+00 0.  1.
         21   -1    0    0  501  502  0.00000000000E+00 -0.00000000000E+00 -0.50977678232E+03  0.50977678232E+03  0.00000000000E+00 0.  1.
         23    2    1    2    0    0 -0.12251063219E+03 -0.18127564879E+03 -0.83650549010E+02  0.25203276893E+03  0.93023579914E+02 0.  0.
        -24    2    1    2    0    0  0.10273152245E+03  0.19458961859E+03 -0.12567108882E+03  0.26606448980E+03  0.81106132928E+02 0.  0.
         13    1    4    4    0    0  0.90446984562E+01  0.77793146230E+02 -0.14672839900E+02  0.79679811755E+02  0.00000000000E+00 0. -1.
        -14    1    4    4    0    0  0.93686823990E+02  0.11679647236E+03 -0.11099824893E+03  0.18638467804E+03  0.00000000000E+00 0.  1.
        -11    1    3    3    0    0 -0.36703793630E+02 -0.11570410355E+03 -0.11014230737E+02  0.12188486913E+03  0.00000000000E+00 0. -1.
         11    1    3    3    0    0 -0.85806838561E+02 -0.65571545245E+02 -0.72636318273E+02  0.13014789980E+03  0.00000000000E+00 0.  1.
         -1    1    1    2    0  502  0.19779109746E+02 -0.13313969794E+02 -0.14509436671E+03  0.14704030137E+03  0.00000000000E+00 0.  1.
<scales pt_clust_5="13000.00000" pt_clust_6="13000.00000" pt_clust_7="13000.00000" pt_clust_8="13000.00000" pt_clust_9="23.84271"></scales>
<clustering>
<clus scale="   23.843">  2  9  1 -1</clus>
<clus scale="   81.106">  5  6 -1 -1</clus>
<clus scale="   93.024">  7  8 -1 -1</clus>
<clus scale="  233.581">  2  5  1 -1</clus>
<clus scale="   23.843">  2  5  1 -1</clus>
</clustering>
</event>
<event>
 9    1  0.6345107E-005  0.1172720E+03  0.7546771E-02  0.1251153E+00
         -2   -1    0    0    0  501 -0.00000000000E+00  0.00000000000E+00  0.15143038724E+03  0.15143038724E+03  0.00000000000E+00 0.  1.
         21   -1    0    0  501  502  0.00000000000E+00 -0.00000000000E+00 -0.53751156168E+03  0.53751156168E+03  0.00000000000E+00 0.  1.
        -24    2    1    2    0    0 -0.63158951132E+02  0.37156858128E+02  0.11632434604E+03  0.15968329495E+03  0.81226325713E+02 0.  0.
         23    2    1    2    0    0  0.75747288364E+02 -0.13844707806E+02 -0.47960157402E+03  0.49430235895E+03  0.91585067706E+02 0.  0.
         11    1    3    3    0    0 -0.26014241005E+01  0.44306563950E+02  0.28429588436E+02  0.52707499609E+02  0.00000000000E+00 0. -1.
        -12    1    3    3    0    0 -0.60557527032E+02 -0.71497058214E+01  0.87894757609E+02  0.10697579534E+03  0.00000000000E+00 0.  1.
        -13    1    4    4    0    0  0.94346369980E+02  0.13840076916E+01 -0.40818079097E+03  0.41894475904E+03  0.00000000000E+00 0.  1.
         13    1    4    4    0    0 -0.18599081616E+02 -0.15228715497E+02 -0.71420783052E+02  0.75357599912E+02  0.00000000000E+00 0. -1.
         -1    1    1    2    0  502 -0.12588337232E+02 -0.23312150323E+02 -0.22803946465E+02  0.34956295017E+02  0.00000000000E+00 0.  1.
<scales pt_clust_5="13000.00000" pt_clust_6="13000.00000" pt_clust_7="13000.00000" pt_clust_8="13000.00000" pt_clust_9="26.49382"></scales>
<clustering>
<clus scale="   26.494">  2  9  1 -1</clus>
<clus scale="   81.226">  5  6 -1 -1</clus>
<clus scale="   91.585">  7  8 -1 -1</clus>
<clus scale="  109.374">  1  5  2 -1</clus>
<clus scale="   26.494">  2  5  1 -1</clus>
</clustering>
</event>
<event>
 9    1  0.6345107E-005  0.9946666E+02  0.7546771E-02  0.1286972E+00
         21   -1    0    0  501  502  0.00000000000E+00  0.00000000000E+00  0.39326180548E+03  0.39326180548E+03  0.00000000000E+00 0.  1.
         -2   -1    0    0    0  501 -0.00000000000E+00 -0.00000000000E+00 -0.46254416060E+02  0.46254416060E+02  0.00000000000E+00 0.  1.
        -24    2    1    2    0    0  0.41921398173E+02 -0.40544422929E+01  0.95092976564E+02  0.13254621876E+03  0.82170455694E+02 0.  0.
         23    2    1    2    0    0 -0.17302046089E+02  0.18995627068E+02  0.25981464251E+03  0.27710756604E+03  0.92869586245E+02 0.  0.
         13    1    3    3    0    0 -0.11040778691E+01 -0.36454672500E+02  0.52271178193E+02  0.63737259156E+02  0.00000000000E+00 0. -1.
        -14    1    3    3    0    0  0.43025476042E+02  0.32400230208E+02  0.42821798371E+02  0.68808959605E+02  0.00000000000E+00 0.  1.
        -13    1    4    4    0    0 -0.47449585567E+02 -0.96114463612E+01  0.89062673324E+02  0.10137062124E+03  0.00000000000E+00 0. -1.
         13    1    4    4    0    0  0.30147539478E+02  0.28607073429E+02  0.17075196919E+03  0.17573694480E+03  0.00000000000E+00 0.  1.
         -1    1    1    2    0  502 -0.24619352084E+02 -0.14941184775E+02 -0.79002296506E+01  0.29862436740E+02  0.00000000000E+00 0.  1.
<scales pt_clust_5="13000.00000" pt_clust_6="13000.00000" pt_clust_7="13000.00000" pt_clust_8="13000.00000" pt_clust_9="28.79848"></scales>
<clustering>
<clus scale="   28.798">  1  9  2 -1</clus>
<clus scale="   82.170">  5  6 -1 -1</clus>
<clus scale="   89.559">  2  5  1 -1</clus>
<clus scale="   92.870">  7  8 -1 -1</clus>
<clus scale="   28.798">  1  5  2 -1</clus>
</clustering>
</event>
<event>
 9    1  0.6345107E-005  0.1952476E+03  0.7546771E-02  0.1184585E+00
          1   -1    0    0  502    0 -0.00000000000E+00  0.00000000000E+00  0.78097469225E+03  0.78097469225E+03  0.00000000000E+00 0. -1.
         21   -1    0    0  501  502  0.00000000000E+00 -0.00000000000E+00 -0.73684186596E+02  0.73684186596E+02  0.00000000000E+00 0. -1.
         23    2    1    2    0    0 -0.47707539898E+00 -0.26048818515E+02  0.18313205765E+03  0.20698846496E+03  0.92887596270E+02 0.  0.
        -24    2    1    2    0    0 -0.19966803025E+02  0.19122917103E+03  0.33826769828E+03  0.39815514009E+03  0.84470177044E+02 0.  0.
         13    1    4    4    0    0 -0.35412724036E+02  0.83749041090E+02  0.21754624264E+03  0.23578450032E+03  0.00000000000E+00 0. -1.
        -14    1    4    4    0    0  0.15445921011E+02  0.10748012994E+03  0.12072145564E+03  0.16237063977E+03  0.00000000000E+00 0.  1.
        -11    1    3    3    0    0  0.21569898959E+02  0.25896062843E+02  0.10727171980E+03  0.11244148914E+03  0.00000000000E+00 0. -1.
         11    1    3    3    0    0 -0.22046974358E+02 -0.51944881359E+02  0.75860337854E+02  0.94546975822E+02  0.00000000000E+00 0.  1.
          2    1    1    2  501    0  0.20443878424E+02 -0.16518035251E+03  0.18589074973E+03  0.24951527380E+03  0.00000000000E+00 0. -1.
<scales pt_clust_5="13000.00000" pt_clust_6="13000.00000" pt_clust_7="13000.00000" pt_clust_8="13000.00000" pt_clust_9="176.02964"></scales>
<clustering>
<clus scale="   84.470">  5  6 -1 -1</clus>
<clus scale="   92.888">  7  8 -1 -1</clus>
<clus scale="   96.472">  1  7  2 -1</clus>
<clus scale="  176.030">  2  9  1 -1</clus>
<clus scale="  176.030">  2  5  1 -1</clus>
</clustering>
</event>
<event>
 9    1  0.6345107E-005  0.1967476E+03  0.7546771E-02  0.1153490E+00
         21   -1    0    0  501  502  0.00000000000E+00  0.00000000000E+00  0.16320126250E+03  0.16320126250E+03  0.00000000000E+00 0. -1.
          1   -1    0    0  502    0 -0.00000000000E+00 -0.00000000000E+00 -0.32740829692E+03  0.32740829692E+03  0.00000000000E+00 0. -1.
         23    2    1    2    0    0  0.14884850651E+03  0.87510850774E+02 -0.16994831038E+03  0.25899875498E+03  0.91563638995E+02 0.  0.
        -24    2    1    2    0    0 -0.16481375292E+03 -0.69821961945E+02  0.28420332837E+02  0.19871512841E+03  0.81494217089E+02 0.  0.
         13    1    4    4    0    0 -0.11437211961E+03 -0.77284859512E+02 -0.43456740681E+01  0.13810436683E+03  0.00000000000E+00 0. -1.
        -14    1    4    4    0    0 -0.50441633310E+02  0.74628975661E+01  0.32766006905E+02  0.60610761582E+02  0.00000000000E+00 0.  1.
        -11    1    3    3    0    0  0.71127714617E+02  0.43381065484E+02 -0.22031228727E+02  0.86176816305E+02  0.00000000000E+00 0.  1.
         11    1    3    3    0    0  0.77720791895E+02  0.44129785290E+02 -0.14791708165E+03  0.17282193868E+03  0.00000000000E+00 0. -1.
          2    1    1    2  501    0  0.15965246406E+02 -0.17688888828E+02 -0.22679056875E+02  0.32895676031E+02  0.00000000000E+00 0. -1.
<scales pt_clust_5="13000.00000" pt_clust_6="13000.00000" pt_clust_7="13000.00000" pt_clust_8="13000.00000" pt_clust_9="23.82827"></scales>
<clustering>
<clus scale="   23.828">  1  9  2 -1</clus>
<clus scale="   81.494">  5  6 -1 -1</clus>
<clus scale="   91.564">  7  8 -1 -1</clus>
<clus scale="  192.268">  1  5  2 -1</clus>
<clus scale="   23.828">  1  5  2 -1</clus>
</clustering>
</event>
<event>
 9    1  0.6345107E-005  0.9680053E+02  0.7546771E-02  0.1297745E+00
         21   -1    0    0  501  502  0.00000000000E+00  0.00000000000E+00  0.17516576107E+03  0.17516576107E+03  0.00000000000E+00 0. -1.
          1   -1    0    0  502    0 -0.00000000000E+00 -0.00000000000E+00 -0.12161956817E+03  0.12161956817E+03  0.00000000000E+00 0. -1.
         23    2    1    2    0    0 -0.41522382246E+02  0.29179707848E+01 -0.74072557859E+02  0.12451773781E+03  0.91023625613E+02 0.  0.
        -24    2    1    2    0    0  0.62438509928E+01  0.11624831700E+02  0.61148215133E+02  0.95622957058E+02  0.72322356953E+02 0.  0.
         13    1    4    4    0    0 -0.24663908360E+02 -0.18067402735E+02  0.23224382609E+02  0.38394157950E+02  0.00000000000E+00 0. -1.
        -14    1    4    4    0    0  0.30907759353E+02  0.29692234435E+02  0.37923832524E+02  0.57228799107E+02  0.00000000000E+00 0.  1.
        -13    1    3    3    0    0 -0.62449735036E+02  0.25400056074E+02 -0.61750358294E+02  0.91423405122E+02  0.00000000000E+00 0. -1.
         13    1    3    3    0    0  0.20927352790E+02 -0.22482085289E+02 -0.12322199565E+02  0.33094332685E+02  0.00000000000E+00 0.  1.
          2    1    1    2  501    0  0.35278531253E+02 -0.14542802485E+02  0.66470535629E+02  0.76644634374E+02  0.00000000000E+00 0. -1.
<scales pt_clust_5="13000.00000" pt_clust_6="13000.00000" pt_clust_7="13000.00000" pt_clust_8="13000.00000" pt_clust_9="38.15846"></scales>
<clustering>
<clus scale="   38.158">  1  9  2 -1</clus>
<clus scale="   72.322">  5  6 -1 -1</clus>
<clus scale="   79.471">  1  5  2 -1</clus>
<clus scale="   91.024">  7  8 -1 -1</clus>
<clus scale="   38.158">  1  5  2 -1</clus>
</clustering>
</event>
<event>
 9    1  0.6345107E-005  0.1229116E+03  0.7546771E-02  0.1257245E+00
         21   -1    0    0  501  502  0.00000000000E+00  0.00000000000E+00  0.18089754771E+03  0.18089754771E+03  0.00000000000E+00 0.  1.
          1   -1    0    0  502    0 -0.00000000000E+00 -0.00000000000E+00 -0.16971770969E+03  0.16971770969E+03  0.00000000000E+00 0. -1.
        -24    2    1    2    0    0 -0.88296755337E+01 -0.32414335154E+02  0.95152618563E+02  0.12704578200E+03  0.77187807404E+02 0.  0.
         23    2    1    2    0    0 -0.69741714435E+02 -0.12302872689E+02 -0.45388751432E+02  0.12527492162E+03  0.92835337139E+02 0.  0.
         11    1    3    3    0    0  0.73615666615E+00 -0.38392615589E+02  0.80736830147E+01  0.39239256056E+02  0.00000000000E+00 0. -1.
        -12    1    3    3    0    0 -0.95658321998E+01  0.59782804348E+01  0.87078935549E+02  0.87806525947E+02  0.00000000000E+00 0.  1.
        -13    1    4    4    0    0 -0.40094192717E+02 -0.47052698172E+02 -0.49802301179E+02  0.79383687856E+02  0.00000000000E+00 0.  1.
         13    1    4    4    0    0 -0.29647521718E+02  0.34749825483E+02  0.44135497471E+01  0.45891233765E+02  0.00000000000E+00 0. -1.
          2    1    1    2  501    0  0.78571389969E+02  0.44717207844E+02 -0.38584029120E+02  0.98294553776E+02  0.00000000000E+00 0. -1.
<scales pt_clust_5="13000.00000" pt_clust_6="13000.00000" pt_clust_7="13000.00000" pt_clust_8="13000.00000" pt_clust_9="80.55358"></scales>
<clustering>
<clus scale="   77.188">  5  6 -1 -1</clus>
<clus scale="   84.182">  2  5  1 -1</clus>
<clus scale="   80.554">  1  9  2 -1</clus>
<clus scale="   92.835">  7  8 -1 -1</clus>
<clus scale="   80.554">  1  5  2 -1</clus>
</clustering>
</event>
<event>
 9    1  0.6345107E-005  0.1581527E+03  0.7546771E-02  0.1192210E+00
          1   -1    0    0  502    0 -0.00000000000E+00  0.00000000000E+00  0.23539273292E+03  0.23539273292E+03  0.00000000000E+00 0. -1.
         21   -1    0    0  501  502  0.00000000000E+00 -0.00000000000E+00 -0.36960948932E+03  0.36960948932E+03  0.00000000000E+00 0.  1.
        -24    2    1    2    0    0 -0.11748201348E+03 -0.66164527241E+02  0.17981282442E+03  0.23914936703E+03  0.81731265576E+02 0.  0.
         23    2    1    2    0    0  0.59791828719E+02  0.65902092567E+02 -0.24475393088E+03  0.27570108339E+03  0.90490066380E+02 0.  0.
         11    1    3    3    0    0 -0.10087830955E+03 -0.47962070675E+02  0.18290826699E+03  0.21431805265E+03  0.00000000000E+00 0. -1.
        -12    1    3    3    0    0 -0.16603703933E+02 -0.18202456565E+02 -0.30954425701E+01  0.24831314384E+02  0.00000000000E+00 0.  1.
        -11    1    4    4    0    0  0.90217553268E+01  0.40264375695E+02 -0.23993258533E+02  0.47731420200E+02  0.00000000000E+00 0. -1.
         11    1    4    4    0    0  0.50770073392E+02  0.25637716872E+02 -0.22076067235E+03  0.22796966319E+03  0.00000000000E+00 0.  1.
          2    1    1    2  501    0  0.57690184761E+02  0.26243467365E+00 -0.69275649937E+02  0.90151771829E+02  0.00000000000E+00 0. -1.
<scales pt_clust_5="13000.00000" pt_clust_6="13000.00000" pt_clust_7="13000.00000" pt_clust_8="13000.00000" pt_clust_9="57.69078"></scales>
<clustering>
<clus scale="   57.691">  2  9  1 -1</clus>
<clus scale="   81.731">  5  6 -1 -1</clus>
<clus scale="   90.490">  7  8 -1 -1</clus>
<clus scale="  153.310">  1  5  2 -1</clus>
<clus scale="   57.691">  2  5  1 -1</clus>
</clustering>
</event>
<event>
 9    1  0.6345107E-005  0.3314621E+03  0.7546771E-02  0.1104338E+00
         21   -1    0    0  501  502  0.00000000000E+00  0.00000000000E+00  0.87773723872E+02  0.87773723872E+02  0.00000000000E+00 0. -1.
          1   -1    0    0  502    0 -0.00000000000E+00 -0.00000000000E+00 -0.19339630975E+04  0.19339630975E+04  0.00000000000E+00 0. -1.
        -24    2    1    2    0    0 -0.65922225477E+02 -0.84648931279E+02 -0.46174542929E+03  0.48103488193E+03  0.81697826069E+02 0.  0.
         23    2    1    2    0    0  0.17597901421E+03 -0.24648752666E+03 -0.53106812888E+03  0.61873982908E+03  0.95293779125E+02 0.  0.
         11    1    3    3    0    0 -0.53341956177E+02 -0.84172830505E+02 -0.45674399558E+03  0.46748851021E+03  0.00000000000E+00 0. -1.
        -12    1    3    3    0    0 -0.12580269300E+02 -0.47610077406E+00 -0.50014337162E+01  0.13546371721E+02  0.00000000000E+00 0.  1.
        -13    1    4    4    0    0  0.91452951228E+02 -0.92002765702E+02 -0.31042050000E+03  0.33643578585E+03  0.00000000000E+00 0.  1.
         13    1    4    4    0    0  0.84526062985E+02 -0.15448476096E+03 -0.22064762889E+03  0.28230404323E+03  0.00000000000E+00 0. -1.
          2    1    1    2  501    0 -0.11005678874E+03  0.33113645794E+03 -0.85337581540E+03  0.92196211031E+03  0.00000000000E+00 0. -1.
<scales pt_clust_5="13000.00000" pt_clust_6="13000.00000" pt_clust_7="13000.00000" pt_clust_8="13000.00000" pt_clust_9="317.46861"></scales>
<clustering>
<clus scale="   81.698">  5  6 -1 -1</clus>
<clus scale="   95.294">  7  8 -1 -1</clus>
<clus scale="  134.854">  2  5  1 -1</clus>
<clus scale="  317.469">  1  9  2 -1</clus>
<clus scale="  317.469">  1  5  2 -1</clus>
</clustering>
</event>
<event>
 9    1  0.6345107E-005  0.1475977E+03  0.7546771E-02  0.1206846E+00
         -4   -1    0    0    0  501 -0.00000000000E+00  0.00000000000E+00  0.39704260319E+03  0.39704260319E+03  0.00000000000E+00 0.  1.
         21   -1    0    0  501  502  0.00000000000E+00 -0.00000000000E+00 -0.18556466614E+03  0.18556466614E+03  0.00000000000E+00 0.  1.
        -24    2    1    2    0    0 -0.66240333463E+01 -0.12879704061E+03 -0.92864975927E+01  0.14859736475E+03  0.73228288819E+02 0.  0.
         23    2    1    2    0    0 -0.10992065939E+03  0.79421423491E+02 -0.17341553218E+02  0.16435256938E+03  0.91218001083E+02 0.  0.
         13    1    3    3    0    0 -0.15311602317E+02 -0.12948946605E+02 -0.24246773710E+02  0.31464685269E+02  0.00000000000E+00 0. -1.
        -14    1    3    3    0    0  0.86875689712E+01 -0.11584809401E+03  0.14960276117E+02  0.11713267948E+03  0.00000000000E+00 0.  1.
        -13    1    4    4    0    0 -0.61244701598E+02  0.68403934618E+02 -0.50158371525E+02  0.10462253093E+03  0.00000000000E+00 0.  1.
         13    1    4    4    0    0 -0.48675957797E+02  0.11017488873E+02  0.32816818307E+02  0.59730038442E+02  0.00000000000E+00 0. -1.
         -3    1    1    2    0  502  0.11654469274E+03  0.49375617123E+02  0.23810598786E+03  0.26965733520E+03  0.00000000000E+00 0.  1.
<scales pt_clust_5="13000.00000" pt_clust_6="13000.00000" pt_clust_7="13000.00000" pt_clust_8="13000.00000" pt_clust_9="126.57264"></scales>
<clustering>
<clus scale="   73.228">  5  6 -1 -1</clus>
<clus scale="   91.218">  7  8 -1 -1</clus>
<clus scale="  126.573">  2  9  1 -1</clus>
<clus scale="  137.211">  1  5  2 -1</clus>
<clus scale="  126.573">  2  5  1 -1</clus>
</clustering>
</event>
<event>
 9    1  0.6345107E-005  0.1049483E+03  0.7546771E-02  0.1274893E+00
          1   -1    0    0  502    0 -0.00000000000E+00  0.00000000000E+00  0.10168101119E+04  0.10168101119E+04  0.00000000000E+00 0. -1.
         21   -1    0    0  501  502  0.00000000000E+00 -0.00000000000E+00 -0.19098001719E+02  0.19098001719E+02  0.00000000000E+00 0. -1.
        -24    2    1    2    0    0 -0.44387518610E+02 -0.21259884661E+02  0.32185975114E+03  0.33547742023E+03  0.80803252279E+02 0.  0.
         23    2    1    2    0    0  0.21648193364E+01  0.73135193138E+02  0.42846461253E+03  0.44416032622E+03  0.91340178879E+02 0.  0.
         13    1    3    3    0    0 -0.41079012380E+02  0.17151089811E+02  0.24996576156E+03  0.25389865516E+03  0.00000000000E+00 0. -1.
        -14    1    3    3    0    0 -0.33085062296E+01 -0.38410974472E+02  0.71893989583E+02  0.81578765077E+02  0.00000000000E+00 0.  1.
        -13    1    4    4    0    0  0.18412860493E+02  0.90769541114E+02  0.35491014192E+03  0.36679606305E+03  0.00000000000E+00 0.  1.
         13    1    4    4    0    0 -0.16248041157E+02 -0.17634347977E+02  0.73554470608E+02  0.77364263174E+02  0.00000000000E+00 0. -1.
          2    1    1    2  501    0  0.42222699274E+02 -0.51875308477E+02  0.24738774650E+03  0.25627036716E+03  0.00000000000E+00 0. -1.
<scales pt_clust_5="13000.00000" pt_clust_6="13000.00000" pt_clust_7="13000.00000" pt_clust_8="13000.00000" pt_clust_9="66.88653"></scales>
<clustering>
<clus scale="   66.887">  2  9  1 -1</clus>
<clus scale="   80.803">  5  6 -1 -1</clus>
<clus scale="   91.340">  7  8 -1 -1</clus>
<clus scale="   95.918">  1  5  2 -1</clus>
<clus scale="   66.887">  2  5  1 -1</clus>
</clustering>
</event>
<event>
 9    1  0.6345107E-005  0.1240388E+03  0.7546771E-02  0.1239462E+00
         21   -1    0    0  501  502  0.00000000000E+00  0.00000000000E+00  0.14245240079E+03  0.14245240079E+03  0.00000000000E+00 0. -1.
          1   -1    0    0  502    0 -0.00000000000E+00 -0.00000000000E+00 -0.22764980240E+03  0.22764980240E+03  0.00000000000E+00 0. -1.
         23    2    1    2    0    0 -0.46668430934E+02 -0.82342041717E+02 -0.15112656242E+03  0.19993799036E+03  0.90431232670E+02 0.  0.
        -24    2    1    2    0    0  0.56679847741E+02  0.31092756073E+02  0.32676275936E+02  0.10825724958E+03  0.80452025809E+02 0.  0.
         11    1    4    4    0    0  0.52981075876E+02  0.14432478523E+01 -0.12159396524E+02  0.54377645124E+02  0.00000000000E+00 0. -1.
        -12    1    4    4    0    0  0.36987718645E+01  0.29649508221E+02  0.44835672461E+02  0.53879604453E+02  0.00000000000E+00 0.  1.
        -11    1    3    3    0    0 -0.57706724196E+02 -0.25141846351E+02 -0.11581659368E+03  0.13181677370E+03  0.00000000000E+00 0. -1.
         11    1    3    3    0    0  0.11038293262E+02 -0.57200195366E+02 -0.35309968733E+02  0.68121216666E+02  0.00000000000E+00 0.  1.
          2    1    1    2  501    0 -0.10011416807E+02  0.51249285644E+02  0.33252884873E+02  0.61906963242E+02  0.00000000000E+00 0. -1.
<scales pt_clust_5="13000.00000" pt_clust_6="13000.00000" pt_clust_7="13000.00000" pt_clust_8="13000.00000" pt_clust_9="52.21798"></scales>
<clustering>
<clus scale="   52.218">  1  9  2 -1</clus>
<clus scale="   80.452">  5  6 -1 -1</clus>
<clus scale="   90.431">  7  8 -1 -1</clus>
<clus scale="  116.963">  1  5  2 -1</clus>
<clus scale="   52.218">  1  5  2 -1</clus>
</clustering>
</event>
<event>
 9    1  0.6345107E-005  0.1958158E+03  0.7546771E-02  0.1154646E+00
          1   -1    0    0  502    0 -0.00000000000E+00  0.00000000000E+00  0.62580963223E+03  0.62580963223E+03  0.00000000000E+00 0. -1.
         21   -1    0    0  501  502  0.00000000000E+00 -0.00000000000E+00 -0.17216578586E+03  0.17216578586E+03  0.00000000000E+00 0. -1.
         23    2    1    2    0    0  0.83195627554E+02  0.15208690887E+03  0.53881372767E+03  0.57383433065E+03  0.94412211190E+02 0.  0.
        -24    2    1    2    0    0 -0.95398793194E+02 -0.12813625637E+03 -0.65322997828E+02  0.19072776988E+03  0.81179789462E+02 0.  0.
         13    1    4    4    0    0 -0.80377988153E+02 -0.55546665316E+02 -0.63599684691E+02  0.11658032810E+03  0.00000000000E+00 0. -1.
        -14    1    4    4    0    0 -0.15020805041E+02 -0.72589591058E+02 -0.17233131372E+01  0.74147441778E+02  0.00000000000E+00 0.  1.
        -11    1    3    3    0    0 -0.91698401258E+01  0.48094004051E+02  0.74604116962E+02  0.89235046149E+02  0.00000000000E+00 0.  1.
         11    1    3    3    0    0  0.92365467680E+02  0.10399290482E+03  0.46420961070E+03  0.48459928451E+03  0.00000000000E+00 0. -1.
          2    1    1    2  501    0  0.12203165639E+02 -0.23950652497E+02 -0.19846883468E+02  0.33413317555E+02  0.00000000000E+00 0. -1.
<scales pt_clust_5="13000.00000" pt_clust_6="13000.00000" pt_clust_7="13000.00000" pt_clust_8="13000.00000" pt_clust_9="26.88031"></scales>
<clustering>
<clus scale="   26.880">  2  9  1 -1</clus>
<clus scale="   81.180">  5  6 -1 -1</clus>
<clus scale="   94.412">  7  8 -1 -1</clus>
<clus scale="  189.790">  2  5  1 -1</clus>
<clus scale="   26.880">  2  5  1 -1</clus>
</clustering>
</event>
<event>
 9    1  0.6345107E-005  0.1384045E+03  0.7546771E-02  0.1231972E+00
         21   -1    0    0  501  502  0.00000000000E+00  0.00000000000E+00  0.42124004214E+03  0.42124004214E+03  0.00000000000E+00 0. -1.
          3   -1    0    0  502    0 -0.00000000000E+00 -0.00000000000E+00 -0.84204971252E+02  0.84204971252E+02  0.00000000000E+00 0. -1.
         23    2    1    2    0    0 -0.11153453085E+02 -0.30743306870E+02  0.32459288876E+02  0.10335971196E+03  0.92520668979E+02 0.  0.
        -24    2    1    2    0    0 -0.83552231383E+02 -0.55811579988E+02  0.19035969758E+03  0.23031152855E+03  0.81918727342E+02 0.  0.
         11    1    4    4    0    0 -0.51238146026E+02 -0.40712273907E+02  0.42085390212E+02  0.77807563412E+02  0.00000000000E+00 0. -1.
        -12    1    4    4    0    0 -0.32314085357E+02 -0.15099306081E+02  0.14827430737E+03  0.15250396513E+03  0.00000000000E+00 0.  1.
        -11    1    3    3    0    0 -0.34689182316E+02 -0.49931546387E+01 -0.20006058309E+02  0.40354842734E+02  0.00000000000E+00 0.  1.
         11    1    3    3    0    0  0.23535729232E+02 -0.25750152231E+02  0.52465347185E+02  0.63004869222E+02  0.00000000000E+00 0. -1.
          4    1    1    2  501    0  0.94705684468E+02  0.86554886858E+02  0.11421608444E+03  0.17177377289E+03  0.00000000000E+00 0. -1.
<scales pt_clust_5="13000.00000" pt_clust_6="13000.00000" pt_clust_7="13000.00000" pt_clust_8="13000.00000" pt_clust_9="111.55777"></scales>
<clustering>
<clus scale="   81.919">  5  6 -1 -1</clus>
<clus scale="   92.521">  7  8 -1 -1</clus>
<clus scale="   98.131">  2  7  1 -1</clus>
<clus scale="  111.558">  1  9  2 -1</clus>
<clus scale="  111.558">  1  5  2 -1</clus>
</clustering>
</event>
<event>
 9    1  0.6345107E-005  0.1001380E+03  0.7546771E-02  0.1289561E+00
         21   -1    0    0  501  502  0.00000000000E+00  0.00000000000E+00  0.18047947625E+03  0.18047947625E+03  0.00000000000E+00 0. -1.
          1   -1    0    0  502    0 -0.00000000000E+00 -0.00000000000E+00 -0.17819343536E+03  0.17819343536E+03  0.00000000000E+00 0. -1.
        -24    2    1    2    0    0 -0.28237091728E+02  0.23353975393E+02 -0.14058688984E+03  0.16416364046E+03  0.76434846367E+02 0.  0.
         23    2    1    2    0    0 -0.18567806896E+01 -0.16844440193E+02  0.81057210091E+02  0.12544988712E+03  0.94234919592E+02 0.  0.
         13    1    3    3    0    0  0.21945455755E+02  0.22961149821E+02 -0.76013340237E+02  0.82382311957E+02  0.00000000000E+00 0. -1.
        -14    1    3    3    0    0 -0.50182547483E+02  0.39282557208E+00 -0.64573549598E+02  0.81781328502E+02  0.00000000000E+00 0.  1.
        -13    1    4    4    0    0  0.33508098405E+02 -0.39458409227E+02  0.31888999942E+02  0.60800222325E+02  0.00000000000E+00 0.  1.
         13    1    4    4    0    0 -0.35364879094E+02  0.22613969034E+02  0.49168210149E+02  0.64649664794E+02  0.00000000000E+00 0. -1.
          2    1    1    2  501    0  0.30093872418E+02 -0.65095352004E+01  0.61815720634E+02  0.69059384034E+02  0.00000000000E+00 0. -1.
<scales pt_clust_5="13000.00000" pt_clust_6="13000.00000" pt_clust_7="13000.00000" pt_clust_8="13000.00000" pt_clust_9="30.78986"></scales>
<clustering>
<clus scale="   30.790">  1  9  2 -1</clus>
<clus scale="   76.435">  5  6 -1 -1</clus>
<clus scale="   83.604">  2  5  1 -1</clus>
<clus scale="   94.235">  7  8 -1 -1</clus>
<clus scale="   30.790">  1  5  2 -1</clus>
</clustering>
</event>
<event>
 9    1  0.6345107E-005  0.2688626E+03  0.7546771E-02  0.1144411E+00
         21   -1    0    0  501  502  0.00000000000E+00  0.00000000000E+00  0.81019979169E+03  0.81019979169E+03  0.00000000000E+00 0. -1.
          1   -1    0    0  502    0 -0.00000000000E+00 -0.00000000000E+00 -0.12471281969E+03  0.12471281969E+03  0.00000000000E+00 0. -1.
        -24    2    1    2    0    0 -0.39633704485E+02  0.30373115887E+02  0.97064524013E+02  0.13474805468E+03  0.79007339645E+02 0.  0.
         23    2    1    2    0    0  0.25777386929E+02  0.23265160013E+03  0.16369724214E+03  0.30039911246E+03  0.93013971846E+02 0.  0.
         11    1    3    3    0    0 -0.42209860575E+02  0.15889006051E+02  0.96730906098E+01  0.46127015133E+02  0.00000000000E+00 0. -1.
        -12    1    3    3    0    0  0.25761560900E+01  0.14484109836E+02  0.87391433403E+02  0.88621039546E+02  0.00000000000E+00 0.  1.
        -13    1    4    4    0    0  0.56856811483E+02  0.18130573330E+03  0.10822683682E+03  0.21867216134E+03  0.00000000000E+00 0. -1.
         13    1    4    4    0    0 -0.31079424554E+02  0.51345866837E+02  0.55470405324E+02  0.81726951116E+02  0.00000000000E+00 0.  1.
          2    1    1    2  501    0  0.13856317556E+02 -0.26302471602E+03  0.42472520585E+03  0.49976544424E+03  0.00000000000E+00 0. -1.
<scales pt_clust_5="13000.00000" pt_clust_6="13000.00000" pt_clust_7="13000.00000" pt_clust_8="13000.00000" pt_clust_9="252.26072"></scales>
<clustering>
<clus scale="   79.007">  5  6 -1 -1</clus>
<clus scale="   93.014">  7  8 -1 -1</clus>
<clus scale="   93.464">  2  5  1 -1</clus>
<clus scale="  252.261">  1  9  2 -1</clus>
<clus scale="  252.261">  1  5  2 -1</clus>
</clustering>
</event>
<event>
 9    1  0.6345107E-005  0.1473937E+03  0.7546771E-02  0.1205790E+00
          3   -1    0    0  502    0 -0.00000000000E+00  0.00000000000E+00  0.15472647639E+03  0.15472647639E+03  0.00000000000E+00 0. -1.
         21   -1    0    0  501  502  0.00000000000E+00 -0.00000000000E+00 -0.19413020473E+03  0.19413020473E+03  0.00000000000E+00 0.  1.
         23    2    1    2    0    0  0.10487071682E+03  0.71257804387E+02  0.49458110861E+02  0.16394854584E+03  0.91419248628E+02 0.  0.
        -24    2    1    2    0    0 -0.68721229359E+02 -0.65068813025E+02 -0.77580372918E+02  0.14653678478E+03  0.80608667258E+02 0.  0.
         13    1    4    4    0    0 -0.20348063187E+02  0.57777522151E+01  0.10473270519E+02  0.23603294081E+02  0.00000000000E+00 0. -1.
        -14    1    4    4    0    0 -0.48373166172E+02 -0.70846565240E+02 -0.88053643437E+02  0.12293349069E+03  0.00000000000E+00 0.  1.
        -11    1    3    3    0    0  0.63475425105E+02 -0.78758292614E+01  0.49175181744E+01  0.64150917872E+02  0.00000000000E+00 0.  1.
         11    1    3    3    0    0  0.41395291716E+02  0.79133633649E+02  0.44540592687E+02  0.99797627966E+02  0.00000000000E+00 0. -1.
          4    1    1    2  501    0 -0.36149487463E+02 -0.61889913629E+01 -0.11281466289E+02  0.38371350504E+02  0.00000000000E+00 0. -1.
<scales pt_clust_5="13000.00000" pt_clust_6="13000.00000" pt_clust_7="13000.00000" pt_clust_8="13000.00000" pt_clust_9="36.67546"></scales>
<clustering>
<clus scale="   36.675">  2  9  1 -1</clus>
<clus scale="   80.609">  5  6 -1 -1</clus>
<clus scale="   91.419">  7  8 -1 -1</clus>
<clus scale="  140.944">  2  5  1 -1</clus>
<clus scale="   36.675">  2  5  1 -1</clus>
</clustering>
</event>
<event>
 9    1  0.6345107E-005  0.1488515E+03  0.7546771E-02  0.1219982E+00
          1   -1    0    0  502    0 -0.00000000000E+00  0.00000000000E+00  0.90944020231E+02  0.90944020231E+02  0.00000000000E+00 0. -1.
         21   -1    0    0  501  502  0.00000000000E+00 -0.00000000000E+00 -0.47085881611E+03  0.47085881611E+03  0.00000000000E+00 0. -1.
        -24    2    1    2    0    0 -0.50509541420E+02 -0.32688410261E+02 -0.93160760175E+01  0.10164181403E+03  0.81391173645E+02 0.  0.
         23    2    1    2    0    0 -0.79689236348E+02  0.65144997785E+02 -0.17793050603E+03  0.22537134531E+03  0.92405265995E+02 0.  0.
         11    1    3    3    0    0 -0.54060716368E+02 -0.50067042501E+02  0.11190185013E+02  0.74528451209E+02  0.00000000000E+00 0. -1.
        -12    1    3    3    0    0  0.35511749480E+01  0.17378632240E+02 -0.20506261031E+02  0.27113362822E+02  0.00000000000E+00 0.  1.
        -13    1    4    4    0    0 -0.74696938693E+02  0.60042655694E+01 -0.12553859178E+03  0.14620404195E+03  0.00000000000E+00 0. -1.
         13    1    4    4    0    0 -0.49922976550E+01  0.59140732215E+02 -0.52391914251E+02  0.79167303363E+02  0.00000000000E+00 0.  1.
          2    1    1    2  501    0  0.13019877777E+03 -0.32456587524E+02 -0.19266821383E+03  0.23478967700E+03  0.00000000000E+00 0. -1.
<scales pt_clust_5="13000.00000" pt_clust_6="13000.00000" pt_clust_7="13000.00000" pt_clust_8="13000.00000" pt_clust_9="116.69638"></scales>
<clustering>
<clus scale="   81.391">  5  6 -1 -1</clus>
<clus scale="   92.405">  7  8 -1 -1</clus>
<clus scale="  101.214">  1  5  2 -1</clus>
<clus scale="  116.696">  2  9  1 -1</clus>
<clus scale="  116.696">  2  5  1 -1</clus>
</clustering>
</event>
<event>
 9    1  0.6345107E-005  0.9704258E+02  0.7546771E-02  0.1292241E+00
         -2   -1    0    0    0  501 -0.00000000000E+00  0.00000000000E+00  0.42497205471E+03  0.42497205471E+03  0.00000000000E+00 0.  1.
         21   -1    0    0  501  502  0.00000000000E+00 -0.00000000000E+00 -0.13152681691E+03  0.13152681691E+03  0.00000000000E+00 0.  1.
         23    2    1    2    0    0 -0.22508457607E+02  0.28579956271E+02  0.36578543737E+03  0.37850219419E+03  0.90230151552E+02 0.  0.
        -24    2    1    2    0    0 -0.22628626629E+02 -0.51473040142E+02 -0.10568326435E+02  0.98139217093E+02  0.79737618496E+02 0.  0.
         11    1    4    4    0    0  0.12190137766E+02 -0.19709633992E+02  0.28633203222E+02  0.36836523419E+02  0.00000000000E+00 0. -1.
        -12    1    4    4    0    0 -0.34818764396E+02 -0.31763406150E+02 -0.39201529656E+02  0.61302693674E+02  0.00000000000E+00 0.  1.
        -13    1    3    3    0    0  0.27611658718E+02 -0.12217574211E+02  0.80188158989E+02  0.85684383985E+02  0.00000000000E+00 0. -1.
         13    1    3    3    0    0 -0.50120116326E+02  0.40797530482E+02  0.28559727838E+03  0.29281781020E+03  0.00000000000E+00 0.  1.
         -1    1    1    2    0  502  0.45137084237E+02  0.22893083871E+02 -0.61771873133E+02  0.79857460346E+02  0.00000000000E+00 0.  1.
<scales pt_clust_5="13000.00000" pt_clust_6="13000.00000" pt_clust_7="13000.00000" pt_clust_8="13000.00000" pt_clust_9="50.61077"></scales>
<clustering>
<clus scale="   50.611">  2  9  1 -1</clus>
<clus scale="   79.738">  5  6 -1 -1</clus>
<clus scale="   87.372">  2  5  1 -1</clus>
<clus scale="   90.230">  7  8 -1 -1</clus>
<clus scale="   50.611">  2  5  1 -1</clus>
</clustering>
</event>
<event>
 9    1  0.6345107E-005  0.1686400E+03  0.7546771E-02  0.1198702E+00
         21   -1    0    0  501  502  0.00000000000E+00  0.00000000000E+00  0.52807663570E+03  0.52807663570E+03  0.00000000000E+00 0. -1.
          1   -1    0    0  502    0 -0.00000000000E+00 -0.00000000000E+00 -0.49304063950E+03  0.49304063950E+03  0.00000000000E+00 0. -1.
         23    2    1    2    0    0  0.46459970326E+02 -0.39281570241E+02 -0.34414438682E+03  0.36120522309E+03  0.91281343143E+02 0.  0.
        -24    2    1    2    0    0  0.91311281098E+02 -0.19429824806E+02 -0.97600519357E+02  0.16016414116E+03  0.86089619509E+02 0.  0.
         13    1    4    4    0    0  0.99753478285E+02 -0.25241324766E+02 -0.10538917076E+03  0.14729140579E+03  0.00000000000E+00 0. -1.
        -14    1    4    4    0    0 -0.84421971866E+01  0.58114999605E+01  0.77886514071E+01  0.12872735369E+02  0.00000000000E+00 0.  1.
        -11    1    3    3    0    0 -0.15562937845E+02  0.13116491250E+02 -0.26880225504E+02  0.33716374364E+02  0.00000000000E+00 0.  1.
         11    1    3    3    0    0  0.62022908171E+02 -0.52398061491E+02 -0.31726416131E+03  0.32748884873E+03  0.00000000000E+00 0. -1.
          2    1    1    2  501    0 -0.13777125142E+03  0.58711395047E+02  0.47678090238E+03  0.49974791095E+03  0.00000000000E+00 0. -1.
<scales pt_clust_5="13000.00000" pt_clust_6="13000.00000" pt_clust_7="13000.00000" pt_clust_8="13000.00000" pt_clust_9="145.01048"></scales>
<clustering>
<clus scale="   86.090">  5  6 -1 -1</clus>
<clus scale="   91.281">  7  8 -1 -1</clus>
<clus scale="  109.699">  2  7  1 -1</clus>
<clus scale="  145.010">  1  9  2 -1</clus>
<clus scale="  145.010">  1  5  2 -1</clus>
</clustering>
</event>
<event>
 9    1  0.6345107E-005  0.1415958E+03  0.7546771E-02  0.1212901E+00
          3   -1    0    0  502    0 -0.00000000000E+00  0.00000000000E+00  0.30539479708E+03  0.30539479708E+03  0.00000000000E+00 0. -1.
         21   -1    0    0  501  502  0.00000000000E+00 -0.00000000000E+00 -0.12145960285E+03  0.12145960285E+03  0.00000000000E+00 0. -1.
         23    2    1    2    0    0 -0.14264062413E+02 -0.13811211886E+03  0.83219453972E+02  0.18553537759E+03  0.90661336658E+02 0.  0.
        -24    2    1    2    0    0  0.24615533527E+02  0.70397397015E+02 -0.93737004804E+01  0.11165745721E+03  0.82569991477E+02 0.  0.
         13    1    4    4    0    0  0.35920507988E+02  0.66422496618E+02  0.21521110154E+02  0.78519991935E+02  0.00000000000E+00 0. -1.
        -14    1    4    4    0    0 -0.11304974461E+02  0.39749003966E+01 -0.30894810635E+02  0.33137465275E+02  0.00000000000E+00 0.  1.
        -13    1    3    3    0    0 -0.44807201941E+02 -0.12219342217E+03  0.56226227224E+02  0.14177554936E+03  0.00000000000E+00 0. -1.
         13    1    3    3    0    0  0.30543139528E+02 -0.15918696689E+02  0.26993226748E+02  0.43759828231E+02  0.00000000000E+00 0.  1.
          4    1    1    2  501    0 -0.10351471114E+02  0.67714721844E+02  0.11008944074E+03  0.12966156513E+03  0.00000000000E+00 0. -1.
<scales pt_clust_5="13000.00000" pt_clust_6="13000.00000" pt_clust_7="13000.00000" pt_clust_8="13000.00000" pt_clust_9="68.50140"></scales>
<clustering>
<clus scale="   68.501">  2  9  1 -1</clus>
<clus scale="   82.570">  5  6 -1 -1</clus>
<clus scale="   90.661">  7  8 -1 -1</clus>
<clus scale="  136.557">  2  5  1 -1</clus>
<clus scale="   68.501">  2  5  1 -1</clus>
</clustering>
</event>
<event>
 9    1  0.6345107E-005  0.1609321E+03  0.7546771E-02  0.1189752E+00
         21   -1    0    0  501  502  0.00000000000E+00  0.00000000000E+00  0.99896268592E+02  0.99896268592E+02  0.00000000000E+00 0. -1.
          3   -1    0    0  502    0 -0.00000000000E+00 -0.00000000000E+00 -0.56260190193E+03  0.56260190193E+03  0.00000000000E+00 0. -1.
         23    2    1    2    0    0 -0.15871815883E+03 -0.56868881315E+01 -0.34379691498E+03  0.38971999338E+03  0.91986737405E+02 0.  0.
        -24    2    1    2    0    0  0.90696171669E+02  0.60542085892E+02 -0.12718948575E+03  0.18500201541E+03  0.78469361562E+02 0.  0.
         13    1    4    4    0    0  0.77280107531E+01  0.19050834501E+02  0.71327249556E+01  0.21760795267E+02  0.00000000000E+00 0. -1.
        -14    1    4    4    0    0  0.82968160916E+02  0.41491251391E+02 -0.13432221070E+03  0.16324122015E+03  0.00000000000E+00 0.  1.
        -11    1    3    3    0    0 -0.10551134979E+03 -0.45958029696E+02 -0.24244613521E+03  0.26837457761E+03  0.00000000000E+00 0. -1.
         11    1    3    3    0    0 -0.53206809033E+02  0.40271141565E+02 -0.10135077977E+03  0.12134541578E+03  0.00000000000E+00 0.  1.
          4    1    1    2  501    0  0.68021987157E+02 -0.54855197760E+02  0.82807673850E+01  0.87776161722E+02  0.00000000000E+00 0. -1.
<scales pt_clust_5="13000.00000" pt_clust_6="13000.00000" pt_clust_7="13000.00000" pt_clust_8="13000.00000" pt_clust_9="87.38469"></scales>
<clustering>
<clus scale="   78.469">  5  6 -1 -1</clus>
<clus scale="   87.385">  1  9  2 -1</clus>
<clus scale="   91.987">  7  8 -1 -1</clus>
<clus scale="  153.607">  1  5  2 -1</clus>
<clus scale="   87.385">  1  5  2 -1</clus>
</clustering>
</event>
<event>
 9    1  0.6345107E-005  0.1188573E+03  0.7546771E-02  0.1248256E+00
          3   -1    0    0  502    0 -0.00000000000E+00  0.00000000000E+00  0.37709326106E+03  0.37709326106E+03  0.00000000000E+00 0. -1.
         21   -1    0    0  501  502  0.00000000000E+00 -0.00000000000E+00 -0.64889583811E+02  0.64889583811E+02  0.00000000000E+00 0.  1.
         23    2    1    2    0    0  0.82737070311E+02  0.30949472575E+01  0.26035444090E+03  0.28806028954E+03  0.91319735059E+02 0.  0.
        -24    2    1    2    0    0 -0.62263631221E+02 -0.12088111517E+02  0.70430361847E+02  0.12484856460E+03  0.81264051099E+02 0.  0.
         13    1    4    4    0    0 -0.43707268358E+02 -0.10200501780E+02  0.88278535088E+02  0.99032698142E+02  0.00000000000E+00 0. -1.
        -14    1    4    4    0    0 -0.18556362862E+02 -0.18876097365E+01 -0.17848173241E+02  0.25815866463E+02  0.00000000000E+00 0.  1.
        -13    1    3    3    0    0  0.40808598629E+02 -0.41973981666E+02  0.15950294230E+03  0.16990687291E+03  0.00000000000E+00 0.  1.
         13    1    3    3    0    0  0.41928471682E+02  0.45068928924E+02  0.10085149860E+03  0.11815341663E+03  0.00000000000E+00 0. -1.
          4    1    1    2  501    0 -0.20473439091E+02  0.89931642593E+01 -0.18581125503E+02  0.29073990723E+02  0.00000000000E+00 0. -1.
<scales pt_clust_5="13000.00000" pt_clust_6="13000.00000" pt_clust_7="13000.00000" pt_clust_8="13000.00000" pt_clust_9="22.36155"></scales>
<clustering>
<clus scale="   22.362">  2  9  1 -1</clus>
<clus scale="   81.264">  5  6 -1 -1</clus>
<clus scale="   91.320">  7  8 -1 -1</clus>
<clus scale="  111.318">  2  5  1 -1</clus>
<clus scale="   22.362">  2  5  1 -1</clus>
</clustering>
</event>
<event>
 9    1  0.6345107E-005  0.1072186E+03  0.7546771E-02  0.1282153E+00
          3   -1    0    0  502    0 -0.00000000000E+00  0.00000000000E+00  0.46327672414E+03  0.46327672414E+03  0.00000000000E+00 0. -1.
         21   -1    0    0  501  502  0.00000000000E+00 -0.00000000000E+00 -0.12157089437E+03  0.12157089437E+03  0.00000000000E+00 0. -1.
         23    2    1    2    0    0  0.18813789398E+02 -0.19774950892E+02  0.35812925556E+03  0.37468183697E+03  0.10670008392E+03 0.  0.
        -24    2    1    2    0    0  0.42874824682E+02 -0.20570625035E+02  0.55970096478E+02  0.10685037770E+03  0.77607669134E+02 0.  0.
         11    1    4    4    0    0  0.59439590073E+02  0.52854192732E+01  0.30846616841E+02  0.67175250618E+02  0.00000000000E+00 0. -1.
        -12    1    4    4    0    0 -0.16564765391E+02 -0.25856044308E+02  0.25123479637E+02  0.39675127079E+02  0.00000000000E+00 0.  1.
        -11    1    3    3    0    0  0.61564443223E+02 -0.60417665987E+01  0.16032852729E+03  0.17184853877E+03  0.00000000000E+00 0. -1.
         11    1    3    3    0    0 -0.42750653826E+02 -0.13733184293E+02  0.19780072827E+03  0.20283329820E+03  0.00000000000E+00 0.  1.
          4    1    1    2  501    0 -0.61688614079E+02  0.40345575927E+02 -0.72393522274E+02  0.10331540384E+03  0.00000000000E+00 0. -1.
<scales pt_clust_5="13000.00000" pt_clust_6="13000.00000" pt_clust_7="13000.00000" pt_clust_8="13000.00000" pt_clust_9="73.71059"></scales>
<clustering>
<clus scale="   73.711">  2  9  1 -1</clus>
<clus scale="   77.608">  5  6 -1 -1</clus>
<clus scale="   78.319">  2  5  1 -1</clus>
<clus scale="  106.700">  7  8 -1 -1</clus>
<clus scale="   73.711">  2  5  1 -1</clus>
</clustering>
</event>
<event>
 9    1  0.6345107E-005  0.1012806E+03  0.7546771E-02  0.1283059E+00
          1   -1    0    0  502    0 -0.00000000000E+00  0.00000000000E+00  0.14870245192E+03  0.14870245192E+03  0.00000000000E+00 0. -1.
         21   -1    0    0  501  502  0.00000000000E+00 -0.00000000000E+00 -0.14773959434E+03  0.14773959434E+03  0.00000000000E+00 0. -1.
         23    2    1    2    0    0 -0.19822225581E+02 -0.30668916374E+02  0.56668294672E+02  0.11362136402E+03  0.91460459664E+02 0.  0.
        -24    2    1    2    0    0  0.67189733170E+02  0.10201147782E+02  0.22411084649E+01  0.10522936527E+03  0.80309856736E+02 0.  0.
         13    1    4    4    0    0  0.58163693541E+02 -0.18307188531E+02 -0.23917206670E+02  0.65499627275E+02  0.00000000000E+00 0. -1.
        -14    1    4    4    0    0  0.90260396283E+01  0.28508336312E+02  0.26158315135E+02  0.39729737998E+02  0.00000000000E+00 0.  1.
        -11    1    3    3    0    0 -0.55192141932E+02 -0.13613183353E+02  0.21087267912E+02  0.60631379335E+02  0.00000000000E+00 0.  1.
         11    1    3    3    0    0  0.35369916351E+02 -0.17055733021E+02  0.35581026760E+02  0.52989984684E+02  0.00000000000E+00 0. -1.
          2    1    1    2  501    0 -0.47367507589E+02  0.20467768592E+02 -0.57946545557E+02  0.77591316964E+02  0.00000000000E+00 0. -1.
<scales pt_clust_5="13000.00000" pt_clust_6="13000.00000" pt_clust_7="13000.00000" pt_clust_8="13000.00000" pt_clust_9="51.60049"></scales>
<clustering>
<clus scale="   51.600">  2  9  1 -1</clus>
<clus scale="   80.310">  5  6 -1 -1</clus>
<clus scale="   91.337">  2  5  1 -1</clus>
<clus scale="   91.460">  7  8 -1 -1</clus>
<clus scale="   51.600">  2  5  1 -1</clus>
</clustering>
</event>
<event>
 9    1  0.6345107E-005  0.1027263E+03  0.7546771E-02  0.1286940E+00
         21   -1    0    0  501  502  0.00000000000E+00  0.00000000000E+00  0.89833093041E+02  0.89833093041E+02  0.00000000000E+00 0. -1.
          1   -1    0    0  502    0 -0.00000000000E+00 -0.00000000000E+00 -0.30934545845E+03  0.30934545845E+03  0.00000000000E+00 0. -1.
        -24    2    1    2    0    0  0.15774538048E+02 -0.26565471087E+02 -0.33504108228E+02  0.91078208919E+02  0.78855276089E+02 0.  0.
         23    2    1    2    0    0 -0.18611102050E+02 -0.20597342589E+02  0.11381708127E+02  0.10513439594E+03  0.10076246468E+03 0.  0.
         11    1    3    3    0    0 -0.46966675236E+01 -0.51685629883E+02 -0.24828262404E+02  0.57531779359E+02  0.00000000000E+00 0. -1.
        -12    1    3    3    0    0  0.20471205572E+02  0.25120158796E+02 -0.86758458245E+01  0.33546429560E+02  0.00000000000E+00 0.  1.
        -11    1    4    4    0    0  0.41852849900E+02 -0.10210263858E+02  0.68029068036E+01  0.43614104070E+02  0.00000000000E+00 0.  1.
         11    1    4    4    0    0 -0.60463951950E+02 -0.10387078730E+02  0.45788013233E+01  0.61520291868E+02  0.00000000000E+00 0. -1.
          2    1    1    2  501    0  0.28365640016E+01  0.47162813676E+02 -0.19738996530E+03  0.20296594663E+03  0.00000000000E+00 0. -1.
<scales pt_clust_5="13000.00000" pt_clust_6="13000.00000" pt_clust_7="13000.00000" pt_clust_8="13000.00000" pt_clust_9="47.24806"></scales>
<clustering>
<clus scale="   47.248">  1  9  2 -1</clus>
<clus scale="   78.855">  5  6 -1 -1</clus>
<clus scale="   81.350">  2  5  1 -1</clus>
<clus scale="  100.762">  7  8 -1 -1</clus>
<clus scale="   47.248">  1  5  2 -1</clus>
</clustering>
</event>
<event>
 9    1  0.6345107E-005  0.1057644E+03  0.7546771E-02  0.1277521E+00
          1   -1    0    0  502    0 -0.00000000000E+00  0.00000000000E+00  0.43078972811E+03  0.43078972811E+03  0.00000000000E+00 0. -1.
         21   -1    0    0  501  502  0.00000000000E+00 -0.00000000000E+00 -0.51211483605E+02  0.51211483605E+02  0.00000000000E+00 0.  1.
         23    2    1    2    0    0  0.33621761315E+02 -0.60420335995E+02  0.19805769325E+03  0.23190308652E+03  0.98849136792E+02 0.  0.
        -24    2    1    2    0    0  0.29056536387E+02  0.79078647546E+01  0.66062153676E+02  0.10861748974E+03  0.80788206422E+02 0.  0.
         13    1    4    4    0    0 -0.22764871291E+02  0.18345310553E+02  0.40363542489E+02  0.49839796814E+02  0.00000000000E+00 0. -1.
        -14    1    4    4    0    0  0.51821407678E+02 -0.10437445799E+02  0.25698611188E+02  0.58777692925E+02  0.00000000000E+00 0.  1.
        -11    1    3    3    0    0 -0.31495289986E+02 -0.42169398399E+02  0.77714412659E+02  0.93860222605E+02  0.00000000000E+00 0.  1.
         11    1    3    3    0    0  0.65117051301E+02 -0.18250937596E+02  0.12034328059E+03  0.13804286391E+03  0.00000000000E+00 0. -1.
          2    1    1    2  501    0 -0.62678297703E+02  0.52512471240E+02  0.11545839757E+03  0.14148063546E+03  0.00000000000E+00 0. -1.
<scales pt_clust_5="13000.00000" pt_clust_6="13000.00000" pt_clust_7="13000.00000" pt_clust_8="13000.00000" pt_clust_9="81.76879"></scales>
<clustering>
<clus scale="   80.788">  5  6 -1 -1</clus>
<clus scale="   81.769">  2  9  1 -1</clus>
<clus scale="   89.116">  2  5  1 -1</clus>
<clus scale="   98.849">  7  8 -1 -1</clus>
<clus scale="   81.769">  2  5  1 -1</clus>
</clustering>
</event>
<event>
 9    1  0.6345107E-005  0.1044372E+03  0.7546771E-02  0.1275877E+00
         21   -1    0    0  501  502  0.00000000000E+00  0.00000000000E+00  0.69251176002E+03  0.69251176002E+03  0.00000000000E+00 0.  1.
          3   -1    0    0  502    0 -0.00000000000E+00 -0.00000000000E+00 -0.21990413359E+02  0.21990413359E+02  0.00000000000E+00 0. -1.
        -24    2    1    2    0    0  0.54051977146E+02 -0.17404460572E+02  0.15462003120E+03  0.18353187650E+03  0.80944821715E+02 0.  0.
         23    2    1    2    0    0 -0.38273079819E+02  0.42327199438E+01  0.34856389375E+03  0.36237527602E+03  0.91303384874E+02 0.  0.
         13    1    3    3    0    0  0.22093499268E+02  0.28225608604E+02  0.96881870646E+02  0.10330007043E+03  0.00000000000E+00 0. -1.
        -14    1    3    3    0    0  0.31958477879E+02 -0.45630069176E+02  0.57738160556E+02  0.80231806073E+02  0.00000000000E+00 0.  1.
        -11    1    4    4    0    0 -0.22748985037E+02  0.43855583324E+02  0.11813267199E+03  0.12804747831E+03  0.00000000000E+00 0. -1.
         11    1    4    4    0    0 -0.15524094783E+02 -0.39622863381E+02  0.23043122176E+03  0.23432779771E+03  0.00000000000E+00 0.  1.
          4    1    1    2  501    0 -0.15778897327E+02  0.13171740628E+02  0.16733742171E+03  0.16859502085E+03  0.00000000000E+00 0. -1.
<scales pt_clust_5="13000.00000" pt_clust_6="13000.00000" pt_clust_7="13000.00000" pt_clust_8="13000.00000" pt_clust_9="20.55403"></scales>
<clustering>
<clus scale="   20.554">  1  9  2 -1</clus>
<clus scale="   80.945">  5  6 -1 -1</clus>
<clus scale="   91.303">  7  8 -1 -1</clus>
<clus scale="   95.514">  2  5  1 -1</clus>
<clus scale="   20.554">  1  5  2 -1</clus>
</clustering>
</event>
<event>
 9    1  0.6345107E-005  0.1454021E+03  0.7546771E-02  0.1218509E+00
         21   -1    0    0  501  502  0.00000000000E+00  0.00000000000E+00  0.26738220962E+03  0.26738220962E+03  0.00000000000E+00 0.  1.
          1   -1    0    0  502    0 -0.00000000000E+00 -0.00000000000E+00 -0.18501877417E+03  0.18501877417E+03  0.00000000000E+00 0. -1.
         23    2    1    2    0    0  0.10931100156E+02 -0.65530750395E+02 -0.65700974385E+02  0.12985233691E+03  0.90173406107E+02 0.  0.
        -24    2    1    2    0    0  0.93788546438E+02 -0.48160222131E+02  0.84512074377E+02  0.15542372067E+03  0.76801977801E+02 0.  0.
         13    1    4    4    0    0  0.49136675089E+02  0.13327265157E+02  0.16714276940E+02  0.53585407426E+02  0.00000000000E+00 0. -1.
        -14    1    4    4    0    0  0.44651871349E+02 -0.61487487288E+02  0.67797797438E+02  0.10183831325E+03  0.00000000000E+00 0.  1.
        -11    1    3    3    0    0 -0.17047434044E+01 -0.83295366449E+02 -0.31043246526E+02  0.88908421292E+02  0.00000000000E+00 0. -1.
         11    1    3    3    0    0  0.12635843560E+02  0.17764616054E+02 -0.34657727860E+02  0.40943915622E+02  0.00000000000E+00 0.  1.
          2    1    1    2  501    0 -0.10471964659E+03  0.11369097253E+03  0.63552335453E+02  0.16712492620E+03  0.00000000000E+00 0. -1.
<scales pt_clust_5="13000.00000" pt_clust_6="13000.00000" pt_clust_7="13000.00000" pt_clust_8="13000.00000" pt_clust_9="123.46356"></scales>
<clustering>
<clus scale="   76.802">  5  6 -1 -1</clus>
<clus scale="   90.173">  7  8 -1 -1</clus>
<clus scale="  112.005">  2  7  1 -1</clus>
<clus scale="  123.464">  1  9  2 -1</clus>
<clus scale="  123.464">  1  5  2 -1</clus>
</clustering>
</event>
<event>
 9    1  0.6345107E-005  0.1297388E+03  0.7546771E-02  0.1239064E+00
         21   -1    0    0  501  502  0.00000000000E+00  0.00000000000E+00  0.34540145066E+02  0.34540145066E+02  0.00000000000E+00 0. -1.
          1   -1    0    0  502    0 -0.00000000000E+00 -0.00000000000E+00 -0.11261022800E+04  0.11261022800E+04  0.00000000000E+00 0. -1.
        -24    2    1    2    0    0  0.56036967781E+01 -0.63971518157E+02 -0.10555528466E+03  0.14751321098E+03  0.80588291586E+02 0.  0.
         23    2    1    2    0    0  0.47764354468E+02 -0.43836851767E+02 -0.51633640706E+03  0.52829819326E+03  0.91063673451E+02 0.  0.
         13    1    3    3    0    0  0.49399704214E+01 -0.80377913481E+02 -0.64105769956E+02  0.10292988888E+03  0.00000000000E+00 0. -1.
        -14    1    3    3    0    0  0.66372635673E+00  0.16406395324E+02 -0.41449514700E+02  0.44583322095E+02  0.00000000000E+00 0.  1.
        -11    1    4    4    0    0  0.63343043477E+02 -0.56838281994E+02 -0.47101295187E+03  0.47863987746E+03  0.00000000000E+00 0. -1.
         11    1    4    4    0    0 -0.15578689009E+02  0.13001430227E+02 -0.45323455181E+02  0.49658315807E+02  0.00000000000E+00 0.  1.
          2    1    1    2  501    0 -0.53368051246E+02  0.10780836992E+03 -0.46967044318E+03  0.48483102079E+03  0.00000000000E+00 0. -1.
<scales pt_clust_5="13000.00000" pt_clust_6="13000.00000" pt_clust_7="13000.00000" pt_clust_8="13000.00000" pt_clust_9="92.40984"></scales>
<clustering>
<clus scale="   80.588">  5  6 -1 -1</clus>
<clus scale="   91.064">  7  8 -1 -1</clus>
<clus scale="  103.045">  2  5  1 -1</clus>
<clus scale="   92.410">  1  9  2 -1</clus>
<clus scale="   92.410">  1  5  2 -1</clus>
</clustering>
</event>
<event>
 9    1  0.6345107E-005  0.8964246E+02  0.7546771E-02  0.1309764E+00
         -2   -1    0    0    0  501 -0.00000000000E+00  0.00000000000E+00  0.14832179087E+03  0.14832179087E+03  0.00000000000E+00 0.  1.
         21   -1    0    0  501  502  0.00000000000E+00 -0.00000000000E+00 -0.10037764821E+03  0.10037764821E+03  0.00000000000E+00 0.  1.
         23    2    1    2    0    0  0.47805930780E+01 -0.43663695819E+01  0.86358565806E+02  0.12449315075E+03  0.89436141697E+02 0.  0.
        -24    2    1    2    0    0 -0.44246835102E+01 -0.24730429981E+02 -0.11719615825E+02  0.84717515829E+02  0.80053332860E+02 0.  0.
         13    1    4    4    0    0 -0.23723721040E+02  0.14582079014E+02  0.16737378509E+02  0.32489872387E+02  0.00000000000E+00 0. -1.
        -14    1    4    4    0    0  0.19299037530E+02 -0.39312508994E+02 -0.28456994334E+02  0.52227643442E+02  0.00000000000E+00 0.  1.
        -13    1    3    3    0    0 -0.17464578673E+02  0.35435035537E+02  0.20824840114E+02  0.44657890877E+02  0.00000000000E+00 0. -1.
         13    1    3    3    0    0  0.22245171751E+02 -0.39801405119E+02  0.65533725691E+02  0.79835259871E+02  0.00000000000E+00 0.  1.
         -1    1    1    2    0  502 -0.35590956786E+00  0.29096799562E+02 -0.26694807323E+02  0.39488772511E+02  0.00000000000E+00 0.  1.
<scales pt_clust_5="13000.00000" pt_clust_6="13000.00000" pt_clust_7="13000.00000" pt_clust_8="13000.00000" pt_clust_9="29.09898"></scales>
<clustering>
<clus scale="   29.099">  2  9  1 -1</clus>
<clus scale="   80.053">  5  6 -1 -1</clus>
<clus scale="   80.284">  2  5  1 -1</clus>
<clus scale="   89.436">  7  8 -1 -1</clus>
<clus scale="   29.099">  2  5  1 -1</clus>
</clustering>
</event>
<event>
 9    1  0.6345107E-005  0.1163223E+03  0.7546771E-02  0.1250296E+00
         21   -1    0    0  501  502  0.00000000000E+00  0.00000000000E+00  0.31332178093E+02  0.31332178093E+02  0.00000000000E+00 0. -1.
         -2   -1    0    0    0  501 -0.00000000000E+00 -0.00000000000E+00 -0.92774604651E+03  0.92774604651E+03  0.00000000000E+00 0.  1.
        -24    2    1    2    0    0  0.32651015273E+02  0.59268278632E+02 -0.63932114103E+03  0.64886661582E+03  0.87849565215E+02 0.  0.
         23    2    1    2    0    0 -0.50127222070E+02 -0.72752103795E+02 -0.25871437970E+03  0.28807880279E+03  0.90833140195E+02 0.  0.
         13    1    3    3    0    0  0.21502549392E+02  0.54420705896E+01 -0.31280595693E+02  0.38346465672E+02  0.00000000000E+00 0. -1.
        -14    1    3    3    0    0  0.11148465882E+02  0.53826208042E+02 -0.60804054533E+03  0.61052015015E+03  0.00000000000E+00 0.  1.
        -13    1    4    4    0    0 -0.20469328739E+02 -0.33074804407E+02 -0.18980378046E+02  0.43280374957E+02  0.00000000000E+00 0. -1.
         13    1    4    4    0    0 -0.29657893330E+02 -0.39677299387E+02 -0.23973400165E+03  0.24479842784E+03  0.00000000000E+00 0.  1.
         -1    1    1    2    0  502  0.17476206796E+02  0.13483825163E+02  0.16216523043E+01  0.22132805995E+02  0.00000000000E+00 0.  1.
<scales pt_clust_5="13000.00000" pt_clust_6="13000.00000" pt_clust_7="13000.00000" pt_clust_8="13000.00000" pt_clust_9="22.07332"></scales>
<clustering>
<clus scale="   22.073">  1  9  2 -1</clus>
<clus scale="   87.850">  5  6 -1 -1</clus>
<clus scale="   90.833">  7  8 -1 -1</clus>
<clus scale="  114.008">  2  5  1 -1</clus>
<clus scale="   22.073">  1  5  2 -1</clus>
</clustering>
</event>
<event>
 9    1  0.6345107E-005  0.1706275E+03  0.7546771E-02  0.1193082E+00
         21   -1    0    0  501  502  0.00000000000E+00  0.00000000000E+00  0.20159774883E+03  0.20159774883E+03  0.00000000000E+00 0. -1.
          1   -1    0    0  502    0 -0.00000000000E+00 -0.00000000000E+00 -0.58580746252E+03  0.58580746252E+03  0.00000000000E+00 0. -1.
        -24    2    1    2    0    0  0.48400027916E+01 -0.89909826464E+02 -0.53327551856E+02  0.13109863598E+03  0.78967221351E+02 0.  0.
         23    2    1    2    0    0  0.11438906782E+03  0.13347491923E+03 -0.44128632925E+03  0.48807290226E+03  0.11216559471E+03 0.  0.
         11    1    3    3    0    0  0.22938303358E+02 -0.71409325930E+01 -0.38062233039E+02  0.45009912944E+02  0.00000000000E+00 0. -1.
        -12    1    3    3    0    0 -0.18098300566E+02 -0.82768893871E+02 -0.15265318816E+02  0.86088723039E+02  0.00000000000E+00 0.  1.
        -13    1    4    4    0    0  0.28987760813E+02  0.67300838681E+02 -0.69823718824E+02  0.10121780908E+03  0.00000000000E+00 0.  1.
         13    1    4    4    0    0  0.85401307005E+02  0.66174080550E+02 -0.37146261043E+03  0.38685509318E+03  0.00000000000E+00 0. -1.
          2    1    1    2  501    0 -0.11922907061E+03 -0.43565092767E+02  0.11040416741E+03  0.16823367311E+03  0.00000000000E+00 0. -1.
<scales pt_clust_5="13000.00000" pt_clust_6="13000.00000" pt_clust_7="13000.00000" pt_clust_8="13000.00000" pt_clust_9="128.57919"></scales>
<clustering>
<clus scale="   78.967">  5  6 -1 -1</clus>
<clus scale="  112.166">  7  8 -1 -1</clus>
<clus scale="  119.762">  2  5  1 -1</clus>
<clus scale="  128.579">  1  9  2 -1</clus>
<clus scale="  128.579">  1  5  2 -1</clus>
</clustering>
</event>
<event>
 9    1  0.6345107E-005  0.1186507E+03  0.7546771E-02  0.1249759E+00
          1   -1    0    0  502    0 -0.00000000000E+00  0.00000000000E+00  0.80765651336E+02  0.80765651336E+02  0.00000000000E+00 0. -1.
         21   -1    0    0  501  502  0.00000000000E+00 -0.00000000000E+00 -0.33224025532E+03  0.33224025532E+03  0.00000000000E+00 0. -1.
         23    2    1    2    0    0  0.36493038346E+02  0.83875712826E+02 -0.55964021931E+02  0.14160308622E+03  0.92480188295E+02 0.  0.
        -24    2    1    2    0    0 -0.21705572253E+02 -0.32121087220E+02 -0.19881510223E+03  0.21747573746E+03  0.79153997970E+02 0.  0.
         11    1    4    4    0    0  0.13255091533E+02 -0.33468069192E+02 -0.16477739672E+03  0.16866356920E+03  0.00000000000E+00 0. -1.
        -12    1    4    4    0    0 -0.34960663786E+02  0.13469819716E+01 -0.34037705515E+02  0.48812168252E+02  0.00000000000E+00 0.  1.
        -11    1    3    3    0    0 -0.23244367917E+02  0.62287129317E+02 -0.26245736804E+02  0.71476050666E+02  0.00000000000E+00 0.  1.
         11    1    3    3    0    0  0.59737406263E+02  0.21588583509E+02 -0.29718285127E+02  0.70127035556E+02  0.00000000000E+00 0. -1.
          2    1    1    2  501    0 -0.14787466093E+02 -0.51754625605E+02  0.33045201797E+01  0.53927082979E+02  0.00000000000E+00 0. -1.
<scales pt_clust_5="13000.00000" pt_clust_6="13000.00000" pt_clust_7="13000.00000" pt_clust_8="13000.00000" pt_clust_9="53.82577"></scales>
<clustering>
<clus scale="   53.826">  2  9  1 -1</clus>
<clus scale="   79.154">  5  6 -1 -1</clus>
<clus scale="   92.480">  7  8 -1 -1</clus>
<clus scale="  108.585">  2  5  1 -1</clus>
<clus scale="   53.826">  2  5  1 -1</clus>
</clustering>
</event>
<event>
 9    1  0.6345107E-005  0.1294239E+03  0.7546771E-02  0.1245431E+00
         21   -1    0    0  501  502  0.00000000000E+00  0.00000000000E+00  0.15457642387E+03  0.15457642387E+03  0.00000000000E+00 0. -1.
          3   -1    0    0  502    0 -0.00000000000E+00 -0.00000000000E+00 -0.17564386397E+03  0.17564386397E+03  0.00000000000E+00 0. -1.
         23    2    1    2    0    0  0.24594919083E+02 -0.28540713695E+01 -0.29472619907E+02  0.95892523207E+02  0.87827586297E+02 0.  0.
        -24    2    1    2    0    0  0.66783765722E+02  0.65318990761E+02  0.11259584989E+02  0.12360252894E+03  0.80150888877E+02 0.  0.
         13    1    4    4    0    0  0.57711355962E+02  0.81912879355E+02 -0.24707668899E+01  0.10023185671E+03  0.00000000000E+00 0. -1.
        -14    1    4    4    0    0  0.90724097596E+01 -0.16593888594E+02  0.13730351879E+02  0.23370672225E+02  0.00000000000E+00 0.  1.
        -13    1    3    3    0    0 -0.11802616247E+02  0.19969569239E+02  0.19816126189E+02  0.30508430032E+02  0.00000000000E+00 0. -1.
         13    1    3    3    0    0  0.36397535330E+02 -0.22823640609E+02 -0.49288746095E+02  0.65384093176E+02  0.00000000000E+00 0.  1.
          4    1    1    2  501    0 -0.91378684805E+02 -0.62464919392E+02 -0.28544051760E+01  0.11072523570E+03  0.00000000000E+00 0. -1.
<scales pt_clust_5="13000.00000" pt_clust_6="13000.00000" pt_clust_7="13000.00000" pt_clust_8="13000.00000" pt_clust_9="101.61884"></scales>
<clustering>
<clus scale="   80.151">  5  6 -1 -1</clus>
<clus scale="   87.828">  7  8 -1 -1</clus>
<clus scale="   91.251">  2  7  1 -1</clus>
<clus scale="  101.619">  1  9  2 -1</clus>
<clus scale="  101.619">  1  5  2 -1</clus>
</clustering>
</event>
<event>
 9    1  0.6345107E-005  0.2096212E+03  0.7546771E-02  0.1170031E+00
          1   -1    0    0  502    0 -0.00000000000E+00  0.00000000000E+00  0.14539954341E+04  0.14539954341E+04  0.00000000000E+00 0. -1.
         21   -1    0    0  501  502  0.00000000000E+00 -0.00000000000E+00 -0.72718695578E+02  0.72718695578E+02  0.00000000000E+00 0. -1.
        -24    2    1    2    0    0  0.59399358167E+01  0.70909447636E+02  0.16383476395E+03  0.19639231276E+03  0.81637479336E+02 0.  0.
         23    2    1    2    0    0  0.17747539423E+03 -0.71857322098E+02  0.18563351911E+03  0.28233767079E+03  0.92702570809E+02 0.  0.
         11    1    3    3    0    0  0.74629378607E+01  0.88540081524E+02  0.12163572971E+03  0.15063297189E+03  0.00000000000E+00 0. -1.
        -12    1    3    3    0    0 -0.15230020441E+01 -0.17630633888E+02  0.42199034240E+02  0.45759340874E+02  0.00000000000E+00 0.  1.
        -13    1    4    4    0    0  0.33816393025E+02  0.18968717644E+02  0.15214828040E+02  0.41651550734E+02  0.00000000000E+00 0.  1.
         13    1    4    4    0    0  0.14365900120E+03 -0.90826039741E+02  0.17041869107E+03  0.24068612006E+03  0.00000000000E+00 0. -1.
          2    1    1    2  501    0 -0.18341533005E+03  0.94787446214E+00  0.10318084554E+04  0.10479841461E+04  0.00000000000E+00 0. -1.
<scales pt_clust_5="13000.00000" pt_clust_6="13000.00000" pt_clust_7="13000.00000" pt_clust_8="13000.00000" pt_clust_9="188.00877"></scales>
<clustering>
<clus scale="   81.637">  5  6 -1 -1</clus>
<clus scale="   92.703">  7  8 -1 -1</clus>
<clus scale="  108.296">  1  5  2 -1</clus>
<clus scale="  188.009">  2  9  1 -1</clus>
<clus scale="  188.009">  2  5  1 -1</clus>
</clustering>
</event>
<event>
 9    1  0.6345107E-005  0.3025216E+03  0.7546771E-02  0.1085826E+00
          1   -1    0    0  502    0 -0.00000000000E+00  0.00000000000E+00  0.40133948647E+03  0.40133948647E+03  0.00000000000E+00 0. -1.
         21   -1    0    0  501  502  0.00000000000E+00 -0.00000000000E+00 -0.24666360070E+03  0.24666360070E+03  0.00000000000E+00 0. -1.
         23    2    1    2    0    0 -0.28982439849E+02 -0.27006999851E+03  0.10933964986E+03  0.31742914725E+03  0.12259004274E+03 0.  0.
        -24    2    1    2    0    0  0.47764761689E+02  0.27944740469E+03  0.16834169491E+02  0.29517508188E+03  0.80452565253E+02 0.  0.
         13    1    4    4    0    0  0.58287964804E+02  0.27686080043E+03  0.20659497992E+02  0.28368328204E+03  0.00000000000E+00 0. -1.
        -14    1    4    4    0    0 -0.10523203115E+02  0.25866042629E+01 -0.38253285019E+01  0.11491799840E+02  0.00000000000E+00 0.  1.
        -11    1    3    3    0    0 -0.39569681750E+02 -0.15552004572E+03  0.25959644928E+01  0.16049605405E+03  0.00000000000E+00 0. -1.
         11    1    3    3    0    0  0.10587241901E+02 -0.11454995279E+03  0.10674368537E+03  0.15693309320E+03  0.00000000000E+00 0.  1.
          2    1    1    2  501    0 -0.18782321840E+02 -0.93774061803E+01  0.28502066418E+02  0.35398858039E+02  0.00000000000E+00 0. -1.
<scales pt_clust_5="13000.00000" pt_clust_6="13000.00000" pt_clust_7="13000.00000" pt_clust_8="13000.00000" pt_clust_9="20.99314"></scales>
<clustering>
<clus scale="   20.993">  2  9  1 -1</clus>
<clus scale="   80.453">  5  6 -1 -1</clus>
<clus scale="  122.590">  7  8 -1 -1</clus>
<clus scale="  288.034">  2  5  1 -1</clus>
<clus scale="   20.993">  2  5  1 -1</clus>
</clustering>
</event>
<event>
 9    1  0.6345107E-005  0.9381103E+02  0.7546771E-02  0.1298644E+00
         -2   -1    0    0    0  501 -0.00000000000E+00  0.00000000000E+00  0.12025966377E+03  0.12025966377E+03  0.00000000000E+00 0.  1.
         21   -1    0    0  501  502  0.00000000000E+00 -0.00000000000E+00 -0.25848971241E+03  0.25848971241E+03  0.00000000000E+00 0.  1.
         23    2    1    2    0    0 -0.36437346349E+01  0.29440593493E+02  0.75720453879E+02  0.12118433853E+03  0.89844484651E+02 0.  0.
        -24    2    1    2    0    0  0.32796223999E+02 -0.77476560634E+01 -0.81073415397E+02  0.11980883470E+03  0.81520793083E+02 0.  0.
         11    1    4    4    0    0  0.29229397992E+02 -0.43388615186E+02 -0.45656311551E+02  0.69436506386E+02  0.00000000000E+00 0. -1.
        -12    1    4    4    0    0  0.35668260071E+01  0.35640959122E+02 -0.35417103846E+02  0.50372328313E+02  0.00000000000E+00 0.  1.
        -13    1    3    3    0    0 -0.37758355922E+02  0.43461793119E+02  0.42699328836E+02  0.71678822438E+02  0.00000000000E+00 0.  1.
         13    1    3    3    0    0  0.34114621287E+02 -0.14021199627E+02  0.33021125044E+02  0.49505516093E+02  0.00000000000E+00 0. -1.
         -1    1    1    2    0  502 -0.29152489364E+02 -0.21692937429E+02 -0.13287708712E+03  0.13775620295E+03  0.00000000000E+00 0.  1.
<scales pt_clust_5="13000.00000" pt_clust_6="13000.00000" pt_clust_7="13000.00000" pt_clust_8="13000.00000" pt_clust_9="36.33801"></scales>
<clustering>
<clus scale="   36.338">  2  9  1 -1</clus>
<clus scale="   81.521">  5  6 -1 -1</clus>
<clus scale="   85.873">  2  5  1 -1</clus>
<clus scale="   89.844">  7  8 -1 -1</clus>
<clus scale="   36.338">  2  5  1 -1</clus>
</clustering>
</event>
<event>
 9    1  0.6345107E-005  0.8911047E+02  0.7546771E-02  0.1311797E+00
         21   -1    0    0  501  502  0.00000000000E+00  0.00000000000E+00  0.58642166703E+03  0.58642166703E+03  0.00000000000E+00 0. -1.
         -2   -1    0    0    0  501 -0.00000000000E+00 -0.00000000000E+00 -0.28928131786E+02  0.28928131786E+02  0.00000000000E+00 0.  1.
        -24    2    1    2    0    0  0.47401924179E+01 -0.15735083375E+02  0.53001265173E+02  0.95583835696E+02  0.77827201308E+02 0.  0.
         23    2    1    2    0    0  0.18705562431E+02 -0.27906391645E+01  0.30607151659E+03  0.31910779302E+03  0.88274144381E+02 0.  0.
         13    1    3    3    0    0  0.12670924711E+02 -0.39419665007E+02  0.56830629856E+02  0.70314883290E+02  0.00000000000E+00 0. -1.
        -14    1    3    3    0    0 -0.79307322926E+01  0.23684581632E+02 -0.38293646828E+01  0.25268952405E+02  0.00000000000E+00 0.  1.
        -13    1    4    4    0    0 -0.35578102423E+02  0.12754882662E+00  0.13478559150E+03  0.13940219983E+03  0.00000000000E+00 0.  1.
         13    1    4    4    0    0  0.54283664854E+02 -0.29181879911E+01  0.17128592509E+03  0.17970559319E+03  0.00000000000E+00 0. -1.
         -1    1    1    2    0  502 -0.23445754849E+02  0.18525722539E+02  0.19842075348E+03  0.20065817010E+03  0.00000000000E+00 0.  1.
<scales pt_clust_5="13000.00000" pt_clust_6="13000.00000" pt_clust_7="13000.00000" pt_clust_8="13000.00000" pt_clust_9="29.88153"></scales>
<clustering>
<clus scale="   29.882">  1  9  2 -1</clus>
<clus scale="   77.827">  5  6 -1 -1</clus>
<clus scale="   78.775">  2  5  1 -1</clus>
<clus scale="   88.274">  7  8 -1 -1</clus>
<clus scale="   29.882">  1  5  2 -1</clus>
</clustering>
</event>
<event>
 9    1  0.6345107E-005  0.1152761E+03  0.7546771E-02  0.1256031E+00
          1   -1    0    0  502    0 -0.00000000000E+00  0.00000000000E+00  0.52538012658E+03  0.52538012658E+03  0.00000000000E+00 0. -1.
         21   -1    0    0  501  502  0.00000000000E+00 -0.00000000000E+00 -0.72499775462E+02  0.72499775462E+02  0.00000000000E+00 0. -1.
         23    2    1    2    0    0  0.35027559737E+01 -0.29687595750E+02  0.16091283388E+03  0.18785794149E+03  0.92217370549E+02 0.  0.
        -24    2    1    2    0    0 -0.44531511259E+02  0.11074665899E+03  0.28516592237E+03  0.31891657002E+03  0.78360049641E+02 0.  0.
         13    1    4    4    0    0 -0.48268419111E+02  0.11484561691E+03  0.28716349234E+03  0.31302112922E+03  0.00000000000E+00 0. -1.
        -14    1    4    4    0    0  0.37369078523E+01 -0.40989579219E+01 -0.19975699741E+01  0.58954407930E+01  0.00000000000E+00 0.  1.
        -11    1    3    3    0    0 -0.22189301776E+02 -0.51613104075E+02  0.63650842540E+02  0.84898217776E+02  0.00000000000E+00 0.  1.
         11    1    3    3    0    0  0.25692057750E+02  0.21925508325E+02  0.97261991341E+02  0.10295972371E+03  0.00000000000E+00 0. -1.
          2    1    1    2  501    0  0.41028755285E+02 -0.81059063237E+02  0.68015948733E+01  0.91105390543E+02  0.00000000000E+00 0. -1.
<scales pt_clust_5="13000.00000" pt_clust_6="13000.00000" pt_clust_7="13000.00000" pt_clust_8="13000.00000" pt_clust_9="90.85114"></scales>
<clustering>
<clus scale="   78.360">  5  6 -1 -1</clus>
<clus scale="   90.851">  2  9  1 -1</clus>
<clus scale="   92.217">  7  8 -1 -1</clus>
<clus scale="  104.522">  2  5  1 -1</clus>
<clus scale="   90.851">  2  5  1 -1</clus>
</clustering>
</event>
<event>
 9    1  0.6345107E-005  0.9968177E+02  0.7546771E-02  0.1286722E+00
          1   -1    0    0  502    0 -0.00000000000E+00  0.00000000000E+00  0.34469638555E+03  0.34469638555E+03  0.00000000000E+00 0. -1.
         21   -1    0    0  501  502  0.00000000000E+00 -0.00000000000E+00 -0.49657730069E+02  0.49657730069E+02  0.00000000000E+00 0.  1.
        -24    2    1    2    0    0  0.23611845613E+02 -0.36405434918E+02  0.23911383490E+03  0.25601261188E+03  0.80524260040E+02 0.  0.
         23    2    1    2    0    0 -0.26390779238E+02  0.66658661750E+01  0.35351991898E+02  0.10207298156E+03  0.91805355142E+02 0.  0.
         11    1    3    3    0    0  0.37626745066E+02  0.62939637491E+01  0.58114176817E+02  0.69517217083E+02  0.00000000000E+00 0. -1.
        -12    1    3    3    0    0 -0.14014899453E+02 -0.42699398668E+02  0.18099965809E+03  0.18649539480E+03  0.00000000000E+00 0.  1.
        -13    1    4    4    0    0 -0.32267617602E+02  0.44171155141E+02  0.80019613642E+01  0.55284007433E+02  0.00000000000E+00 0.  1.
         13    1    4    4    0    0  0.58768383640E+01 -0.37505288966E+02  0.27350030534E+02  0.46788974127E+02  0.00000000000E+00 0. -1.
          2    1    1    2  501    0  0.27789336246E+01  0.29739568743E+02  0.20572828681E+02  0.36268522179E+02  0.00000000000E+00 0. -1.
<scales pt_clust_5="13000.00000" pt_clust_6="13000.00000" pt_clust_7="13000.00000" pt_clust_8="13000.00000" pt_clust_9="29.86912"></scales>
<clustering>
<clus scale="   29.869">  2  9  1 -1</clus>
<clus scale="   80.524">  5  6 -1 -1</clus>
<clus scale="   89.400">  1  5  2 -1</clus>
<clus scale="   91.805">  7  8 -1 -1</clus>
<clus scale="   29.869">  2  5  1 -1</clus>
</clustering>
</event>
<event>
 9    1  0.6345107E-005  0.1403436E+03  0.7546771E-02  0.1217387E+00
         21   -1    0    0  501  502  0.00000000000E+00  0.00000000000E+00  0.18135686746E+03  0.18135686746E+03  0.00000000000E+00 0. -1.
          1   -1    0    0  502    0 -0.00000000000E+00 -0.00000000000E+00 -0.39724534864E+03  0.39724534864E+03  0.00000000000E+00 0. -1.
         23    2    1    2    0    0  0.86554956854E+02  0.59220897043E+02 -0.33598137249E+03  0.36570254824E+03  0.99277368659E+02 0.  0.
        -24    2    1    2    0    0 -0.63049095638E+02  0.19468799000E+01  0.10347064590E+03  0.14529551496E+03  0.80160048032E+02 0.  0.
         13    1    4    4    0    0 -0.44684795304E+02  0.17407477640E+02  0.10257049408E+02  0.49040373894E+02  0.00000000000E+00 0. -1.
        -14    1    4    4    0    0 -0.18364300335E+02 -0.15460597740E+02  0.93213596494E+02  0.96255141061E+02  0.00000000000E+00 0.  1.
        -13    1    3    3    0    0 -0.17041514585E+02  0.31980339784E+02 -0.10537691454E+03  0.11143361015E+03  0.00000000000E+00 0. -1.
         13    1    3    3    0    0  0.10359647144E+03  0.27240557259E+02 -0.23060445795E+03  0.25426893810E+03  0.00000000000E+00 0.  1.
          2    1    1    2  501    0 -0.23505861215E+02 -0.61167776943E+02  0.16622245407E+02  0.67604152905E+02  0.00000000000E+00 0. -1.
<scales pt_clust_5="13000.00000" pt_clust_6="13000.00000" pt_clust_7="13000.00000" pt_clust_8="13000.00000" pt_clust_9="65.52879"></scales>
<clustering>
<clus scale="   65.529">  1  9  2 -1</clus>
<clus scale="   80.160">  5  6 -1 -1</clus>
<clus scale="   99.277">  7  8 -1 -1</clus>
<clus scale="  127.538">  1  5  2 -1</clus>
<clus scale="   65.529">  1  5  2 -1</clus>
</clustering>
</event>
<event>
 9    1  0.6345107E-005  0.9043428E+02  0.7546771E-02  0.1305656E+00
         -2   -1    0    0    0  501 -0.00000000000E+00  0.00000000000E+00  0.35437638046E+02  0.35437638046E+02  0.00000000000E+00 0.  1.
         21   -1    0    0  501  502  0.00000000000E+00 -0.00000000000E+00 -0.81411847837E+03  0.81411847837E+03  0.00000000000E+00 0. -1.
         23    2    1    2    0    0  0.76882295004E+01  0.14800630629E+02 -0.64726380781E+02  0.11188500889E+03  0.89725042805E+02 0.  0.
        -24    2    1    2    0    0 -0.24230359490E+02  0.53811785241E+02 -0.54594959102E+03  0.55544338866E+03  0.83507984732E+02 0.  0.
         11    1    4    4    0    0  0.27091943258E+02  0.38809620996E+02 -0.21020028472E+03  0.21546303573E+03  0.00000000000E+00 0. -1.
        -12    1    4    4    0    0 -0.51322302748E+02  0.15002164245E+02 -0.33574930631E+03  0.33998035293E+03  0.00000000000E+00 0.  1.
        -11    1    3    3    0    0  0.33970793396E+02 -0.23033975543E+02 -0.47316584668E+02  0.62637353216E+02  0.00000000000E+00 0.  1.
         11    1    3    3    0    0 -0.26282563896E+02  0.37834606172E+02 -0.17409796114E+02  0.49247655678E+02  0.00000000000E+00 0. -1.
         -1    1    1    2    0  502  0.16542129990E+02 -0.68612415870E+02 -0.16800486851E+03  0.18222771886E+03  0.00000000000E+00 0.  1.
<scales pt_clust_5="13000.00000" pt_clust_6="13000.00000" pt_clust_7="13000.00000" pt_clust_8="13000.00000" pt_clust_9="70.57837"></scales>
<clustering>
<clus scale="   70.578">  2  9  1 -1</clus>
<clus scale="   83.508">  5  6 -1 -1</clus>
<clus scale="   84.270">  2  5  1 -1</clus>
<clus scale="   89.725">  7  8 -1 -1</clus>
<clus scale="   70.578">  2  5  1 -1</clus>
</clustering>
</event>
<event>
 9    1  0.6345107E-005  0.1136129E+03  0.7546771E-02  0.1257189E+00
          1   -1    0    0  502    0 -0.00000000000E+00  0.00000000000E+00  0.44309346938E+03  0.44309346938E+03  0.00000000000E+00 0. -1.
         21   -1    0    0  501  502  0.00000000000E+00 -0.00000000000E+00 -0.78882531870E+02  0.78882531870E+02  0.00000000000E+00 0.  1.
         23    2    1    2    0    0 -0.69036751034E+02  0.27485661875E+02  0.38074464424E+03  0.39781588995E+03  0.88144560698E+02 0.  0.
        -24    2    1    2    0    0  0.57078079087E+02 -0.69562767254E+01 -0.53317709106E+01  0.97893233761E+02  0.79046571951E+02 0.  0.
         13    1    4    4    0    0  0.29053120854E+02 -0.32894380043E+02  0.23742755597E+02  0.49898321746E+02  0.00000000000E+00 0. -1.
        -14    1    4    4    0    0  0.28024958233E+02  0.25938103318E+02 -0.29074526508E+02  0.47994912015E+02  0.00000000000E+00 0.  1.
        -11    1    3    3    0    0  0.19975893866E+02 -0.43365400525E+01  0.79631518810E+02  0.82213263549E+02  0.00000000000E+00 0.  1.
         11    1    3    3    0    0 -0.89012644900E+02  0.31822201928E+02  0.30111312543E+03  0.31560262640E+03  0.00000000000E+00 0. -1.
          2    1    1    2  501    0  0.11958671948E+02 -0.20529385150E+02 -0.11201935818E+02  0.26266877535E+02  0.00000000000E+00 0. -1.
<scales pt_clust_5="13000.00000" pt_clust_6="13000.00000" pt_clust_7="13000.00000" pt_clust_8="13000.00000" pt_clust_9="23.75848"></scales>
<clustering>
<clus scale="   23.758">  2  9  1 -1</clus>
<clus scale="   79.047">  5  6 -1 -1</clus>
<clus scale="   88.145">  7  8 -1 -1</clus>
<clus scale="  106.709">  2  5  1 -1</clus>
<clus scale="   23.758">  2  5  1 -1</clus>
</clustering>
</event>
<event>
 9    1  0.6345107E-005  0.3579667E+03  0.7546771E-02  0.1091213E+00
         21   -1    0    0  501  502  0.00000000000E+00  0.00000000000E+00  0.47708544210E+03  0.47708544210E+03  0.00000000000E+00 0. -1.
          1   -1    0    0  502    0 -0.00000000000E+00 -0.00000000000E+00 -0.75698959299E+03  0.75698959299E+03  0.00000000000E+00 0. -1.
         23    2    1    2    0    0  0.11877232659E+03 -0.26822493673E+02 -0.44993486808E+03  0.47450723533E+03  0.88822402197E+02 0.  0.
        -24    2    1    2    0    0  0.29225473728E+03  0.98472784714E+02  0.11439874521E+03  0.33864984130E+03  0.80541426107E+02 0.  0.
         13    1    4    4    0    0  0.20851980720E+03  0.92088408647E+02  0.51410739871E+02  0.23367466524E+03  0.00000000000E+00 0. -1.
        -14    1    4    4    0    0  0.83734930077E+02  0.63843760664E+01  0.62988005336E+02  0.10497517606E+03  0.00000000000E+00 0.  1.
        -11    1    3    3    0    0  0.75588215230E+02 -0.56871644173E+02 -0.33508790171E+03  0.34818366427E+03  0.00000000000E+00 0. -1.
         11    1    3    3    0    0  0.43184111363E+02  0.30049150500E+02 -0.11484696638E+03  0.12632357106E+03  0.00000000000E+00 0.  1.
          2    1    1    2  501    0 -0.41102706387E+03 -0.71650291041E+02  0.55631971992E+02  0.42091795845E+03  0.00000000000E+00 0. -1.
<scales pt_clust_5="13000.00000" pt_clust_6="13000.00000" pt_clust_7="13000.00000" pt_clust_8="13000.00000" pt_clust_9="348.78844"></scales>
<clustering>
<clus scale="   80.541">  5  6 -1 -1</clus>
<clus scale="   88.822">  7  8 -1 -1</clus>
<clus scale="  150.717">  2  7  1 -1</clus>
<clus scale="  348.788">  1  9  2 -1</clus>
<clus scale="  348.788">  1  5  2 -1</clus>
</clustering>
</event>
<event>
 9    1  0.6345107E-005  0.2274271E+03  0.7546771E-02  0.1129458E+00
          1   -1    0    0  502    0 -0.00000000000E+00  0.00000000000E+00  0.12253589456E+03  0.12253589456E+03  0.00000000000E+00 0. -1.
         21   -1    0    0  501  502  0.00000000000E+00 -0.00000000000E+00 -0.71057441796E+03  0.71057441796E+03  0.00000000000E+00 0.  1.
         23    2    1    2    0    0  0.19537502124E+03  0.22841311643E+02 -0.63470023706E+02  0.22705413279E+03  0.93978778812E+02 0.  0.
        -24    2    1    2    0    0 -0.23689010519E+03 -0.12108037492E+02 -0.37790667511E+03  0.45325435985E+03  0.79765488276E+02 0.  0.
         11    1    4    4    0    0 -0.12621691407E+03 -0.38166054681E+02 -0.15884840649E+03  0.20644653878E+03  0.00000000000E+00 0. -1.
        -12    1    4    4    0    0 -0.11067319111E+03  0.26058017189E+02 -0.21905826862E+03  0.24680782107E+03  0.00000000000E+00 0.  1.
        -13    1    3    3    0    0  0.11196712956E+03  0.52930748730E+02 -0.11752017783E+02  0.12440422897E+03  0.00000000000E+00 0.  1.
         13    1    3    3    0    0  0.83407891677E+02 -0.30089437087E+02 -0.51718005923E+02  0.10264990382E+03  0.00000000000E+00 0. -1.
          2    1    1    2  501    0  0.41515083948E+02 -0.10733274150E+02 -0.14666182458E+03  0.15280181988E+03  0.00000000000E+00 0. -1.
<scales pt_clust_5="13000.00000" pt_clust_6="13000.00000" pt_clust_7="13000.00000" pt_clust_8="13000.00000" pt_clust_9="42.88013"></scales>
<clustering>
<clus scale="   42.880">  2  9  1 -1</clus>
<clus scale="   79.765">  5  6 -1 -1</clus>
<clus scale="   93.979">  7  8 -1 -1</clus>
<clus scale="  221.932">  2  5  1 -1</clus>
<clus scale="   42.880">  2  5  1 -1</clus>
</clustering>
</event>
<event>
 9    1  0.6345107E-005  0.1271239E+03  0.7546771E-02  0.1233412E+00
         -4   -1    0    0    0  501 -0.00000000000E+00  0.00000000000E+00  0.12597874712E+03  0.12597874712E+03  0.00000000000E+00 0.  1.
         21   -1    0    0  501  502  0.00000000000E+00 -0.00000000000E+00 -0.24731837926E+03  0.24731837926E+03  0.00000000000E+00 0.  1.
        -24    2    1    2    0    0  0.11859250293E+02 -0.10940476023E+03  0.88720576273E+01  0.14164456435E+03  0.88737961585E+02 0.  0.
         23    2    1    2    0    0 -0.46337302715E+02  0.40338769732E+02 -0.61771321706E+02  0.12848797934E+03  0.94441001065E+02 0.  0.
         13    1    3    3    0    0 -0.27260355189E+02 -0.73766206116E+02 -0.20296414758E+02  0.81218991509E+02  0.00000000000E+00 0. -1.
        -14    1    3    3    0    0  0.39119605482E+02 -0.35638554112E+02  0.29168472385E+02  0.60425572844E+02  0.00000000000E+00 0.  1.
        -13    1    4    4    0    0 -0.10689657229E+02 -0.18863257981E+02  0.14099121531E+02  0.25862646835E+02  0.00000000000E+00 0.  1.
         13    1    4    4    0    0 -0.35647645485E+02  0.59202027713E+02 -0.75870443236E+02  0.10262533250E+03  0.00000000000E+00 0. -1.
         -3    1    1    2    0  502  0.34478052422E+02  0.69065990496E+02 -0.68440368064E+02  0.10316458270E+03  0.00000000000E+00 0.  1.
<scales pt_clust_5="13000.00000" pt_clust_6="13000.00000" pt_clust_7="13000.00000" pt_clust_8="13000.00000" pt_clust_9="77.19357"></scales>
<clustering>
<clus scale="   77.194">  2  9  1 -1</clus>
<clus scale="   88.738">  5  6 -1 -1</clus>
<clus scale="   94.441">  7  8 -1 -1</clus>
<clus scale="  122.946">  1  5  2 -1</clus>
<clus scale="   77.194">  2  5  1 -1</clus>
</clustering>
</event>
<event>
 9    1  0.6345107E-005  0.9686328E+02  0.7546771E-02  0.1291978E+00
         -2   -1    0    0    0  501 -0.00000000000E+00  0.00000000000E+00  0.10185832298E+03  0.10185832298E+03  0.00000000000E+00 0.  1.
         21   -1    0    0  501  502  0.00000000000E+00 -0.00000000000E+00 -0.17844093791E+03  0.17844093791E+03  0.00000000000E+00 0. -1.
        -24    2    1    2    0    0  0.29590145658E+02  0.11001274920E+02  0.46054776200E+02  0.98550359323E+02  0.81206687791E+02 0.  0.
         23    2    1    2    0    0 -0.51949788844E+02  0.73226829717E+01 -0.88299224523E+02  0.13686203532E+03  0.90454747873E+02 0.  0.
         13    1    3    3    0    0  0.20012246599E+02 -0.10941689348E+02 -0.18710867216E+02  0.29500968317E+02  0.00000000000E+00 0. -1.
        -14    1    3    3    0    0  0.95778990591E+01  0.21942964268E+02  0.64765643415E+02  0.69049391005E+02  0.00000000000E+00 0.  1.
        -13    1    4    4    0    0 -0.61876251833E+02  0.36665610273E+02 -0.49961669954E+02  0.87574002891E+02  0.00000000000E+00 0. -1.
         13    1    4    4    0    0  0.99264629897E+01 -0.29342927302E+02 -0.38337554568E+02  0.49288032426E+02  0.00000000000E+00 0.  1.
         -1    1    1    2    0  502  0.22359643186E+02 -0.18323957892E+02 -0.34338166601E+02  0.44886866250E+02  0.00000000000E+00 0.  1.
<scales pt_clust_5="13000.00000" pt_clust_6="13000.00000" pt_clust_7="13000.00000" pt_clust_8="13000.00000" pt_clust_9="28.90884"></scales>
<clustering>
<clus scale="   28.909">  2  9  1 -1</clus>
<clus scale="   81.207">  5  6 -1 -1</clus>
<clus scale="   88.289">  1  5  2 -1</clus>
<clus scale="   90.455">  7  8 -1 -1</clus>
<clus scale="   28.909">  2  5  1 -1</clus>
</clustering>
</event>
<event>
 9    1  0.6345107E-005  0.2633135E+03  0.7546771E-02  0.1137614E+00
          1   -1    0    0  502    0 -0.00000000000E+00  0.00000000000E+00  0.23476603386E+03  0.23476603386E+03  0.00000000000E+00 0. -1.
         21   -1    0    0  501  502  0.00000000000E+00 -0.00000000000E+00 -0.53993583064E+03  0.53993583064E+03  0.00000000000E+00 0. -1.
         23    2    1    2    0    0  0.63520814352E+02 -0.43665184767E+02 -0.14280435529E+03  0.18473249230E+03  0.88269290261E+02 0.  0.
        -24    2    1    2    0    0  0.19888812381E+03  0.83542476674E+02  0.65336780044E+02  0.24025956262E+03  0.83186125048E+02 0.  0.
         11    1    4    4    0    0  0.11632678404E+03  0.90197221379E+01  0.53672484795E+02  0.12842901423E+03  0.00000000000E+00 0. -1.
        -12    1    4    4    0    0  0.82561339770E+02  0.74522754536E+02  0.11664295249E+02  0.11183054838E+03  0.00000000000E+00 0.  1.
        -13    1    3    3    0    0  0.42224235634E+02 -0.63985381884E+02 -0.13335043078E+03  0.15381596978E+03  0.00000000000E+00 0.  1.
         13    1    3    3    0    0  0.21296578718E+02  0.20320197116E+02 -0.94539245111E+01  0.30916522518E+02  0.00000000000E+00 0. -1.
          2    1    1    2  501    0 -0.26240893816E+03 -0.39877291907E+02 -0.22770222153E+03  0.34970980960E+03  0.00000000000E+00 0. -1.
<scales pt_clust_5="13000.00000" pt_clust_6="13000.00000" pt_clust_7="13000.00000" pt_clust_8="13000.00000" pt_clust_9="249.82807"></scales>
<clustering>
<clus scale="   83.186">  5  6 -1 -1</clus>
<clus scale="   88.269">  7  8 -1 -1</clus>
<clus scale="  117.188">  1  7  2 -1</clus>
<clus scale="  249.828">  2  9  1 -1</clus>
<clus scale="  249.828">  2  5  1 -1</clus>
</clustering>
</event>
<event>
 9    1  0.6345107E-005  0.1395733E+03  0.7546771E-02  0.1237419E+00
         21   -1    0    0  501  502  0.00000000000E+00  0.00000000000E+00  0.74243005388E+03  0.74243005388E+03  0.00000000000E+00 0.  1.
         -4   -1    0    0    0  501 -0.00000000000E+00 -0.00000000000E+00 -0.53667273303E+02  0.53667273303E+02  0.00000000000E+00 0.  1.
        -24    2    1    2    0    0  0.83039193890E+01  0.22283443038E+02  0.99079077103E+02  0.13092332218E+03  0.82211592004E+02 0.  0.
         23    2    1    2    0    0  0.11550226493E+02  0.10344545190E+03  0.47502935241E+03  0.49386270255E+03  0.86099442891E+02 0.  0.
         11    1    3    3    0    0  0.39687919246E+02 -0.95491003685E+01  0.49729093969E+02  0.64337384458E+02  0.00000000000E+00 0. -1.
        -12    1    3    3    0    0 -0.31383999857E+02  0.31832543407E+02  0.49349983134E+02  0.66585937720E+02  0.00000000000E+00 0.  1.
        -13    1    4    4    0    0 -0.17013957386E+02  0.10117416307E+03  0.31494626558E+03  0.33123531850E+03  0.00000000000E+00 0.  1.
         13    1    4    4    0    0  0.28564183880E+02  0.22712888342E+01  0.16008308683E+03  0.16262738405E+03  0.00000000000E+00 0. -1.
         -3    1    1    2    0  502 -0.19854145882E+02 -0.12572889494E+03  0.11465435106E+03  0.17131130246E+03  0.00000000000E+00 0.  1.
<scales pt_clust_5="13000.00000" pt_clust_6="13000.00000" pt_clust_7="13000.00000" pt_clust_8="13000.00000" pt_clust_9="109.85263"></scales>
<clustering>
<clus scale="   82.212">  5  6 -1 -1</clus>
<clus scale="   85.582">  2  5  1 -1</clus>
<clus scale="   86.099">  7  8 -1 -1</clus>
<clus scale="  109.853">  1  9  2 -1</clus>
<clus scale="  109.853">  1  5  2 -1</clus>
</clustering>
</event>
<event>
 9    1  0.6345107E-005  0.9912356E+02  0.7546771E-02  0.1289488E+00
         21   -1    0    0  501  502  0.00000000000E+00  0.00000000000E+00  0.26834956706E+02  0.26834956706E+02  0.00000000000E+00 0. -1.
         -4   -1    0    0    0  501 -0.00000000000E+00 -0.00000000000E+00 -0.79184164022E+03  0.79184164022E+03  0.00000000000E+00 0.  1.
        -24    2    1    2    0    0 -0.27553185594E+02 -0.31084316226E+02 -0.45036872229E+03  0.45899201404E+03  0.78206586583E+02 0.  0.
         23    2    1    2    0    0  0.43565502601E+02 -0.14941785787E+02 -0.28403640490E+03  0.30214110704E+03  0.92148571772E+02 0.  0.
         11    1    3    3    0    0 -0.26593773158E+02 -0.56852893954E+02 -0.31797703884E+03  0.32411244584E+03  0.00000000000E+00 0. -1.
        -12    1    3    3    0    0 -0.95941243632E+00  0.25768577727E+02 -0.13239168345E+03  0.13487956820E+03  0.00000000000E+00 0.  1.
        -11    1    4    4    0    0 -0.11978300431E+02 -0.26608886399E+02 -0.30035834119E+02  0.41876769788E+02  0.00000000000E+00 0. -1.
         11    1    4    4    0    0  0.55543803032E+02  0.11667100612E+02 -0.25400057078E+03  0.26026433725E+03  0.00000000000E+00 0.  1.
         -3    1    1    2    0  502 -0.16012317007E+02  0.46026102013E+02 -0.30601556333E+02  0.57543475846E+02  0.00000000000E+00 0.  1.
<scales pt_clust_5="13000.00000" pt_clust_6="13000.00000" pt_clust_7="13000.00000" pt_clust_8="13000.00000" pt_clust_9="48.73188"></scales>
<clustering>
<clus scale="   48.732">  1  9  2 -1</clus>
<clus scale="   78.207">  5  6 -1 -1</clus>
<clus scale="   86.316">  2  5  1 -1</clus>
<clus scale="   92.149">  7  8 -1 -1</clus>
<clus scale="   48.732">  1  5  2 -1</clus>
</clustering>
</event>
<event>
 9    1  0.6345107E-005  0.2908007E+03  0.7546771E-02  0.1132025E+00
         21   -1    0    0  501  502  0.00000000000E+00  0.00000000000E+00  0.71697757026E+02  0.71697757026E+02  0.00000000000E+00 0.  1.
          1   -1    0    0  502    0 -0.00000000000E+00 -0.00000000000E+00 -0.16852376441E+04  0.16852376441E+04  0.00000000000E+00 0. -1.
        -24    2    1    2    0    0  0.57257804636E+02 -0.14832968283E+02 -0.27621443324E+03  0.29365099470E+03  0.80237275738E+02 0.  0.
         23    2    1    2    0    0 -0.27940206213E+03  0.10215495328E+03 -0.47115339607E+03  0.56482615261E+03  0.92422471524E+02 0.  0.
         11    1    3    3    0    0  0.56271255291E+02 -0.38512449724E+02 -0.24585675578E+03  0.25513762427E+03  0.00000000000E+00 0. -1.
        -12    1    3    3    0    0  0.98654934465E+00  0.23679481441E+02 -0.30357677456E+02  0.38513370425E+02  0.00000000000E+00 0.  1.
        -13    1    4    4    0    0 -0.18417377062E+03  0.98010583930E+02 -0.26154123368E+03  0.33455921637E+03  0.00000000000E+00 0.  1.
         13    1    4    4    0    0 -0.95228291510E+02  0.41443693472E+01 -0.20961216239E+03  0.23026693624E+03  0.00000000000E+00 0. -1.
          2    1    1    2  501    0  0.22214425749E+03 -0.87321984995E+02 -0.86617205773E+03  0.89845825379E+03  0.00000000000E+00 0. -1.
<scales pt_clust_5="13000.00000" pt_clust_6="13000.00000" pt_clust_7="13000.00000" pt_clust_8="13000.00000" pt_clust_9="275.72312"></scales>
<clustering>
<clus scale="   80.237">  5  6 -1 -1</clus>
<clus scale="   92.422">  7  8 -1 -1</clus>
<clus scale="   99.682">  2  5  1 -1</clus>
<clus scale="  275.723">  1  9  2 -1</clus>
<clus scale="  275.723">  1  5  2 -1</clus>
</clustering>
</event>
<event>
 9    1  0.6345107E-005  0.1099566E+03  0.7546771E-02  0.1261167E+00
         21   -1    0    0  501  502  0.00000000000E+00  0.00000000000E+00  0.13542779424E+03  0.13542779424E+03  0.00000000000E+00 0. -1.
          1   -1    0    0  502    0 -0.00000000000E+00 -0.00000000000E+00 -0.20410479449E+03  0.20410479449E+03  0.00000000000E+00 0. -1.
        -24    2    1    2    0    0  0.48180778786E+02  0.74993055027E+02 -0.61725971806E+02  0.13547190493E+03  0.81223122831E+02 0.  0.
         23    2    1    2    0    0 -0.41653149492E+02 -0.11205266523E+02  0.60355853751E+02  0.11109989478E+03  0.82703172114E+02 0.  0.
         11    1    3    3    0    0  0.57378543912E+02  0.48932521475E+02 -0.90039632483E+01  0.75945772190E+02  0.00000000000E+00 0. -1.
        -12    1    3    3    0    0 -0.91977651251E+01  0.26060533552E+02 -0.52722008557E+02  0.59526132737E+02  0.00000000000E+00 0.  1.
        -13    1    4    4    0    0 -0.22738223904E+02  0.45124669324E+01  0.77648911510E+02  0.81035440659E+02  0.00000000000E+00 0. -1.
         13    1    4    4    0    0 -0.18914925588E+02 -0.15717733455E+02 -0.17293057759E+02  0.30064454121E+02  0.00000000000E+00 0.  1.
          2    1    1    2  501    0 -0.65276292949E+01 -0.63787788504E+02 -0.67306882190E+02  0.92960789027E+02  0.00000000000E+00 0. -1.
<scales pt_clust_5="13000.00000" pt_clust_6="13000.00000" pt_clust_7="13000.00000" pt_clust_8="13000.00000" pt_clust_9="64.12095"></scales>
<clustering>
<clus scale="   64.121">  1  9  2 -1</clus>
<clus scale="   81.223">  5  6 -1 -1</clus>
<clus scale="   82.703">  7  8 -1 -1</clus>
<clus scale="  108.848">  2  5  1 -1</clus>
<clus scale="   64.121">  1  5  2 -1</clus>
</clustering>
</event>
<event>
 9    1  0.1037390E-004  0.1110301E+03  0.7546771E-02  0.1264238E+00
         21   -1    0    0  501  502  0.00000000000E+00  0.00000000000E+00  0.11244104150E+03  0.11244104150E+03  0.00000000000E+00 0. -1.
          3   -1    0    0  502    0 -0.00000000000E+00 -0.00000000000E+00 -0.33954688628E+03  0.33954688628E+03  0.00000000000E+00 0. -1.
        -24    2    1    2    0    0  0.51272193161E+02 -0.40699882038E+02 -0.17105847252E+03  0.19903065744E+03  0.77890200851E+02 0.  0.
         23    2    1    2    0    0 -0.30389180303E+02  0.22818950000E+02  0.71398957318E+02  0.12257937775E+03  0.92106926913E+02 0.  0.
         11    1    3    3    0    0  0.66898213576E+02 -0.14026177574E+02 -0.13653688429E+03  0.15269061991E+03  0.00000000000E+00 0. -1.
        -12    1    3    3    0    0 -0.15626020416E+02 -0.26673704463E+02 -0.34521588231E+02  0.46340037525E+02  0.00000000000E+00 0.  1.
        -11    1    4    4    0    0 -0.41489106836E+02 -0.84322922289E+01  0.78014415303E+02  0.88762033174E+02  0.00000000000E+00 0. -1.
         11    1    4    4    0    0  0.11099926533E+02  0.31251242229E+02 -0.66154579845E+01  0.33817344577E+02  0.00000000000E+00 0.  1.
          4    1    1    2  501    0 -0.20883012858E+02  0.17880932037E+02 -0.12744632957E+03  0.13037789259E+03  0.00000000000E+00 0. -1.
<scales pt_clust_5="13000.00000" pt_clust_6="13000.00000" pt_clust_7="13000.00000" pt_clust_8="13000.00000" pt_clust_9="27.49234"></scales>
<clustering>
<clus scale="   27.492">  1  9  2 -1</clus>
<clus scale="   77.890">  5  6 -1 -1</clus>
<clus scale="   92.107">  7  8 -1 -1</clus>
<clus scale="   99.553">  2  5  1 -1</clus>
<clus scale="   27.492">  1  5  2 -1</clus>
</clustering>
</event>
<event>
 9    1  0.6345107E-005  0.1417160E+03  0.7546771E-02  0.1213941E+00
         -2   -1    0    0    0  501 -0.00000000000E+00  0.00000000000E+00  0.27457575504E+03  0.27457575504E+03  0.00000000000E+00 0.  1.
         21   -1    0    0  501  502  0.00000000000E+00 -0.00000000000E+00 -0.13144044337E+03  0.13144044337E+03  0.00000000000E+00 0.  1.
        -24    2    1    2    0    0 -0.15182967447E+02 -0.66680367086E+02  0.26491725341E+02  0.10958424118E+03  0.81425429371E+02 0.  0.
         23    2    1    2    0    0  0.14034009307E+02  0.15532155683E+03  0.92525207681E+02  0.20456097807E+03  0.94670693776E+02 0.  0.
         11    1    3    3    0    0 -0.28180521720E+02 -0.34997184356E+02 -0.22150819146E+02  0.50095943011E+02  0.00000000000E+00 0. -1.
        -12    1    3    3    0    0  0.12997554273E+02 -0.31683182730E+02  0.48642544487E+02  0.59488298170E+02  0.00000000000E+00 0.  1.
        -13    1    4    4    0    0  0.48455930644E+02  0.11629993943E+03  0.44117595832E+02  0.13349163040E+03  0.00000000000E+00 0.  1.
         13    1    4    4    0    0 -0.34421921337E+02  0.39021617401E+02  0.48407611849E+02  0.71069347668E+02  0.00000000000E+00 0. -1.
         -1    1    1    2    0  502  0.11489581397E+01 -0.88641189744E+02  0.24118378646E+02  0.91870979164E+02  0.00000000000E+00 0.  1.
<scales pt_clust_5="13000.00000" pt_clust_6="13000.00000" pt_clust_7="13000.00000" pt_clust_8="13000.00000" pt_clust_9="88.64864"></scales>
<clustering>
<clus scale="   81.425">  5  6 -1 -1</clus>
<clus scale="   88.649">  2  9  1 -1</clus>
<clus scale="   94.671">  7  8 -1 -1</clus>
<clus scale="  133.233">  1  5  2 -1</clus>
<clus scale="   88.649">  2  5  1 -1</clus>
</clustering>
</event>
<event>
 9    1  0.6345107E-005  0.9653714E+02  0.7546771E-02  0.1293859E+00
         21   -1    0    0  501  502  0.00000000000E+00  0.00000000000E+00  0.28358658320E+03  0.28358658320E+03  0.00000000000E+00 0. -1.
          1   -1    0    0  502    0 -0.00000000000E+00 -0.00000000000E+00 -0.22486374420E+03  0.22486374420E+03  0.00000000000E+00 0. -1.
        -24    2    1    2    0    0  0.50412744373E+01  0.32992269862E+02 -0.18294865826E+03  0.20275201143E+03  0.80772905492E+02 0.  0.
         23    2    1    2    0    0 -0.93078453514E+01 -0.38633873025E+01  0.37930208022E+02  0.99841063556E+02  0.91804006149E+02 0.  0.
         13    1    3    3    0    0  0.35834159257E+02  0.36668917276E+02 -0.78198853877E+02  0.93508059607E+02  0.00000000000E+00 0. -1.
        -14    1    3    3    0    0 -0.30792884820E+02 -0.36766474137E+01 -0.10474980439E+03  0.10924395183E+03  0.00000000000E+00 0.  1.
        -11    1    4    4    0    0 -0.16198190254E+02  0.30405026006E+02 -0.14046498598E+02  0.37204181173E+02  0.00000000000E+00 0. -1.
         11    1    4    4    0    0  0.68903449023E+01 -0.34268413308E+02  0.51976706620E+02  0.62636882383E+02  0.00000000000E+00 0.  1.
          2    1    1    2  501    0  0.42665709140E+01 -0.29128882559E+02  0.20374128924E+03  0.20585725241E+03  0.00000000000E+00 0. -1.
<scales pt_clust_5="13000.00000" pt_clust_6="13000.00000" pt_clust_7="13000.00000" pt_clust_8="13000.00000" pt_clust_9="29.43969"></scales>
<clustering>
<clus scale="   29.440">  1  9  2 -1</clus>
<clus scale="   80.773">  5  6 -1 -1</clus>
<clus scale="   86.114">  2  5  1 -1</clus>
<clus scale="   91.804">  7  8 -1 -1</clus>
<clus scale="   29.440">  1  5  2 -1</clus>
</clustering>
</event>
<event>
 9    1  0.6345107E-005  0.1351947E+03  0.7546771E-02  0.1222514E+00
         21   -1    0    0  501  502  0.00000000000E+00  0.00000000000E+00  0.13552978037E+03  0.13552978037E+03  0.00000000000E+00 0.  1.
         -2   -1    0    0    0  501 -0.00000000000E+00 -0.00000000000E+00 -0.53912032872E+03  0.53912032872E+03  0.00000000000E+00 0.  1.
        -24    2    1    2    0    0  0.70618958942E+02  0.64235863150E+02 -0.42315645335E+03  0.44128345876E+03  0.80971744988E+02 0.  0.
         23    2    1    2    0    0 -0.11534219434E+03 -0.59696251725E+02 -0.34834244970E+02  0.16279645709E+03  0.91770352255E+02 0.  0.
         11    1    3    3    0    0 -0.89274934472E+01  0.25289093572E+02 -0.40959510276E+02  0.48958348368E+02  0.00000000000E+00 0. -1.
        -12    1    3    3    0    0  0.79546452389E+02  0.38946769579E+02 -0.38219694308E+03  0.39232511039E+03  0.00000000000E+00 0.  1.
        -11    1    4    4    0    0 -0.27478379401E+02 -0.31379989570E+02  0.28789315751E+02  0.50681256706E+02  0.00000000000E+00 0. -1.
         11    1    4    4    0    0 -0.87863814940E+02 -0.28316262155E+02 -0.63623560721E+02  0.11211520038E+03  0.00000000000E+00 0.  1.
         -1    1    1    2    0  502  0.44723235398E+02 -0.45396114251E+01  0.54400149977E+02  0.70570193240E+02  0.00000000000E+00 0.  1.
<scales pt_clust_5="13000.00000" pt_clust_6="13000.00000" pt_clust_7="13000.00000" pt_clust_8="13000.00000" pt_clust_9="44.95304"></scales>
<clustering>
<clus scale="   44.953">  1  9  2 -1</clus>
<clus scale="   80.972">  5  6 -1 -1</clus>
<clus scale="   91.770">  7  8 -1 -1</clus>
<clus scale="  128.110">  2  5  1 -1</clus>
<clus scale="   44.953">  1  5  2 -1</clus>
</clustering>
</event>
<event>
 9    1  0.6345107E-005  0.1002021E+03  0.7546771E-02  0.1289637E+00
         21   -1    0    0  501  502  0.00000000000E+00  0.00000000000E+00  0.52690726234E+03  0.52690726234E+03  0.00000000000E+00 0. -1.
          3   -1    0    0  502    0 -0.00000000000E+00 -0.00000000000E+00 -0.15312788742E+03  0.15312788742E+03  0.00000000000E+00 0. -1.
        -24    2    1    2    0    0 -0.79573569681E+01  0.95348159037E+01 -0.79180524066E+02  0.11527765425E+03  0.82856200330E+02 0.  0.
         23    2    1    2    0    0  0.22349222247E+01  0.59532629404E+02  0.10289091036E+02  0.11669443916E+03  0.99812814290E+02 0.  0.
         13    1    3    3    0    0 -0.35992372576E+02 -0.15665752945E+02 -0.63058774781E+02  0.74278366810E+02  0.00000000000E+00 0. -1.
        -14    1    3    3    0    0  0.28035015608E+02  0.25200568848E+02 -0.16121749285E+02  0.40999287438E+02  0.00000000000E+00 0.  1.
        -13    1    4    4    0    0 -0.28740778336E+02  0.72638949954E+02 -0.77959930027E+01  0.78506222025E+02  0.00000000000E+00 0. -1.
         13    1    4    4    0    0  0.30975700560E+02 -0.13106320550E+02  0.18085084038E+02  0.38188217139E+02  0.00000000000E+00 0.  1.
          4    1    1    2  501    0  0.57224347434E+01 -0.69067445308E+02  0.44267080795E+03  0.44806305636E+03  0.00000000000E+00 0. -1.
<scales pt_clust_5="13000.00000" pt_clust_6="13000.00000" pt_clust_7="13000.00000" pt_clust_8="13000.00000" pt_clust_9="69.30410"></scales>
<clustering>
<clus scale="   69.304">  1  9  2 -1</clus>
<clus scale="   82.856">  5  6 -1 -1</clus>
<clus scale="   83.325">  2  5  1 -1</clus>
<clus scale="   99.813">  7  8 -1 -1</clus>
<clus scale="   69.304">  1  5  2 -1</clus>
</clustering>
</event>
<event>
 9    1  0.6345107E-005  0.1138612E+03  0.7546771E-02  0.1257990E+00
         21   -1    0    0  501  502  0.00000000000E+00  0.00000000000E+00  0.44986194548E+03  0.44986194548E+03  0.00000000000E+00 0.  1.
         -2   -1    0    0    0  501 -0.00000000000E+00 -0.00000000000E+00 -0.65873657219E+02  0.65873657219E+02  0.00000000000E+00 0.  1.
         23    2    1    2    0    0  0.13052286069E+02  0.64503579806E+02  0.22848723607E+02  0.11573802085E+03  0.92423759505E+02 0.  0.
        -24    2    1    2    0    0 -0.47345373772E+02 -0.57164650231E+02  0.14840242911E+03  0.18438922256E+03  0.80415936105E+02 0.  0.
         13    1    4    4    0    0  0.11551704486E+02 -0.30761480187E+02  0.14852164957E+02  0.36059635934E+02  0.00000000000E+00 0. -1.
        -14    1    4    4    0    0 -0.58897078257E+02 -0.26403170045E+02  0.13355026415E+03  0.14832958663E+03  0.00000000000E+00 0.  1.
        -13    1    3    3    0    0  0.48952704507E+02  0.39367370653E+02  0.32698821718E+02  0.70819277689E+02  0.00000000000E+00 0.  1.
         13    1    3    3    0    0 -0.35900418438E+02  0.25136209153E+02 -0.98500981110E+01  0.44918743164E+02  0.00000000000E+00 0. -1.
         -1    1    1    2    0  502  0.34293087703E+02 -0.73389295747E+01  0.21273713555E+03  0.21560835928E+03  0.00000000000E+00 0.  1.
<scales pt_clust_5="13000.00000" pt_clust_6="13000.00000" pt_clust_7="13000.00000" pt_clust_8="13000.00000" pt_clust_9="35.06958"></scales>
<clustering>
<clus scale="   35.070">  1  9  2 -1</clus>
<clus scale="   80.416">  5  6 -1 -1</clus>
<clus scale="   92.424">  7  8 -1 -1</clus>
<clus scale="  104.350">  1  5  2 -1</clus>
<clus scale="   35.070">  1  5  2 -1</clus>
</clustering>
</event>
<event>
 9    1  0.6345107E-005  0.1042546E+03  0.7546771E-02  0.1276202E+00
         -2   -1    0    0    0  501 -0.00000000000E+00  0.00000000000E+00  0.44983635776E+02  0.44983635776E+02  0.00000000000E+00 0.  1.
         21   -1    0    0  501  502  0.00000000000E+00 -0.00000000000E+00 -0.44228416741E+03  0.44228416741E+03  0.00000000000E+00 0. -1.
         23    2    1    2    0    0 -0.30005121060E+02 -0.27226655716E+02 -0.14765229274E+03  0.17855755287E+03  0.91869483856E+02 0.  0.
        -24    2    1    2    0    0  0.72479542631E+02 -0.60490270057E+01 -0.22332052507E+03  0.24867279481E+03  0.81708182783E+02 0.  0.
         13    1    4    4    0    0  0.66817339687E+02  0.73143201597E+01 -0.22427206976E+03  0.23412820727E+03  0.00000000000E+00 0. -1.
        -14    1    4    4    0    0  0.56622029436E+01 -0.13363347165E+02  0.95154468860E+00  0.14544587548E+02  0.00000000000E+00 0.  1.
        -13    1    3    3    0    0 -0.37906281763E+00 -0.42576084172E+02 -0.13710475618E+03  0.14356385618E+03  0.00000000000E+00 0. -1.
         13    1    3    3    0    0 -0.29626058242E+02  0.15349428456E+02 -0.10547536557E+02  0.34993696694E+02  0.00000000000E+00 0.  1.
         -1    1    1    2    0  502 -0.42474421571E+02  0.33275682722E+02 -0.26327713823E+02  0.60037455506E+02  0.00000000000E+00 0.  1.
<scales pt_clust_5="13000.00000" pt_clust_6="13000.00000" pt_clust_7="13000.00000" pt_clust_8="13000.00000" pt_clust_9="53.95693"></scales>
<clustering>
<clus scale="   53.957">  2  9  1 -1</clus>
<clus scale="   81.708">  5  6 -1 -1</clus>
<clus scale="   91.869">  7  8 -1 -1</clus>
<clus scale="   95.421">  2  5  1 -1</clus>
<clus scale="   53.957">  2  5  1 -1</clus>
</clustering>
</event>
<event>
 9    1  0.6345107E-005  0.1476779E+03  0.7546771E-02  0.1204345E+00
         21   -1    0    0  501  502  0.00000000000E+00  0.00000000000E+00  0.28632312716E+03  0.28632312716E+03  0.00000000000E+00 0. -1.
          1   -1    0    0  502    0 -0.00000000000E+00 -0.00000000000E+00 -0.23886430693E+03  0.23886430693E+03  0.00000000000E+00 0. -1.
         23    2    1    2    0    0 -0.12239669037E+03  0.79572481465E+00 -0.18020871106E+03  0.23570879988E+03  0.90010420560E+02 0.  0.
        -24    2    1    2    0    0  0.75648595084E+02  0.20870132218E+02  0.20005379404E+03  0.23102085235E+03  0.84798828740E+02 0.  0.
         11    1    4    4    0    0 -0.12345702750E+02  0.19212709379E+02  0.72797298170E+02  0.76295420564E+02  0.00000000000E+00 0. -1.
        -12    1    4    4    0    0  0.87994297834E+02  0.16574228394E+01  0.12725649586E+03  0.15472543179E+03  0.00000000000E+00 0.  1.
        -13    1    3    3    0    0 -0.61216842783E+02 -0.24898365604E+02 -0.14771351634E+03  0.16182309279E+03  0.00000000000E+00 0.  1.
         13    1    3    3    0    0 -0.61179847585E+02  0.25694090419E+02 -0.32495194720E+02  0.73885707095E+02  0.00000000000E+00 0. -1.
          2    1    1    2  501    0  0.46748095284E+02 -0.21665857033E+02  0.27613737256E+02  0.58457781851E+02  0.00000000000E+00 0. -1.
<scales pt_clust_5="13000.00000" pt_clust_6="13000.00000" pt_clust_7="13000.00000" pt_clust_8="13000.00000" pt_clust_9="51.52469"></scales>
<clustering>
<clus scale="   51.525">  1  9  2 -1</clus>
<clus scale="   84.799">  5  6 -1 -1</clus>
<clus scale="   90.010">  7  8 -1 -1</clus>
<clus scale="  144.561">  1  5  2 -1</clus>
<clus scale="   51.525">  1  5  2 -1</clus>
</clustering>
</event>
<event>
 9    1  0.6345107E-005  0.1877350E+03  0.7546771E-02  0.1161924E+00
          1   -1    0    0  502    0 -0.00000000000E+00  0.00000000000E+00  0.55029094960E+03  0.55029094960E+03  0.00000000000E+00 0. -1.
         21   -1    0    0  501  502  0.00000000000E+00 -0.00000000000E+00 -0.10270211393E+03  0.10270211393E+03  0.00000000000E+00 0.  1.
        -24    2    1    2    0    0 -0.18187043112E+03 -0.34603771545E+02  0.20146080829E+03  0.28596163679E+03  0.83146411318E+02 0.  0.
         23    2    1    2    0    0  0.11625793272E+03  0.78100567063E+02  0.89517522246E+02  0.19174930706E+03  0.95597094476E+02 0.  0.
         11    1    3    3    0    0 -0.17673439552E+03 -0.51261540631E+02  0.19270532204E+03  0.26645474898E+03  0.00000000000E+00 0. -1.
        -12    1    3    3    0    0 -0.51360355987E+01  0.16657769086E+02  0.87554862472E+01  0.19506887809E+02  0.00000000000E+00 0.  1.
        -13    1    4    4    0    0  0.67225425967E+02  0.38935483829E+02 -0.54977101036E+01  0.77881028587E+02  0.00000000000E+00 0.  1.
         13    1    4    4    0    0  0.49032506749E+02  0.39165083235E+02  0.95015232350E+02  0.11386827847E+03  0.00000000000E+00 0. -1.
          2    1    1    2  501    0  0.65612498405E+02 -0.43496795518E+02  0.15661050513E+03  0.17528211970E+03  0.00000000000E+00 0. -1.
<scales pt_clust_5="13000.00000" pt_clust_6="13000.00000" pt_clust_7="13000.00000" pt_clust_8="13000.00000" pt_clust_9="78.72088"></scales>
<clustering>
<clus scale="   78.721">  2  9  1 -1</clus>
<clus scale="   83.146">  5  6 -1 -1</clus>
<clus scale="   95.597">  7  8 -1 -1</clus>
<clus scale="  181.711">  1  5  2 -1</clus>
<clus scale="   78.721">  2  5  1 -1</clus>
</clustering>
</event>
<event>
 9    1  0.6345107E-005  0.6022161E+03  0.7546771E-02  0.1020403E+00
         21   -1    0    0  501  502  0.00000000000E+00  0.00000000000E+00  0.54116350706E+03  0.54116350706E+03  0.00000000000E+00 0. -1.
          1   -1    0    0  502    0 -0.00000000000E+00 -0.00000000000E+00 -0.10433583504E+04  0.10433583504E+04  0.00000000000E+00 0. -1.
         23    2    1    2    0    0  0.14270229678E+03 -0.16130945986E+03  0.61927458039E+02  0.24196362048E+03  0.91250732757E+02 0.  0.
        -24    2    1    2    0    0  0.74736752128E+02 -0.49590698200E+03 -0.35374441677E+03  0.61904455654E+03  0.81066230173E+02 0.  0.
         13    1    4    4    0    0  0.66122375362E+02 -0.36633470790E+03 -0.30163528735E+03  0.47912120941E+03  0.00000000000E+00 0. -1.
        -14    1    4    4    0    0  0.86143767664E+01 -0.12957227410E+03 -0.52109129418E+02  0.13992334713E+03  0.00000000000E+00 0.  1.
        -11    1    3    3    0    0  0.29158422507E+02 -0.71128485581E+02 -0.14232826200E+02  0.78179590724E+02  0.00000000000E+00 0.  1.
         11    1    3    3    0    0  0.11354387428E+03 -0.90180974283E+02  0.76160284240E+02  0.16378402976E+03  0.00000000000E+00 0. -1.
          2    1    1    2  501    0 -0.21743904891E+03  0.65721644186E+03 -0.21037788461E+03  0.72351368044E+03  0.00000000000E+00 0. -1.
<scales pt_clust_5="13000.00000" pt_clust_6="13000.00000" pt_clust_7="13000.00000" pt_clust_8="13000.00000" pt_clust_9="596.73491"></scales>
<clustering>
<clus scale="   81.066">  5  6 -1 -1</clus>
<clus scale="   91.251">  7  8 -1 -1</clus>
<clus scale="  233.905">  2  7  1 -1</clus>
<clus scale="  596.735">  1  9  2 -1</clus>
<clus scale="  596.735">  1  5  2 -1</clus>
</clustering>
</event>
<event>
 9    1  0.6345107E-005  0.9357275E+02  0.7546771E-02  0.1299022E+00
         -2   -1    0    0    0  501 -0.00000000000E+00  0.00000000000E+00  0.41394065285E+03  0.41394065285E+03  0.00000000000E+00 0.  1.
         21   -1    0    0  501  502  0.00000000000E+00 -0.00000000000E+00 -0.35717276097E+02  0.35717276097E+02  0.00000000000E+00 0. -1.
        -24    2    1    2    0    0  0.29304722818E+02 -0.11017340380E+02  0.16668878576E+03  0.18627629371E+03  0.77029589967E+02 0.  0.
         23    2    1    2    0    0 -0.41081306309E+02  0.40209244989E+02  0.86689672108E+02  0.13462951299E+03  0.85472506726E+02 0.  0.
         13    1    3    3    0    0 -0.89253670248E+01  0.26873343623E+02  0.71831394913E+02  0.77211320861E+02  0.00000000000E+00 0. -1.
        -14    1    3    3    0    0  0.38230089842E+02 -0.37890684002E+02  0.94857390847E+02  0.10906497285E+03  0.00000000000E+00 0.  1.
        -11    1    4    4    0    0 -0.18285097279E+02 -0.22440704461E+02  0.53132143636E+01  0.29430600505E+02  0.00000000000E+00 0.  1.
         11    1    4    4    0    0 -0.22796209030E+02  0.62649949449E+02  0.81376457745E+02  0.10519891248E+03  0.00000000000E+00 0. -1.
         -1    1    1    2    0  502  0.11776583492E+02 -0.29191904609E+02  0.12484491889E+03  0.12875212226E+03  0.00000000000E+00 0.  1.
<scales pt_clust_5="13000.00000" pt_clust_6="13000.00000" pt_clust_7="13000.00000" pt_clust_8="13000.00000" pt_clust_9="31.47787"></scales>
<clustering>
<clus scale="   31.478">  2  9  1 -1</clus>
<clus scale="   77.030">  5  6 -1 -1</clus>
<clus scale="   85.473">  7  8 -1 -1</clus>
<clus scale="   85.929">  1  5  2 -1</clus>
<clus scale="   31.478">  2  5  1 -1</clus>
</clustering>
</event>
<event>
 9    1  0.6345107E-005  0.1621574E+03  0.7546771E-02  0.1188109E+00
          1   -1    0    0  502    0 -0.00000000000E+00  0.00000000000E+00  0.60770154351E+02  0.60770154351E+02  0.00000000000E+00 0. -1.
         21   -1    0    0  501  502  0.00000000000E+00 -0.00000000000E+00 -0.64203921096E+03  0.64203921096E+03  0.00000000000E+00 0. -1.
         23    2    1    2    0    0 -0.98567235235E+02  0.96617522334E+02 -0.27149895364E+03  0.31799019504E+03  0.91409172581E+02 0.  0.
        -24    2    1    2    0    0  0.72414353073E+02 -0.10895650661E+03 -0.31953677617E+03  0.35429685576E+03  0.79417578742E+02 0.  0.
         13    1    4    4    0    0  0.51611168736E+02 -0.74062413099E+02 -0.29092323376E+03  0.30460676571E+03  0.00000000000E+00 0. -1.
        -14    1    4    4    0    0  0.20803184336E+02 -0.34894093506E+02 -0.28613542407E+02  0.49690090050E+02  0.00000000000E+00 0.  1.
        -11    1    3    3    0    0 -0.97581565716E+01  0.63733946606E+02 -0.68973433549E+02  0.94417011736E+02  0.00000000000E+00 0.  1.
         11    1    3    3    0    0 -0.88809078664E+02  0.32883575728E+02 -0.20252552009E+03  0.22357318330E+03  0.00000000000E+00 0. -1.
          2    1    1    2  501    0  0.26152882163E+02  0.12338984272E+02  0.97666731914E+01  0.30522314518E+02  0.00000000000E+00 0. -1.
<scales pt_clust_5="13000.00000" pt_clust_6="13000.00000" pt_clust_7="13000.00000" pt_clust_8="13000.00000" pt_clust_9="28.91755"></scales>
<clustering>
<clus scale="   28.918">  2  9  1 -1</clus>
<clus scale="   79.418">  5  6 -1 -1</clus>
<clus scale="   91.409">  7  8 -1 -1</clus>
<clus scale="  155.713">  2  5  1 -1</clus>
<clus scale="   28.918">  2  5  1 -1</clus>
</clustering>
</event>
<event>
 9    1  0.6345107E-005  0.1136688E+03  0.7546771E-02  0.1257963E+00
          3   -1    0    0  502    0 -0.00000000000E+00  0.00000000000E+00  0.87124659590E+02  0.87124659590E+02  0.00000000000E+00 0. -1.
         21   -1    0    0  501  502  0.00000000000E+00 -0.00000000000E+00 -0.74667300353E+03  0.74667300353E+03  0.00000000000E+00 0. -1.
        -24    2    1    2    0    0 -0.40775580958E+01 -0.71150615318E+02  0.27677251695E+02  0.11102106714E+03  0.80502239389E+02 0.  0.
         23    2    1    2    0    0 -0.79350882262E+02  0.23821131052E+02 -0.45638431994E+03  0.47280043851E+03  0.91594750756E+02 0.  0.
         11    1    3    3    0    0 -0.40862693388E+02 -0.25263139292E+02  0.63381914547E+01  0.48457802145E+02  0.00000000000E+00 0. -1.
        -12    1    3    3    0    0  0.36785135292E+02 -0.45887476026E+02  0.21339060240E+02  0.62563264992E+02  0.00000000000E+00 0.  1.
        -13    1    4    4    0    0  0.61319305727E+01  0.35942799813E+02 -0.11348515900E+03  0.11919885379E+03  0.00000000000E+00 0.  1.
         13    1    4    4    0    0 -0.85482812835E+02 -0.12121668762E+02 -0.34289916094E+03  0.35360158472E+03  0.00000000000E+00 0. -1.
          4    1    1    2  501    0  0.83428440358E+02  0.47329484266E+02 -0.23084127569E+03  0.24997615747E+03  0.00000000000E+00 0. -1.
<scales pt_clust_5="13000.00000" pt_clust_6="13000.00000" pt_clust_7="13000.00000" pt_clust_8="13000.00000" pt_clust_9="95.91864"></scales>
<clustering>
<clus scale="   80.502">  5  6 -1 -1</clus>
<clus scale="   91.595">  7  8 -1 -1</clus>
<clus scale="   95.919">  2  9  1 -1</clus>
<clus scale="  104.936">  1  5  2 -1</clus>
<clus scale="   95.919">  2  5  1 -1</clus>
</clustering>
</event>
<event>
 9    1  0.6345107E-005  0.2714391E+03  0.7546771E-02  0.1101024E+00
          1   -1    0    0  502    0 -0.00000000000E+00  0.00000000000E+00  0.15010818306E+04  0.15010818306E+04  0.00000000000E+00 0. -1.
         21   -1    0    0  501  502  0.00000000000E+00 -0.00000000000E+00 -0.70775661537E+02  0.70775661537E+02  0.00000000000E+00 0.  1.
        -24    2    1    2    0    0  0.13733859735E+03  0.22876662526E+03  0.94050837891E+03  0.98066505277E+03  0.77148400976E+02 0.  0.
         23    2    1    2    0    0 -0.14754360890E+03 -0.18970567829E+03  0.48732140411E+03  0.55074454290E+03  0.89889041150E+02 0.  0.
         13    1    3    3    0    0  0.10333350013E+03  0.12895723476E+03  0.67622035228E+03  0.69611905985E+03  0.00000000000E+00 0. -1.
        -14    1    3    3    0    0  0.34005097213E+02  0.99809390501E+02  0.26428802663E+03  0.28454599292E+03  0.00000000000E+00 0.  1.
        -11    1    4    4    0    0 -0.94851686993E+02 -0.17926891781E+03  0.38993112291E+03  0.43952300057E+03  0.00000000000E+00 0. -1.
         11    1    4    4    0    0 -0.52691921910E+02 -0.10436760480E+02  0.97390281206E+02  0.11122154233E+03  0.00000000000E+00 0.  1.
          2    1    1    2  501    0  0.10205011557E+02 -0.39060946969E+02  0.24763860162E+01  0.40447896444E+02  0.00000000000E+00 0. -1.
<scales pt_clust_5="13000.00000" pt_clust_6="13000.00000" pt_clust_7="13000.00000" pt_clust_8="13000.00000" pt_clust_9="40.37202"></scales>
<clustering>
<clus scale="   40.372">  2  9  1 -1</clus>
<clus scale="   77.148">  5  6 -1 -1</clus>
<clus scale="   89.889">  7  8 -1 -1</clus>
<clus scale="  267.490">  1  5  2 -1</clus>
<clus scale="   40.372">  2  5  1 -1</clus>
</clustering>
</event>
<event>
 9    1  0.6345107E-005  0.1816206E+03  0.7546771E-02  0.1167342E+00
         21   -1    0    0  501  502  0.00000000000E+00  0.00000000000E+00  0.19794800680E+03  0.19794800680E+03  0.00000000000E+00 0. -1.
          1   -1    0    0  502    0 -0.00000000000E+00 -0.00000000000E+00 -0.22485366446E+03  0.22485366446E+03  0.00000000000E+00 0. -1.
        -24    2    1    2    0    0 -0.73093064333E+02 -0.14326009832E+03 -0.24394817171E+02  0.18188454635E+03  0.81368478374E+02 0.  0.
         23    2    1    2    0    0  0.11716357862E+03  0.10694479563E+03  0.75151537031E+01  0.18293840469E+03  0.90804674476E+02 0.  0.
         11    1    3    3    0    0 -0.57129270480E+02 -0.14645119203E+03 -0.59909808456E+01  0.15731368994E+03  0.00000000000E+00 0. -1.
        -12    1    3    3    0    0 -0.15963793854E+02  0.31910937073E+01 -0.18403836326E+02  0.24570856411E+02  0.00000000000E+00 0.  1.
        -13    1    4    4    0    0  0.35145715891E+02 -0.11516047404E+02 -0.85583897990E+01  0.37961648136E+02  0.00000000000E+00 0.  1.
         13    1    4    4    0    0  0.82017862734E+02  0.11846084304E+03  0.16073543502E+02  0.14497675656E+03  0.00000000000E+00 0. -1.
          2    1    1    2  501    0 -0.44070514291E+02  0.36315302685E+02 -0.10025994195E+02  0.57978720222E+02  0.00000000000E+00 0. -1.
<scales pt_clust_5="13000.00000" pt_clust_6="13000.00000" pt_clust_7="13000.00000" pt_clust_8="13000.00000" pt_clust_9="57.10529"></scales>
<clustering>
<clus scale="   57.105">  1  9  2 -1</clus>
<clus scale="   81.368">  5  6 -1 -1</clus>
<clus scale="   90.805">  7  8 -1 -1</clus>
<clus scale="  177.091">  2  5  1 -1</clus>
<clus scale="   57.105">  1  5  2 -1</clus>
</clustering>
</event>
<event>
 9    1  0.6345107E-005  0.1029073E+03  0.7546771E-02  0.1279364E+00
          3   -1    0    0  502    0 -0.00000000000E+00  0.00000000000E+00  0.12533349830E+03  0.12533349830E+03  0.00000000000E+00 0. -1.
         21   -1    0    0  501  502  0.00000000000E+00 -0.00000000000E+00 -0.21785127898E+03  0.21785127898E+03  0.00000000000E+00 0. -1.
         23    2    1    2    0    0 -0.83156779428E+01 -0.43292062434E+02  0.50307938345E+02  0.11285216867E+03  0.90892079651E+02 0.  0.
        -24    2    1    2    0    0 -0.39063197195E+02  0.72312084792E+02 -0.12992271857E+03  0.17329396445E+03  0.79974460506E+02 0.  0.
         11    1    4    4    0    0 -0.30021957953E+02  0.89959820258E+02 -0.10836379900E+03  0.14400277829E+03  0.00000000000E+00 0. -1.
        -12    1    4    4    0    0 -0.90412392420E+01 -0.17647735466E+02 -0.21558919562E+02  0.29291186162E+02  0.00000000000E+00 0.  1.
        -11    1    3    3    0    0  0.38253891219E+02 -0.36818233091E+02  0.19121390672E+02  0.56431995025E+02  0.00000000000E+00 0. -1.
         11    1    3    3    0    0 -0.46569569161E+02 -0.64738293431E+01  0.31186547673E+02  0.56420173644E+02  0.00000000000E+00 0.  1.
          4    1    1    2  501    0  0.47378875138E+02 -0.29020022358E+02 -0.12903000465E+02  0.57038644164E+02  0.00000000000E+00 0. -1.
<scales pt_clust_5="13000.00000" pt_clust_6="13000.00000" pt_clust_7="13000.00000" pt_clust_8="13000.00000" pt_clust_9="55.56008"></scales>
<clustering>
<clus scale="   55.560">  2  9  1 -1</clus>
<clus scale="   79.974">  5  6 -1 -1</clus>
<clus scale="   90.892">  7  8 -1 -1</clus>
<clus scale="   93.405">  2  5  1 -1</clus>
<clus scale="   55.560">  2  5  1 -1</clus>
</clustering>
</event>
<event>
 9    1  0.6345107E-005  0.1417665E+03  0.7546771E-02  0.1220793E+00
         21   -1    0    0  501  502  0.00000000000E+00  0.00000000000E+00  0.35322159834E+03  0.35322159834E+03  0.00000000000E+00 0.  1.
         -2   -1    0    0    0  501 -0.00000000000E+00 -0.00000000000E+00 -0.11604927055E+03  0.11604927055E+03  0.00000000000E+00 0.  1.
         23    2    1    2    0    0 -0.61400569782E+02 -0.38103944691E+02  0.33687743158E+01  0.11523259135E+03  0.89695378358E+02 0.  0.
        -24    2    1    2    0    0 -0.71221354441E+02 -0.28287053936E+02  0.84413061316E+02  0.14352970614E+03  0.87192734068E+02 0.  0.
         11    1    4    4    0    0 -0.13006696210E+02 -0.37317501472E+02 -0.12803989483E+01  0.39539973241E+02  0.00000000000E+00 0. -1.
        -12    1    4    4    0    0 -0.58214658231E+02  0.90304475362E+01  0.85693460264E+02  0.10398973290E+03  0.00000000000E+00 0.  1.
        -13    1    3    3    0    0 -0.63718344803E+02 -0.17932395087E+02 -0.32708672212E+02  0.73833972505E+02  0.00000000000E+00 0.  1.
         13    1    3    3    0    0  0.23177750211E+01 -0.20171549604E+02  0.36077446528E+02  0.41398618847E+02  0.00000000000E+00 0. -1.
         -1    1    1    2    0  502  0.13262192422E+03  0.66390998627E+02  0.14939049216E+03  0.21050857140E+03  0.00000000000E+00 0.  1.
<scales pt_clust_5="13000.00000" pt_clust_6="13000.00000" pt_clust_7="13000.00000" pt_clust_8="13000.00000" pt_clust_9="111.78184"></scales>
<clustering>
<clus scale="   87.193">  5  6 -1 -1</clus>
<clus scale="   89.695">  7  8 -1 -1</clus>
<clus scale="  115.183">  2  7  1 -1</clus>
<clus scale="  111.782">  1  9  2 -1</clus>
<clus scale="  111.782">  1  5  2 -1</clus>
</clustering>
</event>
<event>
 9    1  0.6345107E-005  0.1668114E+03  0.7546771E-02  0.1201278E+00
         21   -1    0    0  501  502  0.00000000000E+00  0.00000000000E+00  0.97154415622E+02  0.97154415622E+02  0.00000000000E+00 0. -1.
         -2   -1    0    0    0  501 -0.00000000000E+00 -0.00000000000E+00 -0.79556015600E+03  0.79556015600E+03  0.00000000000E+00 0.  1.
        -24    2    1    2    0    0  0.44597674591E+02  0.52836196426E+02 -0.30876077013E+03  0.32683396919E+03  0.81893919273E+02 0.  0.
         23    2    1    2    0    0  0.50883131655E+02 -0.13375252354E+03 -0.16925880801E+02  0.17270944887E+03  0.95201038057E+02 0.  0.
         13    1    3    3    0    0  0.46684443132E+02 -0.59642977007E+01 -0.16262343679E+03  0.16929675800E+03  0.00000000000E+00 0. -1.
        -14    1    3    3    0    0 -0.20867685408E+01  0.58800494126E+02 -0.14613733334E+03  0.15753721119E+03  0.00000000000E+00 0.  1.
        -13    1    4    4    0    0  0.29062334753E+02 -0.91783888022E+02 -0.55980922941E+02  0.11136770239E+03  0.00000000000E+00 0.  1.
         13    1    4    4    0    0  0.21820796902E+02 -0.41968635518E+02  0.39055042141E+02  0.61341746481E+02  0.00000000000E+00 0. -1.
         -1    1    1    2    0  502 -0.95480806246E+02  0.80916327115E+02 -0.37271908945E+03  0.39317115357E+03  0.00000000000E+00 0.  1.
<scales pt_clust_5="13000.00000" pt_clust_6="13000.00000" pt_clust_7="13000.00000" pt_clust_8="13000.00000" pt_clust_9="136.97745"></scales>
<clustering>
<clus scale="   81.894">  5  6 -1 -1</clus>
<clus scale="   95.201">  7  8 -1 -1</clus>
<clus scale="  107.178">  2  5  1 -1</clus>
<clus scale="  136.977">  1  9  2 -1</clus>
<clus scale="  136.977">  1  5  2 -1</clus>
</clustering>
</event>
<event>
 9    1  0.6345107E-005  0.1120032E+03  0.7546771E-02  0.1263723E+00
         21   -1    0    0  501  502  0.00000000000E+00  0.00000000000E+00  0.20152762164E+03  0.20152762164E+03  0.00000000000E+00 0. -1.
          1   -1    0    0  502    0 -0.00000000000E+00 -0.00000000000E+00 -0.71358303490E+03  0.71358303490E+03  0.00000000000E+00 0. -1.
        -24    2    1    2    0    0 -0.29681333673E+02  0.53918668507E+02 -0.50951986771E+03  0.51896466473E+03  0.76978070000E+02 0.  0.
         23    2    1    2    0    0  0.10206971600E+03  0.55183833913E+01 -0.16060770696E+03  0.21240800105E+03  0.94200020690E+02 0.  0.
         13    1    3    3    0    0 -0.43072298423E+02  0.19171875347E+02 -0.14330012056E+03  0.15085658172E+03  0.00000000000E+00 0. -1.
        -14    1    3    3    0    0  0.13390964750E+02  0.34746793160E+02 -0.36621974715E+03  0.36810808301E+03  0.00000000000E+00 0.  1.
        -11    1    4    4    0    0  0.28715932127E+02  0.99466942668E+01  0.53964644875E+01  0.30865244430E+02  0.00000000000E+00 0.  1.
         11    1    4    4    0    0  0.73353783875E+02 -0.44283108756E+01 -0.16600417144E+03  0.18154275662E+03  0.00000000000E+00 0. -1.
          2    1    1    2  501    0 -0.72388382328E+02 -0.59437051898E+02  0.15807216141E+03  0.18373799076E+03  0.00000000000E+00 0. -1.
<scales pt_clust_5="13000.00000" pt_clust_6="13000.00000" pt_clust_7="13000.00000" pt_clust_8="13000.00000" pt_clust_9="93.66345"></scales>
<clustering>
<clus scale="   76.978">  5  6 -1 -1</clus>
<clus scale="   93.663">  1  9  2 -1</clus>
<clus scale="   94.200">  7  8 -1 -1</clus>
<clus scale="   97.963">  2  5  1 -1</clus>
<clus scale="   93.663">  1  5  2 -1</clus>
</clustering>
</event>
<event>
 9    1  0.6345107E-005  0.1205319E+03  0.7546771E-02  0.1245895E+00
         21   -1    0    0  501  502  0.00000000000E+00  0.00000000000E+00  0.43175964911E+02  0.43175964911E+02  0.00000000000E+00 0. -1.
          1   -1    0    0  502    0 -0.00000000000E+00 -0.00000000000E+00 -0.56572424933E+03  0.56572424933E+03  0.00000000000E+00 0. -1.
         23    2    1    2    0    0  0.54709169108E+00  0.71325849572E+02 -0.32326204137E+03  0.34352702551E+03  0.91786675154E+02 0.  0.
        -24    2    1    2    0    0 -0.29149985360E+02 -0.87642189959E+02 -0.19762579180E+03  0.23240190444E+03  0.80148714856E+02 0.  0.
         13    1    4    4    0    0 -0.46277301747E+02 -0.46502249117E+02 -0.16381733424E+03  0.17646576673E+03  0.00000000000E+00 0. -1.
        -14    1    4    4    0    0  0.17127316387E+02 -0.41139940842E+02 -0.33808457569E+02  0.55936137713E+02  0.00000000000E+00 0.  1.
        -11    1    3    3    0    0  0.37781875718E+02  0.64024875862E+02 -0.25272153552E+03  0.26342898356E+03  0.00000000000E+00 0. -1.
         11    1    3    3    0    0 -0.37234784027E+02  0.73009737099E+01 -0.70540505853E+02  0.80098041953E+02  0.00000000000E+00 0.  1.
          2    1    1    2  501    0  0.28602893669E+02  0.16316340387E+02 -0.16604512458E+01  0.32971284297E+02  0.00000000000E+00 0. -1.
<scales pt_clust_5="13000.00000" pt_clust_6="13000.00000" pt_clust_7="13000.00000" pt_clust_8="13000.00000" pt_clust_9="32.92945"></scales>
<clustering>
<clus scale="   32.929">  1  9  2 -1</clus>
<clus scale="   80.149">  5  6 -1 -1</clus>
<clus scale="   91.787">  7  8 -1 -1</clus>
<clus scale="  111.924">  1  5  2 -1</clus>
<clus scale="   32.929">  1  5  2 -1</clus>
</clustering>
</event>
<event>
 9    1  0.6345107E-005  0.1287548E+03  0.7546771E-02  0.1233191E+00
         21   -1    0    0  501  502  0.00000000000E+00  0.00000000000E+00  0.14828701777E+03  0.14828701777E+03  0.00000000000E+00 0. -1.
          1   -1    0    0  502    0 -0.00000000000E+00 -0.00000000000E+00 -0.26320819701E+03  0.26320819701E+03  0.00000000000E+00 0. -1.
        -24    2    1    2    0    0  0.42932195765E+02 -0.96043122944E+02 -0.97702093254E+01  0.13122114187E+03  0.77820795323E+02 0.  0.
         23    2    1    2    0    0 -0.90483285900E+01  0.69923379125E+02  0.44734615961E+02  0.12440218216E+03  0.92214781149E+02 0.  0.
         11    1    3    3    0    0  0.49587595923E+02 -0.48248645263E+02 -0.34150351647E+02  0.77156386364E+02  0.00000000000E+00 0. -1.
        -12    1    3    3    0    0 -0.66554001581E+01 -0.47794477680E+02  0.24380142321E+02  0.54064755503E+02  0.00000000000E+00 0.  1.
        -11    1    4    4    0    0  0.54179772165E+01  0.52128497027E+02 -0.19714363006E+02  0.55994560344E+02  0.00000000000E+00 0.  1.
         11    1    4    4    0    0 -0.14466305806E+02  0.17794882098E+02  0.64448978967E+02  0.68407621816E+02  0.00000000000E+00 0. -1.
          2    1    1    2  501    0 -0.33883867175E+02  0.26119743819E+02 -0.14988558587E+03  0.15587189075E+03  0.00000000000E+00 0. -1.
<scales pt_clust_5="13000.00000" pt_clust_6="13000.00000" pt_clust_7="13000.00000" pt_clust_8="13000.00000" pt_clust_9="42.78270"></scales>
<clustering>
<clus scale="   42.783">  1  9  2 -1</clus>
<clus scale="   77.821">  5  6 -1 -1</clus>
<clus scale="   92.215">  7  8 -1 -1</clus>
<clus scale="  118.871">  2  5  1 -1</clus>
<clus scale="   42.783">  1  5  2 -1</clus>
</clustering>
</event>
<event>
 9    1  0.6345107E-005  0.1220746E+03  0.7546771E-02  0.1242729E+00
          1   -1    0    0  502    0 -0.00000000000E+00  0.00000000000E+00  0.42618315095E+03  0.42618315095E+03  0.00000000000E+00 0. -1.
         21   -1    0    0  501  502  0.00000000000E+00 -0.00000000000E+00 -0.43182593772E+02  0.43182593772E+02  0.00000000000E+00 0. -1.
        -24    2    1    2    0    0 -0.74225656317E+02 -0.53081225052E+02  0.23704833646E+03  0.26652402888E+03  0.80722237602E+02 0.  0.
         23    2    1    2    0    0  0.50420962061E+02  0.42018239647E+02  0.10105427374E+03  0.15083326694E+03  0.90724320309E+02 0.  0.
         11    1    3    3    0    0 -0.74108250347E+02 -0.71741746842E+02  0.20269724172E+03  0.22743149036E+03  0.00000000000E+00 0. -1.
        -12    1    3    3    0    0 -0.11740596951E+00  0.18660521790E+02  0.34351094744E+02  0.39092538518E+02  0.00000000000E+00 0.  1.
        -11    1    4    4    0    0 -0.26053943747E+02  0.37519145218E+01  0.20660027135E+02  0.33462240938E+02  0.00000000000E+00 0.  1.
         11    1    4    4    0    0  0.76474905808E+02  0.38266325125E+02  0.80394246603E+02  0.11737102600E+03  0.00000000000E+00 0. -1.
          2    1    1    2  501    0  0.23804694256E+02  0.11062985405E+02  0.44897946981E+02  0.52008448908E+02  0.00000000000E+00 0. -1.
<scales pt_clust_5="13000.00000" pt_clust_6="13000.00000" pt_clust_7="13000.00000" pt_clust_8="13000.00000" pt_clust_9="26.24983"></scales>
<clustering>
<clus scale="   26.250">  2  9  1 -1</clus>
<clus scale="   80.722">  5  6 -1 -1</clus>
<clus scale="   90.724">  7  8 -1 -1</clus>
<clus scale="  114.836">  1  5  2 -1</clus>
<clus scale="   26.250">  2  5  1 -1</clus>
</clustering>
</event>
<event>
 9    1  0.6345107E-005  0.1954953E+03  0.7546771E-02  0.1155749E+00
          3   -1    0    0  502    0 -0.00000000000E+00  0.00000000000E+00  0.37090665558E+03  0.37090665558E+03  0.00000000000E+00 0. -1.
         21   -1    0    0  501  502  0.00000000000E+00 -0.00000000000E+00 -0.21555984665E+03  0.21555984665E+03  0.00000000000E+00 0. -1.
        -24    2    1    2    0    0 -0.21281650258E+03  0.82758873522E+02  0.18896614452E+03  0.30621260692E+03  0.76928940893E+02 0.  0.
         23    2    1    2    0    0  0.92284905402E+02 -0.51823065100E+02  0.18392587391E+02  0.14538310421E+03  0.97958286420E+02 0.  0.
         13    1    3    3    0    0 -0.16279121154E+03  0.54434498637E+02  0.17875492361E+03  0.24782537383E+03  0.00000000000E+00 0. -1.
        -14    1    3    3    0    0 -0.50025291031E+02  0.28324374885E+02  0.10211220904E+02  0.58387233088E+02  0.00000000000E+00 0.  1.
        -11    1    4    4    0    0 -0.14192131079E+02 -0.30403970744E+02 -0.59547993032E+01  0.34077524210E+02  0.00000000000E+00 0. -1.
         11    1    4    4    0    0  0.10647703648E+03 -0.21419094356E+02  0.24347386695E+02  0.11130558000E+03  0.00000000000E+00 0.  1.
          4    1    1    2  501    0  0.12053159717E+03 -0.30935808422E+02 -0.52011922984E+02  0.13487079110E+03  0.00000000000E+00 0. -1.
<scales pt_clust_5="13000.00000" pt_clust_6="13000.00000" pt_clust_7="13000.00000" pt_clust_8="13000.00000" pt_clust_9="124.43830"></scales>
<clustering>
<clus scale="   76.929">  5  6 -1 -1</clus>
<clus scale="   97.958">  7  8 -1 -1</clus>
<clus scale="  124.438">  2  9  1 -1</clus>
<clus scale="  185.851">  1  5  2 -1</clus>
<clus scale="  124.438">  2  5  1 -1</clus>
</clustering>
</event>
<event>
 9    1  0.6345107E-005  0.1026795E+03  0.7546771E-02  0.1280626E+00
         21   -1    0    0  501  502  0.00000000000E+00  0.00000000000E+00  0.83006073886E+02  0.83006073886E+02  0.00000000000E+00 0.  1.
         -2   -1    0    0    0  501 -0.00000000000E+00 -0.00000000000E+00 -0.22781519665E+03  0.22781519665E+03  0.00000000000E+00 0.  1.
        -24    2    1    2    0    0 -0.53087483812E+02 -0.14475570344E+02 -0.52189055721E+02  0.10958586403E+03  0.79104620496E+02 0.  0.
         23    2    1    2    0    0  0.22230970385E+02  0.30124303358E+02  0.36474876381E+01  0.98939515338E+02  0.91509747198E+02 0.  0.
         11    1    3    3    0    0 -0.34859415025E+02  0.15243175497E+02 -0.62552693306E+02  0.73214565866E+02  0.00000000000E+00 0. -1.
        -12    1    3    3    0    0 -0.18228068787E+02 -0.29718745841E+02  0.10363637585E+02  0.36371298163E+02  0.00000000000E+00 0.  1.
        -13    1    4    4    0    0 -0.33832827171E+02  0.20606556961E+02  0.12163105745E+02  0.41439492342E+02  0.00000000000E+00 0. -1.
         13    1    4    4    0    0  0.56063797556E+02  0.95177463966E+01 -0.85156181073E+01  0.57500022997E+02  0.00000000000E+00 0.  1.
         -1    1    1    2    0  502  0.30856513427E+02 -0.15648733013E+02 -0.96267554683E+02  0.10229589117E+03  0.00000000000E+00 0.  1.
<scales pt_clust_5="13000.00000" pt_clust_6="13000.00000" pt_clust_7="13000.00000" pt_clust_8="13000.00000" pt_clust_9="34.59781"></scales>
<clustering>
<clus scale="   34.598">  1  9  2 -1</clus>
<clus scale="   79.105">  5  6 -1 -1</clus>
<clus scale="   91.510">  7  8 -1 -1</clus>
<clus scale="   91.796">  2  5  1 -1</clus>
<clus scale="   34.598">  1  5  2 -1</clus>
</clustering>
</event>
<event>
 9    1  0.6345107E-005  0.2090947E+03  0.7546771E-02  0.1183370E+00
          1   -1    0    0  502    0 -0.00000000000E+00  0.00000000000E+00  0.62058236477E+03  0.62058236477E+03  0.00000000000E+00 0. -1.
         21   -1    0    0  501  502  0.00000000000E+00 -0.00000000000E+00 -0.30699065762E+03  0.30699065762E+03  0.00000000000E+00 0. -1.
        -24    2    1    2    0    0  0.51289012527E+01  0.89646803795E+01  0.59662558358E+02  0.10036640764E+03  0.80044511304E+02 0.  0.
         23    2    1    2    0    0  0.17568356711E+03  0.44212013593E+02  0.48692315817E+03  0.52752825734E+03  0.91501270077E+02 0.  0.
         13    1    3    3    0    0  0.14182298834E+02 -0.16727113767E+02 -0.11072879400E+02  0.24567103887E+02  0.00000000000E+00 0. -1.
        -14    1    3    3    0    0 -0.90533975816E+01  0.25691794147E+02  0.70735437758E+02  0.75799303751E+02  0.00000000000E+00 0.  1.
        -13    1    4    4    0    0  0.12765497862E+03  0.55811001027E+02  0.25678448269E+03  0.29214539523E+03  0.00000000000E+00 0.  1.
         13    1    4    4    0    0  0.48028588489E+02 -0.11598987434E+02  0.23013867548E+03  0.23538286211E+03  0.00000000000E+00 0. -1.
          2    1    1    2  501    0 -0.18081246837E+03 -0.53176693973E+02 -0.23299400937E+03  0.29967835741E+03  0.00000000000E+00 0. -1.
<scales pt_clust_5="13000.00000" pt_clust_6="13000.00000" pt_clust_7="13000.00000" pt_clust_8="13000.00000" pt_clust_9="188.01093"></scales>
<clustering>
<clus scale="   80.045">  5  6 -1 -1</clus>
<clus scale="   80.708">  1  5  2 -1</clus>
<clus scale="   91.501">  7  8 -1 -1</clus>
<clus scale="  188.011">  2  9  1 -1</clus>
<clus scale="  188.011">  2  5  1 -1</clus>
</clustering>
</event>
<event>
 9    1  0.6345107E-005  0.1379274E+03  0.7546771E-02  0.1238475E+00
         21   -1    0    0  501  502  0.00000000000E+00  0.00000000000E+00  0.38267006896E+02  0.38267006896E+02  0.00000000000E+00 0. -1.
          3   -1    0    0  502    0 -0.00000000000E+00 -0.00000000000E+00 -0.90788528032E+03  0.90788528032E+03  0.00000000000E+00 0. -1.
        -24    2    1    2    0    0  0.25766149506E+02  0.15382896164E+02 -0.47211825707E+03  0.48002985238E+03  0.81440055022E+02 0.  0.
         23    2    1    2    0    0  0.41434854695E+02 -0.94700992256E+02 -0.20619999364E+03  0.24840005651E+03  0.92190159887E+02 0.  0.
         13    1    3    3    0    0 -0.26253126321E+02  0.10601170125E+02 -0.89755133547E+02  0.94114799302E+02  0.00000000000E+00 0. -1.
        -14    1    3    3    0    0  0.52019275827E+02  0.47817260391E+01 -0.38236312352E+03  0.38591505308E+03  0.00000000000E+00 0.  1.
        -11    1    4    4    0    0 -0.23125297454E+02 -0.48173331049E+02 -0.11841456414E+03  0.12991327187E+03  0.00000000000E+00 0.  1.
         11    1    4    4    0    0  0.64560152149E+02 -0.46527661207E+02 -0.87785429495E+02  0.11848678464E+03  0.00000000000E+00 0. -1.
          4    1    1    2  501    0 -0.67201004201E+02  0.79318096093E+02 -0.19130002272E+03  0.21772237833E+03  0.00000000000E+00 0. -1.
<scales pt_clust_5="13000.00000" pt_clust_6="13000.00000" pt_clust_7="13000.00000" pt_clust_8="13000.00000" pt_clust_9="102.59123"></scales>
<clustering>
<clus scale="   81.440">  5  6 -1 -1</clus>
<clus scale="   86.793">  2  5  1 -1</clus>
<clus scale="   92.190">  7  8 -1 -1</clus>
<clus scale="  102.591">  1  9  2 -1</clus>
<clus scale="  102.591">  1  5  2 -1</clus>
</clustering>
</event>
<event>
 9    1  0.6345107E-005  0.8970015E+02  0.7546771E-02  0.1309085E+00
         -2   -1    0    0    0  501 -0.00000000000E+00  0.00000000000E+00  0.13152926425E+03  0.13152926425E+03  0.00000000000E+00 0.  1.
         21   -1    0    0  501  502  0.00000000000E+00 -0.00000000000E+00 -0.23903831878E+03  0.23903831878E+03  0.00000000000E+00 0.  1.
        -24    2    1    2    0    0 -0.17505851433E+02  0.30301735482E+01  0.85086101229E+02  0.11808875748E+03  0.79935431661E+02 0.  0.
         23    2    1    2    0    0 -0.32258222786E+02 -0.29395286691E+01 -0.17656254234E+03  0.20019578822E+03  0.88627244666E+02 0.  0.
         13    1    3    3    0    0 -0.30915119696E+02 -0.28927110979E+02  0.26283436033E+02  0.49833135413E+02  0.00000000000E+00 0. -1.
        -14    1    3    3    0    0  0.13409268263E+02  0.31957284527E+02  0.58802665196E+02  0.68255622068E+02  0.00000000000E+00 0.  1.
        -11    1    4    4    0    0  0.19452269055E+02  0.17848857141E+02 -0.11123440964E+03  0.11432439092E+03  0.00000000000E+00 0. -1.
         11    1    4    4    0    0 -0.51710491841E+02 -0.20788385811E+02 -0.65328132701E+02  0.85871397294E+02  0.00000000000E+00 0.  1.
         -1    1    1    2    0  502  0.49764074219E+02 -0.90644879082E-01 -0.16032613415E+02  0.52283037329E+02  0.00000000000E+00 0.  1.
<scales pt_clust_5="13000.00000" pt_clust_6="13000.00000" pt_clust_7="13000.00000" pt_clust_8="13000.00000" pt_clust_9="49.76416"></scales>
<clustering>
<clus scale="   49.764">  2  9  1 -1</clus>
<clus scale="   79.935">  5  6 -1 -1</clus>
<clus scale="   81.123">  1  5  2 -1</clus>
<clus scale="   88.627">  7  8 -1 -1</clus>
<clus scale="   49.764">  2  5  1 -1</clus>
</clustering>
</event>
<event>
 9    1  0.6345107E-005  0.9510649E+02  0.7546771E-02  0.1299627E+00
         21   -1    0    0  501  502  0.00000000000E+00  0.00000000000E+00  0.68775549235E+02  0.68775549235E+02  0.00000000000E+00 0. -1.
          1   -1    0    0  502    0 -0.00000000000E+00 -0.00000000000E+00 -0.39261161269E+03  0.39261161269E+03  0.00000000000E+00 0. -1.
         23    2    1    2    0    0 -0.15688205906E+02  0.59168777279E+01 -0.22305567470E+03  0.24211606117E+03  0.92656482851E+02 0.  0.
        -24    2    1    2    0    0  0.53826523205E+02  0.19695013379E+02  0.11931673824E+02  0.97556232051E+02  0.78036308340E+02 0.  0.
         11    1    4    4    0    0 -0.26080009578E+01  0.26551152202E+02 -0.19078830004E+02  0.32798888801E+02  0.00000000000E+00 0. -1.
        -12    1    4    4    0    0  0.56434524163E+02 -0.68561388236E+01  0.31010503828E+02  0.64757343250E+02  0.00000000000E+00 0.  1.
        -11    1    3    3    0    0 -0.20058293824E+02  0.47803190691E+02 -0.11504917156E+03  0.12618950855E+03  0.00000000000E+00 0. -1.
         11    1    3    3    0    0  0.43700879174E+01 -0.41886312963E+02 -0.10800650314E+03  0.11592655262E+03  0.00000000000E+00 0.  1.
          2    1    1    2  501    0 -0.38138317299E+02 -0.25611891107E+02 -0.11271206258E+03  0.12171486870E+03  0.00000000000E+00 0. -1.
<scales pt_clust_5="13000.00000" pt_clust_6="13000.00000" pt_clust_7="13000.00000" pt_clust_8="13000.00000" pt_clust_9="45.94020"></scales>
<clustering>
<clus scale="   45.940">  1  9  2 -1</clus>
<clus scale="   78.036">  5  6 -1 -1</clus>
<clus scale="   80.930">  1  5  2 -1</clus>
<clus scale="   92.656">  7  8 -1 -1</clus>
<clus scale="   45.940">  1  5  2 -1</clus>
</clustering>
</event>
<event>
 9    1  0.6345107E-005  0.9425919E+02  0.7546771E-02  0.1299143E+00
         21   -1    0    0  501  502  0.00000000000E+00  0.00000000000E+00  0.16194231649E+03  0.16194231649E+03  0.00000000000E+00 0.  1.
         -4   -1    0    0    0  501 -0.00000000000E+00 -0.00000000000E+00 -0.15014446958E+03  0.15014446958E+03  0.00000000000E+00 0.  1.
         23    2    1    2    0    0 -0.34049599756E+02  0.42707252185E+01 -0.85897827061E+02  0.12997246287E+03  0.91306024294E+02 0.  0.
        -24    2    1    2    0    0 -0.14071832609E+02  0.36160624979E+02  0.44978909491E+02  0.10008125921E+03  0.80545321859E+02 0.  0.
         13    1    4    4    0    0  0.28504840413E+02  0.30364271606E+02  0.60209982851E+01  0.42080486422E+02  0.00000000000E+00 0. -1.
        -14    1    4    4    0    0 -0.42576673022E+02  0.57963533726E+01  0.38957911205E+02  0.58000772784E+02  0.00000000000E+00 0.  1.
        -11    1    3    3    0    0 -0.65559256451E+02  0.23521517498E+01 -0.52560656878E+02  0.84060522099E+02  0.00000000000E+00 0.  1.
         11    1    3    3    0    0  0.31509656694E+02  0.19185734687E+01 -0.33337170183E+02  0.45911940767E+02  0.00000000000E+00 0. -1.
         -3    1    1    2    0  502  0.48121432365E+02 -0.40431350197E+02  0.52716764475E+02  0.82033063995E+02  0.00000000000E+00 0.  1.
<scales pt_clust_5="13000.00000" pt_clust_6="13000.00000" pt_clust_7="13000.00000" pt_clust_8="13000.00000" pt_clust_9="62.85194"></scales>
<clustering>
<clus scale="   62.852">  1  9  2 -1</clus>
<clus scale="   80.545">  5  6 -1 -1</clus>
<clus scale="   83.878">  1  5  2 -1</clus>
<clus scale="   91.306">  7  8 -1 -1</clus>
<clus scale="   62.852">  1  5  2 -1</clus>
</clustering>
</event>
<event>
 9    1  0.6345107E-005  0.1473435E+03  0.7546771E-02  0.1220902E+00
          1   -1    0    0  502    0 -0.00000000000E+00  0.00000000000E+00  0.46168068652E+02  0.46168068652E+02  0.00000000000E+00 0. -1.
         21   -1    0    0  501  502  0.00000000000E+00 -0.00000000000E+00 -0.85383265138E+03  0.85383265138E+03  0.00000000000E+00 0. -1.
         23    2    1    2    0    0  0.46855889457E+02  0.24857822961E+02 -0.32404986703E+03  0.33983190399E+03  0.87544393952E+02 0.  0.
        -24    2    1    2    0    0  0.61807273122E+02  0.65857675410E+02 -0.12156794885E+03  0.17143388587E+03  0.80333297050E+02 0.  0.
         11    1    4    4    0    0  0.77850069364E+02  0.67666612342E+02 -0.94362241529E+02  0.13979855633E+03  0.00000000000E+00 0. -1.
        -12    1    4    4    0    0 -0.16042796242E+02 -0.18089369320E+01 -0.27205707318E+02  0.31635329534E+02  0.00000000000E+00 0.  1.
        -13    1    3    3    0    0  0.71702718799E+02  0.28505938681E+02 -0.23839414166E+03  0.25057061919E+03  0.00000000000E+00 0. -1.
         13    1    3    3    0    0 -0.24846829342E+02 -0.36481157203E+01 -0.85655725368E+02  0.89261284805E+02  0.00000000000E+00 0.  1.
          2    1    1    2  501    0 -0.10866316258E+03 -0.90715498371E+02 -0.36204676685E+03  0.38873493017E+03  0.00000000000E+00 0. -1.
<scales pt_clust_5="13000.00000" pt_clust_6="13000.00000" pt_clust_7="13000.00000" pt_clust_8="13000.00000" pt_clust_9="123.51785"></scales>
<clustering>
<clus scale="   80.333">  5  6 -1 -1</clus>
<clus scale="   87.544">  7  8 -1 -1</clus>
<clus scale="  102.359">  1  7  2 -1</clus>
<clus scale="  123.518">  2  9  1 -1</clus>
<clus scale="  123.518">  2  5  1 -1</clus>
</clustering>
</event>
<event>
 9    1  0.6345107E-005  0.1486685E+03  0.7546771E-02  0.1219953E+00
         21   -1    0    0  501  502  0.00000000000E+00  0.00000000000E+00  0.43194708232E+03  0.43194708232E+03  0.00000000000E+00 0. -1.
         -4   -1    0    0    0  501 -0.00000000000E+00 -0.00000000000E+00 -0.10738356999E+03  0.10738356999E+03  0.00000000000E+00 0.  1.
        -24    2    1    2    0    0 -0.30621525198E+02 -0.53449108312E+02  0.68924429188E+02  0.12281407405E+03  0.80859352344E+02 0.  0.
         23    2    1    2    0    0  0.21182161595E+02 -0.10180572451E+03  0.21430296024E+03  0.25557609313E+03  0.92629860726E+02 0.  0.
         13    1    3    3    0    0 -0.18057494290E+02 -0.65712580045E+02  0.20285749394E+02  0.71103641993E+02  0.00000000000E+00 0. -1.
        -14    1    3    3    0    0 -0.12564030908E+02  0.12263471733E+02  0.48638679794E+02  0.51710432059E+02  0.00000000000E+00 0.  1.
        -11    1    4    4    0    0  0.42981956566E+02 -0.98826493423E+01  0.56792615133E+02  0.71906303492E+02  0.00000000000E+00 0.  1.
         11    1    4    4    0    0 -0.21799794971E+02 -0.91923075171E+02  0.15751034510E+03  0.18366978963E+03  0.00000000000E+00 0. -1.
         -3    1    1    2    0  502  0.94393636030E+01  0.15525483282E+03  0.41336122906E+02  0.16094048514E+03  0.00000000000E+00 0.  1.
<scales pt_clust_5="13000.00000" pt_clust_6="13000.00000" pt_clust_7="13000.00000" pt_clust_8="13000.00000" pt_clust_9="116.28427"></scales>
<clustering>
<clus scale="   80.859">  5  6 -1 -1</clus>
<clus scale="   92.630">  7  8 -1 -1</clus>
<clus scale="  101.650">  2  5  1 -1</clus>
<clus scale="  116.284">  1  9  2 -1</clus>
<clus scale="  116.284">  1  5  2 -1</clus>
</clustering>
</event>
<event>
 9    1  0.6345107E-005  0.2163227E+03  0.7546771E-02  0.1153269E+00
         21   -1    0    0  501  502  0.00000000000E+00  0.00000000000E+00  0.22738083223E+03  0.22738083223E+03  0.00000000000E+00 0. -1.
          1   -1    0    0  502    0 -0.00000000000E+00 -0.00000000000E+00 -0.88699656503E+03  0.88699656503E+03  0.00000000000E+00 0. -1.
        -24    2    1    2    0    0  0.35854354582E+02  0.11629929297E+03 -0.42677154504E+03  0.45086312452E+03  0.79577290132E+02 0.  0.
         23    2    1    2    0    0  0.13728643305E+03 -0.44612044879E+01 -0.37702921662E+03  0.41196942003E+03  0.93275429853E+02 0.  0.
         11    1    3    3    0    0 -0.73040871520E+01  0.98290188346E+02 -0.29642895132E+03  0.31238507326E+03  0.00000000000E+00 0. -1.
        -12    1    3    3    0    0  0.43158441734E+02  0.18009104622E+02 -0.13034259372E+03  0.13847805126E+03  0.00000000000E+00 0.  1.
        -11    1    4    4    0    0  0.30430835606E+02  0.39254445487E+02 -0.94407839023E+02  0.10667608596E+03  0.00000000000E+00 0.  1.
         11    1    4    4    0    0  0.10685559745E+03 -0.43715649975E+02 -0.28262137759E+03  0.30529333408E+03  0.00000000000E+00 0. -1.
          2    1    1    2  501    0 -0.17314078763E+03 -0.11183808848E+03  0.14418502885E+03  0.25154485271E+03  0.00000000000E+00 0. -1.
<scales pt_clust_5="13000.00000" pt_clust_6="13000.00000" pt_clust_7="13000.00000" pt_clust_8="13000.00000" pt_clust_9="195.17988"></scales>
<clustering>
<clus scale="   79.577">  5  6 -1 -1</clus>
<clus scale="   93.275">  7  8 -1 -1</clus>
<clus scale="  145.408">  2  5  1 -1</clus>
<clus scale="  195.180">  1  9  2 -1</clus>
<clus scale="  195.180">  1  5  2 -1</clus>
</clustering>
</event>
<event>
 9    1  0.6345107E-005  0.1717175E+03  0.7546771E-02  0.1177534E+00
          1   -1    0    0  502    0 -0.00000000000E+00  0.00000000000E+00  0.70170994098E+03  0.70170994098E+03  0.00000000000E+00 0. -1.
         21   -1    0    0  501  502  0.00000000000E+00 -0.00000000000E+00 -0.50606517260E+02  0.50606517260E+02  0.00000000000E+00 0. -1.
        -24    2    1    2    0    0 -0.12469408683E+03 -0.75566709011E+02  0.35793670016E+03  0.39490102259E+03  0.81050561496E+02 0.  0.
         23    2    1    2    0    0  0.11181481376E+03  0.91680424150E+02  0.20658598492E+03  0.26841121219E+03  0.91972587850E+02 0.  0.
         13    1    3    3    0    0 -0.44068665083E+02 -0.36788209958E+02  0.56805898761E+02  0.80760942096E+02  0.00000000000E+00 0. -1.
        -14    1    3    3    0    0 -0.80625421746E+02 -0.38778499053E+02  0.30113080140E+03  0.31414008049E+03  0.00000000000E+00 0.  1.
        -13    1    4    4    0    0  0.49246320453E+02  0.74662931030E+02  0.58832866828E+02  0.10705633829E+03  0.00000000000E+00 0. -1.
         13    1    4    4    0    0  0.62568493310E+02  0.17017493120E+02  0.14775311809E+03  0.16135487390E+03  0.00000000000E+00 0.  1.
          2    1    1    2  501    0  0.12879273066E+02 -0.16113715139E+02  0.86580738640E+02  0.89004223460E+02  0.00000000000E+00 0. -1.
<scales pt_clust_5="13000.00000" pt_clust_6="13000.00000" pt_clust_7="13000.00000" pt_clust_8="13000.00000" pt_clust_9="20.62833"></scales>
<clustering>
<clus scale="   20.628">  2  9  1 -1</clus>
<clus scale="   81.051">  5  6 -1 -1</clus>
<clus scale="   91.973">  7  8 -1 -1</clus>
<clus scale="  166.124">  1  5  2 -1</clus>
<clus scale="   20.628">  2  5  1 -1</clus>
</clustering>
</event>
<event>
 9    1  0.6345107E-005  0.1255976E+03  0.7546771E-02  0.1237585E+00
         21   -1    0    0  501  502  0.00000000000E+00  0.00000000000E+00  0.27991983878E+03  0.27991983878E+03  0.00000000000E+00 0.  1.
          3   -1    0    0  502    0 -0.00000000000E+00 -0.00000000000E+00 -0.15984875416E+03  0.15984875416E+03  0.00000000000E+00 0. -1.
        -24    2    1    2    0    0  0.93040870663E+02 -0.23447108512E+02 -0.96661296869E+02  0.15682880924E+03  0.77752804339E+02 0.  0.
         23    2    1    2    0    0 -0.31200702996E+02  0.57147400322E+02  0.12485206271E+03  0.16717316942E+03  0.90108389057E+02 0.  0.
         13    1    3    3    0    0  0.10353625666E+03 -0.28015807756E+02 -0.98020205491E+02  0.14530176397E+03  0.00000000000E+00 0. -1.
        -14    1    3    3    0    0 -0.10495385996E+02  0.45686992442E+01  0.13589086218E+01  0.11527045269E+02  0.00000000000E+00 0.  1.
        -13    1    4    4    0    0  0.20041264439E+02  0.90234751826E+01  0.81888423442E+02  0.84786728198E+02  0.00000000000E+00 0.  1.
         13    1    4    4    0    0 -0.51241967435E+02  0.48123925140E+02  0.42963639270E+02  0.82386441219E+02  0.00000000000E+00 0. -1.
          4    1    1    2  501    0 -0.61840167667E+02 -0.33700291810E+02  0.91880318776E+02  0.11576661429E+03  0.00000000000E+00 0. -1.
<scales pt_clust_5="13000.00000" pt_clust_6="13000.00000" pt_clust_7="13000.00000" pt_clust_8="13000.00000" pt_clust_9="70.42667"></scales>
<clustering>
<clus scale="   70.427">  1  9  2 -1</clus>
<clus scale="   77.753">  5  6 -1 -1</clus>
<clus scale="   90.108">  7  8 -1 -1</clus>
<clus scale="  117.050">  2  5  1 -1</clus>
<clus scale="   70.427">  1  5  2 -1</clus>
</clustering>
</event>
<event>
 9    1  0.6345107E-005  0.1092741E+03  0.7546771E-02  0.1266232E+00
         21   -1    0    0  501  502  0.00000000000E+00  0.00000000000E+00  0.74380688076E+02  0.74380688076E+02  0.00000000000E+00 0. -1.
          1   -1    0    0  502    0 -0.00000000000E+00 -0.00000000000E+00 -0.22039131243E+03  0.22039131243E+03  0.00000000000E+00 0. -1.
        -24    2    1    2    0    0 -0.55980356026E+02  0.31997017897E+02 -0.12167125880E+03  0.15918870395E+03  0.79872015333E+02 0.  0.
         23    2    1    2    0    0  0.34396126061E+02 -0.44440338777E+02 -0.28184471027E+02  0.11037417016E+03  0.90719655158E+02 0.  0.
         13    1    3    3    0    0 -0.46310965087E+02 -0.18729230410E+02 -0.71234099182E+02  0.87004519683E+02  0.00000000000E+00 0. -1.
        -14    1    3    3    0    0 -0.96693909393E+01  0.50726248307E+02 -0.50437159615E+02  0.72184184268E+02  0.00000000000E+00 0.  1.
        -11    1    4    4    0    0  0.33423766367E+02 -0.71825787899E+02 -0.22915981636E+02  0.82469595487E+02  0.00000000000E+00 0. -1.
         11    1    4    4    0    0  0.97235969388E+00  0.27385449122E+02 -0.52684893915E+01  0.27904574669E+02  0.00000000000E+00 0.  1.
          2    1    1    2  501    0  0.21584229965E+02  0.12443320880E+02  0.38451054705E+01  0.25209126399E+02  0.00000000000E+00 0. -1.
<scales pt_clust_5="13000.00000" pt_clust_6="13000.00000" pt_clust_7="13000.00000" pt_clust_8="13000.00000" pt_clust_9="24.91416"></scales>
<clustering>
<clus scale="   24.914">  1  9  2 -1</clus>
<clus scale="   79.872">  5  6 -1 -1</clus>
<clus scale="   90.720">  7  8 -1 -1</clus>
<clus scale="  100.451">  2  5  1 -1</clus>
<clus scale="   24.914">  1  5  2 -1</clus>
</clustering>
</event>
<event>
 9    1  0.6345107E-005  0.1356727E+03  0.7546771E-02  0.1234450E+00
         -4   -1    0    0    0  501 -0.00000000000E+00  0.00000000000E+00  0.52876471443E+03  0.52876471443E+03  0.00000000000E+00 0.  1.
         21   -1    0    0  501  502  0.00000000000E+00 -0.00000000000E+00 -0.85499014361E+02  0.85499014361E+02  0.00000000000E+00 0.  1.
         23    2    1    2    0    0  0.25631619084E+02  0.24290979322E+02  0.85936018418E+01  0.99380311022E+02  0.92496295347E+02 0.  0.
        -24    2    1    2    0    0  0.16864972715E+02 -0.12230825843E+03  0.34667222317E+03  0.37647342778E+03  0.79415830439E+02 0.  0.
         11    1    4    4    0    0 -0.19649320090E+02 -0.56325478247E+02  0.82898899165E+02  0.10213169323E+03  0.00000000000E+00 0. -1.
        -12    1    4    4    0    0  0.36514292805E+02 -0.65982780184E+02  0.26377332400E+03  0.27434173455E+03  0.00000000000E+00 0.  1.
        -11    1    3    3    0    0  0.55022191484E+02  0.21483865430E+02  0.26618726833E+02  0.64788537934E+02  0.00000000000E+00 0.  1.
         11    1    3    3    0    0 -0.29390572400E+02  0.28071138918E+01 -0.18025124991E+02  0.34591773087E+02  0.00000000000E+00 0. -1.
         -3    1    1    2    0  502 -0.42496591799E+02  0.98017279110E+02  0.87999875065E+02  0.13840998999E+03  0.00000000000E+00 0.  1.
<scales pt_clust_5="13000.00000" pt_clust_6="13000.00000" pt_clust_7="13000.00000" pt_clust_8="13000.00000" pt_clust_9="110.00097"></scales>
<clustering>
<clus scale="   79.416">  5  6 -1 -1</clus>
<clus scale="   92.496">  7  8 -1 -1</clus>
<clus scale="   99.008">  1  7  2 -1</clus>
<clus scale="  110.001">  2  9  1 -1</clus>
<clus scale="  110.001">  2  5  1 -1</clus>
</clustering>
</event>
<event>
 9    1  0.6345107E-005  0.9768617E+02  0.7546771E-02  0.1292672E+00
          1   -1    0    0  502    0 -0.00000000000E+00  0.00000000000E+00  0.52161599308E+03  0.52161599308E+03  0.00000000000E+00 0. -1.
         21   -1    0    0  501  502  0.00000000000E+00 -0.00000000000E+00 -0.37347599743E+02  0.37347599743E+02  0.00000000000E+00 0. -1.
        -24    2    1    2    0    0 -0.19516121955E+02  0.30453353002E+02  0.31036961164E+03  0.32242000905E+03  0.79480064686E+02 0.  0.
         23    2    1    2    0    0 -0.36534353613E+02 -0.24193214840E+02  0.98136794154E+02  0.14209399988E+03  0.92950544891E+02 0.  0.
         13    1    3    3    0    0 -0.45254797100E+02  0.33407666677E+02  0.25713773626E+03  0.26321832053E+03  0.00000000000E+00 0. -1.
        -14    1    3    3    0    0  0.25738675145E+02 -0.29543136749E+01  0.53231875381E+02  0.59201688524E+02  0.00000000000E+00 0.  1.
        -13    1    4    4    0    0  0.18862966510E+02 -0.28922999415E+02  0.73647611924E+02  0.81340777860E+02  0.00000000000E+00 0.  1.
         13    1    4    4    0    0 -0.55397320124E+02  0.47297845744E+01  0.24489182229E+02  0.60753222016E+02  0.00000000000E+00 0. -1.
          2    1    1    2  501    0  0.56050475568E+02 -0.62601381619E+01  0.75761987539E+02  0.94449583890E+02  0.00000000000E+00 0. -1.
<scales pt_clust_5="13000.00000" pt_clust_6="13000.00000" pt_clust_7="13000.00000" pt_clust_8="13000.00000" pt_clust_9="56.39898"></scales>
<clustering>
<clus scale="   56.399">  2  9  1 -1</clus>
<clus scale="   79.480">  5  6 -1 -1</clus>
<clus scale="   84.970">  1  5  2 -1</clus>
<clus scale="   92.951">  7  8 -1 -1</clus>
<clus scale="   56.399">  2  5  1 -1</clus>
</clustering>
</event>
<event>
 9    1  0.6345107E-005  0.1149904E+03  0.7546771E-02  0.1258406E+00
          3   -1    0    0  502    0 -0.00000000000E+00  0.00000000000E+00  0.31676403783E+03  0.31676403783E+03  0.00000000000E+00 0. -1.
         21   -1    0    0  501  502  0.00000000000E+00 -0.00000000000E+00 -0.20335422181E+03  0.20335422181E+03  0.00000000000E+00 0. -1.
         23    2    1    2    0    0 -0.36934222126E+02  0.41749539761E+02  0.25244429259E+03  0.27652587368E+03  0.98139070287E+02 0.  0.
        -24    2    1    2    0    0  0.75658566937E+02 -0.45904876602E+02 -0.23959605252E+02  0.12210548249E+03  0.80648680854E+02 0.  0.
         13    1    4    4    0    0  0.82074039994E+02 -0.10720664004E+02 -0.87189422093E+01  0.83229205396E+02  0.00000000000E+00 0. -1.
        -14    1    4    4    0    0 -0.64154730572E+01 -0.35184212598E+02 -0.15240663042E+02  0.38876277094E+02  0.00000000000E+00 0.  1.
        -13    1    3    3    0    0 -0.63202031170E+02  0.90647461219E+01  0.10190018772E+03  0.12025104833E+03  0.00000000000E+00 0. -1.
         13    1    3    3    0    0  0.26267809044E+02  0.32684793640E+02  0.15054410487E+03  0.15627482535E+03  0.00000000000E+00 0.  1.
          4    1    1    2  501    0 -0.38724344811E+02  0.41553368406E+01 -0.11507487132E+03  0.12148690347E+03  0.00000000000E+00 0. -1.
<scales pt_clust_5="13000.00000" pt_clust_6="13000.00000" pt_clust_7="13000.00000" pt_clust_8="13000.00000" pt_clust_9="38.94665"></scales>
<clustering>
<clus scale="   38.947">  2  9  1 -1</clus>
<clus scale="   80.649">  5  6 -1 -1</clus>
<clus scale="   98.139">  7  8 -1 -1</clus>
<clus scale="  100.477">  2  5  1 -1</clus>
<clus scale="   38.947">  2  5  1 -1</clus>
</clustering>
</event>
<event>
 9    1  0.6345107E-005  0.1499050E+03  0.7546771E-02  0.1219376E+00
         -2   -1    0    0    0  501 -0.00000000000E+00  0.00000000000E+00  0.16640304917E+03  0.16640304917E+03  0.00000000000E+00 0.  1.
         21   -1    0    0  501  502  0.00000000000E+00 -0.00000000000E+00 -0.29665108047E+03  0.29665108047E+03  0.00000000000E+00 0.  1.
        -24    2    1    2    0    0  0.14519977096E+02 -0.57230443820E+02 -0.79203667223E+01  0.10067731193E+03  0.81160553805E+02 0.  0.
         23    2    1    2    0    0  0.10903959076E+03  0.56165292672E+02 -0.17179973655E+03  0.22927690313E+03  0.89490649662E+02 0.  0.
         13    1    3    3    0    0  0.35132905917E+02 -0.66668452908E+02 -0.15179204216E+02  0.76872699523E+02  0.00000000000E+00 0. -1.
        -14    1    3    3    0    0 -0.20612928821E+02  0.94380090880E+01  0.72588374939E+01  0.23804612408E+02  0.00000000000E+00 0.  1.
        -11    1    4    4    0    0  0.10677280950E+02  0.30572335790E+02 -0.33714401105E+01  0.32558234789E+02  0.00000000000E+00 0. -1.
         11    1    4    4    0    0  0.98362309813E+02  0.25592956882E+02 -0.16842829644E+03  0.19671866834E+03  0.00000000000E+00 0.  1.
         -1    1    1    2    0  502 -0.12355956786E+03  0.10651511486E+01  0.49472071968E+02  0.13309991458E+03  0.00000000000E+00 0.  1.
<scales pt_clust_5="13000.00000" pt_clust_6="13000.00000" pt_clust_7="13000.00000" pt_clust_8="13000.00000" pt_clust_9="120.26200"></scales>
<clustering>
<clus scale="   81.161">  5  6 -1 -1</clus>
<clus scale="   89.491">  7  8 -1 -1</clus>
<clus scale="  100.365">  1  5  2 -1</clus>
<clus scale="  120.262">  2  9  1 -1</clus>
<clus scale="  120.262">  2  5  1 -1</clus>
</clustering>
</event>
<event>
 9    1  0.6345107E-005  0.1060965E+03  0.7546771E-02  0.1272376E+00
         21   -1    0    0  501  502  0.00000000000E+00  0.00000000000E+00  0.13639766288E+03  0.13639766288E+03  0.00000000000E+00 0.  1.
          3   -1    0    0  502    0 -0.00000000000E+00 -0.00000000000E+00 -0.12787679124E+03  0.12787679124E+03  0.00000000000E+00 0. -1.
         23    2    1    2    0    0 -0.53194606256E+02  0.19835417964E+02 -0.57479493114E+02  0.12190951245E+03  0.91295822236E+02 0.  0.
        -24    2    1    2    0    0  0.51530613699E+02  0.36812594515E+01  0.32662967385E+02  0.10153376423E+03  0.81075767160E+02 0.  0.
         11    1    4    4    0    0  0.55664459149E+02  0.32993758423E+02  0.31349472160E+02  0.71902082807E+02  0.00000000000E+00 0. -1.
        -12    1    4    4    0    0 -0.41338454502E+01 -0.29312498971E+02  0.13134952245E+01  0.29631681421E+02  0.00000000000E+00 0.  1.
        -13    1    3    3    0    0 -0.36280044946E+02 -0.28689534022E+02 -0.52972705419E+02  0.70323812063E+02  0.00000000000E+00 0.  1.
         13    1    3    3    0    0 -0.16914561310E+02  0.48524951986E+02 -0.45067876951E+01  0.51585700391E+02  0.00000000000E+00 0. -1.
          4    1    1    2  501    0  0.16639925569E+01 -0.23516677415E+02  0.33337397369E+02  0.40831177441E+02  0.00000000000E+00 0. -1.
<scales pt_clust_5="13000.00000" pt_clust_6="13000.00000" pt_clust_7="13000.00000" pt_clust_8="13000.00000" pt_clust_9="23.57547"></scales>
<clustering>
<clus scale="   23.575">  1  9  2 -1</clus>
<clus scale="   81.076">  5  6 -1 -1</clus>
<clus scale="   91.296">  7  8 -1 -1</clus>
<clus scale="   97.441">  1  5  2 -1</clus>
<clus scale="   23.575">  1  5  2 -1</clus>
</clustering>
</event>
<event>
 9    1  0.6345107E-005  0.1431479E+03  0.7546771E-02  0.1222661E+00
          1   -1    0    0  502    0 -0.00000000000E+00  0.00000000000E+00  0.81460790915E+02  0.81460790915E+02  0.00000000000E+00 0. -1.
         21   -1    0    0  501  502  0.00000000000E+00 -0.00000000000E+00 -0.27919281187E+03  0.27919281187E+03  0.00000000000E+00 0. -1.
         23    2    1    2    0    0 -0.43705831468E+02  0.79721760460E+02 -0.72256847881E+02  0.16871679525E+03  0.12238687077E+03 0.  0.
        -24    2    1    2    0    0  0.23107028681E+02 -0.49970217228E+02 -0.12303998882E+03  0.15566843119E+03  0.77864396448E+02 0.  0.
         11    1    4    4    0    0 -0.25020521481E+02 -0.28196533829E+02 -0.76429926014E+02  0.85220916479E+02  0.00000000000E+00 0. -1.
        -12    1    4    4    0    0  0.48127550161E+02 -0.21773683399E+02 -0.46610062809E+02  0.70447514707E+02  0.00000000000E+00 0.  1.
        -11    1    3    3    0    0  0.41489646646E+02  0.14372632273E+02 -0.30730920848E+02  0.53594335833E+02  0.00000000000E+00 0.  1.
         11    1    3    3    0    0 -0.85195478114E+02  0.65349128187E+02 -0.41525927033E+02  0.11512245941E+03  0.00000000000E+00 0. -1.
          2    1    1    2  501    0  0.20598802788E+02 -0.29751543232E+02 -0.24351842547E+01  0.36268376354E+02  0.00000000000E+00 0. -1.
<scales pt_clust_5="13000.00000" pt_clust_6="13000.00000" pt_clust_7="13000.00000" pt_clust_8="13000.00000" pt_clust_9="36.18655"></scales>
<clustering>
<clus scale="   36.187">  2  9  1 -1</clus>
<clus scale="   77.864">  5  6 -1 -1</clus>
<clus scale="  107.590">  2  5  1 -1</clus>
<clus scale="  122.387">  7  8 -1 -1</clus>
<clus scale="   36.187">  2  5  1 -1</clus>
</clustering>
</event>
<event>
 9    1  0.6345107E-005  0.1049768E+03  0.7546771E-02  0.1274005E+00
         21   -1    0    0  501  502  0.00000000000E+00  0.00000000000E+00  0.10579878749E+03  0.10579878749E+03  0.00000000000E+00 0.  1.
          1   -1    0    0  502    0 -0.00000000000E+00 -0.00000000000E+00 -0.47065308053E+03  0.47065308053E+03  0.00000000000E+00 0. -1.
         23    2    1    2    0    0  0.44695071933E+02  0.32542661183E+02 -0.38953938996E+03  0.40399152337E+03  0.91714450190E+02 0.  0.
        -24    2    1    2    0    0 -0.32412708931E+02  0.32897209979E+02  0.41659279847E+02  0.10374822006E+03  0.83038469659E+02 0.  0.
         13    1    4    4    0    0  0.75665742886E+01  0.30696478034E+02 -0.14495935069E+02  0.34780151577E+02  0.00000000000E+00 0. -1.
        -14    1    4    4    0    0 -0.39979283220E+02  0.22007319448E+01  0.56155214916E+02  0.68968068482E+02  0.00000000000E+00 0.  1.
        -11    1    3    3    0    0 -0.27426712315E+01 -0.27797367420E+02 -0.14583736991E+03  0.14848822964E+03  0.00000000000E+00 0. -1.
         11    1    3    3    0    0  0.47437743165E+02  0.60340028604E+02 -0.24370202005E+03  0.25550329373E+03  0.00000000000E+00 0.  1.
          2    1    1    2  501    0 -0.12282363002E+02 -0.65439871163E+02 -0.16974182926E+02  0.68712124583E+02  0.00000000000E+00 0. -1.
<scales pt_clust_5="13000.00000" pt_clust_6="13000.00000" pt_clust_7="13000.00000" pt_clust_8="13000.00000" pt_clust_9="66.58253"></scales>
<clustering>
<clus scale="   66.583">  1  9  2 -1</clus>
<clus scale="   83.038">  5  6 -1 -1</clus>
<clus scale="   91.714">  7  8 -1 -1</clus>
<clus scale="   97.488">  1  5  2 -1</clus>
<clus scale="   66.583">  1  5  2 -1</clus>
</clustering>
</event>
<event>
 9    1  0.6345107E-005  0.9902477E+02  0.7546771E-02  0.1288491E+00
         -2   -1    0    0    0  501 -0.00000000000E+00  0.00000000000E+00  0.96272467115E+02  0.96272467115E+02  0.00000000000E+00 0.  1.
         21   -1    0    0  501  502  0.00000000000E+00 -0.00000000000E+00 -0.15905125256E+03  0.15905125256E+03  0.00000000000E+00 0. -1.
        -24    2    1    2    0    0  0.49483437583E+01  0.43261991605E+02  0.18578963235E+02  0.94003280442E+02  0.81211777689E+02 0.  0.
         23    2    1    2    0    0 -0.19331946851E+02 -0.69451880543E+01 -0.76327235778E+02  0.12193637750E+03  0.92847581718E+02 0.  0.
         11    1    3    3    0    0 -0.36314735863E+02  0.68467035642E+01  0.47493371017E+01  0.37258470090E+02  0.00000000000E+00 0. -1.
        -12    1    3    3    0    0  0.41263079622E+02  0.36415288041E+02  0.13829626133E+02  0.56744810352E+02  0.00000000000E+00 0.  1.
        -11    1    4    4    0    0 -0.80196523638E+01  0.39696019522E+02 -0.13114028147E+02  0.42568374695E+02  0.00000000000E+00 0.  1.
         11    1    4    4    0    0 -0.11312294487E+02 -0.46641207576E+02 -0.63213207631E+02  0.79368002808E+02  0.00000000000E+00 0. -1.
         -1    1    1    2    0  502  0.14383603092E+02 -0.36316803551E+02 -0.50305128979E+01  0.39384061726E+02  0.00000000000E+00 0.  1.
<scales pt_clust_5="13000.00000" pt_clust_6="13000.00000" pt_clust_7="13000.00000" pt_clust_8="13000.00000" pt_clust_9="39.06149"></scales>
<clustering>
<clus scale="   39.061">  2  9  1 -1</clus>
<clus scale="   81.212">  5  6 -1 -1</clus>
<clus scale="   88.208">  1  5  2 -1</clus>
<clus scale="   92.848">  7  8 -1 -1</clus>
<clus scale="   39.061">  2  5  1 -1</clus>
</clustering>
</event>
<event>
 9    1  0.6345107E-005  0.1107105E+03  0.7546771E-02  0.1263319E+00
         21   -1    0    0  501  502  0.00000000000E+00  0.00000000000E+00  0.42097037044E+02  0.42097037044E+02  0.00000000000E+00 0. -1.
          1   -1    0    0  502    0 -0.00000000000E+00 -0.00000000000E+00 -0.63762232201E+03  0.63762232201E+03  0.00000000000E+00 0. -1.
         23    2    1    2    0    0  0.13657314262E+02 -0.68998385261E+02 -0.42732484042E+03  0.44263662902E+03  0.91506102020E+02 0.  0.
        -24    2    1    2    0    0 -0.39470024601E+02  0.22764512447E+02 -0.45651347370E+02  0.10358311120E+03  0.81051277228E+02 0.  0.
         13    1    4    4    0    0 -0.20460976043E+02 -0.11461455065E+02  0.17512867465E+02  0.29269728725E+02  0.00000000000E+00 0. -1.
        -14    1    4    4    0    0 -0.19009048559E+02  0.34225967512E+02 -0.63164214835E+02  0.74313382475E+02  0.00000000000E+00 0.  1.
        -11    1    3    3    0    0  0.41305134523E+02 -0.88107007602E+01 -0.97936969969E+02  0.10665548590E+03  0.00000000000E+00 0.  1.
         11    1    3    3    0    0 -0.27647820261E+02 -0.60187684501E+02 -0.32938787045E+03  0.33598114312E+03  0.00000000000E+00 0. -1.
          2    1    1    2  501    0  0.25812710339E+02  0.46233872814E+02 -0.12254909718E+03  0.13349961884E+03  0.00000000000E+00 0. -1.
<scales pt_clust_5="13000.00000" pt_clust_6="13000.00000" pt_clust_7="13000.00000" pt_clust_8="13000.00000" pt_clust_9="52.95158"></scales>
<clustering>
<clus scale="   52.952">  1  9  2 -1</clus>
<clus scale="   81.051">  5  6 -1 -1</clus>
<clus scale="   91.506">  7  8 -1 -1</clus>
<clus scale="  102.239">  1  5  2 -1</clus>
<clus scale="   52.952">  1  5  2 -1</clus>
</clustering>
</event>
<event>
 9    1  0.6345107E-005  0.1329218E+03  0.7546771E-02  0.1231244E+00
         -2   -1    0    0    0  501 -0.00000000000E+00  0.00000000000E+00  0.62569044813E+02  0.62569044813E+02  0.00000000000E+00 0.  1.
         21   -1    0    0  501  502  0.00000000000E+00 -0.00000000000E+00 -0.61244219152E+03  0.61244219152E+03  0.00000000000E+00 0. -1.
         23    2    1    2    0    0 -0.36291644951E+02 -0.54683187613E+02 -0.22944561693E+03  0.25552108748E+03  0.91314842797E+02 0.  0.
        -24    2    1    2    0    0 -0.77300129190E+02  0.75118686794E+02 -0.25126460872E+03  0.28493826136E+03  0.80235790728E+02 0.  0.
         11    1    4    4    0    0 -0.71430482878E+02  0.91956326418E+02 -0.22150689103E+03  0.25024704319E+03  0.00000000000E+00 0. -1.
        -12    1    4    4    0    0 -0.58696463124E+01 -0.16837639624E+02 -0.29757717684E+02  0.34691218164E+02  0.00000000000E+00 0.  1.
        -11    1    3    3    0    0 -0.15614315012E+02 -0.76512244290E+02 -0.13021386898E+03  0.15183406085E+03  0.00000000000E+00 0. -1.
         11    1    3    3    0    0 -0.20677329939E+02  0.21829056677E+02 -0.99231747956E+02  0.10368702663E+03  0.00000000000E+00 0.  1.
         -1    1    1    2    0  502  0.11359177414E+03 -0.20435499182E+02 -0.69162921053E+02  0.13455188749E+03  0.00000000000E+00 0.  1.
<scales pt_clust_5="13000.00000" pt_clust_6="13000.00000" pt_clust_7="13000.00000" pt_clust_8="13000.00000" pt_clust_9="105.97369"></scales>
<clustering>
<clus scale="   80.236">  5  6 -1 -1</clus>
<clus scale="   91.315">  7  8 -1 -1</clus>
<clus scale="  112.453">  1  7  2 -1</clus>
<clus scale="  105.974">  2  9  1 -1</clus>
<clus scale="  105.974">  2  5  1 -1</clus>
</clustering>
</event>
<event>
 9    1  0.6345107E-005  0.1395307E+03  0.7546771E-02  0.1229576E+00
         -2   -1    0    0    0  501 -0.00000000000E+00  0.00000000000E+00  0.14325475013E+04  0.14325475013E+04  0.00000000000E+00 0.  1.
         21   -1    0    0  501  502  0.00000000000E+00 -0.00000000000E+00 -0.31117701569E+02  0.31117701569E+02  0.00000000000E+00 0. -1.
         23    2    1    2    0    0 -0.11026102064E+02 -0.15764570341E+02  0.36207280558E+03  0.37579502024E+03  0.98767829207E+02 0.  0.
        -24    2    1    2    0    0 -0.98031638214E+02  0.44509360449E+02  0.21573021260E+03  0.25655740818E+03  0.87697741183E+02 0.  0.
         11    1    4    4    0    0 -0.44495302600E+02  0.78936793156E+01  0.18315155428E+02  0.48760507021E+02  0.00000000000E+00 0. -1.
        -12    1    4    4    0    0 -0.53536335614E+02  0.36615681133E+02  0.19741505717E+03  0.20779690116E+03  0.00000000000E+00 0.  1.
        -11    1    3    3    0    0 -0.44973756263E+02  0.14213856271E+02  0.25828162119E+03  0.26255298190E+03  0.00000000000E+00 0.  1.
         11    1    3    3    0    0  0.33947654198E+02 -0.29978426612E+02  0.10379118440E+03  0.11324203833E+03  0.00000000000E+00 0. -1.
         -1    1    1    2    0  502  0.10905774028E+03 -0.28744790108E+02  0.82362678154E+03  0.83131277444E+03  0.00000000000E+00 0.  1.
<scales pt_clust_5="13000.00000" pt_clust_6="13000.00000" pt_clust_7="13000.00000" pt_clust_8="13000.00000" pt_clust_9="108.52620"></scales>
<clustering>
<clus scale="   87.698">  5  6 -1 -1</clus>
<clus scale="   98.768">  7  8 -1 -1</clus>
<clus scale="  100.624">  1  7  2 -1</clus>
<clus scale="  108.526">  2  9  1 -1</clus>
<clus scale="  108.526">  2  5  1 -1</clus>
</clustering>
</event>
<event>
 9    1  0.6345107E-005  0.1470673E+03  0.7546771E-02  0.1205491E+00
         21   -1    0    0  501  502  0.00000000000E+00  0.00000000000E+00  0.38974907766E+02  0.38974907766E+02  0.00000000000E+00 0. -1.
         -2   -1    0    0    0  501 -0.00000000000E+00 -0.00000000000E+00 -0.75161440139E+03  0.75161440139E+03  0.00000000000E+00 0.  1.
         23    2    1    2    0    0  0.13149946901E+03  0.16317426422E+02 -0.44892276234E+03  0.47699855496E+03  0.91856443038E+02 0.  0.
        -24    2    1    2    0    0 -0.93072167101E+02  0.38482494287E+01 -0.20381688628E+03  0.23962249448E+03  0.84855049444E+02 0.  0.
         13    1    4    4    0    0 -0.10450222733E+03  0.17966252288E+02 -0.18644276262E+03  0.21448637595E+03  0.00000000000E+00 0. -1.
        -14    1    4    4    0    0  0.11430060228E+02 -0.14118002859E+02 -0.17374123660E+02  0.25136118525E+02  0.00000000000E+00 0.  1.
        -11    1    3    3    0    0  0.11716586073E+03  0.46139862463E+02 -0.38417675973E+03  0.40428765569E+03  0.00000000000E+00 0.  1.
         11    1    3    3    0    0  0.14333608281E+02 -0.29822436040E+02 -0.64746002616E+02  0.72710899269E+02  0.00000000000E+00 0. -1.
         -1    1    1    2    0  502 -0.38427301906E+02 -0.20165675851E+02 -0.59899845001E+02  0.73968259717E+02  0.00000000000E+00 0.  1.
<scales pt_clust_5="13000.00000" pt_clust_6="13000.00000" pt_clust_7="13000.00000" pt_clust_8="13000.00000" pt_clust_9="43.39714"></scales>
<clustering>
<clus scale="   43.397">  1  9  2 -1</clus>
<clus scale="   84.855">  5  6 -1 -1</clus>
<clus scale="   91.856">  7  8 -1 -1</clus>
<clus scale="  142.799">  1  5  2 -1</clus>
<clus scale="   43.397">  1  5  2 -1</clus>
</clustering>
</event>
<event>
 9    1  0.6561069E-005  0.1503365E+03  0.7546771E-02  0.1228525E+00
         21   -1    0    0  501  502  0.00000000000E+00  0.00000000000E+00  0.20686959714E+03  0.20686959714E+03  0.00000000000E+00 0. -1.
          1   -1    0    0  502    0 -0.00000000000E+00 -0.00000000000E+00 -0.15980481677E+03  0.15980481677E+03  0.00000000000E+00 0. -1.
        -24    2    1    2    0    0 -0.42090661443E+01 -0.57772084969E+01 -0.92104444277E+01  0.82731313054E+02  0.81905711018E+02 0.  0.
         23    2    1    2    0    0  0.69524951845E+02  0.10036125484E+03  0.70238675929E+02  0.16815327093E+03  0.91847430699E+02 0.  0.
         13    1    3    3    0    0  0.13706275128E+02  0.15548047234E+02 -0.37616605642E+02  0.42948955409E+02  0.00000000000E+00 0. -1.
        -14    1    3    3    0    0 -0.17915341272E+02 -0.21325255731E+02  0.28406161215E+02  0.39782357645E+02  0.00000000000E+00 0.  1.
        -11    1    4    4    0    0  0.60370422545E+02  0.11815215129E+03  0.59044433080E+02  0.14522659484E+03  0.00000000000E+00 0. -1.
         11    1    4    4    0    0  0.91545293006E+01 -0.17790896452E+02  0.11194242849E+02  0.22926676084E+02  0.00000000000E+00 0.  1.
          2    1    1    2  501    0 -0.65315885701E+02 -0.94584046338E+02 -0.13963451128E+02  0.11578982992E+03  0.00000000000E+00 0. -1.
<scales pt_clust_5="13000.00000" pt_clust_6="13000.00000" pt_clust_7="13000.00000" pt_clust_8="13000.00000" pt_clust_9="119.01735"></scales>
<clustering>
<clus scale="   81.906">  5  6 -1 -1</clus>
<clus scale="   82.217">  2  5  1 -1</clus>
<clus scale="   91.847">  7  8 -1 -1</clus>
<clus scale="  119.017">  1  9  2 -1</clus>
<clus scale="  119.017">  1  5  2 -1</clus>
</clustering>
</event>
<event>
 9    1  0.6345107E-005  0.1238415E+03  0.7546771E-02  0.1239206E+00
         21   -1    0    0  501  502  0.00000000000E+00  0.00000000000E+00  0.26263180146E+03  0.26263180146E+03  0.00000000000E+00 0.  1.
          1   -1    0    0  502    0 -0.00000000000E+00 -0.00000000000E+00 -0.77607666678E+02  0.77607666678E+02  0.00000000000E+00 0. -1.
        -24    2    1    2    0    0 -0.55262609666E+01  0.88606135499E+02  0.57887662279E+02  0.13394253948E+03  0.81902598424E+02 0.  0.
         23    2    1    2    0    0  0.37283032647E+02 -0.75854279292E+02  0.76580983111E+02  0.14524809664E+03  0.89935901573E+02 0.  0.
         11    1    3    3    0    0 -0.97547383921E+01  0.44231460379E+02 -0.15673544206E+02  0.47929500272E+02  0.00000000000E+00 0. -1.
        -12    1    3    3    0    0  0.42284774255E+01  0.44374675121E+02  0.73561206485E+02  0.86013039203E+02  0.00000000000E+00 0.  1.
        -13    1    4    4    0    0 -0.17183754091E+02 -0.58486798570E+02  0.18388012810E+02  0.63671862127E+02  0.00000000000E+00 0. -1.
         13    1    4    4    0    0  0.54466786738E+02 -0.17367480722E+02  0.58192970301E+02  0.81576234509E+02  0.00000000000E+00 0.  1.
          2    1    1    2  501    0 -0.31756771680E+02 -0.12751856208E+02  0.50555489391E+02  0.61048832027E+02  0.00000000000E+00 0. -1.
<scales pt_clust_5="13000.00000" pt_clust_6="13000.00000" pt_clust_7="13000.00000" pt_clust_8="13000.00000" pt_clust_9="34.22137"></scales>
<clustering>
<clus scale="   34.221">  1  9  2 -1</clus>
<clus scale="   81.903">  5  6 -1 -1</clus>
<clus scale="   89.936">  7  8 -1 -1</clus>
<clus scale="  118.137">  2  5  1 -1</clus>
<clus scale="   34.221">  1  5  2 -1</clus>
</clustering>
</event>
<event>
 9    1  0.6345107E-005  0.1267662E+03  0.7546771E-02  0.1234777E+00
         21   -1    0    0  501  502  0.00000000000E+00  0.00000000000E+00  0.64139658644E+03  0.64139658644E+03  0.00000000000E+00 0.  1.
          1   -1    0    0  502    0 -0.00000000000E+00 -0.00000000000E+00 -0.71884716378E+02  0.71884716378E+02  0.00000000000E+00 0. -1.
         23    2    1    2    0    0 -0.27453423934E+02  0.94583113884E+02  0.32596835241E+02  0.13808073734E+03  0.91126727352E+02 0.  0.
        -24    2    1    2    0    0 -0.37712808549E+02 -0.70695386528E+02  0.19498279968E+03  0.22629525626E+03  0.82287041691E+02 0.  0.
         13    1    4    4    0    0  0.84810431716E+01 -0.49302368208E+02  0.42844321616E+02  0.65865677700E+02  0.00000000000E+00 0. -1.
        -14    1    4    4    0    0 -0.46193851720E+02 -0.21393018320E+02  0.15213847806E+03  0.16042957856E+03  0.00000000000E+00 0.  1.
        -11    1    3    3    0    0  0.17417447503E+02  0.12491406666E+02 -0.21212121870E+02  0.30155543971E+02  0.00000000000E+00 0. -1.
         11    1    3    3    0    0 -0.44870871437E+02  0.82091707218E+02  0.53808957111E+02  0.10792519336E+03  0.00000000000E+00 0.  1.
          2    1    1    2  501    0  0.65166232483E+02 -0.23887727357E+02  0.34193223514E+03  0.34890530922E+03  0.00000000000E+00 0. -1.
<scales pt_clust_5="13000.00000" pt_clust_6="13000.00000" pt_clust_7="13000.00000" pt_clust_8="13000.00000" pt_clust_9="69.40649"></scales>
<clustering>
<clus scale="   69.406">  1  9  2 -1</clus>
<clus scale="   82.287">  5  6 -1 -1</clus>
<clus scale="   91.127">  7  8 -1 -1</clus>
<clus scale="  120.568">  1  5  2 -1</clus>
<clus scale="   69.406">  1  5  2 -1</clus>
</clustering>
</event>
<event>
 9    1  0.6345107E-005  0.9466377E+02  0.7546771E-02  0.1300035E+00
         21   -1    0    0  501  502  0.00000000000E+00  0.00000000000E+00  0.30400716111E+03  0.30400716111E+03  0.00000000000E+00 0. -1.
          1   -1    0    0  502    0 -0.00000000000E+00 -0.00000000000E+00 -0.93894433586E+02  0.93894433586E+02  0.00000000000E+00 0. -1.
         23    2    1    2    0    0 -0.66729186583E+01 -0.97319886798E+01 -0.48526335051E+02  0.10610162551E+03  0.93613622378E+02 0.  0.
        -24    2    1    2    0    0  0.45366009672E+02 -0.75720957793E+01  0.16916986486E+03  0.19279833299E+03  0.80233051525E+02 0.  0.
         13    1    4    4    0    0  0.86767266972E+01 -0.32917110644E+02  0.25971525220E+02  0.42817541750E+02  0.00000000000E+00 0. -1.
        -14    1    4    4    0    0  0.36689282975E+02  0.25345014864E+02  0.14319833964E+03  0.14998079123E+03  0.00000000000E+00 0.  1.
        -13    1    3    3    0    0  0.20597415536E+02  0.23837158332E+02  0.10248756383E+02  0.33128547380E+02  0.00000000000E+00 0.  1.
         13    1    3    3    0    0 -0.27270334195E+02 -0.33569147012E+02 -0.58775091434E+02  0.72973078127E+02  0.00000000000E+00 0. -1.
          2    1    1    2  501    0 -0.38693091014E+02  0.17304084459E+02  0.89469197711E+02  0.99001636200E+02  0.00000000000E+00 0. -1.
<scales pt_clust_5="13000.00000" pt_clust_6="13000.00000" pt_clust_7="13000.00000" pt_clust_8="13000.00000" pt_clust_9="42.38616"></scales>
<clustering>
<clus scale="   42.386">  1  9  2 -1</clus>
<clus scale="   80.233">  5  6 -1 -1</clus>
<clus scale="   81.456">  1  5  2 -1</clus>
<clus scale="   93.614">  7  8 -1 -1</clus>
<clus scale="   42.386">  1  5  2 -1</clus>
</clustering>
</event>
<event>
 9    1  0.6345107E-005  0.1214694E+03  0.7546771E-02  0.1246443E+00
         21   -1    0    0  501  502  0.00000000000E+00  0.00000000000E+00  0.19176578395E+03  0.19176578395E+03  0.00000000000E+00 0. -1.
          1   -1    0    0  502    0 -0.00000000000E+00 -0.00000000000E+00 -0.63224281956E+03  0.63224281956E+03  0.00000000000E+00 0. -1.
         23    2    1    2    0    0 -0.64817047739E+02 -0.41683404805E+02 -0.45612568623E+03  0.47272791662E+03  0.97377028112E+02 0.  0.
        -24    2    1    2    0    0  0.34866782169E+02  0.59299572959E+02 -0.14920256936E+03  0.18280732841E+03  0.80155977723E+02 0.  0.
         13    1    4    4    0    0  0.50937365659E+02  0.48399677844E+02 -0.62765725835E+02  0.94216136491E+02  0.00000000000E+00 0. -1.
        -14    1    4    4    0    0 -0.16070583489E+02  0.10899895115E+02 -0.86436843520E+02  0.88591191915E+02  0.00000000000E+00 0.  1.
        -13    1    3    3    0    0  0.68070060610E+01 -0.39838251878E+02 -0.77733959547E+02  0.87612728020E+02  0.00000000000E+00 0.  1.
         13    1    3    3    0    0 -0.71624053800E+02 -0.18451529266E+01 -0.37839172668E+03  0.38511518860E+03  0.00000000000E+00 0. -1.
          2    1    1    2  501    0  0.29950265570E+02 -0.17616168154E+02  0.16485121998E+03  0.16847335848E+03  0.00000000000E+00 0. -1.
<scales pt_clust_5="13000.00000" pt_clust_6="13000.00000" pt_clust_7="13000.00000" pt_clust_8="13000.00000" pt_clust_9="34.74691"></scales>
<clustering>
<clus scale="   34.747">  1  9  2 -1</clus>
<clus scale="   80.156">  5  6 -1 -1</clus>
<clus scale="   97.377">  7  8 -1 -1</clus>
<clus scale="  108.155">  1  5  2 -1</clus>
<clus scale="   34.747">  1  5  2 -1</clus>
</clustering>
</event>
<event>
 9    1  0.6345107E-005  0.1115020E+03  0.7546771E-02  0.1262354E+00
         21   -1    0    0  501  502  0.00000000000E+00  0.00000000000E+00  0.80246508607E+03  0.80246508607E+03  0.00000000000E+00 0.  1.
         -2   -1    0    0    0  501 -0.00000000000E+00 -0.00000000000E+00 -0.74113318452E+02  0.74113318452E+02  0.00000000000E+00 0.  1.
        -24    2    1    2    0    0 -0.50781517271E+02 -0.28719185374E+02 -0.65398922605E+01  0.10122712776E+03  0.82465793503E+02 0.  0.
         23    2    1    2    0    0  0.10712120882E+03 -0.49442406430E+02  0.44647177292E+03  0.47126341698E+03  0.93982228294E+02 0.  0.
         13    1    3    3    0    0 -0.62751090686E+02  0.70596430673E+01 -0.15063608057E+01  0.63164919579E+02  0.00000000000E+00 0. -1.
        -14    1    3    3    0    0  0.11969573415E+02 -0.35778828442E+02 -0.50335314548E+01  0.38062208177E+02  0.00000000000E+00 0.  1.
        -13    1    4    4    0    0  0.46960944527E+02 -0.72522016508E+02  0.25740533968E+03  0.27151847467E+03  0.00000000000E+00 0.  1.
         13    1    4    4    0    0  0.60160264291E+02  0.23079610078E+02  0.18906643324E+03  0.19974494231E+03  0.00000000000E+00 0. -1.
         -1    1    1    2    0  502 -0.56339691548E+02  0.78161591805E+02  0.28841988696E+03  0.30408785979E+03  0.00000000000E+00 0.  1.
<scales pt_clust_5="13000.00000" pt_clust_6="13000.00000" pt_clust_7="13000.00000" pt_clust_8="13000.00000" pt_clust_9="96.35038"></scales>
<clustering>
<clus scale="   82.466">  5  6 -1 -1</clus>
<clus scale="   93.982">  7  8 -1 -1</clus>
<clus scale="   96.350">  1  9  2 -1</clus>
<clus scale="  101.984">  2  5  1 -1</clus>
<clus scale="   96.350">  1  5  2 -1</clus>
</clustering>
</event>
<event>
 9    1  0.6345107E-005  0.1010521E+03  0.7546771E-02  0.1282493E+00
         21   -1    0    0  501  502  0.00000000000E+00  0.00000000000E+00  0.72283768091E+03  0.72283768091E+03  0.00000000000E+00 0. -1.
         -2   -1    0    0    0  501 -0.00000000000E+00 -0.00000000000E+00 -0.20374483355E+02  0.20374483355E+02  0.00000000000E+00 0.  1.
         23    2    1    2    0    0  0.36145643979E+02 -0.34389568046E+02  0.16448425667E+03  0.19435173523E+03  0.90710398112E+02 0.  0.
        -24    2    1    2    0    0 -0.29192641668E+02  0.14855055580E+02  0.42585518512E+03  0.43483552813E+03  0.81586854516E+02 0.  0.
         11    1    4    4    0    0 -0.13547030245E+02 -0.33242962092E+02  0.21659776108E+03  0.21955228685E+03  0.00000000000E+00 0. -1.
        -12    1    4    4    0    0 -0.15645611423E+02  0.48098017672E+02  0.20925742403E+03  0.21528324128E+03  0.00000000000E+00 0.  1.
        -11    1    3    3    0    0 -0.29096524679E+02 -0.14877545584E+02  0.75753793288E+02  0.82502038209E+02  0.00000000000E+00 0.  1.
         11    1    3    3    0    0  0.65242168658E+02 -0.19512022462E+02  0.88730463377E+02  0.11184969702E+03  0.00000000000E+00 0. -1.
         -1    1    1    2    0  502 -0.69530023102E+01  0.19534512466E+02  0.11212375577E+03  0.11402490091E+03  0.00000000000E+00 0.  1.
<scales pt_clust_5="13000.00000" pt_clust_6="13000.00000" pt_clust_7="13000.00000" pt_clust_8="13000.00000" pt_clust_9="20.73503"></scales>
<clustering>
<clus scale="   20.735">  1  9  2 -1</clus>
<clus scale="   81.587">  5  6 -1 -1</clus>
<clus scale="   90.710">  7  8 -1 -1</clus>
<clus scale="   92.949">  1  5  2 -1</clus>
<clus scale="   20.735">  1  5  2 -1</clus>
</clustering>
</event>
<event>
 9    1  0.7117704E-005  0.1629217E+03  0.7546771E-02  0.1187304E+00
         21   -1    0    0  501  502  0.00000000000E+00  0.00000000000E+00  0.53869228191E+03  0.53869228191E+03  0.00000000000E+00 0. -1.
          1   -1    0    0  502    0 -0.00000000000E+00 -0.00000000000E+00 -0.30107031013E+03  0.30107031013E+03  0.00000000000E+00 0. -1.
        -24    2    1    2    0    0 -0.87642365720E+02 -0.11446356469E+03 -0.25430180364E+03  0.30252427651E+03  0.77900183788E+02 0.  0.
         23    2    1    2    0    0  0.42723477426E+02  0.57588193887E+02  0.15880164168E+03  0.19632356032E+03  0.90461501952E+02 0.  0.
         11    1    3    3    0    0 -0.69481775600E+02 -0.12154351591E+03 -0.24168122253E+03  0.27930334177E+03  0.00000000000E+00 0. -1.
        -12    1    3    3    0    0 -0.18160590120E+02  0.70799512181E+01 -0.12620581109E+02  0.23220934742E+02  0.00000000000E+00 0.  1.
        -11    1    4    4    0    0  0.33411622805E+02  0.81779113643E+02  0.11016647949E+03  0.14121194414E+03  0.00000000000E+00 0.  1.
         11    1    4    4    0    0  0.93118546216E+01 -0.24190919756E+02  0.48635162197E+02  0.55111616171E+02  0.00000000000E+00 0. -1.
          2    1    1    2  501    0  0.44918888294E+02  0.56875370802E+02  0.33312213374E+03  0.34091475521E+03  0.00000000000E+00 0. -1.
<scales pt_clust_5="13000.00000" pt_clust_6="13000.00000" pt_clust_7="13000.00000" pt_clust_8="13000.00000" pt_clust_9="72.47423"></scales>
<clustering>
<clus scale="   72.474">  1  9  2 -1</clus>
<clus scale="   77.900">  5  6 -1 -1</clus>
<clus scale="   90.462">  7  8 -1 -1</clus>
<clus scale="  156.297">  2  5  1 -1</clus>
<clus scale="   72.474">  1  5  2 -1</clus>
</clustering>
</event>
<event>
 9    1  0.6345107E-005  0.1012756E+03  0.7546771E-02  0.1282305E+00
         21   -1    0    0  501  502  0.00000000000E+00  0.00000000000E+00  0.19540709600E+03  0.19540709600E+03  0.00000000000E+00 0.  1.
         -4   -1    0    0    0  501 -0.00000000000E+00 -0.00000000000E+00 -0.20900199362E+03  0.20900199362E+03  0.00000000000E+00 0.  1.
        -24    2    1    2    0    0  0.25544495045E+02 -0.41758419455E+02 -0.14900919344E+03  0.17670593960E+03  0.81393872867E+02 0.  0.
         23    2    1    2    0    0 -0.52064021430E+02 -0.16049182425E+02  0.40802521929E+02  0.11370143130E+03  0.91076512337E+02 0.  0.
         13    1    3    3    0    0 -0.16330799636E+02  0.16231426784E+02 -0.29437906802E+02  0.37373046291E+02  0.00000000000E+00 0. -1.
        -14    1    3    3    0    0  0.41875294681E+02 -0.57989846239E+02 -0.11957128663E+03  0.13933289331E+03  0.00000000000E+00 0.  1.
        -13    1    4    4    0    0  0.12686537331E+02  0.25530052639E+02  0.54789427014E+01  0.29030167590E+02  0.00000000000E+00 0. -1.
         13    1    4    4    0    0 -0.64750558761E+02 -0.41579235064E+02  0.35323579228E+02  0.84671263708E+02  0.00000000000E+00 0.  1.
         -3    1    1    2    0  502  0.26519526385E+02  0.57807601880E+02  0.94611773883E+02  0.11400171872E+03  0.00000000000E+00 0.  1.
<scales pt_clust_5="13000.00000" pt_clust_6="13000.00000" pt_clust_7="13000.00000" pt_clust_8="13000.00000" pt_clust_9="63.60035"></scales>
<clustering>
<clus scale="   63.600">  1  9  2 -1</clus>
<clus scale="   81.394">  5  6 -1 -1</clus>
<clus scale="   91.077">  7  8 -1 -1</clus>
<clus scale="   92.665">  2  5  1 -1</clus>
<clus scale="   63.600">  1  5  2 -1</clus>
</clustering>
</event>
<event>
 9    1  0.6345107E-005  0.1140143E+03  0.7546771E-02  0.1255562E+00
         21   -1    0    0  501  502  0.00000000000E+00  0.00000000000E+00  0.41921804300E+02  0.41921804300E+02  0.00000000000E+00 0.  1.
         -2   -1    0    0    0  501 -0.00000000000E+00 -0.00000000000E+00 -0.41295753805E+03  0.41295753805E+03  0.00000000000E+00 0.  1.
         23    2    1    2    0    0 -0.58044980758E+02 -0.66828150622E+02 -0.20565167942E+03  0.23844451017E+03  0.82024079848E+02 0.  0.
        -24    2    1    2    0    0  0.64412588556E+02  0.32337968059E+02 -0.13175750125E+03  0.16784610721E+03  0.74950322396E+02 0.  0.
         13    1    4    4    0    0  0.22454456085E+02  0.28561654303E+02 -0.11809659524E+03  0.12355879775E+03  0.00000000000E+00 0. -1.
        -14    1    4    4    0    0  0.41958132471E+02  0.37763137564E+01 -0.13660906010E+02  0.44287309458E+02  0.00000000000E+00 0.  1.
        -11    1    3    3    0    0 -0.55216653312E+02 -0.37280541013E+02 -0.19633967561E+03  0.20733544260E+03  0.00000000000E+00 0.  1.
         11    1    3    3    0    0 -0.28283274462E+01 -0.29547609609E+02 -0.93120038078E+01  0.31109067564E+02  0.00000000000E+00 0. -1.
         -1    1    1    2    0  502 -0.63676077979E+01  0.34490182563E+02 -0.33626553085E+02  0.48588724975E+02  0.00000000000E+00 0.  1.
<scales pt_clust_5="13000.00000" pt_clust_6="13000.00000" pt_clust_7="13000.00000" pt_clust_8="13000.00000" pt_clust_9="35.07305"></scales>
<clustering>
<clus scale="   35.073">  1  9  2 -1</clus>
<clus scale="   74.950">  5  6 -1 -1</clus>
<clus scale="   82.024">  7  8 -1 -1</clus>
<clus scale="  109.036">  1  5  2 -1</clus>
<clus scale="   35.073">  1  5  2 -1</clus>
</clustering>
</event>
<event>
 9    1  0.6345107E-005  0.1160936E+03  0.7546771E-02  0.1252245E+00
          1   -1    0    0  502    0 -0.00000000000E+00  0.00000000000E+00  0.69739645857E+03  0.69739645857E+03  0.00000000000E+00 0. -1.
         21   -1    0    0  501  502  0.00000000000E+00 -0.00000000000E+00 -0.57639961254E+02  0.57639961254E+02  0.00000000000E+00 0.  1.
        -24    2    1    2    0    0  0.54273096655E+02 -0.29452709847E+02  0.36778663061E+03  0.38203924204E+03  0.82909261632E+02 0.  0.
         23    2    1    2    0    0 -0.10468701659E+03  0.89523173144E+02  0.12654204870E+03  0.20777225795E+03  0.90458007463E+02 0.  0.
         13    1    3    3    0    0  0.44573672731E+01  0.27340516685E+02  0.90367737687E+02  0.94518252154E+02  0.00000000000E+00 0. -1.
        -14    1    3    3    0    0  0.49815729382E+02 -0.56793226532E+02  0.27741889292E+03  0.28752098989E+03  0.00000000000E+00 0.  1.
        -13    1    4    4    0    0 -0.16435450745E+02  0.72388398163E+02  0.48021029639E+02  0.88409408535E+02  0.00000000000E+00 0. -1.
         13    1    4    4    0    0 -0.88251565840E+02  0.17134774981E+02  0.78521019059E+02  0.11936284942E+03  0.00000000000E+00 0.  1.
          2    1    1    2  501    0  0.50413919930E+02 -0.60070463297E+02  0.14542781800E+03  0.16522491983E+03  0.00000000000E+00 0. -1.
<scales pt_clust_5="13000.00000" pt_clust_6="13000.00000" pt_clust_7="13000.00000" pt_clust_8="13000.00000" pt_clust_9="78.42213"></scales>
<clustering>
<clus scale="   78.422">  2  9  1 -1</clus>
<clus scale="   82.909">  5  6 -1 -1</clus>
<clus scale="   90.458">  7  8 -1 -1</clus>
<clus scale="  110.313">  1  5  2 -1</clus>
<clus scale="   78.422">  2  5  1 -1</clus>
</clustering>
</event>
<event>
 9    1  0.6345107E-005  0.9427897E+02  0.7546771E-02  0.1299468E+00
          1   -1    0    0  502    0 -0.00000000000E+00  0.00000000000E+00  0.31682964023E+03  0.31682964023E+03  0.00000000000E+00 0. -1.
         21   -1    0    0  501  502  0.00000000000E+00 -0.00000000000E+00 -0.62607497648E+02  0.62607497648E+02  0.00000000000E+00 0. -1.
        -24    2    1    2    0    0 -0.11160362086E+02  0.15940859607E+02  0.20059163295E+03  0.21703300275E+03  0.80545989279E+02 0.  0.
         23    2    1    2    0    0 -0.25736200876E+02 -0.40145888965E+02  0.57019460783E+02  0.11814665220E+03  0.91833371292E+02 0.  0.
         11    1    3    3    0    0 -0.20812822922E+02  0.46314828478E+02  0.11549310231E+03  0.12616217189E+03  0.00000000000E+00 0. -1.
        -12    1    3    3    0    0  0.96524608360E+01 -0.30373968871E+02  0.85098530640E+02  0.90870830866E+02  0.00000000000E+00 0.  1.
        -13    1    4    4    0    0  0.24726660575E+02  0.10595025438E+02  0.41514289366E+00  0.26904175342E+02  0.00000000000E+00 0.  1.
         13    1    4    4    0    0 -0.50462861451E+02 -0.50740914403E+02  0.56604317890E+02  0.91242476862E+02  0.00000000000E+00 0. -1.
          2    1    1    2  501    0  0.36896562962E+02  0.24205029358E+02 -0.33889511473E+01  0.44257482921E+02  0.00000000000E+00 0. -1.
<scales pt_clust_5="13000.00000" pt_clust_6="13000.00000" pt_clust_7="13000.00000" pt_clust_8="13000.00000" pt_clust_9="44.12754"></scales>
<clustering>
<clus scale="   44.128">  2  9  1 -1</clus>
<clus scale="   80.546">  5  6 -1 -1</clus>
<clus scale="   83.324">  1  5  2 -1</clus>
<clus scale="   91.833">  7  8 -1 -1</clus>
<clus scale="   44.128">  2  5  1 -1</clus>
</clustering>
</event>
<event>
 9    1  0.7841751E-005  0.2269539E+03  0.7546771E-02  0.1157333E+00
          1   -1    0    0  502    0 -0.00000000000E+00  0.00000000000E+00  0.59065248245E+03  0.59065248245E+03  0.00000000000E+00 0. -1.
         21   -1    0    0  501  502  0.00000000000E+00 -0.00000000000E+00 -0.25675011293E+03  0.25675011293E+03  0.00000000000E+00 0. -1.
        -24    2    1    2    0    0  0.44146747256E+02 -0.68042491650E+02  0.29098067715E+03  0.31268327248E+03  0.80761119647E+02 0.  0.
         23    2    1    2    0    0 -0.35194737022E+02  0.21708594694E+03 -0.15442350801E+03  0.28725373305E+03  0.10150423369E+03 0.  0.
         13    1    3    3    0    0  0.47102379106E+02 -0.31929175229E+01  0.92418479939E+02  0.10377863111E+03  0.00000000000E+00 0. -1.
        -14    1    3    3    0    0 -0.29556318494E+01 -0.64849574127E+02  0.19856219721E+03  0.20890464137E+03  0.00000000000E+00 0.  1.
        -13    1    4    4    0    0  0.21206812972E+02  0.21854308090E+02  0.24236315750E+01  0.30548546423E+02  0.00000000000E+00 0.  1.
         13    1    4    4    0    0 -0.56401549994E+02  0.19523163885E+03 -0.15684713958E+03  0.25670518663E+03  0.00000000000E+00 0. -1.
          2    1    1    2  501    0 -0.89520102343E+01 -0.14904345529E+03  0.19734520037E+03  0.24746558985E+03  0.00000000000E+00 0. -1.
<scales pt_clust_5="13000.00000" pt_clust_6="13000.00000" pt_clust_7="13000.00000" pt_clust_8="13000.00000" pt_clust_9="202.99020"></scales>
<clustering>
<clus scale="   80.761">  5  6 -1 -1</clus>
<clus scale="  101.504">  7  8 -1 -1</clus>
<clus scale="  114.460">  1  5  2 -1</clus>
<clus scale="  202.990">  2  9  1 -1</clus>
<clus scale="  202.990">  2  5  1 -1</clus>
</clustering>
</event>
<event>
 9    1  0.6345107E-005  0.2740588E+03  0.7546771E-02  0.1124830E+00
          1   -1    0    0  502    0 -0.00000000000E+00  0.00000000000E+00  0.24997274571E+03  0.24997274571E+03  0.00000000000E+00 0. -1.
         21   -1    0    0  501  502  0.00000000000E+00 -0.00000000000E+00 -0.61037740425E+03  0.61037740425E+03  0.00000000000E+00 0. -1.
        -24    2    1    2    0    0  0.71594203584E+02  0.92540836097E+02  0.21418950787E+02  0.14378135901E+03  0.80776057178E+02 0.  0.
         23    2    1    2    0    0 -0.27424690585E+03 -0.70714320474E+02 -0.41388195561E+03  0.51023834703E+03  0.93984132273E+02 0.  0.
         13    1    3    3    0    0  0.28221737598E+02 -0.79160803296E+01  0.17818460912E+02  0.34302016706E+02  0.00000000000E+00 0. -1.
        -14    1    3    3    0    0  0.43372465986E+02  0.10045691643E+03  0.36004898756E+01  0.10947934230E+03  0.00000000000E+00 0.  1.
        -13    1    4    4    0    0 -0.14364795772E+03  0.51348200435E+01 -0.24164776929E+03  0.28116675930E+03  0.00000000000E+00 0. -1.
         13    1    4    4    0    0 -0.13059894812E+03 -0.75849140518E+02 -0.17223418632E+03  0.22907158773E+03  0.00000000000E+00 0.  1.
          2    1    1    2  501    0  0.20265270226E+03 -0.21826515622E+02  0.32058346280E+02  0.20633044391E+03  0.00000000000E+00 0. -1.
<scales pt_clust_5="13000.00000" pt_clust_6="13000.00000" pt_clust_7="13000.00000" pt_clust_8="13000.00000" pt_clust_9="257.43989"></scales>
<clustering>
<clus scale="   80.776">  5  6 -1 -1</clus>
<clus scale="   93.984">  7  8 -1 -1</clus>
<clus scale="  142.177">  1  5  2 -1</clus>
<clus scale="  257.440">  2  9  1 -1</clus>
<clus scale="  257.440">  2  5  1 -1</clus>
</clustering>
</event>
<event>
 9    1  0.6345107E-005  0.9149573E+02  0.7546771E-02  0.1305088E+00
          3   -1    0    0  502    0 -0.00000000000E+00  0.00000000000E+00  0.26925987769E+02  0.26925987769E+02  0.00000000000E+00 0. -1.
         21   -1    0    0  501  502  0.00000000000E+00 -0.00000000000E+00 -0.37952063034E+03  0.37952063034E+03  0.00000000000E+00 0.  1.
         23    2    1    2    0    0  0.12919637694E+02  0.23937965680E+02 -0.13164556328E+03  0.16173308712E+03  0.89928270859E+02 0.  0.
        -24    2    1    2    0    0  0.17560844115E+01 -0.68038875309E+01 -0.15146311138E+03  0.17165702416E+03  0.80471629261E+02 0.  0.
         13    1    4    4    0    0  0.21064166781E+02 -0.36548108296E+02 -0.10537747504E+03  0.11350716095E+03  0.00000000000E+00 0. -1.
        -14    1    4    4    0    0 -0.19308082370E+02  0.29744220766E+02 -0.46085636344E+02  0.58149863207E+02  0.00000000000E+00 0.  1.
        -11    1    3    3    0    0  0.34846926083E+02 -0.60979985530E+01 -0.11619839862E+03  0.12146424036E+03  0.00000000000E+00 0.  1.
         11    1    3    3    0    0 -0.21927288389E+02  0.30035964233E+02 -0.15447164655E+02  0.40268846760E+02  0.00000000000E+00 0. -1.
          4    1    1    2  501    0 -0.14675722105E+02 -0.17134078150E+02 -0.69485967908E+02  0.73056506825E+02  0.00000000000E+00 0. -1.
<scales pt_clust_5="13000.00000" pt_clust_6="13000.00000" pt_clust_7="13000.00000" pt_clust_8="13000.00000" pt_clust_9="22.56000"></scales>
<clustering>
<clus scale="   22.560">  2  9  1 -1</clus>
<clus scale="   80.472">  5  6 -1 -1</clus>
<clus scale="   82.220">  2  5  1 -1</clus>
<clus scale="   89.928">  7  8 -1 -1</clus>
<clus scale="   22.560">  2  5  1 -1</clus>
</clustering>
</event>
<event>
 9    1  0.6345107E-005  0.1174364E+03  0.7546771E-02  0.1249521E+00
         -2   -1    0    0    0  501 -0.00000000000E+00  0.00000000000E+00  0.37548504447E+03  0.37548504447E+03  0.00000000000E+00 0.  1.
         21   -1    0    0  501  502  0.00000000000E+00 -0.00000000000E+00 -0.65162259661E+02  0.65162259661E+02  0.00000000000E+00 0.  1.
         23    2    1    2    0    0 -0.29253264060E+02  0.51591104717E+02  0.12362836691E+03  0.16460805108E+03  0.91073826274E+02 0.  0.
        -24    2    1    2    0    0  0.87614949029E+02 -0.59658381029E+02  0.89930528216E+02  0.16275016458E+03  0.84644045541E+02 0.  0.
         13    1    4    4    0    0  0.22026070498E+02 -0.14620608049E+02  0.77923616585E+02  0.82286086205E+02  0.00000000000E+00 0. -1.
        -14    1    4    4    0    0  0.65588878531E+02 -0.45037772980E+02  0.12006911632E+02  0.80464078376E+02  0.00000000000E+00 0.  1.
        -11    1    3    3    0    0 -0.83329409089E+01 -0.26378117290E+02  0.36977911952E+02  0.46180179171E+02  0.00000000000E+00 0. -1.
         11    1    3    3    0    0 -0.20920323151E+02  0.77969222006E+02  0.86650454957E+02  0.11842787191E+03  0.00000000000E+00 0.  1.
         -1    1    1    2    0  502 -0.58361684969E+02  0.80672763123E+01  0.96763889685E+02  0.11328908847E+03  0.00000000000E+00 0.  1.
<scales pt_clust_5="13000.00000" pt_clust_6="13000.00000" pt_clust_7="13000.00000" pt_clust_8="13000.00000" pt_clust_9="58.91664"></scales>
<clustering>
<clus scale="   58.917">  2  9  1 -1</clus>
<clus scale="   84.644">  5  6 -1 -1</clus>
<clus scale="   91.074">  7  8 -1 -1</clus>
<clus scale="  112.523">  2  5  1 -1</clus>
<clus scale="   58.917">  2  5  1 -1</clus>
</clustering>
</event>
<event>
 9    1  0.6345107E-005  0.2055711E+03  0.7546771E-02  0.1162525E+00
         -2   -1    0    0    0  501 -0.00000000000E+00  0.00000000000E+00  0.35153854493E+03  0.35153854493E+03  0.00000000000E+00 0.  1.
         21   -1    0    0  501  502  0.00000000000E+00 -0.00000000000E+00 -0.32822235276E+03  0.32822235276E+03  0.00000000000E+00 0.  1.
        -24    2    1    2    0    0 -0.97332107219E+02  0.51804835818E+02  0.53931747902E+02  0.14675388579E+03  0.80441217373E+02 0.  0.
         23    2    1    2    0    0 -0.10747062998E+03 -0.14461435941E+03 -0.17384640815E+03  0.26641210212E+03  0.91047159594E+02 0.  0.
         11    1    3    3    0    0 -0.10039817803E+02  0.33995077488E+02 -0.10311696564E+02  0.36916044221E+02  0.00000000000E+00 0. -1.
        -12    1    3    3    0    0 -0.87292289417E+02  0.17809758330E+02  0.64243444466E+02  0.10983784157E+03  0.00000000000E+00 0.  1.
        -13    1    4    4    0    0 -0.82388178186E+02 -0.35389030392E+02 -0.72392153187E+02  0.11524243671E+03  0.00000000000E+00 0. -1.
         13    1    4    4    0    0 -0.25082451796E+02 -0.10922532902E+03 -0.10145425497E+03  0.15116966540E+03  0.00000000000E+00 0.  1.
         -1    1    1    2    0  502  0.20480273720E+03  0.92809523590E+02  0.14323085242E+03  0.26659490978E+03  0.00000000000E+00 0.  1.
<scales pt_clust_5="13000.00000" pt_clust_6="13000.00000" pt_clust_7="13000.00000" pt_clust_8="13000.00000" pt_clust_9="184.30935"></scales>
<clustering>
<clus scale="   80.441">  5  6 -1 -1</clus>
<clus scale="   91.047">  7  8 -1 -1</clus>
<clus scale="  136.485">  1  5  2 -1</clus>
<clus scale="  184.309">  2  9  1 -1</clus>
<clus scale="  184.309">  2  5  1 -1</clus>
</clustering>
</event>
<event>
 9    1  0.6345107E-005  0.1055463E+03  0.7546771E-02  0.1272831E+00
          3   -1    0    0  502    0 -0.00000000000E+00  0.00000000000E+00  0.27197523522E+02  0.27197523522E+02  0.00000000000E+00 0. -1.
         21   -1    0    0  501  502  0.00000000000E+00 -0.00000000000E+00 -0.55088988435E+03  0.55088988435E+03  0.00000000000E+00 0. -1.
         23    2    1    2    0    0  0.25236186368E+02 -0.41057346290E+02 -0.25227066222E+03  0.27247166776E+03  0.90982151688E+02 0.  0.
        -24    2    1    2    0    0 -0.45585911198E+02  0.39530796251E+02 -0.26542030865E+03  0.28434467204E+03  0.82238635222E+02 0.  0.
         11    1    4    4    0    0 -0.64978026967E+02  0.46723174375E+02 -0.19066532938E+03  0.20678120524E+03  0.00000000000E+00 0. -1.
        -12    1    4    4    0    0  0.19392115768E+02 -0.71923781246E+01 -0.74754979271E+02  0.77563466805E+02  0.00000000000E+00 0.  1.
        -13    1    3    3    0    0  0.17190608107E+02  0.27273629716E+02 -0.10662675185E+03  0.11139403977E+03  0.00000000000E+00 0.  1.
         13    1    3    3    0    0  0.80455782607E+01 -0.68330976005E+02 -0.14564391037E+03  0.16107762799E+03  0.00000000000E+00 0. -1.
          4    1    1    2  501    0  0.20349724831E+02  0.15265500389E+01 -0.60013899614E+01  0.21271068078E+02  0.00000000000E+00 0. -1.
<scales pt_clust_5="13000.00000" pt_clust_6="13000.00000" pt_clust_7="13000.00000" pt_clust_8="13000.00000" pt_clust_9="20.40691"></scales>
<clustering>
<clus scale="   20.407">  2  9  1 -1</clus>
<clus scale="   82.239">  5  6 -1 -1</clus>
<clus scale="   90.982">  7  8 -1 -1</clus>
<clus scale="   98.109">  2  5  1 -1</clus>
<clus scale="   20.407">  2  5  1 -1</clus>
</clustering>
</event>
<event>
 9    1  0.6345107E-005  0.8358054E+02  0.7546771E-02  0.1322042E+00
          1   -1    0    0  502    0 -0.00000000000E+00  0.00000000000E+00  0.14648650823E+03  0.14648650823E+03  0.00000000000E+00 0. -1.
         21   -1    0    0  501  502  0.00000000000E+00 -0.00000000000E+00 -0.97423325759E+02  0.97423325759E+02  0.00000000000E+00 0.  1.
         23    2    1    2    0    0 -0.47623835685E+01 -0.25213624953E+02  0.98687171043E+02  0.12737626742E+03  0.76335762212E+02 0.  0.
        -24    2    1    2    0    0 -0.38132849475E+01  0.43272677252E+01 -0.47694864770E+02  0.93872950358E+02  0.80647779234E+02 0.  0.
         13    1    4    4    0    0 -0.18983788766E+02  0.26168523864E+02  0.69798101555E+01  0.33074062752E+02  0.00000000000E+00 0. -1.
        -14    1    4    4    0    0  0.15170503819E+02 -0.21841256139E+02 -0.54674674925E+02  0.60798887605E+02  0.00000000000E+00 0.  1.
        -11    1    3    3    0    0 -0.62398696461E+01 -0.48848411832E+02  0.89149849221E+02  0.10184693873E+03  0.00000000000E+00 0.  1.
         11    1    3    3    0    0  0.14774860775E+01  0.23634786879E+02  0.95373218213E+01  0.25529328692E+02  0.00000000000E+00 0. -1.
          2    1    1    2  501    0  0.85756685161E+01  0.20886357228E+02 -0.19291237969E+01  0.22660616218E+02  0.00000000000E+00 0. -1.
<scales pt_clust_5="13000.00000" pt_clust_6="13000.00000" pt_clust_7="13000.00000" pt_clust_8="13000.00000" pt_clust_9="22.57835"></scales>
<clustering>
<clus scale="   22.578">  2  9  1 -1</clus>
<clus scale="   76.336">  7  8 -1 -1</clus>
<clus scale="   79.428">  1  7  2 -1</clus>
<clus scale="   80.648">  5  6 -1 -1</clus>
<clus scale="   22.578">  2  5  1 -1</clus>
</clustering>
</event>
<event>
 9    1  0.6345107E-005  0.9597120E+02  0.7546771E-02  0.1296806E+00
         21   -1    0    0  501  502  0.00000000000E+00  0.00000000000E+00  0.40135697798E+02  0.40135697798E+02  0.00000000000E+00 0.  1.
          1   -1    0    0  502    0 -0.00000000000E+00 -0.00000000000E+00 -0.49346046811E+03  0.49346046811E+03  0.00000000000E+00 0. -1.
        -24    2    1    2    0    0 -0.17317520018E+02 -0.60102037705E+01 -0.83815431547E+02  0.11564580463E+03  0.77542933364E+02 0.  0.
         23    2    1    2    0    0  0.35956846913E+02 -0.44081877675E+02 -0.11335804498E+03  0.15628239144E+03  0.91312828965E+02 0.  0.
         13    1    3    3    0    0 -0.43359734314E+02 -0.18832706171E+02 -0.34878459097E+02  0.58747291771E+02  0.00000000000E+00 0. -1.
        -14    1    3    3    0    0  0.26042214295E+02  0.12822502401E+02 -0.48936972450E+02  0.56898512861E+02  0.00000000000E+00 0.  1.
        -13    1    4    4    0    0  0.55666830514E+02 -0.29571160275E+02 -0.30768183509E+02  0.70142217358E+02  0.00000000000E+00 0.  1.
         13    1    4    4    0    0 -0.19709983601E+02 -0.14510717400E+02 -0.82589861475E+02  0.86140174086E+02  0.00000000000E+00 0. -1.
          2    1    1    2  501    0 -0.18639326894E+02  0.50092081445E+02 -0.25615129378E+03  0.26166796983E+03  0.00000000000E+00 0. -1.
<scales pt_clust_5="13000.00000" pt_clust_6="13000.00000" pt_clust_7="13000.00000" pt_clust_8="13000.00000" pt_clust_9="53.44758"></scales>
<clustering>
<clus scale="   53.448">  1  9  2 -1</clus>
<clus scale="   77.543">  5  6 -1 -1</clus>
<clus scale="   82.978">  2  5  1 -1</clus>
<clus scale="   91.313">  7  8 -1 -1</clus>
<clus scale="   53.448">  1  5  2 -1</clus>
</clustering>
</event>
<event>
 9    1  0.6654524E-005  0.2111674E+03  0.7546771E-02  0.1141187E+00
         21   -1    0    0  501  502  0.00000000000E+00  0.00000000000E+00  0.93661798116E+02  0.93661798116E+02  0.00000000000E+00 0. -1.
          1   -1    0    0  502    0 -0.00000000000E+00 -0.00000000000E+00 -0.79102805162E+03  0.79102805162E+03  0.00000000000E+00 0. -1.
        -24    2    1    2    0    0  0.15484327373E+03  0.12347206590E+03 -0.37667683038E+03  0.43310034119E+03  0.80428107740E+02 0.  0.
         23    2    1    2    0    0 -0.15475980866E+03 -0.92501201060E+02 -0.91334665390E+02  0.22015311052E+03  0.87282875734E+02 0.  0.
         11    1    3    3    0    0  0.15241226861E+03  0.84079155865E+02 -0.31443990930E+03  0.35940403537E+03  0.00000000000E+00 0. -1.
        -12    1    3    3    0    0  0.24310051206E+01  0.39392910033E+02 -0.62236921078E+02  0.73696305824E+02  0.00000000000E+00 0.  1.
        -13    1    4    4    0    0 -0.61121005619E+02  0.91340260109E+01 -0.34010968749E+02  0.70540440559E+02  0.00000000000E+00 0.  1.
         13    1    4    4    0    0 -0.93638803045E+02 -0.10163522707E+03 -0.57323696641E+02  0.14961266996E+03  0.00000000000E+00 0. -1.
          2    1    1    2  501    0 -0.83465071232E-01 -0.30970864838E+02 -0.22935475773E+03  0.23143639802E+03  0.00000000000E+00 0. -1.
<scales pt_clust_5="13000.00000" pt_clust_6="13000.00000" pt_clust_7="13000.00000" pt_clust_8="13000.00000" pt_clust_9="30.97099"></scales>
<clustering>
<clus scale="   30.971">  1  9  2 -1</clus>
<clus scale="   80.428">  5  6 -1 -1</clus>
<clus scale="   87.283">  7  8 -1 -1</clus>
<clus scale="  208.428">  2  5  1 -1</clus>
<clus scale="   30.971">  1  5  2 -1</clus>
</clustering>
</event>
<event>
 9    1  0.6345107E-005  0.1531921E+03  0.7546771E-02  0.1198590E+00
         21   -1    0    0  501  502  0.00000000000E+00  0.00000000000E+00  0.90510177367E+02  0.90510177367E+02  0.00000000000E+00 0. -1.
          1   -1    0    0  502    0 -0.00000000000E+00 -0.00000000000E+00 -0.46420014802E+03  0.46420014802E+03  0.00000000000E+00 0. -1.
         23    2    1    2    0    0  0.80142263317E+02  0.92912266719E+02 -0.34862649372E+03  0.38158893610E+03  0.94943205943E+02 0.  0.
        -24    2    1    2    0    0 -0.86390068001E+02 -0.73350144651E+02 -0.41207415050E+02  0.14699978098E+03  0.84067811816E+02 0.  0.
         11    1    4    4    0    0 -0.75354394434E+02 -0.61659104602E+02 -0.65874049798E+02  0.11755645613E+03  0.00000000000E+00 0. -1.
        -12    1    4    4    0    0 -0.11035673568E+02 -0.11691040049E+02  0.24666634748E+02  0.29443324851E+02  0.00000000000E+00 0.  1.
        -11    1    3    3    0    0 -0.18969092888E+01  0.45929216589E+02 -0.48059162023E+02  0.66503941655E+02  0.00000000000E+00 0.  1.
         11    1    3    3    0    0  0.82039172606E+02  0.46983050129E+02 -0.30056733169E+03  0.31508499444E+03  0.00000000000E+00 0. -1.
          2    1    1    2  501    0  0.62478046842E+01 -0.19562122068E+02  0.16143938109E+02  0.26121608313E+02  0.00000000000E+00 0. -1.
<scales pt_clust_5="13000.00000" pt_clust_6="13000.00000" pt_clust_7="13000.00000" pt_clust_8="13000.00000" pt_clust_9="20.53562"></scales>
<clustering>
<clus scale="   20.536">  1  9  2 -1</clus>
<clus scale="   84.068">  5  6 -1 -1</clus>
<clus scale="   94.943">  7  8 -1 -1</clus>
<clus scale="  146.700">  1  5  2 -1</clus>
<clus scale="   20.536">  1  5  2 -1</clus>
</clustering>
</event>
<event>
 9    1  0.6345107E-005  0.1080783E+03  0.7546771E-02  0.1269637E+00
         21   -1    0    0  501  502  0.00000000000E+00  0.00000000000E+00  0.58049130606E+02  0.58049130606E+02  0.00000000000E+00 0. -1.
          1   -1    0    0  502    0 -0.00000000000E+00 -0.00000000000E+00 -0.69771071814E+03  0.69771071814E+03  0.00000000000E+00 0. -1.
        -24    2    1    2    0    0 -0.51480051492E+02  0.16073497736E+02 -0.37741687567E+03  0.38965485611E+03  0.80491340053E+02 0.  0.
         23    2    1    2    0    0  0.60033622997E+02  0.50939562353E+02 -0.27170567857E+03  0.29788898499E+03  0.93354146696E+02 0.  0.
         13    1    3    3    0    0 -0.50313950086E+02  0.45233465345E+02 -0.26921758607E+03  0.27758902826E+03  0.00000000000E+00 0. -1.
        -14    1    3    3    0    0 -0.11661014067E+01 -0.29159967609E+02 -0.10819928960E+03  0.11206582785E+03  0.00000000000E+00 0.  1.
        -11    1    4    4    0    0  0.57459161491E+02  0.13916131246E+02 -0.24534368341E+03  0.25236627536E+03  0.00000000000E+00 0.  1.
         11    1    4    4    0    0  0.25744615058E+01  0.37023431107E+02 -0.26361995157E+02  0.45522709626E+02  0.00000000000E+00 0. -1.
          2    1    1    2  501    0 -0.85535715048E+01 -0.67013060090E+02  0.94609667046E+01  0.68216007645E+02  0.00000000000E+00 0. -1.
<scales pt_clust_5="13000.00000" pt_clust_6="13000.00000" pt_clust_7="13000.00000" pt_clust_8="13000.00000" pt_clust_9="67.55675"></scales>
<clustering>
<clus scale="   67.557">  1  9  2 -1</clus>
<clus scale="   80.491">  5  6 -1 -1</clus>
<clus scale="   93.354">  7  8 -1 -1</clus>
<clus scale="   97.184">  2  5  1 -1</clus>
<clus scale="   67.557">  1  5  2 -1</clus>
</clustering>
</event>
<event>
 9    1  0.6345107E-005  0.1273157E+03  0.7546771E-02  0.1235526E+00
          1   -1    0    0  502    0 -0.00000000000E+00  0.00000000000E+00  0.67011791177E+03  0.67011791177E+03  0.00000000000E+00 0. -1.
         21   -1    0    0  501  502  0.00000000000E+00 -0.00000000000E+00 -0.42783510090E+02  0.42783510090E+02  0.00000000000E+00 0. -1.
         23    2    1    2    0    0  0.11907504798E+01 -0.10345175962E+03  0.41176069619E+03  0.43460731355E+03  0.92913732068E+02 0.  0.
        -24    2    1    2    0    0  0.96054564623E+01  0.69570959484E+02  0.21855743324E+03  0.24260980738E+03  0.78484290217E+02 0.  0.
         11    1    4    4    0    0  0.29691374432E+02  0.37242439068E+01  0.11055038148E+03  0.11452874990E+03  0.00000000000E+00 0. -1.
        -12    1    4    4    0    0 -0.20085917970E+02  0.65846715578E+02  0.10800705176E+03  0.12808105747E+03  0.00000000000E+00 0.  1.
        -11    1    3    3    0    0  0.32832849499E+02 -0.92687006641E+02  0.35839205379E+03  0.37163657170E+03  0.00000000000E+00 0.  1.
         11    1    3    3    0    0 -0.31642099019E+02 -0.10764752977E+02  0.53368642404E+02  0.62970741850E+02  0.00000000000E+00 0. -1.
          2    1    1    2  501    0 -0.10796206942E+02  0.33880800133E+02 -0.29837277549E+01  0.35684300937E+02  0.00000000000E+00 0. -1.
<scales pt_clust_5="13000.00000" pt_clust_6="13000.00000" pt_clust_7="13000.00000" pt_clust_8="13000.00000" pt_clust_9="35.55934"></scales>
<clustering>
<clus scale="   35.559">  2  9  1 -1</clus>
<clus scale="   78.484">  5  6 -1 -1</clus>
<clus scale="   92.914">  7  8 -1 -1</clus>
<clus scale="  117.201">  2  5  1 -1</clus>
<clus scale="   35.559">  2  5  1 -1</clus>
</clustering>
</event>
<event>
 9    1  0.6345107E-005  0.1562324E+03  0.7546771E-02  0.1208077E+00
          1   -1    0    0  502    0 -0.00000000000E+00  0.00000000000E+00  0.69696158197E+03  0.69696158197E+03  0.00000000000E+00 0. -1.
         21   -1    0    0  501  502  0.00000000000E+00 -0.00000000000E+00 -0.95708708154E+02  0.95708708154E+02  0.00000000000E+00 0. -1.
         23    2    1    2    0    0 -0.62199680009E+02  0.18447832618E+02  0.40051045744E+01  0.11275113428E+03  0.92128468446E+02 0.  0.
        -24    2    1    2    0    0 -0.60683117944E+02  0.10239975227E+03  0.18674931351E+03  0.23470762975E+03  0.77744551569E+02 0.  0.
         11    1    4    4    0    0 -0.73483891828E+01  0.26367316961E+02  0.11255818789E+03  0.11583859412E+03  0.00000000000E+00 0. -1.
        -12    1    4    4    0    0 -0.53334728761E+02  0.76032435305E+02  0.74191125625E+02  0.11886903563E+03  0.00000000000E+00 0.  1.
        -11    1    3    3    0    0 -0.10526790499E+02 -0.24440276147E+02  0.30574620813E+02  0.40533293158E+02  0.00000000000E+00 0.  1.
         11    1    3    3    0    0 -0.51672889510E+02  0.42888108766E+02 -0.26569516239E+02  0.72217841126E+02  0.00000000000E+00 0. -1.
          2    1    1    2  501    0  0.12288279795E+03 -0.12084758488E+03  0.41049845573E+03  0.44521152608E+03  0.00000000000E+00 0. -1.
<scales pt_clust_5="13000.00000" pt_clust_6="13000.00000" pt_clust_7="13000.00000" pt_clust_8="13000.00000" pt_clust_9="135.51523"></scales>
<clustering>
<clus scale="   77.745">  5  6 -1 -1</clus>
<clus scale="   92.128">  7  8 -1 -1</clus>
<clus scale="  112.680">  1  7  2 -1</clus>
<clus scale="  135.515">  2  9  1 -1</clus>
<clus scale="  135.515">  2  5  1 -1</clus>
</clustering>
</event>
<event>
 9    1  0.6345107E-005  0.1072288E+03  0.7546771E-02  0.1269611E+00
         -4   -1    0    0    0  501 -0.00000000000E+00  0.00000000000E+00  0.27151942151E+03  0.27151942151E+03  0.00000000000E+00 0.  1.
         21   -1    0    0  501  502  0.00000000000E+00 -0.00000000000E+00 -0.15762354115E+03  0.15762354115E+03  0.00000000000E+00 0.  1.
        -24    2    1    2    0    0 -0.27439697415E+02 -0.69450276106E+01  0.55830264934E+02  0.10241300687E+03  0.81056986692E+02 0.  0.
         23    2    1    2    0    0  0.80020046133E+02 -0.57050252027E+02  0.15147617729E+03  0.20188756734E+03  0.90308463186E+02 0.  0.
         13    1    3    3    0    0 -0.18907070899E+02  0.24529497940E+02 -0.68844421024E+01  0.31726473839E+02  0.00000000000E+00 0. -1.
        -14    1    3    3    0    0 -0.85326265159E+01 -0.31474525551E+02  0.62714707036E+02  0.70686533035E+02  0.00000000000E+00 0.  1.
        -13    1    4    4    0    0  0.57859133598E+02 -0.19912579356E+02  0.14598872019E+03  0.15829370354E+03  0.00000000000E+00 0. -1.
         13    1    4    4    0    0  0.22160912535E+02 -0.37137672671E+02  0.54874570927E+01  0.43593863801E+02  0.00000000000E+00 0.  1.
         -3    1    1    2    0  502 -0.52580348718E+02  0.63995279638E+02 -0.93410561860E+02  0.12484238845E+03  0.00000000000E+00 0.  1.
<scales pt_clust_5="13000.00000" pt_clust_6="13000.00000" pt_clust_7="13000.00000" pt_clust_8="13000.00000" pt_clust_9="82.82565"></scales>
<clustering>
<clus scale="   81.057">  5  6 -1 -1</clus>
<clus scale="   82.826">  2  9  1 -1</clus>
<clus scale="   90.308">  7  8 -1 -1</clus>
<clus scale="   99.562">  1  5  2 -1</clus>
<clus scale="   82.826">  2  5  1 -1</clus>
</clustering>
</event>
<event>
 9    1  0.6345107E-005  0.1215888E+03  0.7546771E-02  0.1244791E+00
         21   -1    0    0  501  502  0.00000000000E+00  0.00000000000E+00  0.12874792586E+03  0.12874792586E+03  0.00000000000E+00 0. -1.
          1   -1    0    0  502    0 -0.00000000000E+00 -0.00000000000E+00 -0.15992649855E+03  0.15992649855E+03  0.00000000000E+00 0. -1.
        -24    2    1    2    0    0  0.53066942283E+02 -0.54406929271E+02 -0.13473176404E+01  0.11005541133E+03  0.79587461215E+02 0.  0.
         23    2    1    2    0    0 -0.29134098920E+02  0.79417017974E+02  0.94829735664E+01  0.12623682049E+03  0.93219899143E+02 0.  0.
         13    1    3    3    0    0  0.60863017947E+02 -0.15261251302E+02  0.18583831684E+02  0.65441359590E+02  0.00000000000E+00 0. -1.
        -14    1    3    3    0    0 -0.77960756645E+01 -0.39145677970E+02 -0.19931149324E+02  0.44614051742E+02  0.00000000000E+00 0.  1.
        -13    1    4    4    0    0  0.20204641122E+02  0.34709110411E+02  0.36607560389E+02  0.54342095525E+02  0.00000000000E+00 0. -1.
         13    1    4    4    0    0 -0.49338740042E+02  0.44707907563E+02 -0.27124586823E+02  0.71894724966E+02  0.00000000000E+00 0.  1.
          2    1    1    2  501    0 -0.23932843363E+02 -0.25010088703E+02 -0.39314228615E+02  0.52382192584E+02  0.00000000000E+00 0. -1.
<scales pt_clust_5="13000.00000" pt_clust_6="13000.00000" pt_clust_7="13000.00000" pt_clust_8="13000.00000" pt_clust_9="34.61628"></scales>
<clustering>
<clus scale="   34.616">  1  9  2 -1</clus>
<clus scale="   79.587">  5  6 -1 -1</clus>
<clus scale="   93.220">  7  8 -1 -1</clus>
<clus scale="  111.481">  2  5  1 -1</clus>
<clus scale="   34.616">  1  5  2 -1</clus>
</clustering>
</event>
<event>
 9    1  0.6345107E-005  0.1206679E+03  0.7546771E-02  0.1246587E+00
         21   -1    0    0  501  502  0.00000000000E+00  0.00000000000E+00  0.55604056240E+02  0.55604056240E+02  0.00000000000E+00 0.  1.
         -2   -1    0    0    0  501 -0.00000000000E+00 -0.00000000000E+00 -0.40256145862E+03  0.40256145862E+03  0.00000000000E+00 0.  1.
         23    2    1    2    0    0  0.15318537961E+02  0.84930860778E+02 -0.17196662679E+03  0.21425798504E+03  0.94265872443E+02 0.  0.
        -24    2    1    2    0    0 -0.41455002611E+02 -0.50117445594E+02 -0.56517932337E+02  0.11768984782E+03  0.80164505920E+02 0.  0.
         13    1    4    4    0    0 -0.36981794306E+02 -0.66063540836E+02 -0.21107031150E+02  0.78597400096E+02  0.00000000000E+00 0. -1.
        -14    1    4    4    0    0 -0.44732083048E+01  0.15946095242E+02 -0.35410901187E+02  0.39092447722E+02  0.00000000000E+00 0.  1.
        -13    1    3    3    0    0  0.40185511243E+02  0.79055243570E+02 -0.82177266876E+02  0.12090372220E+03  0.00000000000E+00 0.  1.
         13    1    3    3    0    0 -0.24866973283E+02  0.58756172079E+01 -0.89789359916E+02  0.93354262848E+02  0.00000000000E+00 0. -1.
         -1    1    1    2    0  502  0.26136464650E+02 -0.34813415183E+02 -0.11847284325E+03  0.12621768199E+03  0.00000000000E+00 0.  1.
<scales pt_clust_5="13000.00000" pt_clust_6="13000.00000" pt_clust_7="13000.00000" pt_clust_8="13000.00000" pt_clust_9="43.53264"></scales>
<clustering>
<clus scale="   43.533">  1  9  2 -1</clus>
<clus scale="   80.165">  5  6 -1 -1</clus>
<clus scale="   94.266">  7  8 -1 -1</clus>
<clus scale="  110.005">  1  5  2 -1</clus>
<clus scale="   43.533">  1  5  2 -1</clus>
</clustering>
</event>
<event>
 9    1  0.6345107E-005  0.2387605E+03  0.7546771E-02  0.1155036E+00
         21   -1    0    0  501  502  0.00000000000E+00  0.00000000000E+00  0.86396531716E+02  0.86396531716E+02  0.00000000000E+00 0. -1.
          1   -1    0    0  502    0 -0.00000000000E+00 -0.00000000000E+00 -0.10450162236E+04  0.10450162236E+04  0.00000000000E+00 0. -1.
        -24    2    1    2    0    0 -0.26450135968E+02 -0.60536494678E+02 -0.32764662483E+03  0.34367853200E+03  0.79989660078E+02 0.  0.
         23    2    1    2    0    0  0.46967758709E+02  0.24425096786E+03 -0.24887915973E+03  0.36327252361E+03  0.90341488816E+02 0.  0.
         13    1    3    3    0    0 -0.21623508421E+02  0.12032146192E+02 -0.14478628495E+03  0.14688572759E+03  0.00000000000E+00 0. -1.
        -14    1    3    3    0    0 -0.48266275472E+01 -0.72568640871E+02 -0.18286033987E+03  0.19679280442E+03  0.00000000000E+00 0.  1.
        -11    1    4    4    0    0  0.19876557296E+02  0.72293219731E+01 -0.43949418725E+02  0.48773886788E+02  0.00000000000E+00 0.  1.
         11    1    4    4    0    0  0.27091201413E+02  0.23702164589E+03 -0.20492974100E+03  0.31449863682E+03  0.00000000000E+00 0. -1.
          2    1    1    2  501    0 -0.20517622741E+02 -0.18371447318E+03 -0.38209390734E+03  0.42446169972E+03  0.00000000000E+00 0. -1.
<scales pt_clust_5="13000.00000" pt_clust_6="13000.00000" pt_clust_7="13000.00000" pt_clust_8="13000.00000" pt_clust_9="221.00916"></scales>
<clustering>
<clus scale="   79.990">  5  6 -1 -1</clus>
<clus scale="   90.341">  7  8 -1 -1</clus>
<clus scale="  103.743">  2  5  1 -1</clus>
<clus scale="  221.009">  1  9  2 -1</clus>
<clus scale="  221.009">  1  5  2 -1</clus>
</clustering>
</event>
<event>
 9    1  0.6345107E-005  0.1092158E+03  0.7546771E-02  0.1267007E+00
         21   -1    0    0  501  502  0.00000000000E+00  0.00000000000E+00  0.65069154172E+03  0.65069154172E+03  0.00000000000E+00 0.  1.
          3   -1    0    0  502    0 -0.00000000000E+00 -0.00000000000E+00 -0.27948003787E+02  0.27948003787E+02  0.00000000000E+00 0. -1.
        -24    2    1    2    0    0  0.23584975501E+02 -0.56484863580E+02  0.12082744434E+03  0.15719211485E+03  0.79770287592E+02 0.  0.
         23    2    1    2    0    0 -0.41034600190E+02  0.39060843956E+02  0.31745152173E+03  0.33534191184E+03  0.92027937306E+02 0.  0.
         11    1    3    3    0    0  0.10205516484E+02 -0.71447930142E+02  0.62383744564E+02  0.95397541237E+02  0.00000000000E+00 0. -1.
        -12    1    3    3    0    0  0.13379459017E+02  0.14963066562E+02  0.58443699780E+02  0.61794573617E+02  0.00000000000E+00 0.  1.
        -11    1    4    4    0    0 -0.69734701221E+02  0.26122396296E+02  0.25094098999E+03  0.26175692655E+03  0.00000000000E+00 0.  1.
         11    1    4    4    0    0  0.28700101031E+02  0.12938447660E+02  0.66510531740E+02  0.73584985285E+02  0.00000000000E+00 0. -1.
          4    1    1    2  501    0  0.17449624689E+02  0.17424019624E+02  0.18446457186E+03  0.18610551881E+03  0.00000000000E+00 0. -1.
<scales pt_clust_5="13000.00000" pt_clust_6="13000.00000" pt_clust_7="13000.00000" pt_clust_8="13000.00000" pt_clust_9="24.65940"></scales>
<clustering>
<clus scale="   24.659">  1  9  2 -1</clus>
<clus scale="   79.770">  5  6 -1 -1</clus>
<clus scale="   92.028">  7  8 -1 -1</clus>
<clus scale="   99.107">  2  5  1 -1</clus>
<clus scale="   24.659">  1  5  2 -1</clus>
</clustering>
</event>
<event>
 9    1  0.6345107E-005  0.2756222E+03  0.7546771E-02  0.1099202E+00
         21   -1    0    0  501  502  0.00000000000E+00  0.00000000000E+00  0.16702233468E+03  0.16702233468E+03  0.00000000000E+00 0. -1.
          1   -1    0    0  502    0 -0.00000000000E+00 -0.00000000000E+00 -0.91715019407E+03  0.91715019407E+03  0.00000000000E+00 0. -1.
        -24    2    1    2    0    0  0.66110501382E+01  0.26578329516E+03 -0.72406274555E+03  0.77472122665E+03  0.72399264952E+02 0.  0.
         23    2    1    2    0    0  0.17194922176E+02 -0.22720562925E+03 -0.57448556586E+02  0.25431618531E+03  0.97253905554E+02 0.  0.
         11    1    3    3    0    0  0.33052193180E+02  0.22163685513E+03 -0.58875064647E+03  0.62995449577E+03  0.00000000000E+00 0. -1.
        -12    1    3    3    0    0 -0.26441143042E+02  0.44146440035E+02 -0.13531209908E+03  0.14476673088E+03  0.00000000000E+00 0.  1.
        -11    1    4    4    0    0  0.26421197069E+02 -0.48742930216E+02  0.20823820227E+02  0.59224862933E+02  0.00000000000E+00 0. -1.
         11    1    4    4    0    0 -0.92262748929E+01 -0.17846269904E+03 -0.78272376813E+02  0.19509132238E+03  0.00000000000E+00 0.  1.
          2    1    1    2  501    0 -0.23805972315E+02 -0.38577665907E+02  0.31383442742E+02  0.55135116786E+02  0.00000000000E+00 0. -1.
<scales pt_clust_5="13000.00000" pt_clust_6="13000.00000" pt_clust_7="13000.00000" pt_clust_8="13000.00000" pt_clust_9="45.33167"></scales>
<clustering>
<clus scale="   45.332">  1  9  2 -1</clus>
<clus scale="   72.399">  5  6 -1 -1</clus>
<clus scale="   97.254">  7  8 -1 -1</clus>
<clus scale="  267.864">  2  5  1 -1</clus>
<clus scale="   45.332">  1  5  2 -1</clus>
</clustering>
</event>
<event>
 9    1  0.6345107E-005  0.9654452E+02  0.7546771E-02  0.1293943E+00
         21   -1    0    0  501  502  0.00000000000E+00  0.00000000000E+00  0.32374808408E+02  0.32374808408E+02  0.00000000000E+00 0. -1.
          1   -1    0    0  502    0 -0.00000000000E+00 -0.00000000000E+00 -0.77015337717E+03  0.77015337717E+03  0.00000000000E+00 0. -1.
        -24    2    1    2    0    0  0.12547520257E+02  0.18066605892E+02 -0.14096668590E+03  0.16363615132E+03  0.80133270065E+02 0.  0.
         23    2    1    2    0    0 -0.60571980447E+02  0.11933008442E+02 -0.13828531020E+03  0.17688235528E+03  0.91395727941E+02 0.  0.
         13    1    3    3    0    0 -0.47478495141E+01  0.42990461143E+02 -0.11772717244E+03  0.12542092710E+03  0.00000000000E+00 0. -1.
        -14    1    3    3    0    0  0.17295369771E+02 -0.24923855251E+02 -0.23239513462E+02  0.38215224218E+02  0.00000000000E+00 0.  1.
        -13    1    4    4    0    0 -0.27323004230E+02 -0.35005543331E+02 -0.27998340961E+02  0.52496111481E+02  0.00000000000E+00 0. -1.
         13    1    4    4    0    0 -0.33248976217E+02  0.46938551773E+02 -0.11028696924E+03  0.12438624380E+03  0.00000000000E+00 0.  1.
          2    1    1    2  501    0  0.48024460190E+02 -0.29999614334E+02 -0.45852657266E+03  0.46200967898E+03  0.00000000000E+00 0. -1.
<scales pt_clust_5="13000.00000" pt_clust_6="13000.00000" pt_clust_7="13000.00000" pt_clust_8="13000.00000" pt_clust_9="56.62445"></scales>
<clustering>
<clus scale="   56.624">  1  9  2 -1</clus>
<clus scale="   80.133">  5  6 -1 -1</clus>
<clus scale="   85.959">  2  5  1 -1</clus>
<clus scale="   91.396">  7  8 -1 -1</clus>
<clus scale="   56.624">  1  5  2 -1</clus>
</clustering>
</event>
<event>
 9    1  0.6345107E-005  0.1584414E+03  0.7546771E-02  0.1211764E+00
          1   -1    0    0  502    0 -0.00000000000E+00  0.00000000000E+00  0.51559299384E+03  0.51559299384E+03  0.00000000000E+00 0. -1.
         21   -1    0    0  501  502  0.00000000000E+00 -0.00000000000E+00 -0.77095994600E+02  0.77095994600E+02  0.00000000000E+00 0. -1.
         23    2    1    2    0    0 -0.40174021867E+02 -0.14853235864E+02  0.12511394406E+03  0.16007514931E+03  0.90199688347E+02 0.  0.
        -24    2    1    2    0    0 -0.84601881197E+02  0.94395680710E+02  0.16506029200E+03  0.22310090733E+03  0.80380918238E+02 0.  0.
         11    1    4    4    0    0 -0.43381748245E+02  0.90135564465E+02  0.78582561082E+02  0.12720697689E+03  0.00000000000E+00 0. -1.
        -12    1    4    4    0    0 -0.41220132952E+02  0.42601162449E+01  0.86477730917E+02  0.95893930442E+02  0.00000000000E+00 0.  1.
        -11    1    3    3    0    0  0.34596799688E+01 -0.36714782241E+02  0.15338916869E+02  0.39940292828E+02  0.00000000000E+00 0.  1.
         11    1    3    3    0    0 -0.43633701836E+02  0.21861546376E+02  0.10977502719E+03  0.12013485648E+03  0.00000000000E+00 0. -1.
          2    1    1    2  501    0  0.12477590306E+03 -0.79542444846E+02  0.14832276318E+03  0.20951293181E+03  0.00000000000E+00 0. -1.
<scales pt_clust_5="13000.00000" pt_clust_6="13000.00000" pt_clust_7="13000.00000" pt_clust_8="13000.00000" pt_clust_9="136.53796"></scales>
<clustering>
<clus scale="   80.381">  5  6 -1 -1</clus>
<clus scale="   90.200">  7  8 -1 -1</clus>
<clus scale="   99.853">  1  7  2 -1</clus>
<clus scale="  136.538">  2  9  1 -1</clus>
<clus scale="  136.538">  2  5  1 -1</clus>
</clustering>
</event>
<event>
 9    1  0.6345107E-005  0.1406018E+03  0.7546771E-02  0.1214582E+00
         21   -1    0    0  501  502  0.00000000000E+00  0.00000000000E+00  0.66914330896E+02  0.66914330896E+02  0.00000000000E+00 0.  1.
         -2   -1    0    0    0  501 -0.00000000000E+00 -0.00000000000E+00 -0.46170535234E+03  0.46170535234E+03  0.00000000000E+00 0.  1.
        -24    2    1    2    0    0 -0.31460988499E+02 -0.10384207783E+03 -0.15082757103E+03  0.20246661524E+03  0.80441302688E+02 0.  0.
         23    2    1    2    0    0  0.89391836469E+02  0.76005220560E+02 -0.13865098030E+03  0.20277725946E+03  0.90148924779E+02 0.  0.
         13    1    3    3    0    0  0.24139048726E+02 -0.50697308928E+02 -0.81164378725E+02  0.98694311790E+02  0.00000000000E+00 0. -1.
        -14    1    3    3    0    0 -0.55600037224E+02 -0.53144768901E+02 -0.69663192307E+02  0.10377230345E+03  0.00000000000E+00 0.  1.
        -11    1    4    4    0    0  0.62697315353E+02  0.42006805971E+02 -0.22358521627E+02  0.78711044902E+02  0.00000000000E+00 0.  1.
         11    1    4    4    0    0  0.26694521116E+02  0.33998414590E+02 -0.11629245867E+03  0.12406621456E+03  0.00000000000E+00 0. -1.
         -1    1    1    2    0  502 -0.57930847970E+02  0.27836857269E+02 -0.10531247012E+03  0.12337580854E+03  0.00000000000E+00 0.  1.
<scales pt_clust_5="13000.00000" pt_clust_6="13000.00000" pt_clust_7="13000.00000" pt_clust_8="13000.00000" pt_clust_9="64.27191"></scales>
<clustering>
<clus scale="   64.272">  1  9  2 -1</clus>
<clus scale="   80.441">  5  6 -1 -1</clus>
<clus scale="   90.149">  7  8 -1 -1</clus>
<clus scale="  134.584">  2  5  1 -1</clus>
<clus scale="   64.272">  1  5  2 -1</clus>
</clustering>
</event>
<event>
 9    1  0.6345107E-005  0.1060739E+03  0.7546771E-02  0.1275564E+00
          1   -1    0    0  502    0 -0.00000000000E+00  0.00000000000E+00  0.72747865383E+03  0.72747865383E+03  0.00000000000E+00 0. -1.
         21   -1    0    0  501  502  0.00000000000E+00 -0.00000000000E+00 -0.12958574164E+03  0.12958574164E+03  0.00000000000E+00 0. -1.
         23    2    1    2    0    0  0.53443945294E+02  0.36386030328E+02  0.38810885504E+02  0.11897412246E+03  0.92023684391E+02 0.  0.
        -24    2    1    2    0    0 -0.49691775025E+02  0.55246685712E+02 -0.57788566656E+02  0.11443976001E+03  0.65080499750E+02 0.  0.
         11    1    4    4    0    0 -0.41858544343E+02  0.68076284641E+02 -0.59035138714E+02  0.99356257317E+02  0.00000000000E+00 0. -1.
        -12    1    4    4    0    0 -0.78332306814E+01 -0.12829598929E+02  0.12465720586E+01  0.15083502693E+02  0.00000000000E+00 0.  1.
        -13    1    3    3    0    0  0.10855363038E+02  0.58908794690E+02  0.37713680053E+02  0.70784226079E+02  0.00000000000E+00 0.  1.
         13    1    3    3    0    0  0.42588582255E+02 -0.22522764361E+02  0.10972054510E+01  0.48189896377E+02  0.00000000000E+00 0. -1.
          2    1    1    2  501    0 -0.37521702691E+01 -0.91632716041E+02  0.61687059335E+03  0.62365051300E+03  0.00000000000E+00 0. -1.
<scales pt_clust_5="13000.00000" pt_clust_6="13000.00000" pt_clust_7="13000.00000" pt_clust_8="13000.00000" pt_clust_9="91.70955"></scales>
<clustering>
<clus scale="   65.080">  5  6 -1 -1</clus>
<clus scale="   91.710">  2  9  1 -1</clus>
<clus scale="   91.710">  2  5  1 -1</clus>
<clus scale="   92.024">  7  8 -1 -1</clus>
<clus scale="   91.710">  2  5  1 -1</clus>
</clustering>
</event>
<event>
 9    1  0.6345107E-005  0.1327827E+03  0.7546771E-02  0.1224143E+00
         21   -1    0    0  501  502  0.00000000000E+00  0.00000000000E+00  0.29126173696E+03  0.29126173696E+03  0.00000000000E+00 0.  1.
         -4   -1    0    0    0  501 -0.00000000000E+00 -0.00000000000E+00 -0.11094294446E+03  0.11094294446E+03  0.00000000000E+00 0.  1.
        -24    2    1    2    0    0  0.72819596521E+02  0.63079305899E+02  0.35693411483E+02  0.13099999561E+03  0.81272915274E+02 0.  0.
         23    2    1    2    0    0 -0.76731548847E+02 -0.89477751189E+02  0.17725030311E+03  0.22905534622E+03  0.84585360047E+02 0.  0.
         11    1    3    3    0    0  0.32281722146E+02  0.26551590491E+01 -0.21134160759E+02  0.38675731477E+02  0.00000000000E+00 0. -1.
        -12    1    3    3    0    0  0.40537874376E+02  0.60424146850E+02  0.56827572242E+02  0.92324264137E+02  0.00000000000E+00 0.  1.
        -11    1    4    4    0    0 -0.18858336891E+02  0.15990183514E+02  0.27916053042E+02  0.37291136434E+02  0.00000000000E+00 0. -1.
         11    1    4    4    0    0 -0.57873211957E+02 -0.10546793470E+03  0.14933425007E+03  0.19176420979E+03  0.00000000000E+00 0.  1.
         -3    1    1    2    0  502  0.39119523258E+01  0.26398445289E+02 -0.32624922096E+02  0.42149339573E+02  0.00000000000E+00 0.  1.
<scales pt_clust_5="13000.00000" pt_clust_6="13000.00000" pt_clust_7="13000.00000" pt_clust_8="13000.00000" pt_clust_9="26.68674"></scales>
<clustering>
<clus scale="   26.687">  1  9  2 -1</clus>
<clus scale="   81.273">  5  6 -1 -1</clus>
<clus scale="   84.585">  7  8 -1 -1</clus>
<clus scale="  130.698">  2  5  1 -1</clus>
<clus scale="   26.687">  1  5  2 -1</clus>
</clustering>
</event>
<event>
 9    1  0.6345107E-005  0.1866067E+03  0.7546771E-02  0.1162933E+00
          1   -1    0    0  502    0 -0.00000000000E+00  0.00000000000E+00  0.30166595130E+03  0.30166595130E+03  0.00000000000E+00 0. -1.
         21   -1    0    0  501  502  0.00000000000E+00 -0.00000000000E+00 -0.25209242840E+03  0.25209242840E+03  0.00000000000E+00 0. -1.
         23    2    1    2    0    0 -0.54128311309E+01  0.14243519065E+03 -0.19376806186E+02  0.17146831338E+03  0.93321163724E+02 0.  0.
        -24    2    1    2    0    0 -0.52979339007E+02 -0.18875852882E+03 -0.71036910582E+02  0.22369648366E+03  0.80977043476E+02 0.  0.
         13    1    4    4    0    0  0.20456075918E+02 -0.65273640111E+02 -0.25021472316E+02  0.72836619994E+02  0.00000000000E+00 0. -1.
        -14    1    4    4    0    0 -0.73435414925E+02 -0.12348488871E+03 -0.46015438266E+02  0.15085986366E+03  0.00000000000E+00 0.  1.
        -11    1    3    3    0    0 -0.46742518025E+02  0.50566863631E+02  0.12334359974E+00  0.68861352749E+02  0.00000000000E+00 0. -1.
         11    1    3    3    0    0  0.41329686894E+02  0.91868327019E+02 -0.19500149786E+02  0.10260696063E+03  0.00000000000E+00 0.  1.
          2    1    1    2  501    0  0.58392170138E+02  0.46323338174E+02  0.13998723966E+03  0.15859358266E+03  0.00000000000E+00 0. -1.
<scales pt_clust_5="13000.00000" pt_clust_6="13000.00000" pt_clust_7="13000.00000" pt_clust_8="13000.00000" pt_clust_9="74.53525"></scales>
<clustering>
<clus scale="   74.535">  2  9  1 -1</clus>
<clus scale="   80.977">  5  6 -1 -1</clus>
<clus scale="   93.321">  7  8 -1 -1</clus>
<clus scale="  180.750">  2  5  1 -1</clus>
<clus scale="   74.535">  2  5  1 -1</clus>
</clustering>
</event>
<event>
 9    1  0.6345107E-005  0.2774846E+03  0.7546771E-02  0.1131083E+00
         21   -1    0    0  501  502  0.00000000000E+00  0.00000000000E+00  0.98066290367E+02  0.98066290367E+02  0.00000000000E+00 0. -1.
          1   -1    0    0  502    0 -0.00000000000E+00 -0.00000000000E+00 -0.14710471544E+04  0.14710471544E+04  0.00000000000E+00 0. -1.
        -24    2    1    2    0    0  0.64863063203E+02  0.56710981972E+02 -0.66674147423E+03  0.67700004663E+03  0.79759120062E+02 0.  0.
         23    2    1    2    0    0  0.76694651891E+02 -0.26555548680E+03 -0.36009475189E+03  0.46377857087E+03  0.94976556359E+02 0.  0.
         13    1    3    3    0    0  0.64914133788E+02  0.12659790815E+02 -0.27743392587E+03  0.28520816660E+03  0.00000000000E+00 0. -1.
        -14    1    3    3    0    0 -0.51070584721E-01  0.44051191157E+02 -0.38930754836E+03  0.39179188003E+03  0.00000000000E+00 0.  1.
        -11    1    4    4    0    0  0.60498096466E+02 -0.22653017344E+03 -0.34837609819E+03  0.41993076209E+03  0.00000000000E+00 0. -1.
         11    1    4    4    0    0  0.16196555425E+02 -0.39025313359E+02 -0.11718653701E+02  0.43847808782E+02  0.00000000000E+00 0.  1.
          2    1    1    2  501    0 -0.14155771509E+03  0.20884450483E+03 -0.34614463792E+03  0.42833482728E+03  0.00000000000E+00 0. -1.
<scales pt_clust_5="13000.00000" pt_clust_6="13000.00000" pt_clust_7="13000.00000" pt_clust_8="13000.00000" pt_clust_9="260.72445"></scales>
<clustering>
<clus scale="   79.759">  5  6 -1 -1</clus>
<clus scale="   94.977">  7  8 -1 -1</clus>
<clus scale="  117.409">  2  5  1 -1</clus>
<clus scale="  260.724">  1  9  2 -1</clus>
<clus scale="  260.724">  1  5  2 -1</clus>
</clustering>
</event>
<event>
 9    1  0.6345107E-005  0.1377930E+03  0.7546771E-02  0.1231965E+00
         21   -1    0    0  501  502  0.00000000000E+00  0.00000000000E+00  0.78397633053E+02  0.78397633053E+02  0.00000000000E+00 0.  1.
          1   -1    0    0  502    0 -0.00000000000E+00 -0.00000000000E+00 -0.48870830447E+03  0.48870830447E+03  0.00000000000E+00 0. -1.
        -24    2    1    2    0    0 -0.52094873544E+02 -0.11878357895E+02 -0.26079507616E+03  0.27762339785E+03  0.78776316570E+02 0.  0.
         23    2    1    2    0    0  0.83278405224E+02  0.83544270318E+01 -0.18782054030E+03  0.23996386086E+03  0.12369725113E+03 0.  0.
         13    1    3    3    0    0 -0.32479319082E+02  0.23132047776E+02 -0.54894383023E+02  0.67848294671E+02  0.00000000000E+00 0. -1.
        -14    1    3    3    0    0 -0.19615554461E+02 -0.35010405671E+02 -0.20590069313E+03  0.20977510318E+03  0.00000000000E+00 0.  1.
        -11    1    4    4    0    0  0.10811070241E+03 -0.15940594495E+02 -0.16663989578E+03  0.19927589266E+03  0.00000000000E+00 0.  1.
         11    1    4    4    0    0 -0.24832297188E+02  0.24295021526E+02 -0.21180644511E+02  0.40687968203E+02  0.00000000000E+00 0. -1.
          2    1    1    2  501    0 -0.31183531680E+02  0.35239308635E+01  0.38304945034E+02  0.49518678807E+02  0.00000000000E+00 0. -1.
<scales pt_clust_5="13000.00000" pt_clust_6="13000.00000" pt_clust_7="13000.00000" pt_clust_8="13000.00000" pt_clust_9="31.38201"></scales>
<clustering>
<clus scale="   31.382">  1  9  2 -1</clus>
<clus scale="   78.776">  5  6 -1 -1</clus>
<clus scale="   99.457">  2  5  1 -1</clus>
<clus scale="  123.697">  7  8 -1 -1</clus>
<clus scale="   31.382">  1  5  2 -1</clus>
</clustering>
</event>
<event>
 9    1  0.6345107E-005  0.2230523E+03  0.7546771E-02  0.1132414E+00
          1   -1    0    0  502    0 -0.00000000000E+00  0.00000000000E+00  0.28178166437E+03  0.28178166437E+03  0.00000000000E+00 0. -1.
         21   -1    0    0  501  502  0.00000000000E+00 -0.00000000000E+00 -0.36277554530E+03  0.36277554530E+03  0.00000000000E+00 0.  1.
         23    2    1    2    0    0 -0.12391755796E+03  0.16811423207E+03  0.15313232892E+03  0.27584730610E+03  0.94996157456E+02 0.  0.
        -24    2    1    2    0    0  0.15777447566E+03 -0.97807486110E+02 -0.19154798149E+03  0.27981538780E+03  0.84539532329E+02 0.  0.
         11    1    4    4    0    0  0.12272446654E+03 -0.11147296165E+03 -0.14771571550E+03  0.22205280559E+03  0.00000000000E+00 0. -1.
        -12    1    4    4    0    0  0.35050009119E+02  0.13665475539E+02 -0.43832265995E+02  0.57762582207E+02  0.00000000000E+00 0.  1.
        -13    1    3    3    0    0 -0.74985905405E+02  0.34424711301E+02  0.83420444043E+02  0.11733250718E+03  0.00000000000E+00 0. -1.
         13    1    3    3    0    0 -0.48931652554E+02  0.13368952077E+03  0.69711884874E+02  0.15851479892E+03  0.00000000000E+00 0.  1.
          2    1    1    2  501    0 -0.33856917702E+02 -0.70306745958E+02 -0.42578228348E+02  0.88894515763E+02  0.00000000000E+00 0. -1.
<scales pt_clust_5="13000.00000" pt_clust_6="13000.00000" pt_clust_7="13000.00000" pt_clust_8="13000.00000" pt_clust_9="78.03416"></scales>
<clustering>
<clus scale="   78.034">  2  9  1 -1</clus>
<clus scale="   84.540">  5  6 -1 -1</clus>
<clus scale="   94.996">  7  8 -1 -1</clus>
<clus scale="  218.804">  2  5  1 -1</clus>
<clus scale="   78.034">  2  5  1 -1</clus>
</clustering>
</event>
<event>
 9    1  0.8477324E-005  0.1371214E+03  0.7546771E-02  0.1218893E+00
         21   -1    0    0  501  502  0.00000000000E+00  0.00000000000E+00  0.11504422656E+03  0.11504422656E+03  0.00000000000E+00 0. -1.
          1   -1    0    0  502    0 -0.00000000000E+00 -0.00000000000E+00 -0.80910575318E+03  0.80910575318E+03  0.00000000000E+00 0. -1.
        -24    2    1    2    0    0  0.56186741002E+02 -0.88862283550E+02 -0.56389240992E+03  0.57933565165E+03  0.81250796974E+02 0.  0.
         23    2    1    2    0    0 -0.11517259106E+03  0.40915660196E+02  0.41916183649E+02  0.15668788180E+03  0.88630180373E+02 0.  0.
         11    1    3    3    0    0  0.77298805648E+02 -0.69636671296E+02 -0.45720497164E+03  0.46889311941E+03  0.00000000000E+00 0. -1.
        -12    1    3    3    0    0 -0.21112064646E+02 -0.19225612254E+02 -0.10668743828E+03  0.11044253224E+03  0.00000000000E+00 0.  1.
        -13    1    4    4    0    0 -0.12359096504E+03  0.17979603477E+02  0.26120069134E+02  0.12759408604E+03  0.00000000000E+00 0. -1.
         13    1    4    4    0    0  0.84183739823E+01  0.22936056720E+02  0.15796114514E+02  0.29093795766E+02  0.00000000000E+00 0.  1.
          2    1    1    2  501    0  0.58985850055E+02  0.47946623354E+02 -0.17208530034E+03  0.18812644629E+03  0.00000000000E+00 0. -1.
<scales pt_clust_5="13000.00000" pt_clust_6="13000.00000" pt_clust_7="13000.00000" pt_clust_8="13000.00000" pt_clust_9="76.01457"></scales>
<clustering>
<clus scale="   76.015">  1  9  2 -1</clus>
<clus scale="   81.251">  5  6 -1 -1</clus>
<clus scale="   88.630">  7  8 -1 -1</clus>
<clus scale="  132.471">  2  5  1 -1</clus>
<clus scale="   76.015">  1  5  2 -1</clus>
</clustering>
</event>
<event>
 9    1  0.6345107E-005  0.1599090E+03  0.7546771E-02  0.1190535E+00
         21   -1    0    0  501  502  0.00000000000E+00  0.00000000000E+00  0.18069551997E+03  0.18069551997E+03  0.00000000000E+00 0.  1.
          1   -1    0    0  502    0 -0.00000000000E+00 -0.00000000000E+00 -0.69227176664E+03  0.69227176664E+03  0.00000000000E+00 0. -1.
        -24    2    1    2    0    0 -0.15356234309E+02 -0.12303192593E+03 -0.47285876883E+03  0.49553073717E+03  0.81133393220E+02 0.  0.
         23    2    1    2    0    0  0.31854633173E+02  0.15134736578E+03 -0.16670399848E+03  0.24532102892E+03  0.92040433165E+02 0.  0.
         13    1    3    3    0    0 -0.48848001415E+02 -0.75991452749E+02 -0.29685916106E+03  0.31030016055E+03  0.00000000000E+00 0. -1.
        -14    1    3    3    0    0  0.33491767106E+02 -0.47040473178E+02 -0.17599960777E+03  0.18523057662E+03  0.00000000000E+00 0.  1.
        -13    1    4    4    0    0 -0.96375726406E+01  0.12950098980E+03 -0.14160723888E+03  0.19213536704E+03  0.00000000000E+00 0. -1.
         13    1    4    4    0    0  0.41492205813E+02  0.21846375977E+02 -0.25096759603E+02  0.53185661875E+02  0.00000000000E+00 0.  1.
          2    1    1    2  501    0 -0.16498398864E+02 -0.28315439848E+02  0.12798652063E+03  0.13211552052E+03  0.00000000000E+00 0. -1.
<scales pt_clust_5="13000.00000" pt_clust_6="13000.00000" pt_clust_7="13000.00000" pt_clust_8="13000.00000" pt_clust_9="32.77135"></scales>
<clustering>
<clus scale="   32.771">  1  9  2 -1</clus>
<clus scale="   81.133">  5  6 -1 -1</clus>
<clus scale="   92.040">  7  8 -1 -1</clus>
<clus scale="  153.890">  2  5  1 -1</clus>
<clus scale="   32.771">  1  5  2 -1</clus>
</clustering>
</event>
<event>
 9    1  0.7706459E-005  0.1859657E+03  0.7546771E-02  0.1163126E+00
          1   -1    0    0  502    0 -0.00000000000E+00  0.00000000000E+00  0.82791075065E+03  0.82791075065E+03  0.00000000000E+00 0. -1.
         21   -1    0    0  501  502  0.00000000000E+00 -0.00000000000E+00 -0.17645149228E+03  0.17645149228E+03  0.00000000000E+00 0. -1.
        -24    2    1    2    0    0 -0.14184957832E+03  0.10408900240E+03  0.74127437236E+03  0.76619820479E+03  0.81339846475E+02 0.  0.
         23    2    1    2    0    0  0.64629596047E+02 -0.50087076546E+02 -0.26461844168E+02  0.12461770198E+03  0.90242132772E+02 0.  0.
         13    1    3    3    0    0 -0.14036392439E+03  0.11196764648E+03  0.73302380475E+03  0.75469376800E+03  0.00000000000E+00 0. -1.
        -14    1    3    3    0    0 -0.14856539354E+01 -0.78786440777E+01  0.82505676088E+01  0.11504436796E+02  0.00000000000E+00 0.  1.
        -13    1    4    4    0    0  0.20461021790E+02 -0.18363582253E+01 -0.50820477725E+02  0.54815568778E+02  0.00000000000E+00 0.  1.
         13    1    4    4    0    0  0.44168574258E+02 -0.48250718321E+02  0.24358633558E+02  0.69802133200E+02  0.00000000000E+00 0. -1.
          2    1    1    2  501    0  0.77219982276E+02 -0.54001925857E+02 -0.63353269817E+02  0.11354633616E+03  0.00000000000E+00 0. -1.
<scales pt_clust_5="13000.00000" pt_clust_6="13000.00000" pt_clust_7="13000.00000" pt_clust_8="13000.00000" pt_clust_9="94.22916"></scales>
<clustering>
<clus scale="   81.340">  5  6 -1 -1</clus>
<clus scale="   90.242">  7  8 -1 -1</clus>
<clus scale="   94.229">  2  9  1 -1</clus>
<clus scale="  181.813">  1  5  2 -1</clus>
<clus scale="   94.229">  2  5  1 -1</clus>
</clustering>
</event>
<event>
 9    1  0.6345107E-005  0.1008482E+03  0.7546771E-02  0.1284057E+00
          1   -1    0    0  502    0 -0.00000000000E+00  0.00000000000E+00  0.20635451243E+03  0.20635451243E+03  0.00000000000E+00 0. -1.
         21   -1    0    0  501  502  0.00000000000E+00 -0.00000000000E+00 -0.10190312518E+03  0.10190312518E+03  0.00000000000E+00 0.  1.
        -24    2    1    2    0    0 -0.30691830471E+02 -0.24158289848E+02  0.14239854440E+03  0.16899526456E+03  0.82197582508E+02 0.  0.
         23    2    1    2    0    0  0.44861396893E+02 -0.17803994146E+01 -0.22301713987E+02  0.10582030215E+03  0.93192570240E+02 0.  0.
         13    1    3    3    0    0  0.19619093058E+02 -0.21746302859E+02  0.17013057445E+02  0.33871147369E+02  0.00000000000E+00 0. -1.
        -14    1    3    3    0    0 -0.50310923529E+02 -0.24119869893E+01  0.12538548696E+03  0.13512411719E+03  0.00000000000E+00 0.  1.
        -11    1    4    4    0    0  0.37770610533E+02  0.27325816657E+02 -0.47587863671E+02  0.66617745719E+02  0.00000000000E+00 0.  1.
         11    1    4    4    0    0  0.70907863599E+01 -0.29106216071E+02  0.25286149684E+02  0.39202556435E+02  0.00000000000E+00 0. -1.
          2    1    1    2  501    0 -0.14169566423E+02  0.25938689263E+02 -0.15645443167E+02  0.33442070886E+02  0.00000000000E+00 0. -1.
<scales pt_clust_5="13000.00000" pt_clust_6="13000.00000" pt_clust_7="13000.00000" pt_clust_8="13000.00000" pt_clust_9="29.55659"></scales>
<clustering>
<clus scale="   29.557">  2  9  1 -1</clus>
<clus scale="   82.198">  5  6 -1 -1</clus>
<clus scale="   90.785">  1  5  2 -1</clus>
<clus scale="   93.193">  7  8 -1 -1</clus>
<clus scale="   29.557">  2  5  1 -1</clus>
</clustering>
</event>
<event>
 9    1  0.6345107E-005  0.1941727E+03  0.7546771E-02  0.1190863E+00
         -2   -1    0    0    0  501 -0.00000000000E+00  0.00000000000E+00  0.94956233317E+03  0.94956233317E+03  0.00000000000E+00 0.  1.
         21   -1    0    0  501  502  0.00000000000E+00 -0.00000000000E+00 -0.57998375458E+02  0.57998375458E+02  0.00000000000E+00 0.  1.
        -24    2    1    2    0    0  0.48663944546E+01 -0.29131356477E+02  0.10297087120E+03  0.13373491449E+03  0.80060660199E+02 0.  0.
         23    2    1    2    0    0  0.11592615944E+03 -0.10342640991E+03  0.52271967062E+03  0.55312176270E+03  0.92584737431E+02 0.  0.
         13    1    3    3    0    0 -0.38934410912E+01 -0.56444964707E+02  0.70892755276E+02  0.90702677330E+02  0.00000000000E+00 0. -1.
        -14    1    3    3    0    0  0.87598355458E+01  0.27313608230E+02  0.32078115929E+02  0.43032237159E+02  0.00000000000E+00 0.  1.
        -11    1    4    4    0    0  0.90771671163E+02 -0.38651651259E+02  0.20005078256E+03  0.22305551335E+03  0.00000000000E+00 0. -1.
         11    1    4    4    0    0  0.25154488279E+02 -0.64774758655E+02  0.32266888806E+03  0.33006624935E+03  0.00000000000E+00 0.  1.
         -1    1    1    2    0  502 -0.12079255390E+03  0.13255776639E+03  0.26587341588E+03  0.32070403144E+03  0.00000000000E+00 0.  1.
<scales pt_clust_5="13000.00000" pt_clust_6="13000.00000" pt_clust_7="13000.00000" pt_clust_8="13000.00000" pt_clust_9="170.67834"></scales>
<clustering>
<clus scale="   80.061">  5  6 -1 -1</clus>
<clus scale="   85.335">  1  5  2 -1</clus>
<clus scale="   92.585">  7  8 -1 -1</clus>
<clus scale="  170.678">  2  9  1 -1</clus>
<clus scale="  170.678">  2  5  1 -1</clus>
</clustering>
</event>
<event>
 9    1  0.6345107E-005  0.1260702E+03  0.7546771E-02  0.1235786E+00
         21   -1    0    0  501  502  0.00000000000E+00  0.00000000000E+00  0.14843531908E+03  0.14843531908E+03  0.00000000000E+00 0. -1.
          1   -1    0    0  502    0 -0.00000000000E+00 -0.00000000000E+00 -0.24323032733E+03  0.24323032733E+03  0.00000000000E+00 0. -1.
         23    2    1    2    0    0  0.75840953077E+02 -0.32782715262E+02 -0.98690298913E+02  0.15648785663E+03  0.89006278375E+02 0.  0.
        -24    2    1    2    0    0 -0.53559819406E+02  0.10400950135E+03 -0.41492092464E+02  0.14782952980E+03  0.80282909243E+02 0.  0.
         11    1    4    4    0    0 -0.66570475759E+02  0.97322283634E+02 -0.52942622163E+02  0.12925237474E+03  0.00000000000E+00 0. -1.
        -12    1    4    4    0    0  0.13010656354E+02  0.66872177177E+01  0.11450529699E+02  0.18577155055E+02  0.00000000000E+00 0.  1.
        -13    1    3    3    0    0  0.51134759775E+02  0.57944216526E+01 -0.97979294993E+02  0.11067195321E+03  0.00000000000E+00 0.  1.
         13    1    3    3    0    0  0.24706193302E+02 -0.38577136914E+02 -0.71100391994E+00  0.45815903424E+02  0.00000000000E+00 0. -1.
          2    1    1    2  501    0 -0.22281133671E+02 -0.71226786090E+02  0.45387383130E+02  0.87348259982E+02  0.00000000000E+00 0. -1.
<scales pt_clust_5="13000.00000" pt_clust_6="13000.00000" pt_clust_7="13000.00000" pt_clust_8="13000.00000" pt_clust_9="74.63045"></scales>
<clustering>
<clus scale="   74.630">  1  9  2 -1</clus>
<clus scale="   80.283">  5  6 -1 -1</clus>
<clus scale="   89.006">  7  8 -1 -1</clus>
<clus scale="  120.070">  1  5  2 -1</clus>
<clus scale="   74.630">  1  5  2 -1</clus>
</clustering>
</event>
<event>
 9    1  0.6345107E-005  0.1001927E+03  0.7546771E-02  0.1286487E+00
         21   -1    0    0  501  502  0.00000000000E+00  0.00000000000E+00  0.81539968790E+02  0.81539968790E+02  0.00000000000E+00 0.  1.
          3   -1    0    0  502    0 -0.00000000000E+00 -0.00000000000E+00 -0.34407705647E+03  0.34407705647E+03  0.00000000000E+00 0. -1.
         23    2    1    2    0    0 -0.38909803972E+02 -0.80529961321E+01 -0.28606914190E+03  0.30337098322E+03  0.92841671259E+02 0.  0.
        -24    2    1    2    0    0  0.30214161734E+02 -0.15270966581E+02 -0.15785453098E+01  0.86888388849E+02  0.80006264266E+02 0.  0.
         11    1    4    4    0    0  0.29852320243E+02 -0.14203299935E+02 -0.38046686196E+02  0.50402828129E+02  0.00000000000E+00 0. -1.
        -12    1    4    4    0    0  0.36184149123E+00 -0.10676666460E+01  0.36468140886E+02  0.36485560720E+02  0.00000000000E+00 0.  1.
        -11    1    3    3    0    0  0.20543436605E+02  0.24186839930E+02 -0.67703241509E+02  0.74771417829E+02  0.00000000000E+00 0.  1.
         11    1    3    3    0    0 -0.59453240577E+02 -0.32239836062E+02 -0.21836590039E+03  0.22859956539E+03  0.00000000000E+00 0. -1.
          4    1    1    2  501    0  0.86956422378E+01  0.23323962713E+02  0.25110599527E+02  0.35357653191E+02  0.00000000000E+00 0. -1.
<scales pt_clust_5="13000.00000" pt_clust_6="13000.00000" pt_clust_7="13000.00000" pt_clust_8="13000.00000" pt_clust_9="24.89220"></scales>
<clustering>
<clus scale="   24.892">  1  9  2 -1</clus>
<clus scale="   80.006">  5  6 -1 -1</clus>
<clus scale="   88.431">  1  5  2 -1</clus>
<clus scale="   92.842">  7  8 -1 -1</clus>
<clus scale="   24.892">  1  5  2 -1</clus>
</clustering>
</event>
<event>
 9    1  0.6345107E-005  0.1650625E+03  0.7546771E-02  0.1212013E+00
         21   -1    0    0  501  502  0.00000000000E+00  0.00000000000E+00  0.47277979565E+02  0.47277979565E+02  0.00000000000E+00 0. -1.
          1   -1    0    0  502    0 -0.00000000000E+00 -0.00000000000E+00 -0.88302957674E+03  0.88302957674E+03  0.00000000000E+00 0. -1.
        -24    2    1    2    0    0  0.25474282962E+02 -0.22706180392E+02 -0.29431904219E+03  0.30714875953E+03  0.80945365308E+02 0.  0.
         23    2    1    2    0    0  0.37872418001E+02 -0.11122324118E+03 -0.35371483085E+03  0.38401900829E+03  0.92474254458E+02 0.  0.
         11    1    3    3    0    0 -0.22165226487E+02  0.14990619683E+02 -0.10280731755E+03  0.10623257733E+03  0.00000000000E+00 0. -1.
        -12    1    3    3    0    0  0.47639509450E+02 -0.37696800075E+02 -0.19151172464E+03  0.20091618220E+03  0.00000000000E+00 0.  1.
        -13    1    4    4    0    0  0.63581653278E+02 -0.94517318690E+02 -0.23138417054E+03  0.25790460357E+03  0.00000000000E+00 0. -1.
         13    1    4    4    0    0 -0.25709235277E+02 -0.16705922486E+02 -0.12233066031E+03  0.12611440472E+03  0.00000000000E+00 0.  1.
          2    1    1    2  501    0 -0.63346700963E+02  0.13392942157E+03 -0.18771772413E+03  0.23913978848E+03  0.00000000000E+00 0. -1.
<scales pt_clust_5="13000.00000" pt_clust_6="13000.00000" pt_clust_7="13000.00000" pt_clust_8="13000.00000" pt_clust_9="136.72651"></scales>
<clustering>
<clus scale="   80.945">  5  6 -1 -1</clus>
<clus scale="   87.845">  2  5  1 -1</clus>
<clus scale="   92.474">  7  8 -1 -1</clus>
<clus scale="  136.727">  1  9  2 -1</clus>
<clus scale="  136.727">  1  5  2 -1</clus>
</clustering>
</event>
<event>
 9    1  0.1013016E-004  0.1381313E+03  0.7546771E-02  0.1233786E+00
          1   -1    0    0  502    0 -0.00000000000E+00  0.00000000000E+00  0.35629997718E+03  0.35629997718E+03  0.00000000000E+00 0. -1.
         21   -1    0    0  501  502  0.00000000000E+00 -0.00000000000E+00 -0.30315930199E+03  0.30315930199E+03  0.00000000000E+00 0.  1.
        -24    2    1    2    0    0 -0.41765374994E+02  0.29618857057E+02  0.98581825934E+02  0.13697693708E+03  0.80141634913E+02 0.  0.
         23    2    1    2    0    0  0.89927985015E+02  0.53256473296E+02 -0.25583911528E+03  0.29127840426E+03  0.92011746235E+02 0.  0.
         11    1    3    3    0    0  0.66679273315E+01  0.34275798676E+02  0.75372899245E+02  0.83068439076E+02  0.00000000000E+00 0. -1.
        -12    1    3    3    0    0 -0.48433302326E+02 -0.46569416195E+01  0.23208926689E+02  0.53908498008E+02  0.00000000000E+00 0.  1.
        -11    1    4    4    0    0 -0.13251729719E+02  0.28785801155E+02 -0.78471011373E+02  0.84628188653E+02  0.00000000000E+00 0. -1.
         11    1    4    4    0    0  0.10317971473E+03  0.24470672140E+02 -0.17736810391E+03  0.20665021561E+03  0.00000000000E+00 0.  1.
          2    1    1    2  501    0 -0.48162610021E+02 -0.82875330352E+02  0.21039796454E+03  0.23120393783E+03  0.00000000000E+00 0. -1.
<scales pt_clust_5="13000.00000" pt_clust_6="13000.00000" pt_clust_7="13000.00000" pt_clust_8="13000.00000" pt_clust_9="103.02474"></scales>
<clustering>
<clus scale="   80.142">  5  6 -1 -1</clus>
<clus scale="   92.012">  7  8 -1 -1</clus>
<clus scale="   95.102">  1  5  2 -1</clus>
<clus scale="  103.025">  2  9  1 -1</clus>
<clus scale="  103.025">  2  5  1 -1</clus>
</clustering>
</event>
<event>
 9    1  0.6345107E-005  0.1261744E+03  0.7546771E-02  0.1248521E+00
         21   -1    0    0  501  502  0.00000000000E+00  0.00000000000E+00  0.23985062272E+03  0.23985062272E+03  0.00000000000E+00 0.  1.
         -4   -1    0    0    0  501 -0.00000000000E+00 -0.00000000000E+00 -0.16239756462E+03  0.16239756462E+03  0.00000000000E+00 0.  1.
        -24    2    1    2    0    0  0.23776743558E+02  0.36412318921E+02 -0.13680076643E+02  0.93566012991E+02  0.81708407074E+02 0.  0.
         23    2    1    2    0    0 -0.48825228150E+02  0.69756425433E+02  0.14211585911E+03  0.18827259399E+03  0.89441547652E+02 0.  0.
         13    1    3    3    0    0  0.23776972182E+02 -0.20160938645E+02  0.92578376439E+01  0.32519462035E+02  0.00000000000E+00 0. -1.
        -14    1    3    3    0    0 -0.22862443961E-03  0.56573257566E+02 -0.22937914287E+02  0.61046550955E+02  0.00000000000E+00 0.  1.
        -13    1    4    4    0    0  0.24991700326E+02  0.31910100191E+02  0.47362368797E+02  0.62338058659E+02  0.00000000000E+00 0. -1.
         13    1    4    4    0    0 -0.73816928476E+02  0.37846325242E+02  0.94753490309E+02  0.12593453533E+03  0.00000000000E+00 0.  1.
         -3    1    1    2    0  502  0.25048484592E+02 -0.10616874435E+03 -0.50982724361E+02  0.12040958036E+03  0.00000000000E+00 0.  1.
<scales pt_clust_5="13000.00000" pt_clust_6="13000.00000" pt_clust_7="13000.00000" pt_clust_8="13000.00000" pt_clust_9="88.99548"></scales>
<clustering>
<clus scale="   81.708">  5  6 -1 -1</clus>
<clus scale="   89.442">  7  8 -1 -1</clus>
<clus scale="   92.561">  2  5  1 -1</clus>
<clus scale="   88.995">  1  9  2 -1</clus>
<clus scale="   88.995">  1  5  2 -1</clus>
</clustering>
</event>
<event>
 9    1  0.6345107E-005  0.1077645E+03  0.7546771E-02  0.1269628E+00
          1   -1    0    0  502    0 -0.00000000000E+00  0.00000000000E+00  0.70516521445E+03  0.70516521445E+03  0.00000000000E+00 0. -1.
         21   -1    0    0  501  502  0.00000000000E+00 -0.00000000000E+00 -0.28621366564E+02  0.28621366564E+02  0.00000000000E+00 0. -1.
        -24    2    1    2    0    0 -0.86365083729E+01  0.67615414599E+02  0.39330945053E+03  0.40718499166E+03  0.80379474925E+02 0.  0.
         23    2    1    2    0    0 -0.25406237069E+02 -0.27323578387E+02  0.12385083358E+03  0.15871632798E+03  0.91977111134E+02 0.  0.
         11    1    3    3    0    0 -0.33408136663E+02  0.72731241467E+02  0.30459785030E+03  0.31493775177E+03  0.00000000000E+00 0. -1.
        -12    1    3    3    0    0  0.24771628290E+02 -0.51158268675E+01  0.88711600221E+02  0.92247239885E+02  0.00000000000E+00 0.  1.
        -13    1    4    4    0    0 -0.16868058770E+02  0.32065418880E+02  0.28670645211E+02  0.46203121014E+02  0.00000000000E+00 0.  1.
         13    1    4    4    0    0 -0.85381782994E+01 -0.59388997267E+02  0.95180188364E+02  0.11251320697E+03  0.00000000000E+00 0. -1.
          2    1    1    2  501    0  0.34042745442E+02 -0.40291836212E+02  0.15938356379E+03  0.16788526138E+03  0.00000000000E+00 0. -1.
<scales pt_clust_5="13000.00000" pt_clust_6="13000.00000" pt_clust_7="13000.00000" pt_clust_8="13000.00000" pt_clust_9="52.74792"></scales>
<clustering>
<clus scale="   52.748">  2  9  1 -1</clus>
<clus scale="   80.379">  5  6 -1 -1</clus>
<clus scale="   91.977">  7  8 -1 -1</clus>
<clus scale="   98.052">  1  5  2 -1</clus>
<clus scale="   52.748">  2  5  1 -1</clus>
</clustering>
</event>
<event>
 9    1  0.6345107E-005  0.1871911E+03  0.7546771E-02  0.1182598E+00
         21   -1    0    0  501  502  0.00000000000E+00  0.00000000000E+00  0.14175209184E+03  0.14175209184E+03  0.00000000000E+00 0.  1.
         -2   -1    0    0    0  501 -0.00000000000E+00 -0.00000000000E+00 -0.64309437144E+03  0.64309437144E+03  0.00000000000E+00 0.  1.
        -24    2    1    2    0    0 -0.18970304626E+02  0.79408555831E+02 -0.59871221108E+02  0.12915700967E+03  0.80195877899E+02 0.  0.
         23    2    1    2    0    0  0.13111625996E+03 -0.18411546871E+03 -0.43904245832E+03  0.50224190232E+03  0.91644251278E+02 0.  0.
         13    1    3    3    0    0  0.31428766867E+02  0.28558943543E+02 -0.17247117160E+02  0.45834961475E+02  0.00000000000E+00 0. -1.
        -14    1    3    3    0    0 -0.50399071493E+02  0.50849612288E+02 -0.42624103948E+02  0.83322048190E+02  0.00000000000E+00 0.  1.
        -11    1    4    4    0    0  0.10792326385E+03 -0.19115955900E+03 -0.40032957475E+03  0.45656672710E+03  0.00000000000E+00 0.  1.
         11    1    4    4    0    0  0.23192996109E+02  0.70440902938E+01 -0.38712883571E+02  0.45675175216E+02  0.00000000000E+00 0. -1.
         -1    1    1    2    0  502 -0.11214595534E+03  0.10470691288E+03 -0.24286001757E+01  0.15344755130E+03  0.00000000000E+00 0.  1.
<scales pt_clust_5="13000.00000" pt_clust_6="13000.00000" pt_clust_7="13000.00000" pt_clust_8="13000.00000" pt_clust_9="163.22332"></scales>
<clustering>
<clus scale="   80.196">  5  6 -1 -1</clus>
<clus scale="   91.644">  7  8 -1 -1</clus>
<clus scale="  114.442">  2  5  1 -1</clus>
<clus scale="  163.223">  1  9  2 -1</clus>
<clus scale="  163.223">  1  5  2 -1</clus>
</clustering>
</event>
<event>
 9    1  0.6345107E-005  0.1673199E+03  0.7546771E-02  0.1193958E+00
         21   -1    0    0  501  502  0.00000000000E+00  0.00000000000E+00  0.33275620945E+03  0.33275620945E+03  0.00000000000E+00 0.  1.
         -4   -1    0    0    0  501 -0.00000000000E+00 -0.00000000000E+00 -0.24830575358E+03  0.24830575358E+03  0.00000000000E+00 0.  1.
         23    2    1    2    0    0 -0.45519529354E+02 -0.70101197398E+02 -0.10961201283E+02  0.12506665539E+03  0.92386768138E+02 0.  0.
        -24    2    1    2    0    0  0.10991859743E+03 -0.67253324623E+02 -0.11893846394E+03  0.19339393844E+03  0.81545996149E+02 0.  0.
         13    1    4    4    0    0  0.84274709993E+02 -0.85989891411E+01 -0.46176126455E+02  0.96480070548E+02  0.00000000000E+00 0. -1.
        -14    1    4    4    0    0  0.25643887435E+02 -0.58654335482E+02 -0.72762337487E+02  0.96913867894E+02  0.00000000000E+00 0.  1.
        -11    1    3    3    0    0 -0.69197352239E+02 -0.72084831871E+02 -0.14751539332E+02  0.10100546745E+03  0.00000000000E+00 0. -1.
         11    1    3    3    0    0  0.23677822885E+02  0.19836344732E+01  0.37903380487E+01  0.24061187934E+02  0.00000000000E+00 0.  1.
         -3    1    1    2    0  502 -0.64399068075E+02  0.13735452202E+03  0.21435012110E+03  0.26260136920E+03  0.00000000000E+00 0.  1.
<scales pt_clust_5="13000.00000" pt_clust_6="13000.00000" pt_clust_7="13000.00000" pt_clust_8="13000.00000" pt_clust_9="146.10343"></scales>
<clustering>
<clus scale="   81.546">  5  6 -1 -1</clus>
<clus scale="   92.387">  7  8 -1 -1</clus>
<clus scale="  124.585">  2  7  1 -1</clus>
<clus scale="  146.103">  1  9  2 -1</clus>
<clus scale="  146.103">  1  5  2 -1</clus>
</clustering>
</event>
<event>
 9    1  0.6345107E-005  0.9930840E+02  0.7546771E-02  0.1288344E+00
         21   -1    0    0  501  502  0.00000000000E+00  0.00000000000E+00  0.16509489909E+03  0.16509489909E+03  0.00000000000E+00 0. -1.
          1   -1    0    0  502    0 -0.00000000000E+00 -0.00000000000E+00 -0.16224494613E+03  0.16224494613E+03  0.00000000000E+00 0. -1.
         23    2    1    2    0    0 -0.28853142069E+02 -0.23683419259E+02 -0.12047703900E+03  0.15646674412E+03  0.92594367733E+02 0.  0.
        -24    2    1    2    0    0  0.29170086931E+02  0.31660769414E+01  0.12385823398E+03  0.15034643532E+03  0.80014189209E+02 0.  0.
         13    1    4    4    0    0  0.52891553507E+02  0.18964083237E+02  0.89877517969E+02  0.10599585427E+03  0.00000000000E+00 0. -1.
        -14    1    4    4    0    0 -0.23721466576E+02 -0.15798006295E+02  0.33980716013E+02  0.44350581058E+02  0.00000000000E+00 0.  1.
        -11    1    3    3    0    0 -0.97347055691E+01 -0.57858527875E+02 -0.87072661523E+02  0.10499534335E+03  0.00000000000E+00 0. -1.
         11    1    3    3    0    0 -0.19118436500E+02  0.34175108616E+02 -0.33404377473E+02  0.51471400772E+02  0.00000000000E+00 0.  1.
          2    1    1    2  501    0 -0.31694486201E+00  0.20517342318E+02 -0.53124202232E+00  0.20526665777E+02  0.00000000000E+00 0. -1.
<scales pt_clust_5="13000.00000" pt_clust_6="13000.00000" pt_clust_7="13000.00000" pt_clust_8="13000.00000" pt_clust_9="20.51980"></scales>
<clustering>
<clus scale="   20.520">  1  9  2 -1</clus>
<clus scale="   80.014">  5  6 -1 -1</clus>
<clus scale="   87.697">  1  5  2 -1</clus>
<clus scale="   92.594">  7  8 -1 -1</clus>
<clus scale="   20.520">  1  5  2 -1</clus>
</clustering>
</event>
<event>
 9    1  0.6345107E-005  0.1249401E+03  0.7546771E-02  0.1245828E+00
          1   -1    0    0  502    0 -0.00000000000E+00  0.00000000000E+00  0.20905448963E+03  0.20905448963E+03  0.00000000000E+00 0. -1.
         21   -1    0    0  501  502  0.00000000000E+00 -0.00000000000E+00 -0.23118384161E+03  0.23118384161E+03  0.00000000000E+00 0. -1.
        -24    2    1    2    0    0  0.18596094986E+02  0.58634095064E+02 -0.13135569987E+03  0.16546837840E+03  0.79634744355E+02 0.  0.
         23    2    1    2    0    0 -0.17145453169E+02  0.62279530507E+02  0.45813800014E+01  0.11485504261E+03  0.94857710729E+02 0.  0.
         11    1    3    3    0    0 -0.19575087403E+02  0.37208486455E+02 -0.10791094482E+03  0.11581203531E+03  0.00000000000E+00 0. -1.
        -12    1    3    3    0    0  0.38171182388E+02  0.21425608609E+02 -0.23444755048E+02  0.49656343084E+02  0.00000000000E+00 0.  1.
        -11    1    4    4    0    0 -0.11867340425E+02  0.85987515554E+02  0.15584578620E+02  0.88190507940E+02  0.00000000000E+00 0. -1.
         11    1    4    4    0    0 -0.52781127442E+01 -0.23707985047E+02 -0.11003198618E+02  0.26664534666E+02  0.00000000000E+00 0.  1.
          2    1    1    2  501    0 -0.14506418162E+01 -0.12091362557E+03  0.10464496790E+03  0.15991491024E+03  0.00000000000E+00 0. -1.
<scales pt_clust_5="13000.00000" pt_clust_6="13000.00000" pt_clust_7="13000.00000" pt_clust_8="13000.00000" pt_clust_9="81.31448"></scales>
<clustering>
<clus scale="   79.635">  5  6 -1 -1</clus>
<clus scale="   94.858">  7  8 -1 -1</clus>
<clus scale="  100.625">  1  5  2 -1</clus>
<clus scale="   81.314">  2  9  1 -1</clus>
<clus scale="   81.314">  2  5  1 -1</clus>
</clustering>
</event>
<event>
 9    1  0.6345107E-005  0.1254457E+03  0.7546771E-02  0.1236486E+00
         21   -1    0    0  501  502  0.00000000000E+00  0.00000000000E+00  0.71382841720E+03  0.71382841720E+03  0.00000000000E+00 0.  1.
          3   -1    0    0  502    0 -0.00000000000E+00 -0.00000000000E+00 -0.86322341394E+02  0.86322341394E+02  0.00000000000E+00 0. -1.
         23    2    1    2    0    0  0.25440513348E+02  0.86860474194E+02 -0.26995582078E+02  0.13013393537E+03  0.89521606259E+02 0.  0.
        -24    2    1    2    0    0 -0.41407327845E+02 -0.53215507555E+02  0.48087076609E+03  0.49243695519E+03  0.81920718451E+02 0.  0.
         11    1    4    4    0    0 -0.12081195371E+02 -0.16992993457E+02  0.18961838141E+02  0.28182768032E+02  0.00000000000E+00 0. -1.
        -12    1    4    4    0    0 -0.29326132473E+02 -0.36222514098E+02  0.46190892795E+03  0.46425418716E+03  0.00000000000E+00 0.  1.
        -13    1    3    3    0    0  0.42540317395E+02  0.88390695118E+01  0.57130166984E+01  0.43822897139E+02  0.00000000000E+00 0.  1.
         13    1    3    3    0    0 -0.17099804047E+02  0.78021404682E+02 -0.32708598777E+02  0.86311038234E+02  0.00000000000E+00 0. -1.
          4    1    1    2  501    0  0.15966814496E+02 -0.33644966639E+02  0.17363089179E+03  0.17757986803E+03  0.00000000000E+00 0. -1.
<scales pt_clust_5="13000.00000" pt_clust_6="13000.00000" pt_clust_7="13000.00000" pt_clust_8="13000.00000" pt_clust_9="37.24141"></scales>
<clustering>
<clus scale="   37.241">  1  9  2 -1</clus>
<clus scale="   81.921">  5  6 -1 -1</clus>
<clus scale="   89.522">  7  8 -1 -1</clus>
<clus scale="  120.140">  1  5  2 -1</clus>
<clus scale="   37.241">  1  5  2 -1</clus>
</clustering>
</event>
<event>
 9    1  0.6345107E-005  0.9699427E+02  0.7546771E-02  0.1295873E+00
         21   -1    0    0  501  502  0.00000000000E+00  0.00000000000E+00  0.93200198049E+03  0.93200198049E+03  0.00000000000E+00 0. -1.
          1   -1    0    0  502    0 -0.00000000000E+00 -0.00000000000E+00 -0.21993769043E+02  0.21993769043E+02  0.00000000000E+00 0. -1.
        -24    2    1    2    0    0 -0.21468329968E+01 -0.89571383025E+00  0.22882811679E+03  0.24205978544E+03  0.78900072864E+02 0.  0.
         23    2    1    2    0    0 -0.18135874574E+02  0.69128234111E+02  0.55057686365E+03  0.56319367354E+03  0.94575940012E+02 0.  0.
         11    1    3    3    0    0 -0.37403640125E+02  0.14936946385E+02  0.11485766380E+03  0.12171453321E+03  0.00000000000E+00 0. -1.
        -12    1    3    3    0    0  0.35256807128E+02 -0.15832660215E+02  0.11397045300E+03  0.12034525223E+03  0.00000000000E+00 0.  1.
        -11    1    4    4    0    0 -0.54412937220E+02  0.59852175038E+02  0.39154414260E+03  0.39981228870E+03  0.00000000000E+00 0.  1.
         11    1    4    4    0    0  0.36277062646E+02  0.92760590729E+01  0.15903272106E+03  0.16338138484E+03  0.00000000000E+00 0. -1.
          2    1    1    2  501    0  0.20282707570E+02 -0.68232520281E+02  0.13060323100E+03  0.14874229055E+03  0.00000000000E+00 0. -1.
<scales pt_clust_5="13000.00000" pt_clust_6="13000.00000" pt_clust_7="13000.00000" pt_clust_8="13000.00000" pt_clust_9="71.18336"></scales>
<clustering>
<clus scale="   71.183">  1  9  2 -1</clus>
<clus scale="   78.900">  5  6 -1 -1</clus>
<clus scale="   81.783">  2  5  1 -1</clus>
<clus scale="   94.576">  7  8 -1 -1</clus>
<clus scale="   71.183">  1  5  2 -1</clus>
</clustering>
</event>
<event>
 9    1  0.6345107E-005  0.1123509E+03  0.7546771E-02  0.1260231E+00
          1   -1    0    0  502    0 -0.00000000000E+00  0.00000000000E+00  0.30308545258E+03  0.30308545258E+03  0.00000000000E+00 0. -1.
         21   -1    0    0  501  502  0.00000000000E+00 -0.00000000000E+00 -0.12480338048E+03  0.12480338048E+03  0.00000000000E+00 0. -1.
        -24    2    1    2    0    0  0.62782620419E+02 -0.36406266976E+02  0.15379072635E+03  0.18767944672E+03  0.79403485495E+02 0.  0.
         23    2    1    2    0    0 -0.51731002302E+02 -0.24456369219E+02 -0.69708327968E+02  0.12751521046E+03  0.90148030016E+02 0.  0.
         11    1    3    3    0    0  0.72038605573E+02 -0.16638919463E+02  0.72654364171E+02  0.10365843413E+03  0.00000000000E+00 0. -1.
        -12    1    3    3    0    0 -0.92559851536E+01 -0.19767347513E+02  0.81136362179E+02  0.84021012589E+02  0.00000000000E+00 0.  1.
        -13    1    4    4    0    0 -0.25504904685E+02 -0.45086602350E+02 -0.17769281070E+01  0.51831065472E+02  0.00000000000E+00 0. -1.
         13    1    4    4    0    0 -0.26226097617E+02  0.20630233131E+02 -0.67931399861E+02  0.75684144987E+02  0.00000000000E+00 0.  1.
          2    1    1    2  501    0 -0.11051618117E+02  0.60862636195E+02  0.94199673722E+02  0.11269417588E+03  0.00000000000E+00 0. -1.
<scales pt_clust_5="13000.00000" pt_clust_6="13000.00000" pt_clust_7="13000.00000" pt_clust_8="13000.00000" pt_clust_9="61.85792"></scales>
<clustering>
<clus scale="   61.858">  2  9  1 -1</clus>
<clus scale="   79.403">  5  6 -1 -1</clus>
<clus scale="   90.148">  7  8 -1 -1</clus>
<clus scale="  103.928">  1  5  2 -1</clus>
<clus scale="   61.858">  2  5  1 -1</clus>
</clustering>
</event>
<event>
 9    1  0.6345107E-005  0.1076309E+03  0.7546771E-02  0.1272721E+00
         21   -1    0    0  501  502  0.00000000000E+00  0.00000000000E+00  0.28663164835E+03  0.28663164835E+03  0.00000000000E+00 0.  1.
         -2   -1    0    0    0  501 -0.00000000000E+00 -0.00000000000E+00 -0.27907031692E+03  0.27907031692E+03  0.00000000000E+00 0.  1.
        -24    2    1    2    0    0 -0.22396357302E+02 -0.38718608457E+02 -0.15361945777E+03  0.17879130333E+03  0.79791383489E+02 0.  0.
         23    2    1    2    0    0  0.78748378573E+02  0.68454129058E+02  0.24398026653E+03  0.28243336807E+03  0.96721052682E+02 0.  0.
         11    1    3    3    0    0 -0.52455931163E+02 -0.28421616320E+02 -0.10268077667E+03  0.11875502046E+03  0.00000000000E+00 0. -1.
        -12    1    3    3    0    0  0.30059573860E+02 -0.10296992136E+02 -0.50938681101E+02  0.60036282863E+02  0.00000000000E+00 0.  1.
        -13    1    4    4    0    0  0.12126727139E+02  0.53750074395E+02  0.18235104828E+03  0.19049418053E+03  0.00000000000E+00 0.  1.
         13    1    4    4    0    0  0.66621651434E+02  0.14704054662E+02  0.61629218255E+02  0.91939187543E+02  0.00000000000E+00 0. -1.
         -1    1    1    2    0  502 -0.56352021271E+02 -0.29735520601E+02 -0.82799477331E+02  0.10447729386E+03  0.00000000000E+00 0.  1.
<scales pt_clust_5="13000.00000" pt_clust_6="13000.00000" pt_clust_7="13000.00000" pt_clust_8="13000.00000" pt_clust_9="63.71621"></scales>
<clustering>
<clus scale="   63.716">  1  9  2 -1</clus>
<clus scale="   79.791">  5  6 -1 -1</clus>
<clus scale="   92.715">  2  5  1 -1</clus>
<clus scale="   96.721">  7  8 -1 -1</clus>
<clus scale="   63.716">  1  5  2 -1</clus>
</clustering>
</event>
<event>
 9    1  0.6345107E-005  0.1061992E+03  0.7546771E-02  0.1274592E+00
         21   -1    0    0  501  502  0.00000000000E+00  0.00000000000E+00  0.20818976081E+03  0.20818976081E+03  0.00000000000E+00 0.  1.
          1   -1    0    0  502    0 -0.00000000000E+00 -0.00000000000E+00 -0.19837801673E+03  0.19837801673E+03  0.00000000000E+00 0. -1.
        -24    2    1    2    0    0  0.46442651762E+02  0.37239684618E+02  0.80489761464E+01  0.10132040421E+03  0.81592427829E+02 0.  0.
         23    2    1    2    0    0  0.15717299762E+02 -0.24513280881E+02  0.12869975737E+03  0.16333606226E+03  0.96265815508E+02 0.  0.
         13    1    3    3    0    0  0.21350216700E+02  0.10896365457E+02 -0.36584594485E+02  0.43737799292E+02  0.00000000000E+00 0. -1.
        -14    1    3    3    0    0  0.25092435061E+02  0.26343319161E+02  0.44633570631E+02  0.57582604917E+02  0.00000000000E+00 0.  1.
        -11    1    4    4    0    0 -0.16649262218E+02 -0.33166163203E+02  0.78546351014E+01  0.37932672020E+02  0.00000000000E+00 0.  1.
         11    1    4    4    0    0  0.32366561981E+02  0.86528823215E+01  0.12084512227E+03  0.12540339024E+03  0.00000000000E+00 0. -1.
          2    1    1    2  501    0 -0.62159951524E+02 -0.12726403737E+02 -0.12693698943E+03  0.14191131108E+03  0.00000000000E+00 0. -1.
<scales pt_clust_5="13000.00000" pt_clust_6="13000.00000" pt_clust_7="13000.00000" pt_clust_8="13000.00000" pt_clust_9="63.44939"></scales>
<clustering>
<clus scale="   63.449">  1  9  2 -1</clus>
<clus scale="   81.592">  5  6 -1 -1</clus>
<clus scale="   93.105">  2  5  1 -1</clus>
<clus scale="   96.266">  7  8 -1 -1</clus>
<clus scale="   63.449">  1  5  2 -1</clus>
</clustering>
</event>
<event>
 9    1  0.6345107E-005  0.1067028E+03  0.7546771E-02  0.1270586E+00
         21   -1    0    0  501  502  0.00000000000E+00  0.00000000000E+00  0.15515036790E+03  0.15515036790E+03  0.00000000000E+00 0. -1.
         -4   -1    0    0    0  501 -0.00000000000E+00 -0.00000000000E+00 -0.19736872518E+03  0.19736872518E+03  0.00000000000E+00 0.  1.
         23    2    1    2    0    0  0.52112426384E+02 -0.44353865525E+02 -0.47363942111E+02  0.12266363381E+03  0.90111340447E+02 0.  0.
        -24    2    1    2    0    0 -0.41311209678E+02 -0.15345902347E+02  0.87785023675E+02  0.12733714180E+03  0.81033477866E+02 0.  0.
         11    1    4    4    0    0  0.87980872467E+01  0.23148060909E+02  0.43905630176E+02  0.50407771466E+02  0.00000000000E+00 0. -1.
        -12    1    4    4    0    0 -0.50109296925E+02 -0.38493963255E+02  0.43879393500E+02  0.76929370329E+02  0.00000000000E+00 0.  1.
        -11    1    3    3    0    0  0.58836781929E+00 -0.59444218433E+02 -0.25880759135E+02  0.64836525009E+02  0.00000000000E+00 0. -1.
         11    1    3    3    0    0  0.51524058565E+02  0.15090352908E+02 -0.21483182976E+02  0.57827108804E+02  0.00000000000E+00 0.  1.
         -3    1    1    2    0  502 -0.10801216706E+02  0.59699767872E+02 -0.82639438843E+02  0.10251831748E+03  0.00000000000E+00 0.  1.
<scales pt_clust_5="13000.00000" pt_clust_6="13000.00000" pt_clust_7="13000.00000" pt_clust_8="13000.00000" pt_clust_9="60.66904"></scales>
<clustering>
<clus scale="   60.669">  1  9  2 -1</clus>
<clus scale="   81.033">  5  6 -1 -1</clus>
<clus scale="   90.111">  7  8 -1 -1</clus>
<clus scale="   99.156">  1  5  2 -1</clus>
<clus scale="   60.669">  1  5  2 -1</clus>
</clustering>
</event>
<event>
 9    1  0.6345107E-005  0.9981190E+02  0.7546771E-02  0.1285914E+00
          1   -1    0    0  502    0 -0.00000000000E+00  0.00000000000E+00  0.22576722791E+03  0.22576722791E+03  0.00000000000E+00 0. -1.
         21   -1    0    0  501  502  0.00000000000E+00 -0.00000000000E+00 -0.13703750877E+03  0.13703750877E+03  0.00000000000E+00 0. -1.
        -24    2    1    2    0    0 -0.18800954550E+02  0.34594774217E+02  0.12092966485E+03  0.15082702324E+03  0.81083492800E+02 0.  0.
         23    2    1    2    0    0  0.78230615901E+02  0.12713147198E+02  0.15929446429E+02  0.12205350944E+03  0.91442104786E+02 0.  0.
         11    1    3    3    0    0  0.13259210955E+01 -0.24684071874E+02  0.52816203335E+02  0.58314773478E+02  0.00000000000E+00 0. -1.
        -12    1    3    3    0    0 -0.20126875646E+02  0.59278846091E+02  0.68113461516E+02  0.92512249766E+02  0.00000000000E+00 0.  1.
        -13    1    4    4    0    0  0.44856335886E+02 -0.84814859076E+01  0.51535946570E+02  0.68847514561E+02  0.00000000000E+00 0.  1.
         13    1    4    4    0    0  0.33374280015E+02  0.21194633106E+02 -0.35606500141E+02  0.53205994881E+02  0.00000000000E+00 0. -1.
          2    1    1    2  501    0 -0.59429661351E+02 -0.47307921415E+02 -0.48129392143E+02  0.89924204000E+02  0.00000000000E+00 0. -1.
<scales pt_clust_5="13000.00000" pt_clust_6="13000.00000" pt_clust_7="13000.00000" pt_clust_8="13000.00000" pt_clust_9="75.96002"></scales>
<clustering>
<clus scale="   75.960">  2  9  1 -1</clus>
<clus scale="   81.083">  5  6 -1 -1</clus>
<clus scale="   90.417">  1  5  2 -1</clus>
<clus scale="   91.442">  7  8 -1 -1</clus>
<clus scale="   75.960">  2  5  1 -1</clus>
</clustering>
</event>
<event>
 9    1  0.6345107E-005  0.1578545E+03  0.7546771E-02  0.1223973E+00
          1   -1    0    0  502    0 -0.00000000000E+00  0.00000000000E+00  0.96112975650E+03  0.96112975650E+03  0.00000000000E+00 0. -1.
         21   -1    0    0  501  502  0.00000000000E+00 -0.00000000000E+00 -0.31034129523E+02  0.31034129523E+02  0.00000000000E+00 0.  1.
        -24    2    1    2    0    0 -0.65175307749E+01  0.25319455983E+02  0.17488495972E+03  0.19151754343E+03  0.73557237904E+02 0.  0.
         23    2    1    2    0    0 -0.29813020398E+02  0.78155880833E+02  0.35422185558E+03  0.38493119809E+03  0.12530660955E+03 0.  0.
         11    1    3    3    0    0 -0.31274220675E+02 -0.94757933143E+01  0.10128455338E+03  0.10642569375E+03  0.00000000000E+00 0. -1.
        -12    1    3    3    0    0  0.24756689901E+02  0.34795249297E+02  0.73600406342E+02  0.85091849681E+02  0.00000000000E+00 0.  1.
        -13    1    4    4    0    0 -0.65207825996E+02  0.40641780411E+02  0.30165775702E+03  0.31128960351E+03  0.00000000000E+00 0.  1.
         13    1    4    4    0    0  0.35394805599E+02  0.37514100422E+02  0.52564098560E+02  0.73641594573E+02  0.00000000000E+00 0. -1.
          2    1    1    2  501    0  0.36330551172E+02 -0.10347533682E+03  0.40098881168E+03  0.41571514450E+03  0.00000000000E+00 0. -1.
<scales pt_clust_5="13000.00000" pt_clust_6="13000.00000" pt_clust_7="13000.00000" pt_clust_8="13000.00000" pt_clust_9="96.00154"></scales>
<clustering>
<clus scale="   73.557">  5  6 -1 -1</clus>
<clus scale="   78.066">  1  5  2 -1</clus>
<clus scale="   96.002">  2  9  1 -1</clus>
<clus scale="  125.307">  7  8 -1 -1</clus>
<clus scale="   96.002">  2  5  1 -1</clus>
</clustering>
</event>
<event>
 9    1  0.6345107E-005  0.1271188E+03  0.7546771E-02  0.1233187E+00
          1   -1    0    0  502    0 -0.00000000000E+00  0.00000000000E+00  0.16212854919E+04  0.16212854919E+04  0.00000000000E+00 0. -1.
         21   -1    0    0  501  502  0.00000000000E+00 -0.00000000000E+00 -0.18196612162E+02  0.18196612162E+02  0.00000000000E+00 0. -1.
        -24    2    1    2    0    0 -0.62907247584E+02  0.56314237300E+02  0.66037927416E+03  0.67073199581E+03  0.81559851303E+02 0.  0.
         23    2    1    2    0    0  0.12061849278E+03 -0.10673505782E+02  0.60051063965E+03  0.61873039955E+03  0.86899565414E+02 0.  0.
         13    1    3    3    0    0 -0.73308004547E+02  0.38472196177E+02  0.34967646801E+03  0.35934357610E+03  0.00000000000E+00 0. -1.
        -14    1    3    3    0    0  0.10400756963E+02  0.17842041123E+02  0.31070280616E+03  0.31138841971E+03  0.00000000000E+00 0.  1.
        -11    1    4    4    0    0  0.87534264293E+01 -0.31935234208E+02  0.18294501556E+03  0.18591761717E+03  0.00000000000E+00 0.  1.
         11    1    4    4    0    0  0.11186506635E+03  0.21261728426E+02  0.41756562409E+03  0.43281278238E+03  0.00000000000E+00 0. -1.
          2    1    1    2  501    0 -0.57711245196E+02 -0.45640731518E+02  0.34219896593E+03  0.35001970870E+03  0.00000000000E+00 0. -1.
<scales pt_clust_5="13000.00000" pt_clust_6="13000.00000" pt_clust_7="13000.00000" pt_clust_8="13000.00000" pt_clust_9="73.57761"></scales>
<clustering>
<clus scale="   73.578">  2  9  1 -1</clus>
<clus scale="   81.560">  5  6 -1 -1</clus>
<clus scale="   86.900">  7  8 -1 -1</clus>
<clus scale="  123.530">  1  5  2 -1</clus>
<clus scale="   73.578">  2  5  1 -1</clus>
</clustering>
</event>
<event>
 9    1  0.6345107E-005  0.9329825E+02  0.7546771E-02  0.1300036E+00
          1   -1    0    0  502    0 -0.00000000000E+00  0.00000000000E+00  0.75623149027E+02  0.75623149027E+02  0.00000000000E+00 0. -1.
         21   -1    0    0  501  502  0.00000000000E+00 -0.00000000000E+00 -0.15322712240E+03  0.15322712240E+03  0.00000000000E+00 0. -1.
         23    2    1    2    0    0 -0.25079002741E+02  0.28421175068E+02 -0.20962866543E+02  0.97504568120E+02  0.87355477561E+02 0.  0.
        -24    2    1    2    0    0  0.29972777033E+02 -0.41401678097E+01 -0.63756870715E+02  0.10557458699E+03  0.78520994026E+02 0.  0.
         13    1    4    4    0    0  0.48115406270E+02 -0.25550972504E+02 -0.31948204743E+02  0.63155619724E+02  0.00000000000E+00 0. -1.
        -14    1    4    4    0    0 -0.18142629237E+02  0.21410804694E+02 -0.31808665972E+02  0.42418967269E+02  0.00000000000E+00 0.  1.
        -11    1    3    3    0    0  0.26032546292E+02  0.88581469568E+01  0.15668429497E+02  0.31649011309E+02  0.00000000000E+00 0.  1.
         11    1    3    3    0    0 -0.51111549032E+02  0.19563028111E+02 -0.36631296040E+02  0.65855556811E+02  0.00000000000E+00 0. -1.
          2    1    1    2  501    0 -0.48937742921E+01 -0.24281007259E+02  0.71157638856E+01  0.25771116312E+02  0.00000000000E+00 0. -1.
<scales pt_clust_5="13000.00000" pt_clust_6="13000.00000" pt_clust_7="13000.00000" pt_clust_8="13000.00000" pt_clust_9="24.76927"></scales>
<clustering>
<clus scale="   24.769">  2  9  1 -1</clus>
<clus scale="   78.521">  5  6 -1 -1</clus>
<clus scale="   85.083">  2  5  1 -1</clus>
<clus scale="   87.355">  7  8 -1 -1</clus>
<clus scale="   24.769">  2  5  1 -1</clus>
</clustering>
</event>
<event>
 9    1  0.6345107E-005  0.1611031E+03  0.7546771E-02  0.1189901E+00
          1   -1    0    0  502    0 -0.00000000000E+00  0.00000000000E+00  0.21887498520E+03  0.21887498520E+03  0.00000000000E+00 0. -1.
         21   -1    0    0  501  502  0.00000000000E+00 -0.00000000000E+00 -0.30034443503E+03  0.30034443503E+03  0.00000000000E+00 0.  1.
        -24    2    1    2    0    0  0.69703598022E+02 -0.11027298411E+03  0.15101387708E+03  0.21553264638E+03  0.81427317171E+02 0.  0.
         23    2    1    2    0    0 -0.33338487601E+02  0.12010619582E+03 -0.18296111765E+03  0.24146489250E+03  0.96403167526E+02 0.  0.
         11    1    3    3    0    0  0.37607930838E+02 -0.10931567002E+03  0.89711576920E+02  0.14632989855E+03  0.00000000000E+00 0. -1.
        -12    1    3    3    0    0  0.32095667184E+02 -0.95731408368E+00  0.61302300164E+02  0.69202747833E+02  0.00000000000E+00 0.  1.
        -11    1    4    4    0    0 -0.71059236935E+01  0.30150732421E+02  0.50611474736E+01  0.31387513932E+02  0.00000000000E+00 0. -1.
         11    1    4    4    0    0 -0.26232563908E+02  0.89955463398E+02 -0.18802226512E+03  0.21007737857E+03  0.00000000000E+00 0.  1.
          2    1    1    2  501    0 -0.36365110421E+02 -0.98332117108E+01 -0.49522209260E+02  0.62221881348E+02  0.00000000000E+00 0. -1.
<scales pt_clust_5="13000.00000" pt_clust_6="13000.00000" pt_clust_7="13000.00000" pt_clust_8="13000.00000" pt_clust_9="37.67112"></scales>
<clustering>
<clus scale="   37.671">  2  9  1 -1</clus>
<clus scale="   81.427">  5  6 -1 -1</clus>
<clus scale="   96.403">  7  8 -1 -1</clus>
<clus scale="  152.614">  1  5  2 -1</clus>
<clus scale="   37.671">  2  5  1 -1</clus>
</clustering>
</event>
<event>
 9    1  0.6345107E-005  0.1235531E+03  0.7546771E-02  0.1239920E+00
          1   -1    0    0  502    0 -0.00000000000E+00  0.00000000000E+00  0.41082702506E+03  0.41082702506E+03  0.00000000000E+00 0. -1.
         21   -1    0    0  501  502  0.00000000000E+00 -0.00000000000E+00 -0.12936991583E+03  0.12936991583E+03  0.00000000000E+00 0. -1.
        -24    2    1    2    0    0  0.61543888409E+02  0.59416282654E+02  0.24149447674E+03  0.26920749419E+03  0.82674952582E+02 0.  0.
         23    2    1    2    0    0  0.11392906332E+02 -0.10541354218E+03  0.94562032197E+02  0.16892761074E+03  0.91393361618E+02 0.  0.
         11    1    3    3    0    0 -0.78386112521E+01  0.26157644998E+02  0.17664769037E+02  0.32522458138E+02  0.00000000000E+00 0. -1.
        -12    1    3    3    0    0  0.69382499661E+02  0.33258637655E+02  0.22382970770E+03  0.23668503605E+03  0.00000000000E+00 0.  1.
        -11    1    4    4    0    0  0.41632915088E+02 -0.49383979894E+02  0.13735463345E+02  0.66035899647E+02  0.00000000000E+00 0. -1.
         11    1    4    4    0    0 -0.30240008756E+02 -0.56029562287E+02  0.80826568852E+02  0.10289171109E+03  0.00000000000E+00 0.  1.
          2    1    1    2  501    0 -0.72936794741E+02  0.45997259528E+02 -0.54599399714E+02  0.10206183596E+03  0.00000000000E+00 0. -1.
<scales pt_clust_5="13000.00000" pt_clust_6="13000.00000" pt_clust_7="13000.00000" pt_clust_8="13000.00000" pt_clust_9="86.22948"></scales>
<clustering>
<clus scale="   82.675">  5  6 -1 -1</clus>
<clus scale="   86.229">  2  9  1 -1</clus>
<clus scale="   91.393">  7  8 -1 -1</clus>
<clus scale="  117.251">  1  5  2 -1</clus>
<clus scale="   86.229">  2  5  1 -1</clus>
</clustering>
</event>
<event>
 9    1  0.6345107E-005  0.1114313E+03  0.7546771E-02  0.1261888E+00
         -2   -1    0    0    0  501 -0.00000000000E+00  0.00000000000E+00  0.57755008188E+03  0.57755008188E+03  0.00000000000E+00 0.  1.
         21   -1    0    0  501  502  0.00000000000E+00 -0.00000000000E+00 -0.30782022868E+02  0.30782022868E+02  0.00000000000E+00 0. -1.
        -24    2    1    2    0    0 -0.43392178445E+02 -0.50301477903E+02  0.31081532650E+03  0.32794791873E+03  0.80811820800E+02 0.  0.
         23    2    1    2    0    0  0.14095359631E+02  0.63564767791E+02  0.21365222478E+03  0.24124940486E+03  0.91185762725E+02 0.  0.
         13    1    3    3    0    0 -0.37882668397E+02  0.12832796376E+02  0.14563261004E+03  0.15102527714E+03  0.00000000000E+00 0. -1.
        -14    1    3    3    0    0 -0.55095100484E+01 -0.63134274279E+02  0.16518271646E+03  0.17692264159E+03  0.00000000000E+00 0.  1.
        -13    1    4    4    0    0  0.72910288792E+01  0.86995755828E+02  0.15878702995E+03  0.18120359134E+03  0.00000000000E+00 0. -1.
         13    1    4    4    0    0  0.68043307514E+01 -0.23430988037E+02  0.54865194828E+02  0.60045813516E+02  0.00000000000E+00 0.  1.
         -1    1    1    2    0  502  0.29296818815E+02 -0.13263289888E+02  0.22300507725E+02  0.39134781156E+02  0.00000000000E+00 0.  1.
<scales pt_clust_5="13000.00000" pt_clust_6="13000.00000" pt_clust_7="13000.00000" pt_clust_8="13000.00000" pt_clust_9="32.15927"></scales>
<clustering>
<clus scale="   32.159">  2  9  1 -1</clus>
<clus scale="   80.812">  5  6 -1 -1</clus>
<clus scale="   91.186">  7  8 -1 -1</clus>
<clus scale="  103.115">  1  5  2 -1</clus>
<clus scale="   32.159">  2  5  1 -1</clus>
</clustering>
</event>
<event>
 9    1  0.6345107E-005  0.9867931E+02  0.7546771E-02  0.1290558E+00
         21   -1    0    0  501  502  0.00000000000E+00  0.00000000000E+00  0.36506888726E+03  0.36506888726E+03  0.00000000000E+00 0. -1.
          3   -1    0    0  502    0 -0.00000000000E+00 -0.00000000000E+00 -0.92275994038E+02  0.92275994038E+02  0.00000000000E+00 0. -1.
        -24    2    1    2    0    0 -0.37634518213E+02 -0.10867370815E+02 -0.51669131802E+02  0.10213464678E+03  0.78913434736E+02 0.  0.
         23    2    1    2    0    0 -0.74670116507E+01  0.29856158923E+01  0.16692865495E+03  0.19115831364E+03  0.92799002506E+02 0.  0.
         11    1    3    3    0    0 -0.44075186794E+02  0.21207386304E+02 -0.49122029797E+02  0.69320625619E+02  0.00000000000E+00 0. -1.
        -12    1    3    3    0    0  0.64406685813E+01 -0.32074757119E+02 -0.25471020043E+01  0.32814021159E+02  0.00000000000E+00 0.  1.
        -11    1    4    4    0    0  0.42177836901E+02  0.53393540046E+01  0.63644794284E+02  0.76538477031E+02  0.00000000000E+00 0.  1.
         11    1    4    4    0    0 -0.49644848551E+02 -0.23537381123E+01  0.10328386067E+03  0.11461983661E+03  0.00000000000E+00 0. -1.
          4    1    1    2  501    0  0.45101529864E+02  0.78817549224E+01  0.15753337007E+03  0.16405192088E+03  0.00000000000E+00 0. -1.
<scales pt_clust_5="13000.00000" pt_clust_6="13000.00000" pt_clust_7="13000.00000" pt_clust_8="13000.00000" pt_clust_9="45.78504"></scales>
<clustering>
<clus scale="   45.785">  1  9  2 -1</clus>
<clus scale="   78.913">  5  6 -1 -1</clus>
<clus scale="   85.751">  2  5  1 -1</clus>
<clus scale="   92.799">  7  8 -1 -1</clus>
<clus scale="   45.785">  1  5  2 -1</clus>
</clustering>
</event>
<event>
 9    1  0.6345107E-005  0.1357986E+03  0.7546771E-02  0.1225927E+00
         21   -1    0    0  501  502  0.00000000000E+00  0.00000000000E+00  0.34473028388E+03  0.34473028388E+03  0.00000000000E+00 0. -1.
         -4   -1    0    0    0  501 -0.00000000000E+00 -0.00000000000E+00 -0.12129792563E+03  0.12129792563E+03  0.00000000000E+00 0.  1.
        -24    2    1    2    0    0 -0.16143640485E+02 -0.77678723036E+02 -0.51731109514E+02  0.12576021391E+03  0.82734047228E+02 0.  0.
         23    2    1    2    0    0  0.18539798808E+02  0.10363473846E+03  0.14904184470E+03  0.21148088399E+03  0.10689625655E+03 0.  0.
         13    1    3    3    0    0 -0.11320432564E+02 -0.43774013994E+02  0.17531309648E+02  0.48493951298E+02  0.00000000000E+00 0. -1.
        -14    1    3    3    0    0 -0.48232079209E+01 -0.33904709043E+02 -0.69262419162E+02  0.77266262612E+02  0.00000000000E+00 0.  1.
        -13    1    4    4    0    0  0.61867727039E+02  0.63005452142E+02  0.70416096566E+02  0.11294126484E+03  0.00000000000E+00 0. -1.
         13    1    4    4    0    0 -0.43327928231E+02  0.40629286317E+02  0.78625748136E+02  0.98539619146E+02  0.00000000000E+00 0.  1.
         -3    1    1    2    0  502 -0.23961583223E+01 -0.25956015422E+02  0.12612162306E+03  0.12878711160E+03  0.00000000000E+00 0.  1.
<scales pt_clust_5="13000.00000" pt_clust_6="13000.00000" pt_clust_7="13000.00000" pt_clust_8="13000.00000" pt_clust_9="26.06638"></scales>
<clustering>
<clus scale="   26.066">  1  9  2 -1</clus>
<clus scale="   82.734">  5  6 -1 -1</clus>
<clus scale="  106.896">  7  8 -1 -1</clus>
<clus scale="  117.726">  2  5  1 -1</clus>
<clus scale="   26.066">  1  5  2 -1</clus>
</clustering>
</event>
<event>
 9    1  0.6345107E-005  0.1194118E+03  0.7546771E-02  0.1247728E+00
         21   -1    0    0  501  502  0.00000000000E+00  0.00000000000E+00  0.34958004944E+03  0.34958004944E+03  0.00000000000E+00 0.  1.
         -4   -1    0    0    0  501 -0.00000000000E+00 -0.00000000000E+00 -0.25004433573E+03  0.25004433573E+03  0.00000000000E+00 0.  1.
         23    2    1    2    0    0 -0.53047253010E+02  0.47512364627E+02 -0.15349161584E+03  0.19144270126E+03  0.89549963085E+02 0.  0.
        -24    2    1    2    0    0  0.10572575035E+03 -0.33355291493E+02 -0.13466030972E+02  0.13616301176E+03  0.77900719007E+02 0.  0.
         11    1    4    4    0    0  0.57600918572E+02 -0.28408430866E+02  0.30219240593E+02  0.70979625715E+02  0.00000000000E+00 0. -1.
        -12    1    4    4    0    0  0.48124831781E+02 -0.49468606272E+01 -0.43685271565E+02  0.65183386041E+02  0.00000000000E+00 0.  1.
        -11    1    3    3    0    0 -0.65939685986E+02  0.64540531256E+02 -0.11518562445E+03  0.14758472293E+03  0.00000000000E+00 0.  1.
         11    1    3    3    0    0  0.12892432976E+02 -0.17028166629E+02 -0.38305991389E+02  0.43857978329E+02  0.00000000000E+00 0. -1.
         -3    1    1    2    0  502 -0.52678497343E+02 -0.14157073134E+02  0.26649336052E+03  0.27201867216E+03  0.00000000000E+00 0.  1.
<scales pt_clust_5="13000.00000" pt_clust_6="13000.00000" pt_clust_7="13000.00000" pt_clust_8="13000.00000" pt_clust_9="54.54766"></scales>
<clustering>
<clus scale="   54.548">  1  9  2 -1</clus>
<clus scale="   77.901">  5  6 -1 -1</clus>
<clus scale="   89.550">  7  8 -1 -1</clus>
<clus scale="  110.944">  1  5  2 -1</clus>
<clus scale="   54.548">  1  5  2 -1</clus>
</clustering>
</event>
<event>
 9    1  0.6345107E-005  0.1008081E+03  0.7546771E-02  0.1289847E+00
          1   -1    0    0  502    0 -0.00000000000E+00  0.00000000000E+00  0.29539456784E+03  0.29539456784E+03  0.00000000000E+00 0. -1.
         21   -1    0    0  501  502  0.00000000000E+00 -0.00000000000E+00 -0.76729079422E+02  0.76729079422E+02  0.00000000000E+00 0. -1.
        -24    2    1    2    0    0  0.14123136209E+02  0.34688884132E+01  0.16958602046E+03  0.18855512589E+03  0.81130271776E+02 0.  0.
         23    2    1    2    0    0  0.22800214812E+02  0.35367472367E+02  0.65984138518E+02  0.12737808930E+03  0.10050155820E+03 0.  0.
         13    1    3    3    0    0  0.37736488782E+02  0.26923367661E+02  0.12178072796E+03  0.13030524170E+03  0.00000000000E+00 0. -1.
        -14    1    3    3    0    0 -0.23613352573E+02 -0.23454479248E+02  0.47805292504E+02  0.58249884188E+02  0.00000000000E+00 0.  1.
        -11    1    4    4    0    0  0.81785732211E+01 -0.34794300705E+02  0.32352802538E+02  0.48210333472E+02  0.00000000000E+00 0.  1.
         11    1    4    4    0    0  0.14621641591E+02  0.70161773072E+02  0.33631335981E+02  0.79167755831E+02  0.00000000000E+00 0. -1.
          2    1    1    2  501    0 -0.36923351021E+02 -0.38836360781E+02 -0.16904670566E+02  0.56190432070E+02  0.00000000000E+00 0. -1.
<scales pt_clust_5="13000.00000" pt_clust_6="13000.00000" pt_clust_7="13000.00000" pt_clust_8="13000.00000" pt_clust_9="53.58728"></scales>
<clustering>
<clus scale="   53.587">  2  9  1 -1</clus>
<clus scale="   81.130">  5  6 -1 -1</clus>
<clus scale="   81.510">  1  5  2 -1</clus>
<clus scale="  100.502">  7  8 -1 -1</clus>
<clus scale="   53.587">  2  5  1 -1</clus>
</clustering>
</event>
<event>
 9    1  0.6345107E-005  0.1481721E+03  0.7546771E-02  0.1205068E+00
         21   -1    0    0  501  502  0.00000000000E+00  0.00000000000E+00  0.48802781606E+02  0.48802781606E+02  0.00000000000E+00 0.  1.
          3   -1    0    0  502    0 -0.00000000000E+00 -0.00000000000E+00 -0.73399307119E+03  0.73399307119E+03  0.00000000000E+00 0. -1.
        -24    2    1    2    0    0 -0.12908118372E+03  0.20646661940E+02 -0.40367888198E+03  0.43188364371E+03  0.80489783899E+02 0.  0.
         23    2    1    2    0    0  0.85794881165E+02  0.16443559103E+02 -0.10376123126E+03  0.16424535697E+03  0.92622847641E+02 0.  0.
         11    1    3    3    0    0 -0.11024633313E+03 -0.38912794860E+01 -0.37026755077E+03  0.38635146587E+03  0.00000000000E+00 0. -1.
        -12    1    3    3    0    0 -0.18834850590E+02  0.24537941426E+02 -0.33411331202E+02  0.45532177840E+02  0.00000000000E+00 0.  1.
        -11    1    4    4    0    0 -0.27659274106E+01  0.27233272648E+02 -0.57648172354E+02  0.63817029618E+02  0.00000000000E+00 0. -1.
         11    1    4    4    0    0  0.88560808575E+02 -0.10789713545E+02 -0.46113058906E+02  0.10042832736E+03  0.00000000000E+00 0.  1.
          4    1    1    2  501    0  0.43286302551E+02 -0.37090221043E+02 -0.17775017635E+03  0.18666685211E+03  0.00000000000E+00 0. -1.
<scales pt_clust_5="13000.00000" pt_clust_6="13000.00000" pt_clust_7="13000.00000" pt_clust_8="13000.00000" pt_clust_9="57.00344"></scales>
<clustering>
<clus scale="   57.003">  1  9  2 -1</clus>
<clus scale="   80.490">  5  6 -1 -1</clus>
<clus scale="   92.623">  7  8 -1 -1</clus>
<clus scale="  140.906">  2  5  1 -1</clus>
<clus scale="   57.003">  1  5  2 -1</clus>
</clustering>
</event>
<event>
 9    1  0.6345107E-005  0.1247282E+03  0.7546771E-02  0.1238602E+00
          1   -1    0    0  502    0 -0.00000000000E+00  0.00000000000E+00  0.20668407511E+03  0.20668407511E+03  0.00000000000E+00 0. -1.
         21   -1    0    0  501  502  0.00000000000E+00 -0.00000000000E+00 -0.12207702050E+03  0.12207702050E+03  0.00000000000E+00 0.  1.
        -24    2    1    2    0    0  0.38850663824E+01  0.11396936936E+03  0.75616279410E+02  0.15854255519E+03  0.80086260996E+02 0.  0.
         23    2    1    2    0    0 -0.24134497444E+01 -0.48161573058E+02 -0.45293718439E+01  0.10302013206E+03  0.90924532124E+02 0.  0.
         11    1    3    3    0    0  0.28891095225E+02  0.29095163923E+02 -0.17035965921E+01  0.41038106539E+02  0.00000000000E+00 0. -1.
        -12    1    3    3    0    0 -0.25006028842E+02  0.84874205441E+02  0.77319876002E+02  0.11750444865E+03  0.00000000000E+00 0.  1.
        -13    1    4    4    0    0  0.14808155620E+02 -0.70392904940E+02  0.77199432328E+01  0.72346665868E+02  0.00000000000E+00 0.  1.
         13    1    4    4    0    0 -0.17221605364E+02  0.22231331882E+02 -0.12249315077E+02  0.30673466195E+02  0.00000000000E+00 0. -1.
          2    1    1    2  501    0 -0.14716166380E+01 -0.65807796306E+02  0.13520147042E+02  0.67198408360E+02  0.00000000000E+00 0. -1.
<scales pt_clust_5="13000.00000" pt_clust_6="13000.00000" pt_clust_7="13000.00000" pt_clust_8="13000.00000" pt_clust_9="65.82425"></scales>
<clustering>
<clus scale="   65.824">  2  9  1 -1</clus>
<clus scale="   80.086">  5  6 -1 -1</clus>
<clus scale="   90.925">  7  8 -1 -1</clus>
<clus scale="  117.063">  1  5  2 -1</clus>
<clus scale="   65.824">  2  5  1 -1</clus>
</clustering>
</event>
<event>
 9    1  0.6345107E-005  0.1160035E+03  0.7546771E-02  0.1257724E+00
         21   -1    0    0  501  502  0.00000000000E+00  0.00000000000E+00  0.18862182602E+03  0.18862182602E+03  0.00000000000E+00 0.  1.
          1   -1    0    0  502    0 -0.00000000000E+00 -0.00000000000E+00 -0.12010042989E+03  0.12010042989E+03  0.00000000000E+00 0. -1.
         23    2    1    2    0    0 -0.36879183975E+02 -0.42932988583E+02 -0.31968438997E+02  0.11389361275E+03  0.93522501105E+02 0.  0.
        -24    2    1    2    0    0  0.55490266865E+02  0.74108938800E+02  0.38917906209E+02  0.12334847313E+03  0.71616603333E+02 0.  0.
         11    1    4    4    0    0  0.43123835889E+02  0.69727662085E+02 -0.30872212951E+00  0.81986019485E+02  0.00000000000E+00 0. -1.
        -12    1    4    4    0    0  0.12366430976E+02  0.43812767150E+01  0.39226628338E+02  0.41362453645E+02  0.00000000000E+00 0.  1.
        -11    1    3    3    0    0 -0.28359072300E+02 -0.62594536901E+01  0.29764435639E+02  0.41585326392E+02  0.00000000000E+00 0.  1.
         11    1    3    3    0    0 -0.85201116744E+01 -0.36673534893E+02 -0.61732874636E+02  0.72308286353E+02  0.00000000000E+00 0. -1.
          2    1    1    2  501    0 -0.18611082890E+02 -0.31175950217E+02  0.61571928917E+02  0.71480170039E+02  0.00000000000E+00 0. -1.
<scales pt_clust_5="13000.00000" pt_clust_6="13000.00000" pt_clust_7="13000.00000" pt_clust_8="13000.00000" pt_clust_9="36.30857"></scales>
<clustering>
<clus scale="   36.309">  1  9  2 -1</clus>
<clus scale="   71.617">  5  6 -1 -1</clus>
<clus scale="   93.523">  7  8 -1 -1</clus>
<clus scale="   99.193">  1  5  2 -1</clus>
<clus scale="   36.309">  1  5  2 -1</clus>
</clustering>
</event>
<event>
 9    1  0.6345107E-005  0.1385003E+03  0.7546771E-02  0.1238984E+00
         -2   -1    0    0    0  501 -0.00000000000E+00  0.00000000000E+00  0.23079008127E+03  0.23079008127E+03  0.00000000000E+00 0.  1.
         21   -1    0    0  501  502  0.00000000000E+00 -0.00000000000E+00 -0.26935182997E+03  0.26935182997E+03  0.00000000000E+00 0.  1.
        -24    2    1    2    0    0  0.25571094375E+02  0.91085740280E+01  0.10314200286E+00  0.84838110928E+02  0.80378152748E+02 0.  0.
         23    2    1    2    0    0  0.37483135324E+02  0.80058555592E+02 -0.18655777376E+03  0.23145898057E+03  0.10466660870E+03 0.  0.
         11    1    3    3    0    0  0.40475794520E+02 -0.22222292741E+02  0.12761060188E+02  0.47905791861E+02  0.00000000000E+00 0. -1.
        -12    1    3    3    0    0 -0.14904700145E+02  0.31330866769E+02 -0.12657918186E+02  0.36932319067E+02  0.00000000000E+00 0.  1.
        -11    1    4    4    0    0  0.64556511470E+02  0.31923486984E+02 -0.61328897411E+02  0.94593265363E+02  0.00000000000E+00 0. -1.
         11    1    4    4    0    0 -0.27073376145E+02  0.48135068608E+02 -0.12522887635E+03  0.13686571521E+03  0.00000000000E+00 0.  1.
         -1    1    1    2    0  502 -0.63054229700E+02 -0.89167129620E+02  0.14789288306E+03  0.18384481974E+03  0.00000000000E+00 0.  1.
<scales pt_clust_5="13000.00000" pt_clust_6="13000.00000" pt_clust_7="13000.00000" pt_clust_8="13000.00000" pt_clust_9="90.70413"></scales>
<clustering>
<clus scale="   80.378">  5  6 -1 -1</clus>
<clus scale="   84.838">  1  5  2 -1</clus>
<clus scale="   90.704">  2  9  1 -1</clus>
<clus scale="  104.667">  7  8 -1 -1</clus>
<clus scale="   90.704">  2  5  1 -1</clus>
</clustering>
</event>
<event>
 9    1  0.6345107E-005  0.1086318E+03  0.7546771E-02  0.1267053E+00
         21   -1    0    0  501  502  0.00000000000E+00  0.00000000000E+00  0.34286694740E+03  0.34286694740E+03  0.00000000000E+00 0.  1.
          1   -1    0    0  502    0 -0.00000000000E+00 -0.00000000000E+00 -0.62565390514E+02  0.62565390514E+02  0.00000000000E+00 0. -1.
         23    2    1    2    0    0 -0.83089844237E+02  0.32128255418E+02  0.91418631121E+02  0.15648689981E+03  0.90524232579E+02 0.  0.
        -24    2    1    2    0    0  0.30629316657E+02  0.14277913906E+02  0.13358938013E+03  0.15970970707E+03  0.80740660038E+02 0.  0.
         11    1    4    4    0    0  0.27031302858E+01  0.34639717234E+02  0.18134364390E+02  0.39192755647E+02  0.00000000000E+00 0. -1.
        -12    1    4    4    0    0  0.27926186372E+02 -0.20361803328E+02  0.11545501574E+03  0.12051695142E+03  0.00000000000E+00 0.  1.
        -13    1    3    3    0    0 -0.68330309837E+02  0.58321093262E+02  0.88786442766E+02  0.12630682318E+03  0.00000000000E+00 0.  1.
         13    1    3    3    0    0 -0.14759534400E+02 -0.26192837844E+02  0.26321883550E+01  0.30180076633E+02  0.00000000000E+00 0. -1.
          2    1    1    2  501    0  0.52460527580E+02 -0.46406169324E+02  0.55293545637E+02  0.89235731041E+02  0.00000000000E+00 0. -1.
<scales pt_clust_5="13000.00000" pt_clust_6="13000.00000" pt_clust_7="13000.00000" pt_clust_8="13000.00000" pt_clust_9="70.04031"></scales>
<clustering>
<clus scale="   70.040">  1  9  2 -1</clus>
<clus scale="   80.741">  5  6 -1 -1</clus>
<clus scale="   90.524">  7  8 -1 -1</clus>
<clus scale="  100.624">  1  5  2 -1</clus>
<clus scale="   70.040">  1  5  2 -1</clus>
</clustering>
</event>
<event>
 9    1  0.6345107E-005  0.2412666E+03  0.7546771E-02  0.1161124E+00
          3   -1    0    0  502    0 -0.00000000000E+00  0.00000000000E+00  0.52003167735E+02  0.52003167735E+02  0.00000000000E+00 0. -1.
         21   -1    0    0  501  502  0.00000000000E+00 -0.00000000000E+00 -0.15968825410E+04  0.15968825410E+04  0.00000000000E+00 0. -1.
        -24    2    1    2    0    0  0.12279161172E+02  0.38685132308E+02 -0.13312268565E+03  0.15914808303E+03  0.77195502689E+02 0.  0.
         23    2    1    2    0    0  0.16502681838E+03  0.13191161395E+03 -0.74951676544E+03  0.78326584655E+03  0.84234672293E+02 0.  0.
         13    1    3    3    0    0  0.26721550440E+02  0.36253742706E+02 -0.28047043393E+02  0.53056684416E+02  0.00000000000E+00 0. -1.
        -14    1    3    3    0    0 -0.14442389269E+02  0.24313896023E+01 -0.10507564226E+03  0.10609139861E+03  0.00000000000E+00 0.  1.
        -13    1    4    4    0    0  0.12144317116E+03  0.13648620664E+03 -0.63059972623E+03  0.65653099176E+03  0.00000000000E+00 0. -1.
         13    1    4    4    0    0  0.43583647225E+02 -0.45745926866E+01 -0.11891703920E+03  0.12673485478E+03  0.00000000000E+00 0.  1.
          4    1    1    2  501    0 -0.17730597956E+03 -0.17059674626E+03 -0.66223992214E+03  0.70647177913E+03  0.00000000000E+00 0. -1.
<scales pt_clust_5="13000.00000" pt_clust_6="13000.00000" pt_clust_7="13000.00000" pt_clust_8="13000.00000" pt_clust_9="226.08438"></scales>
<clustering>
<clus scale="   77.196">  5  6 -1 -1</clus>
<clus scale="   84.235">  7  8 -1 -1</clus>
<clus scale="   87.215">  1  5  2 -1</clus>
<clus scale="  226.084">  2  9  1 -1</clus>
<clus scale="  226.084">  2  5  1 -1</clus>
</clustering>
</event>
<event>
 9    1  0.6345107E-005  0.1483550E+03  0.7546771E-02  0.1205142E+00
          3   -1    0    0  502    0 -0.00000000000E+00  0.00000000000E+00  0.44361353090E+02  0.44361353090E+02  0.00000000000E+00 0. -1.
         21   -1    0    0  501  502  0.00000000000E+00 -0.00000000000E+00 -0.72512226424E+03  0.72512226424E+03  0.00000000000E+00 0.  1.
         23    2    1    2    0    0  0.99537244875E+02 -0.55722497015E+02 -0.14404821688E+03  0.20540727532E+03  0.91812854097E+02 0.  0.
        -24    2    1    2    0    0 -0.11900729962E+03  0.37999100622E+02 -0.45751418322E+03  0.48061613614E+03  0.77884359518E+02 0.  0.
         13    1    4    4    0    0 -0.16709206076E+02 -0.11709147451E+02 -0.20039947841E+02  0.28598972205E+02  0.00000000000E+00 0. -1.
        -14    1    4    4    0    0 -0.10229809354E+03  0.49708248072E+02 -0.43747423538E+03  0.45201716393E+03  0.00000000000E+00 0.  1.
        -13    1    3    3    0    0  0.78269590915E+02 -0.73250501331E+01 -0.12790789754E+03  0.15013399174E+03  0.00000000000E+00 0.  1.
         13    1    3    3    0    0  0.21267653960E+02 -0.48397446882E+02 -0.16140319337E+02  0.55273283582E+02  0.00000000000E+00 0. -1.
          4    1    1    2  501    0  0.19470054743E+02  0.17723396394E+02 -0.79198511047E+02  0.83460205867E+02  0.00000000000E+00 0. -1.
<scales pt_clust_5="13000.00000" pt_clust_6="13000.00000" pt_clust_7="13000.00000" pt_clust_8="13000.00000" pt_clust_9="26.32873"></scales>
<clustering>
<clus scale="   26.329">  2  9  1 -1</clus>
<clus scale="   77.884">  5  6 -1 -1</clus>
<clus scale="   91.813">  7  8 -1 -1</clus>
<clus scale="  140.163">  2  5  1 -1</clus>
<clus scale="   26.329">  2  5  1 -1</clus>
</clustering>
</event>
<event>
 9    1  0.6345107E-005  0.2071898E+03  0.7546771E-02  0.1144395E+00
         21   -1    0    0  501  502  0.00000000000E+00  0.00000000000E+00  0.11523659225E+03  0.11523659225E+03  0.00000000000E+00 0. -1.
          3   -1    0    0  502    0 -0.00000000000E+00 -0.00000000000E+00 -0.95592971624E+03  0.95592971624E+03  0.00000000000E+00 0. -1.
         23    2    1    2    0    0  0.18887633275E+03  0.37212504499E+01 -0.82921543319E+03  0.85502269131E+03  0.88189859100E+02 0.  0.
        -24    2    1    2    0    0 -0.17722821137E+03  0.12671951575E+02 -0.66778005613E+01  0.19546863832E+03  0.81197156868E+02 0.  0.
         13    1    4    4    0    0 -0.18152819614E+03 -0.36260543421E+00 -0.46006512579E+01  0.18158684828E+03  0.00000000000E+00 0. -1.
        -14    1    4    4    0    0  0.42999847689E+01  0.13034557009E+02 -0.20771493034E+01  0.13881790038E+02  0.00000000000E+00 0.  1.
        -11    1    3    3    0    0  0.40430828867E+02 -0.90201642041E+01 -0.70106516521E+02  0.81430577451E+02  0.00000000000E+00 0.  1.
         11    1    3    3    0    0  0.14844550388E+03  0.12741414654E+02 -0.75910891667E+03  0.77359211386E+03  0.00000000000E+00 0. -1.
          4    1    1    2  501    0 -0.11648121381E+02 -0.16393202025E+02 -0.47998902495E+01  0.20674978857E+02  0.00000000000E+00 0. -1.
<scales pt_clust_5="13000.00000" pt_clust_6="13000.00000" pt_clust_7="13000.00000" pt_clust_8="13000.00000" pt_clust_9="20.11009"></scales>
<clustering>
<clus scale="   20.110">  1  9  2 -1</clus>
<clus scale="   81.197">  5  6 -1 -1</clus>
<clus scale="   88.190">  7  8 -1 -1</clus>
<clus scale="  204.311">  1  5  2 -1</clus>
<clus scale="   20.110">  1  5  2 -1</clus>
</clustering>
</event>
<event>
 9    1  0.6345107E-005  0.1385494E+03  0.7546771E-02  0.1216589E+00
          1   -1    0    0  502    0 -0.00000000000E+00  0.00000000000E+00  0.29156829707E+03  0.29156829707E+03  0.00000000000E+00 0. -1.
         21   -1    0    0  501  502  0.00000000000E+00 -0.00000000000E+00 -0.13639303170E+03  0.13639303170E+03  0.00000000000E+00 0. -1.
         23    2    1    2    0    0  0.91018091665E+02  0.62662272993E+02  0.22062964287E+03  0.26300713288E+03  0.91019004428E+02 0.  0.
        -24    2    1    2    0    0 -0.61708352692E+02 -0.53471726435E+02 -0.38652302758E+02  0.12418805607E+03  0.85214590553E+02 0.  0.
         11    1    4    4    0    0 -0.10548462236E+02 -0.62817948497E+02 -0.33383117517E+02  0.71915208712E+02  0.00000000000E+00 0. -1.
        -12    1    4    4    0    0 -0.51159890456E+02  0.93462220616E+01 -0.52691852401E+01  0.52272847362E+02  0.00000000000E+00 0.  1.
        -11    1    3    3    0    0  0.30641873486E+02 -0.14161289700E+02  0.11163797907E+03  0.11662977710E+03  0.00000000000E+00 0.  1.
         11    1    3    3    0    0  0.60376218180E+02  0.76823562693E+02  0.10899166380E+03  0.14637735578E+03  0.00000000000E+00 0. -1.
          2    1    1    2  501    0 -0.29309738974E+02 -0.91905465580E+01 -0.26802074746E+02  0.40766139816E+02  0.00000000000E+00 0. -1.
<scales pt_clust_5="13000.00000" pt_clust_6="13000.00000" pt_clust_7="13000.00000" pt_clust_8="13000.00000" pt_clust_9="30.71688"></scales>
<clustering>
<clus scale="   30.717">  2  9  1 -1</clus>
<clus scale="   85.215">  5  6 -1 -1</clus>
<clus scale="   91.019">  7  8 -1 -1</clus>
<clus scale="  134.807">  2  5  1 -1</clus>
<clus scale="   30.717">  2  5  1 -1</clus>
</clustering>
</event>
<event>
 9    1  0.6345107E-005  0.1120849E+03  0.7546771E-02  0.1261032E+00
          1   -1    0    0  502    0 -0.00000000000E+00  0.00000000000E+00  0.36445956990E+03  0.36445956990E+03  0.00000000000E+00 0. -1.
         21   -1    0    0  501  502  0.00000000000E+00 -0.00000000000E+00 -0.19041188148E+03  0.19041188148E+03  0.00000000000E+00 0. -1.
        -24    2    1    2    0    0  0.26242150757E+02  0.63394369679E+02  0.32732965116E+03  0.34365273464E+03  0.79025343495E+02 0.  0.
         23    2    1    2    0    0 -0.20057535609E+02 -0.32780651145E+02 -0.65761820629E+02  0.11829280808E+03  0.90507986202E+02 0.  0.
         11    1    3    3    0    0  0.42048876049E+02  0.73198213988E+02  0.28852365796E+03  0.30061934022E+03  0.00000000000E+00 0. -1.
        -12    1    3    3    0    0 -0.15806725292E+02 -0.98038443086E+01  0.38805993196E+02  0.43033394424E+02  0.00000000000E+00 0.  1.
        -11    1    4    4    0    0 -0.43705885485E+02 -0.69082157369E+01 -0.70178827029E+02  0.82963821235E+02  0.00000000000E+00 0.  1.
         11    1    4    4    0    0  0.23648349876E+02 -0.25872435408E+02  0.44170063997E+01  0.35328986843E+02  0.00000000000E+00 0. -1.
          2    1    1    2  501    0 -0.61846151474E+01 -0.30613718534E+02 -0.87520142109E+02  0.92925908668E+02  0.00000000000E+00 0. -1.
<scales pt_clust_5="13000.00000" pt_clust_6="13000.00000" pt_clust_7="13000.00000" pt_clust_8="13000.00000" pt_clust_9="31.23218"></scales>
<clustering>
<clus scale="   31.232">  2  9  1 -1</clus>
<clus scale="   79.025">  5  6 -1 -1</clus>
<clus scale="   90.508">  7  8 -1 -1</clus>
<clus scale="  103.036">  1  5  2 -1</clus>
<clus scale="   31.232">  2  5  1 -1</clus>
</clustering>
</event>
<event>
 9    1  0.6345107E-005  0.1760054E+03  0.7546771E-02  0.1173847E+00
         21   -1    0    0  501  502  0.00000000000E+00  0.00000000000E+00  0.40203944656E+03  0.40203944656E+03  0.00000000000E+00 0.  1.
         -4   -1    0    0    0  501 -0.00000000000E+00 -0.00000000000E+00 -0.36185398001E+03  0.36185398001E+03  0.00000000000E+00 0.  1.
        -24    2    1    2    0    0 -0.88601982188E+00 -0.15368608757E+03 -0.31069413254E+03  0.35567917444E+03  0.79728492954E+02 0.  0.
         23    2    1    2    0    0 -0.23775679590E+02  0.91912681457E+02  0.18111654275E+03  0.22588584397E+03  0.95958264345E+02 0.  0.
         13    1    3    3    0    0 -0.29392647220E+02 -0.11100083293E+03 -0.16350931299E+03  0.19980092106E+03  0.00000000000E+00 0. -1.
        -14    1    3    3    0    0  0.28506627399E+02 -0.42685254640E+02 -0.14718481956E+03  0.15587825338E+03  0.00000000000E+00 0.  1.
        -11    1    4    4    0    0 -0.50508057770E+02  0.90276315988E+02  0.16464096073E+03  0.19444156726E+03  0.00000000000E+00 0. -1.
         11    1    4    4    0    0  0.26732378180E+02  0.16363654693E+01  0.16475582025E+02  0.31444276716E+02  0.00000000000E+00 0.  1.
         -3    1    1    2    0  502  0.24661699412E+02  0.61773406114E+02  0.16976305634E+03  0.18232840815E+03  0.00000000000E+00 0.  1.
<scales pt_clust_5="13000.00000" pt_clust_6="13000.00000" pt_clust_7="13000.00000" pt_clust_8="13000.00000" pt_clust_9="66.51431"></scales>
<clustering>
<clus scale="   66.514">  1  9  2 -1</clus>
<clus scale="   79.728">  5  6 -1 -1</clus>
<clus scale="   95.958">  7  8 -1 -1</clus>
<clus scale="  167.710">  2  5  1 -1</clus>
<clus scale="   66.514">  1  5  2 -1</clus>
</clustering>
</event>
<event>
 9    1  0.6345107E-005  0.1259410E+03  0.7546771E-02  0.1243725E+00
          1   -1    0    0  502    0 -0.00000000000E+00  0.00000000000E+00  0.37615851709E+03  0.37615851709E+03  0.00000000000E+00 0. -1.
         21   -1    0    0  501  502  0.00000000000E+00 -0.00000000000E+00 -0.78788299498E+02  0.78788299498E+02  0.00000000000E+00 0. -1.
         23    2    1    2    0    0  0.19266149240E+01  0.36087946232E+02  0.40515020402E+02  0.11021493482E+03  0.95915657072E+02 0.  0.
        -24    2    1    2    0    0  0.10392047376E+01  0.81648157484E+02  0.14101323579E+03  0.17953519225E+03  0.75370093689E+02 0.  0.
         13    1    4    4    0    0 -0.36398987806E+02  0.48640540258E+02  0.85470553043E+02  0.10486183246E+03  0.00000000000E+00 0. -1.
        -14    1    4    4    0    0  0.37438192543E+02  0.33007617226E+02  0.55542682745E+02  0.74673359791E+02  0.00000000000E+00 0.  1.
        -13    1    3    3    0    0  0.34716412475E+02  0.44676125545E+02  0.49469843704E+02  0.75156176891E+02  0.00000000000E+00 0. -1.
         13    1    3    3    0    0 -0.32789797551E+02 -0.85881793126E+01 -0.89548233026E+01  0.35058757931E+02  0.00000000000E+00 0.  1.
          2    1    1    2  501    0 -0.29658196616E+01 -0.11773610372E+03  0.11584196141E+03  0.16519668952E+03  0.00000000000E+00 0. -1.
<scales pt_clust_5="13000.00000" pt_clust_6="13000.00000" pt_clust_7="13000.00000" pt_clust_8="13000.00000" pt_clust_9="100.89838"></scales>
<clustering>
<clus scale="   75.370">  5  6 -1 -1</clus>
<clus scale="   95.916">  7  8 -1 -1</clus>
<clus scale="  102.498">  1  7  2 -1</clus>
<clus scale="  100.898">  2  9  1 -1</clus>
<clus scale="  100.898">  2  5  1 -1</clus>
</clustering>
</event>
<event>
 9    1  0.6345107E-005  0.1268109E+03  0.7546771E-02  0.1236705E+00
          1   -1    0    0  502    0 -0.00000000000E+00  0.00000000000E+00  0.10563216478E+04  0.10563216478E+04  0.00000000000E+00 0. -1.
         21   -1    0    0  501  502  0.00000000000E+00 -0.00000000000E+00 -0.62605057263E+02  0.62605057263E+02  0.00000000000E+00 0.  1.
        -24    2    1    2    0    0 -0.75111736747E+02  0.38946433535E+02  0.41470066173E+03  0.43016096132E+03  0.76832389785E+02 0.  0.
         23    2    1    2    0    0  0.30738743387E+02 -0.13673791343E+03  0.95023638843E+02  0.19300302548E+03  0.92620454494E+02 0.  0.
         13    1    3    3    0    0 -0.68518152545E+02 -0.23595810415E+01  0.30835632633E+03  0.31588594277E+03  0.00000000000E+00 0. -1.
        -14    1    3    3    0    0 -0.65935842029E+01  0.41306014576E+02  0.10634433540E+03  0.11427501855E+03  0.00000000000E+00 0.  1.
        -11    1    4    4    0    0  0.57760783265E+02 -0.87934681751E+02  0.34567044146E+02  0.11074157701E+03  0.00000000000E+00 0.  1.
         11    1    4    4    0    0 -0.27022039878E+02 -0.48803231678E+02  0.60456594697E+02  0.82261448466E+02  0.00000000000E+00 0. -1.
          2    1    1    2  501    0  0.44372993361E+02  0.97791479895E+02  0.48399228997E+03  0.49576271827E+03  0.00000000000E+00 0. -1.
<scales pt_clust_5="13000.00000" pt_clust_6="13000.00000" pt_clust_7="13000.00000" pt_clust_8="13000.00000" pt_clust_9="107.38784"></scales>
<clustering>
<clus scale="   76.832">  5  6 -1 -1</clus>
<clus scale="   92.620">  7  8 -1 -1</clus>
<clus scale="  107.388">  2  9  1 -1</clus>
<clus scale="  115.783">  1  5  2 -1</clus>
<clus scale="  107.388">  2  5  1 -1</clus>
</clustering>
</event>
<event>
 9    1  0.6345107E-005  0.1825242E+03  0.7546771E-02  0.1184502E+00
          1   -1    0    0  502    0 -0.00000000000E+00  0.00000000000E+00  0.10292900194E+04  0.10292900194E+04  0.00000000000E+00 0. -1.
         21   -1    0    0  501  502  0.00000000000E+00 -0.00000000000E+00 -0.99176709916E+02  0.99176709916E+02  0.00000000000E+00 0. -1.
        -24    2    1    2    0    0  0.72110204680E+02 -0.48765061351E+02  0.74532573603E+02  0.13982559539E+03  0.80113542996E+02 0.  0.
         23    2    1    2    0    0 -0.61968154148E+02 -0.14135068279E+03  0.92643997591E+02  0.20230830109E+03  0.92334558787E+02 0.  0.
         13    1    3    3    0    0  0.81870903260E+02 -0.59055224431E+02  0.52927420194E+02  0.11398103413E+03  0.00000000000E+00 0. -1.
        -14    1    3    3    0    0 -0.97606985803E+01  0.10290163079E+02  0.21605153409E+02  0.25844561262E+02  0.00000000000E+00 0.  1.
        -13    1    4    4    0    0 -0.31200791986E+02 -0.10678906489E+02 -0.86988504222E+01  0.34105695463E+02  0.00000000000E+00 0.  1.
         13    1    4    4    0    0 -0.30767362162E+02 -0.13067177630E+03  0.10134284801E+03  0.16820260563E+03  0.00000000000E+00 0. -1.
          2    1    1    2  501    0 -0.10142050532E+02  0.19011574414E+03  0.76293673832E+03  0.78633283286E+03  0.00000000000E+00 0. -1.
<scales pt_clust_5="13000.00000" pt_clust_6="13000.00000" pt_clust_7="13000.00000" pt_clust_8="13000.00000" pt_clust_9="157.44657"></scales>
<clustering>
<clus scale="   80.114">  5  6 -1 -1</clus>
<clus scale="   92.335">  7  8 -1 -1</clus>
<clus scale="  118.305">  1  5  2 -1</clus>
<clus scale="  157.447">  2  9  1 -1</clus>
<clus scale="  157.447">  2  5  1 -1</clus>
</clustering>
</event>
<event>
 9    1  0.6345107E-005  0.9089826E+02  0.7546771E-02  0.1306893E+00
         21   -1    0    0  501  502  0.00000000000E+00  0.00000000000E+00  0.84340856692E+02  0.84340856692E+02  0.00000000000E+00 0.  1.
          1   -1    0    0  502    0 -0.00000000000E+00 -0.00000000000E+00 -0.22194679166E+03  0.22194679166E+03  0.00000000000E+00 0. -1.
         23    2    1    2    0    0 -0.12624562949E+02  0.52751186916E+01 -0.16383484626E+03  0.18721978918E+03  0.89566657557E+02 0.  0.
        -24    2    1    2    0    0  0.13115387540E+02 -0.28953804600E+02  0.36577167201E+02  0.93222018587E+02  0.79637424606E+02 0.  0.
         11    1    4    4    0    0  0.44488149293E+02 -0.35320662506E+01  0.13089396380E+02  0.46508098404E+02  0.00000000000E+00 0. -1.
        -12    1    4    4    0    0 -0.31372761753E+02 -0.25421738350E+02  0.23487770820E+02  0.46713920183E+02  0.00000000000E+00 0.  1.
        -13    1    3    3    0    0 -0.18946742694E+02  0.25908797302E+02 -0.16245467139E+03  0.16559518439E+03  0.00000000000E+00 0. -1.
         13    1    3    3    0    0  0.63221797455E+01 -0.20633678610E+02 -0.13801748665E+01  0.21624604791E+02  0.00000000000E+00 0.  1.
          2    1    1    2  501    0 -0.49082459078E+00  0.23678685909E+02 -0.10348255911E+02  0.25845840585E+02  0.00000000000E+00 0. -1.
<scales pt_clust_5="13000.00000" pt_clust_6="13000.00000" pt_clust_7="13000.00000" pt_clust_8="13000.00000" pt_clust_9="23.68377"></scales>
<clustering>
<clus scale="   23.684">  1  9  2 -1</clus>
<clus scale="   79.637">  5  6 -1 -1</clus>
<clus scale="   81.132">  1  5  2 -1</clus>
<clus scale="   89.567">  7  8 -1 -1</clus>
<clus scale="   23.684">  1  5  2 -1</clus>
</clustering>
</event>
<event>
 9    1  0.6345107E-005  0.2609099E+03  0.7546771E-02  0.1107277E+00
          1   -1    0    0  502    0 -0.00000000000E+00  0.00000000000E+00  0.54432126850E+03  0.54432126850E+03  0.00000000000E+00 0. -1.
         21   -1    0    0  501  502  0.00000000000E+00 -0.00000000000E+00 -0.19216299274E+03  0.19216299274E+03  0.00000000000E+00 0.  1.
        -24    2    1    2    0    0 -0.33396517179E+02 -0.22197337844E+03  0.95969163334E+02  0.25689164367E+03  0.79973296665E+02 0.  0.
         23    2    1    2    0    0  0.86770834321E+02  0.25674292177E+03  0.88176940754E+02  0.29991003995E+03  0.93406389589E+02 0.  0.
         13    1    3    3    0    0 -0.35084955871E+02 -0.30187532324E+02  0.14393082444E+02  0.48470630886E+02  0.00000000000E+00 0. -1.
        -14    1    3    3    0    0  0.16884386913E+01 -0.19178584611E+03  0.81576080890E+02  0.20842101278E+03  0.00000000000E+00 0.  1.
        -13    1    4    4    0    0  0.70540334746E+02  0.90706729534E+02  0.63445596118E+02  0.13125925977E+03  0.00000000000E+00 0. -1.
         13    1    4    4    0    0  0.16230499575E+02  0.16603619223E+03  0.24731344637E+02  0.16865078018E+03  0.00000000000E+00 0.  1.
          2    1    1    2  501    0 -0.53374317142E+02 -0.34769543330E+02  0.16801217167E+03  0.17968257762E+03  0.00000000000E+00 0. -1.
<scales pt_clust_5="13000.00000" pt_clust_6="13000.00000" pt_clust_7="13000.00000" pt_clust_8="13000.00000" pt_clust_9="63.70042"></scales>
<clustering>
<clus scale="   63.700">  2  9  1 -1</clus>
<clus scale="   79.973">  5  6 -1 -1</clus>
<clus scale="   93.406">  7  8 -1 -1</clus>
<clus scale="  256.408">  1  5  2 -1</clus>
<clus scale="   63.700">  2  5  1 -1</clus>
</clustering>
</event>
<event>
 9    1  0.6345107E-005  0.1416502E+03  0.7546771E-02  0.1213117E+00
          1   -1    0    0  502    0 -0.00000000000E+00  0.00000000000E+00  0.13451823774E+04  0.13451823774E+04  0.00000000000E+00 0. -1.
         21   -1    0    0  501  502  0.00000000000E+00 -0.00000000000E+00 -0.24399315174E+02  0.24399315174E+02  0.00000000000E+00 0. -1.
        -24    2    1    2    0    0  0.44026854990E+02  0.11503865186E+03  0.72333853235E+03  0.74067662638E+03  0.10104937951E+03 0.  0.
         23    2    1    2    0    0 -0.52475420977E+02 -0.47588166115E+02  0.26410236171E+03  0.28870226289E+03  0.92631721237E+02 0.  0.
         13    1    3    3    0    0  0.24891906839E+02 -0.13620336122E+02  0.16186037571E+03  0.16432863964E+03  0.00000000000E+00 0. -1.
        -14    1    3    3    0    0  0.19134948150E+02  0.12865898798E+03  0.56147815664E+03  0.57634798673E+03  0.00000000000E+00 0.  1.
        -11    1    4    4    0    0  0.10952645283E+01 -0.47981169816E+02  0.19739741509E+03  0.20314805376E+03  0.00000000000E+00 0.  1.
         11    1    4    4    0    0 -0.53570685506E+02  0.39300370079E+00  0.66704946613E+02  0.85554209131E+02  0.00000000000E+00 0. -1.
          2    1    1    2  501    0  0.84485659879E+01 -0.67450485745E+02  0.33334216812E+03  0.34020280325E+03  0.00000000000E+00 0. -1.
<scales pt_clust_5="13000.00000" pt_clust_6="13000.00000" pt_clust_7="13000.00000" pt_clust_8="13000.00000" pt_clust_9="67.97758"></scales>
<clustering>
<clus scale="   67.978">  2  9  1 -1</clus>
<clus scale="   92.632">  7  8 -1 -1</clus>
<clus scale="  101.049">  5  6 -1 -1</clus>
<clus scale="  135.773">  2  7  1 -1</clus>
<clus scale="   67.978">  2  5  1 -1</clus>
</clustering>
</event>
<event>
 9    1  0.6345107E-005  0.2180929E+03  0.7546771E-02  0.1136258E+00
         21   -1    0    0  501  502  0.00000000000E+00  0.00000000000E+00  0.38957913338E+03  0.38957913338E+03  0.00000000000E+00 0.  1.
         -4   -1    0    0    0  501 -0.00000000000E+00 -0.00000000000E+00 -0.49011893801E+03  0.49011893801E+03  0.00000000000E+00 0.  1.
        -24    2    1    2    0    0 -0.21389029755E+03 -0.70522602224E+02 -0.36068212729E+03  0.43223388919E+03  0.77537353618E+02 0.  0.
         23    2    1    2    0    0  0.13334942133E+03  0.40671005012E+02 -0.76236702513E+01  0.16625860339E+03  0.90264079425E+02 0.  0.
         13    1    3    3    0    0 -0.57419214578E+02 -0.14432508739E+02 -0.41301905169E+02  0.72188024505E+02  0.00000000000E+00 0. -1.
        -14    1    3    3    0    0 -0.15647108297E+03 -0.56090093485E+02 -0.31938022213E+03  0.36004586469E+03  0.00000000000E+00 0.  1.
        -11    1    4    4    0    0  0.44797903635E+02 -0.28386744622E+02  0.49306789328E+01  0.53263224039E+02  0.00000000000E+00 0. -1.
         11    1    4    4    0    0  0.88551517697E+02  0.69057749634E+02 -0.12554349184E+02  0.11299537935E+03  0.00000000000E+00 0.  1.
         -3    1    1    2    0  502  0.80540876213E+02  0.29851597212E+02  0.26776599291E+03  0.28120557881E+03  0.00000000000E+00 0.  1.
<scales pt_clust_5="13000.00000" pt_clust_6="13000.00000" pt_clust_7="13000.00000" pt_clust_8="13000.00000" pt_clust_9="85.89500"></scales>
<clustering>
<clus scale="   77.537">  5  6 -1 -1</clus>
<clus scale="   85.895">  1  9  2 -1</clus>
<clus scale="   90.264">  7  8 -1 -1</clus>
<clus scale="  213.141">  2  5  1 -1</clus>
<clus scale="   85.895">  1  5  2 -1</clus>
</clustering>
</event>
<event>
 9    1  0.6345107E-005  0.1875760E+03  0.7546771E-02  0.1185584E+00
         21   -1    0    0  501  502  0.00000000000E+00  0.00000000000E+00  0.19788159462E+03  0.19788159462E+03  0.00000000000E+00 0.  1.
          1   -1    0    0  502    0 -0.00000000000E+00 -0.00000000000E+00 -0.28408313896E+03  0.28408313896E+03  0.00000000000E+00 0. -1.
        -24    2    1    2    0    0 -0.28479677777E+02  0.67464661726E+02  0.41666414064E+00  0.10640616333E+03  0.77197962135E+02 0.  0.
         23    2    1    2    0    0 -0.14640450321E+03  0.19794646658E+02 -0.63026709391E+02  0.17869510871E+03  0.78316468169E+02 0.  0.
         11    1    3    3    0    0  0.56732845848E+01  0.30464310031E+02 -0.33547104069E+02  0.45669120148E+02  0.00000000000E+00 0. -1.
        -12    1    3    3    0    0 -0.34152962362E+02  0.37000351695E+02  0.33963768210E+02  0.60737043184E+02  0.00000000000E+00 0.  1.
        -13    1    4    4    0    0 -0.20751032152E+02  0.31878008119E+02 -0.29358275115E+02  0.48049152487E+02  0.00000000000E+00 0. -1.
         13    1    4    4    0    0 -0.12565347105E+03 -0.12083361460E+02 -0.33668434276E+02  0.13064595623E+03  0.00000000000E+00 0.  1.
          2    1    1    2  501    0  0.17488418098E+03 -0.87259308384E+02 -0.23591499096E+02  0.19686346153E+03  0.00000000000E+00 0. -1.
<scales pt_clust_5="13000.00000" pt_clust_6="13000.00000" pt_clust_7="13000.00000" pt_clust_8="13000.00000" pt_clust_9="170.44441"></scales>
<clustering>
<clus scale="   77.198">  5  6 -1 -1</clus>
<clus scale="   78.316">  7  8 -1 -1</clus>
<clus scale="  106.405">  2  5  1 -1</clus>
<clus scale="  170.444">  1  9  2 -1</clus>
<clus scale="  170.444">  1  5  2 -1</clus>
</clustering>
</event>
<event>
 9    1  0.6345107E-005  0.1814577E+03  0.7546771E-02  0.1201494E+00
         21   -1    0    0  501  502  0.00000000000E+00  0.00000000000E+00  0.10699342250E+03  0.10699342250E+03  0.00000000000E+00 0. -1.
          3   -1    0    0  502    0 -0.00000000000E+00 -0.00000000000E+00 -0.78379795243E+03  0.78379795243E+03  0.00000000000E+00 0. -1.
        -24    2    1    2    0    0 -0.20057640341E+02 -0.21048617538E+01 -0.19031190550E+03  0.20757412993E+03  0.80384442909E+02 0.  0.
         23    2    1    2    0    0 -0.10209801840E+03  0.10505575448E+03 -0.49434088287E+03  0.52327198426E+03  0.89330533005E+02 0.  0.
         11    1    3    3    0    0 -0.23175026914E+02  0.15982447579E+02 -0.16165029760E+02  0.32462727708E+02  0.00000000000E+00 0. -1.
        -12    1    3    3    0    0  0.31173865731E+01 -0.18087309332E+02 -0.17414687574E+03  0.17511140222E+03  0.00000000000E+00 0.  1.
        -11    1    4    4    0    0 -0.22169293189E+02  0.66053872212E+02 -0.12235905367E+03  0.14080599990E+03  0.00000000000E+00 0.  1.
         11    1    4    4    0    0 -0.79928725208E+02  0.39001882269E+02 -0.37198182920E+03  0.38246598436E+03  0.00000000000E+00 0. -1.
          4    1    1    2  501    0  0.12215565874E+03 -0.10295089273E+03  0.78482584404E+01  0.15994526075E+03  0.00000000000E+00 0. -1.
<scales pt_clust_5="13000.00000" pt_clust_6="13000.00000" pt_clust_7="13000.00000" pt_clust_8="13000.00000" pt_clust_9="157.94599"></scales>
<clustering>
<clus scale="   80.384">  5  6 -1 -1</clus>
<clus scale="   82.876">  2  5  1 -1</clus>
<clus scale="   89.331">  7  8 -1 -1</clus>
<clus scale="  157.946">  1  9  2 -1</clus>
<clus scale="  157.946">  1  5  2 -1</clus>
</clustering>
</event>
<event>
 9    1  0.6345107E-005  0.2153237E+03  0.7546771E-02  0.1160949E+00
         -4   -1    0    0    0  501 -0.00000000000E+00  0.00000000000E+00  0.84636232074E+03  0.84636232074E+03  0.00000000000E+00 0.  1.
         21   -1    0    0  501  502  0.00000000000E+00 -0.00000000000E+00 -0.47261650319E+03  0.47261650319E+03  0.00000000000E+00 0.  1.
         23    2    1    2    0    0 -0.68615657732E+02 -0.47070987155E+02  0.20441233725E+02  0.12487330311E+03  0.90838931493E+02 0.  0.
        -24    2    1    2    0    0  0.16212257440E+03 -0.13072069015E+03  0.73219742714E+03  0.76525448528E+03  0.78292572827E+02 0.  0.
         13    1    4    4    0    0  0.86244634705E+02 -0.29587923285E+02  0.38803017144E+03  0.39859879097E+03  0.00000000000E+00 0. -1.
        -14    1    4    4    0    0  0.75877939693E+02 -0.10113276686E+03  0.34416725570E+03  0.36665569430E+03  0.00000000000E+00 0.  1.
        -11    1    3    3    0    0 -0.90285408067E+01  0.24046401008E+02  0.19226649590E+02  0.32084388805E+02  0.00000000000E+00 0.  1.
         11    1    3    3    0    0 -0.59587116925E+02 -0.71117388163E+02  0.12145841340E+01  0.92788914301E+02  0.00000000000E+00 0. -1.
         -3    1    1    2    0  502 -0.93506916666E+02  0.17779167730E+03 -0.37889284331E+03  0.42885103555E+03  0.00000000000E+00 0.  1.
<scales pt_clust_5="13000.00000" pt_clust_6="13000.00000" pt_clust_7="13000.00000" pt_clust_8="13000.00000" pt_clust_9="200.58552"></scales>
<clustering>
<clus scale="   78.293">  5  6 -1 -1</clus>
<clus scale="   90.839">  7  8 -1 -1</clus>
<clus scale="  123.189">  1  7  2 -1</clus>
<clus scale="  200.586">  2  9  1 -1</clus>
<clus scale="  200.586">  2  5  1 -1</clus>
</clustering>
</event>
<event>
 9    1  0.6345107E-005  0.1972228E+03  0.7546771E-02  0.1153436E+00
          1   -1    0    0  502    0 -0.00000000000E+00  0.00000000000E+00  0.11938274035E+04  0.11938274035E+04  0.00000000000E+00 0. -1.
         21   -1    0    0  501  502  0.00000000000E+00 -0.00000000000E+00 -0.22170550817E+03  0.22170550817E+03  0.00000000000E+00 0. -1.
        -24    2    1    2    0    0  0.14032654933E+03  0.98409013143E+02  0.98661339422E+03  0.10045211810E+04  0.79252376127E+02 0.  0.
         23    2    1    2    0    0 -0.16023822161E+03 -0.10216915501E+03  0.14096844519E+03  0.25423670846E+03  0.93002029482E+02 0.  0.
         11    1    3    3    0    0  0.14069670328E+03  0.10472562022E+03  0.85755213055E+03  0.87530490371E+03  0.00000000000E+00 0. -1.
        -12    1    3    3    0    0 -0.37015395137E+00 -0.63166070731E+01  0.12906126367E+03  0.12921627730E+03  0.00000000000E+00 0.  1.
        -13    1    4    4    0    0 -0.24709629869E+02 -0.63835300800E+02  0.29141561568E+02  0.74395846975E+02  0.00000000000E+00 0.  1.
         13    1    4    4    0    0 -0.13552859174E+03 -0.38333854210E+02  0.11182688362E+03  0.17984086149E+03  0.00000000000E+00 0. -1.
          2    1    1    2  501    0  0.19911672285E+02  0.37601418667E+01 -0.15545994410E+03  0.15677502218E+03  0.00000000000E+00 0. -1.
<scales pt_clust_5="13000.00000" pt_clust_6="13000.00000" pt_clust_7="13000.00000" pt_clust_8="13000.00000" pt_clust_9="20.26360"></scales>
<clustering>
<clus scale="   20.264">  2  9  1 -1</clus>
<clus scale="   79.252">  5  6 -1 -1</clus>
<clus scale="   93.002">  7  8 -1 -1</clus>
<clus scale="  191.124">  1  5  2 -1</clus>
<clus scale="   20.264">  2  5  1 -1</clus>
</clustering>
</event>
<event>
 9    1  0.6345107E-005  0.1006342E+03  0.7546771E-02  0.1282697E+00
          1   -1    0    0  502    0 -0.00000000000E+00  0.00000000000E+00  0.31517976867E+03  0.31517976867E+03  0.00000000000E+00 0. -1.
         21   -1    0    0  501  502  0.00000000000E+00 -0.00000000000E+00 -0.96991241961E+02  0.96991241961E+02  0.00000000000E+00 0.  1.
        -24    2    1    2    0    0  0.14682854214E+02 -0.59832877976E+02  0.22217682134E+03  0.24422335747E+03  0.80541597307E+02 0.  0.
         23    2    1    2    0    0  0.22865779446E+02 -0.65538097389E+01 -0.36903524829E+01  0.91677206947E+02  0.88460699073E+02 0.  0.
         13    1    3    3    0    0  0.54005961021E+01 -0.79177993509E+02  0.18490186103E+03  0.20121386460E+03  0.00000000000E+00 0. -1.
        -14    1    3    3    0    0  0.92822581121E+01  0.19345115533E+02  0.37274960310E+02  0.43009492868E+02  0.00000000000E+00 0.  1.
        -11    1    4    4    0    0 -0.23330250184E+02 -0.53233053607E+01 -0.30098080995E+02  0.38451692202E+02  0.00000000000E+00 0.  1.
         11    1    4    4    0    0  0.46196029631E+02 -0.12305043782E+01  0.26407728513E+02  0.53225514745E+02  0.00000000000E+00 0. -1.
          2    1    1    2  501    0 -0.37548633660E+02  0.66386687715E+02 -0.29794215602E+00  0.76270446210E+02  0.00000000000E+00 0. -1.
<scales pt_clust_5="13000.00000" pt_clust_6="13000.00000" pt_clust_7="13000.00000" pt_clust_8="13000.00000" pt_clust_9="76.26986"></scales>
<clustering>
<clus scale="   76.270">  2  9  1 -1</clus>
<clus scale="   80.542">  5  6 -1 -1</clus>
<clus scale="   88.461">  7  8 -1 -1</clus>
<clus scale="   93.749">  1  5  2 -1</clus>
<clus scale="   76.270">  2  5  1 -1</clus>
</clustering>
</event>
<event>
 9    1  0.6345107E-005  0.1268404E+03  0.7546771E-02  0.1246783E+00
          3   -1    0    0  502    0 -0.00000000000E+00  0.00000000000E+00  0.89774629045E+02  0.89774629045E+02  0.00000000000E+00 0. -1.
         21   -1    0    0  501  502  0.00000000000E+00 -0.00000000000E+00 -0.50791955709E+03  0.50791955709E+03  0.00000000000E+00 0. -1.
         23    2    1    2    0    0 -0.33553418680E+02 -0.30153164836E+02 -0.26751871873E+03  0.28366644595E+03  0.82857361961E+02 0.  0.
        -24    2    1    2    0    0  0.64620492717E+00 -0.70100346140E+02  0.25020966648E+02  0.10912390517E+03  0.79796627740E+02 0.  0.
         13    1    4    4    0    0  0.17632489868E+02 -0.83010312374E+02  0.20815817416E+02  0.87378000172E+02  0.00000000000E+00 0. -1.
        -14    1    4    4    0    0 -0.16986284941E+02  0.12909966235E+02  0.42051492319E+01  0.21745905001E+02  0.00000000000E+00 0.  1.
        -13    1    3    3    0    0 -0.30144068104E+02 -0.55076218505E+02 -0.23058387023E+03  0.23897902815E+03  0.00000000000E+00 0. -1.
         13    1    3    3    0    0 -0.34093505765E+01  0.24923053669E+02 -0.36934848505E+02  0.44687417800E+02  0.00000000000E+00 0.  1.
          4    1    1    2  501    0  0.32907213753E+02  0.10025351098E+03 -0.17564717596E+03  0.20490383501E+03  0.00000000000E+00 0. -1.
<scales pt_clust_5="13000.00000" pt_clust_6="13000.00000" pt_clust_7="13000.00000" pt_clust_8="13000.00000" pt_clust_9="98.59509"></scales>
<clustering>
<clus scale="   79.797">  5  6 -1 -1</clus>
<clus scale="   82.857">  7  8 -1 -1</clus>
<clus scale="   94.342">  1  7  2 -1</clus>
<clus scale="   98.595">  2  9  1 -1</clus>
<clus scale="   98.595">  2  5  1 -1</clus>
</clustering>
</event>
<event>
 9    1  0.6345107E-005  0.3159965E+03  0.7546771E-02  0.1079359E+00
         21   -1    0    0  501  502  0.00000000000E+00  0.00000000000E+00  0.77459410592E+03  0.77459410592E+03  0.00000000000E+00 0. -1.
          1   -1    0    0  502    0 -0.00000000000E+00 -0.00000000000E+00 -0.37944140797E+03  0.37944140797E+03  0.00000000000E+00 0. -1.
         23    2    1    2    0    0  0.81827863710E+02 -0.30011120508E+03 -0.51650319351E+02  0.32809594462E+03  0.90645786950E+02 0.  0.
        -24    2    1    2    0    0 -0.32575471195E+03  0.67949695927E+02  0.31241978185E+03  0.46336802102E+03  0.79815470197E+02 0.  0.
         13    1    4    4    0    0 -0.22081628440E+03  0.73695631649E+02  0.17971965502E+03  0.29409187677E+03  0.00000000000E+00 0. -1.
        -14    1    4    4    0    0 -0.10493842755E+03 -0.57459357223E+01  0.13270012682E+03  0.16927614425E+03  0.00000000000E+00 0.  1.
        -11    1    3    3    0    0  0.12116585085E+02 -0.20647297624E+02 -0.31223767704E+02  0.39345218298E+02  0.00000000000E+00 0.  1.
         11    1    3    3    0    0  0.69711278624E+02 -0.27946390746E+03 -0.20426551647E+02  0.28875072632E+03  0.00000000000E+00 0. -1.
          2    1    1    2  501    0  0.24392684824E+03  0.23216150916E+03  0.13438323546E+03  0.36257154825E+03  0.00000000000E+00 0. -1.
<scales pt_clust_5="13000.00000" pt_clust_6="13000.00000" pt_clust_7="13000.00000" pt_clust_8="13000.00000" pt_clust_9="297.67128"></scales>
<clustering>
<clus scale="   79.815">  5  6 -1 -1</clus>
<clus scale="   90.646">  7  8 -1 -1</clus>
<clus scale="  324.005">  2  7  1 -1</clus>
<clus scale="  297.671">  1  9  2 -1</clus>
<clus scale="  297.671">  1  5  2 -1</clus>
</clustering>
</event>
<event>
 9    1  0.6345107E-005  0.1537144E+03  0.7546771E-02  0.1226547E+00
         21   -1    0    0  501  502  0.00000000000E+00  0.00000000000E+00  0.77343209769E+02  0.77343209769E+02  0.00000000000E+00 0. -1.
          1   -1    0    0  502    0 -0.00000000000E+00 -0.00000000000E+00 -0.46707562266E+03  0.46707562266E+03  0.00000000000E+00 0. -1.
        -24    2    1    2    0    0  0.40190283944E+00 -0.31455715690E+01 -0.93426357809E+02  0.12308546633E+03  0.80071789923E+02 0.  0.
         23    2    1    2    0    0  0.62383058900E+02 -0.11129042525E+03 -0.90383696698E+02  0.17752695423E+03  0.84079736310E+02 0.  0.
         11    1    3    3    0    0  0.37676182976E+02  0.73211650065E+01 -0.29741277274E+02  0.48555512505E+02  0.00000000000E+00 0. -1.
        -12    1    3    3    0    0 -0.37274280137E+02 -0.10466736575E+02 -0.63685080535E+02  0.74529953824E+02  0.00000000000E+00 0.  1.
        -11    1    4    4    0    0 -0.82692020800E+01 -0.63729142387E+02 -0.57491668445E+02  0.86226882311E+02  0.00000000000E+00 0.  1.
         11    1    4    4    0    0  0.70652260980E+02 -0.47561282863E+02 -0.32892028252E+02  0.91300071915E+02  0.00000000000E+00 0. -1.
          2    1    1    2  501    0 -0.62784961739E+02  0.11443599682E+03 -0.20592235838E+03  0.24380641187E+03  0.00000000000E+00 0. -1.
<scales pt_clust_5="13000.00000" pt_clust_6="13000.00000" pt_clust_7="13000.00000" pt_clust_8="13000.00000" pt_clust_9="128.68070"></scales>
<clustering>
<clus scale="   80.072">  5  6 -1 -1</clus>
<clus scale="   80.135">  2  5  1 -1</clus>
<clus scale="   84.080">  7  8 -1 -1</clus>
<clus scale="  128.681">  1  9  2 -1</clus>
<clus scale="  128.681">  1  5  2 -1</clus>
</clustering>
</event>
<event>
 9    1  0.6345107E-005  0.1640635E+03  0.7546771E-02  0.1185775E+00
          1   -1    0    0  502    0 -0.00000000000E+00  0.00000000000E+00  0.54106743281E+02  0.54106743281E+02  0.00000000000E+00 0. -1.
         21   -1    0    0  501  502  0.00000000000E+00 -0.00000000000E+00 -0.60548088690E+03  0.60548088690E+03  0.00000000000E+00 0.  1.
         23    2    1    2    0    0 -0.14904918730E+03  0.32222558332E+02 -0.21313119800E+03  0.27723753084E+03  0.90453233446E+02 0.  0.
        -24    2    1    2    0    0  0.11774123430E+03 -0.20252986907E+02 -0.25548466733E+03  0.29306185160E+03  0.79621930948E+02 0.  0.
         11    1    4    4    0    0  0.19170332585E+02  0.90747639338E+01 -0.12567012402E+03  0.12744737370E+03  0.00000000000E+00 0. -1.
        -12    1    4    4    0    0  0.98570901718E+02 -0.29327750840E+02 -0.12981454331E+03  0.16561447790E+03  0.00000000000E+00 0.  1.
        -11    1    3    3    0    0 -0.11585815869E+03  0.61079945919E+02 -0.13857175385E+03  0.19067250377E+03  0.00000000000E+00 0. -1.
         11    1    3    3    0    0 -0.33191028616E+02 -0.28857387588E+02 -0.74559444156E+02  0.86565027071E+02  0.00000000000E+00 0.  1.
          2    1    1    2  501    0  0.31307952998E+02 -0.11969571425E+02 -0.82758278288E+02  0.89288247750E+02  0.00000000000E+00 0. -1.
<scales pt_clust_5="13000.00000" pt_clust_6="13000.00000" pt_clust_7="13000.00000" pt_clust_8="13000.00000" pt_clust_9="33.51803"></scales>
<clustering>
<clus scale="   33.518">  2  9  1 -1</clus>
<clus scale="   79.622">  5  6 -1 -1</clus>
<clus scale="   90.453">  7  8 -1 -1</clus>
<clus scale="  158.350">  2  5  1 -1</clus>
<clus scale="   33.518">  2  5  1 -1</clus>
</clustering>
</event>
<event>
 9    1  0.6345107E-005  0.1015223E+03  0.7546771E-02  0.1281727E+00
         21   -1    0    0  501  502  0.00000000000E+00  0.00000000000E+00  0.35631304116E+03  0.35631304116E+03  0.00000000000E+00 0. -1.
         -2   -1    0    0    0  501 -0.00000000000E+00 -0.00000000000E+00 -0.38350325778E+02  0.38350325778E+02  0.00000000000E+00 0.  1.
        -24    2    1    2    0    0 -0.21190158232E+01 -0.37112529734E+02  0.12781902505E+03  0.15632293953E+03  0.81959307999E+02 0.  0.
         23    2    1    2    0    0 -0.32415725434E+02  0.46867928168E+02  0.14421366030E+03  0.18005334641E+03  0.91510905312E+02 0.  0.
         11    1    3    3    0    0  0.39696954686E+02 -0.13271425741E+02  0.60160484247E+02  0.73288899687E+02  0.00000000000E+00 0. -1.
        -12    1    3    3    0    0 -0.41815970509E+02 -0.23841103993E+02  0.67658540805E+02  0.83034039846E+02  0.00000000000E+00 0.  1.
        -13    1    4    4    0    0  0.27778406034E+02  0.34255354428E+02  0.78562197903E+02  0.90094883807E+02  0.00000000000E+00 0.  1.
         13    1    4    4    0    0 -0.60194131468E+02  0.12612573740E+02  0.65651462397E+02  0.89958462606E+02  0.00000000000E+00 0. -1.
         -1    1    1    2    0  502  0.34534741257E+02 -0.97553984333E+01  0.45930030034E+02  0.58287080997E+02  0.00000000000E+00 0.  1.
<scales pt_clust_5="13000.00000" pt_clust_6="13000.00000" pt_clust_7="13000.00000" pt_clust_8="13000.00000" pt_clust_9="35.88617"></scales>
<clustering>
<clus scale="   35.886">  1  9  2 -1</clus>
<clus scale="   81.959">  5  6 -1 -1</clus>
<clus scale="   91.511">  7  8 -1 -1</clus>
<clus scale="   93.005">  2  5  1 -1</clus>
<clus scale="   35.886">  1  5  2 -1</clus>
</clustering>
</event>
<event>
 9    1  0.6345107E-005  0.1108616E+03  0.7546771E-02  0.1259221E+00
         -2   -1    0    0    0  501 -0.00000000000E+00  0.00000000000E+00  0.37308654049E+03  0.37308654049E+03  0.00000000000E+00 0.  1.
         21   -1    0    0  501  502  0.00000000000E+00 -0.00000000000E+00 -0.10843076697E+03  0.10843076697E+03  0.00000000000E+00 0.  1.
         23    2    1    2    0    0  0.34468528679E+02  0.84292658289E+02  0.94794414581E+02  0.15462196223E+03  0.81416450772E+02 0.  0.
        -24    2    1    2    0    0 -0.70623186093E+02 -0.39076760702E+01 -0.27468458536E+02  0.11077509749E+03  0.80707506860E+02 0.  0.
         11    1    4    4    0    0  0.14932189321E+02 -0.13915912683E+02 -0.10602141419E+02  0.23000615348E+02  0.00000000000E+00 0. -1.
        -12    1    4    4    0    0 -0.85555375414E+02  0.10008236613E+02 -0.16866317117E+02  0.87774482143E+02  0.00000000000E+00 0.  1.
        -13    1    3    3    0    0 -0.23746560772E+02  0.31050410437E+02  0.51427707396E+02  0.64597493951E+02  0.00000000000E+00 0.  1.
         13    1    3    3    0    0  0.58215089451E+02  0.53242247853E+02  0.43366707186E+02  0.90024468276E+02  0.00000000000E+00 0. -1.
         -1    1    1    2    0  502  0.36154657414E+02 -0.80384982219E+02  0.19732981748E+03  0.21612024774E+03  0.00000000000E+00 0.  1.
<scales pt_clust_5="13000.00000" pt_clust_6="13000.00000" pt_clust_7="13000.00000" pt_clust_8="13000.00000" pt_clust_9="88.14143"></scales>
<clustering>
<clus scale="   80.708">  5  6 -1 -1</clus>
<clus scale="   81.416">  7  8 -1 -1</clus>
<clus scale="   88.141">  2  9  1 -1</clus>
<clus scale="  110.342">  2  5  1 -1</clus>
<clus scale="   88.141">  2  5  1 -1</clus>
</clustering>
</event>
<event>
 9    1  0.6345107E-005  0.1103886E+03  0.7546771E-02  0.1269411E+00
          1   -1    0    0  502    0 -0.00000000000E+00  0.00000000000E+00  0.28733365484E+02  0.28733365484E+02  0.00000000000E+00 0. -1.
         21   -1    0    0  501  502  0.00000000000E+00 -0.00000000000E+00 -0.74819142977E+03  0.74819142977E+03  0.00000000000E+00 0. -1.
         23    2    1    2    0    0 -0.19578154096E+02  0.90479698223E+01 -0.16806467203E+03  0.19822463253E+03  0.10286933986E+03 0.  0.
        -24    2    1    2    0    0  0.56765023071E+02 -0.56757316321E+02 -0.37241160793E+03  0.38977286430E+03  0.82394291203E+02 0.  0.
         11    1    4    4    0    0  0.68648271678E+01 -0.58415501799E+02 -0.26316719120E+03  0.26965991030E+03  0.00000000000E+00 0. -1.
        -12    1    4    4    0    0  0.49900195903E+02  0.16581854774E+01 -0.10924441673E+03  0.12011295400E+03  0.00000000000E+00 0.  1.
        -13    1    3    3    0    0  0.23067583034E+02  0.31043869931E+02 -0.13375965502E+03  0.13923893335E+03  0.00000000000E+00 0. -1.
         13    1    3    3    0    0 -0.42645737130E+02 -0.21995900109E+02 -0.34305017003E+02  0.58985699187E+02  0.00000000000E+00 0.  1.
          2    1    1    2  501    0 -0.37186868974E+02  0.47709346499E+02 -0.17898178433E+03  0.18892729842E+03  0.00000000000E+00 0. -1.
<scales pt_clust_5="13000.00000" pt_clust_6="13000.00000" pt_clust_7="13000.00000" pt_clust_8="13000.00000" pt_clust_9="60.49004"></scales>
<clustering>
<clus scale="   60.490">  2  9  1 -1</clus>
<clus scale="   82.394">  5  6 -1 -1</clus>
<clus scale="   91.610">  2  5  1 -1</clus>
<clus scale="  102.869">  7  8 -1 -1</clus>
<clus scale="   60.490">  2  5  1 -1</clus>
</clustering>
</event>
<event>
 9    1  0.6345107E-005  0.1295756E+03  0.7546771E-02  0.1253301E+00
          1   -1    0    0  502    0 -0.00000000000E+00  0.00000000000E+00  0.84407388148E+02  0.84407388148E+02  0.00000000000E+00 0. -1.
         21   -1    0    0  501  502  0.00000000000E+00 -0.00000000000E+00 -0.54662244407E+03  0.54662244407E+03  0.00000000000E+00 0. -1.
         23    2    1    2    0    0  0.30327400538E+00 -0.33318609873E+01  0.24402163007E+02  0.81431450142E+02  0.77617151713E+02 0.  0.
        -24    2    1    2    0    0  0.31846843623E+02 -0.99024706452E+02 -0.36709275100E+03  0.38898519646E+03  0.75711830564E+02 0.  0.
         11    1    4    4    0    0  0.32430193778E+02 -0.97692239592E+01 -0.15883331128E+03  0.16240435948E+03  0.00000000000E+00 0. -1.
        -12    1    4    4    0    0 -0.58335015593E+00 -0.89255482492E+02 -0.20825943972E+03  0.22658083698E+03  0.00000000000E+00 0.  1.
        -11    1    3    3    0    0 -0.25498403992E+02  0.14628307023E+02 -0.13365204002E+02  0.32292176305E+02  0.00000000000E+00 0. -1.
         11    1    3    3    0    0  0.25801677998E+02 -0.17960168010E+02  0.37767367009E+02  0.49139273837E+02  0.00000000000E+00 0.  1.
          2    1    1    2  501    0 -0.32150117628E+02  0.10235656744E+03 -0.11952446792E+03  0.16061318562E+03  0.00000000000E+00 0. -1.
<scales pt_clust_5="13000.00000" pt_clust_6="13000.00000" pt_clust_7="13000.00000" pt_clust_8="13000.00000" pt_clust_9="105.15496"></scales>
<clustering>
<clus scale="   75.712">  5  6 -1 -1</clus>
<clus scale="   77.617">  7  8 -1 -1</clus>
<clus scale="   77.689">  1  7  2 -1</clus>
<clus scale="  105.155">  2  9  1 -1</clus>
<clus scale="  105.155">  2  5  1 -1</clus>
</clustering>
</event>
<event>
 9    1  0.6345107E-005  0.9264615E+02  0.7546771E-02  0.1316033E+00
         21   -1    0    0  501  502  0.00000000000E+00  0.00000000000E+00  0.14102878395E+03  0.14102878395E+03  0.00000000000E+00 0. -1.
         -2   -1    0    0    0  501 -0.00000000000E+00 -0.00000000000E+00 -0.10089482090E+03  0.10089482090E+03  0.00000000000E+00 0.  1.
        -24    2    1    2    0    0 -0.19866644774E+01 -0.19955363410E+02  0.58944641980E+01  0.64781993613E+02  0.61317196802E+02 0.  0.
         23    2    1    2    0    0  0.45299885811E+02  0.66571936930E+01  0.66946449433E+02  0.12126119359E+03  0.90144617686E+02 0.  0.
         11    1    3    3    0    0  0.25297351912E+02 -0.17331146815E+02  0.17168858647E+02  0.35143909443E+02  0.00000000000E+00 0. -1.
        -12    1    3    3    0    0 -0.27284016390E+02 -0.26242165956E+01 -0.11274394449E+02  0.29638084170E+02  0.00000000000E+00 0.  1.
        -11    1    4    4    0    0  0.32669738378E+02  0.47690547954E+02  0.33284985604E+02  0.66705250442E+02  0.00000000000E+00 0. -1.
         11    1    4    4    0    0  0.12630147433E+02 -0.41033354261E+02  0.33661463828E+02  0.54555943152E+02  0.00000000000E+00 0.  1.
         -1    1    1    2    0  502 -0.43313221334E+02  0.13298169717E+02 -0.32706950582E+02  0.55880417648E+02  0.00000000000E+00 0.  1.
<scales pt_clust_5="13000.00000" pt_clust_6="13000.00000" pt_clust_7="13000.00000" pt_clust_8="13000.00000" pt_clust_9="45.30870"></scales>
<clustering>
<clus scale="   45.309">  1  9  2 -1</clus>
<clus scale="   61.317">  5  6 -1 -1</clus>
<clus scale="   64.939">  2  5  1 -1</clus>
<clus scale="   90.145">  7  8 -1 -1</clus>
<clus scale="   45.309">  1  5  2 -1</clus>
</clustering>
</event>
<event>
 9    1  0.6345107E-005  0.2886172E+03  0.7546771E-02  0.1118450E+00
         21   -1    0    0  501  502  0.00000000000E+00  0.00000000000E+00  0.20341315725E+03  0.20341315725E+03  0.00000000000E+00 0. -1.
          1   -1    0    0  502    0 -0.00000000000E+00 -0.00000000000E+00 -0.92720595614E+03  0.92720595614E+03  0.00000000000E+00 0. -1.
        -24    2    1    2    0    0  0.11376156067E+02 -0.11764369916E+03 -0.13278973972E+02  0.14333707023E+03  0.79998297942E+02 0.  0.
         23    2    1    2    0    0 -0.19094783226E+03 -0.15739435797E+03 -0.95907308253E+02  0.29040824533E+03  0.11791810129E+03 0.  0.
         11    1    3    3    0    0  0.31097963389E+02 -0.10788131296E+03 -0.29398291847E+02  0.11605912535E+03  0.00000000000E+00 0. -1.
        -12    1    3    3    0    0 -0.19721807322E+02 -0.97623862025E+01  0.16119317875E+02  0.27277944885E+02  0.00000000000E+00 0.  1.
        -11    1    4    4    0    0 -0.17671700099E+03 -0.17684997373E+03 -0.87397664500E+02  0.26484554633E+03  0.00000000000E+00 0. -1.
         11    1    4    4    0    0 -0.14230831267E+02  0.19455615764E+02 -0.85096437535E+01  0.25562698999E+02  0.00000000000E+00 0.  1.
          2    1    1    2  501    0  0.17957167619E+03  0.27503805713E+03 -0.61460651667E+03  0.69687379782E+03  0.00000000000E+00 0. -1.
<scales pt_clust_5="13000.00000" pt_clust_6="13000.00000" pt_clust_7="13000.00000" pt_clust_8="13000.00000" pt_clust_9="263.42985"></scales>
<clustering>
<clus scale="   79.998">  5  6 -1 -1</clus>
<clus scale="  117.918">  7  8 -1 -1</clus>
<clus scale="  142.721">  2  5  1 -1</clus>
<clus scale="  263.430">  1  9  2 -1</clus>
<clus scale="  263.430">  1  5  2 -1</clus>
</clustering>
</event>
<event>
 9    1  0.6345107E-005  0.1338074E+03  0.7546771E-02  0.1225732E+00
          3   -1    0    0  502    0 -0.00000000000E+00  0.00000000000E+00  0.41430196379E+03  0.41430196379E+03  0.00000000000E+00 0. -1.
         21   -1    0    0  501  502  0.00000000000E+00 -0.00000000000E+00 -0.51073215302E+02  0.51073215302E+02  0.00000000000E+00 0. -1.
        -24    2    1    2    0    0 -0.26369095440E+02  0.79503309647E+02  0.24225602058E+03  0.27686709930E+03  0.10464848651E+03 0.  0.
         23    2    1    2    0    0  0.65036652956E+01 -0.84055710600E+02  0.10324956085E+03  0.16149937157E+03  0.91180672596E+02 0.  0.
         13    1    3    3    0    0  0.51031150344E+00  0.64681789808E+02  0.48894233116E+02  0.81084156175E+02  0.00000000000E+00 0. -1.
        -14    1    3    3    0    0 -0.26879406943E+02  0.14821519838E+02  0.19336178746E+03  0.19578294313E+03  0.00000000000E+00 0.  1.
        -11    1    4    4    0    0 -0.33949538426E+02 -0.38034351178E+02  0.82170708375E+02  0.96701646024E+02  0.00000000000E+00 0.  1.
         11    1    4    4    0    0  0.40453203721E+02 -0.46021359422E+02  0.21078852477E+02  0.64797725547E+02  0.00000000000E+00 0. -1.
          4    1    1    2  501    0  0.19865430144E+02  0.45524009535E+01  0.17723167057E+02  0.27008708221E+02  0.00000000000E+00 0. -1.
<scales pt_clust_5="13000.00000" pt_clust_6="13000.00000" pt_clust_7="13000.00000" pt_clust_8="13000.00000" pt_clust_9="20.38037"></scales>
<clustering>
<clus scale="   20.380">  2  9  1 -1</clus>
<clus scale="   91.181">  7  8 -1 -1</clus>
<clus scale="  104.648">  5  6 -1 -1</clus>
<clus scale="  123.560">  2  7  1 -1</clus>
<clus scale="   20.380">  2  5  1 -1</clus>
</clustering>
</event>
<event>
 9    1  0.6345107E-005  0.2108211E+03  0.7546771E-02  0.1141810E+00
          1   -1    0    0  502    0 -0.00000000000E+00  0.00000000000E+00  0.20590993335E+03  0.20590993335E+03  0.00000000000E+00 0. -1.
         21   -1    0    0  501  502  0.00000000000E+00 -0.00000000000E+00 -0.39606137659E+03  0.39606137659E+03  0.00000000000E+00 0. -1.
        -24    2    1    2    0    0 -0.18726262999E+02  0.20805921080E+03 -0.10493446563E+02  0.22403084020E+03  0.80252082916E+02 0.  0.
         23    2    1    2    0    0  0.11539962629E+03 -0.14492112991E+03 -0.68156404696E+02  0.21742641602E+03  0.91157793078E+02 0.  0.
         11    1    3    3    0    0 -0.42795634753E+02  0.11981226877E+03  0.17380226968E+02  0.12840762591E+03  0.00000000000E+00 0. -1.
        -12    1    3    3    0    0  0.24069371754E+02  0.88246942033E+02 -0.27873673531E+02  0.95623214289E+02  0.00000000000E+00 0.  1.
        -13    1    4    4    0    0  0.67518851212E+02 -0.10846370147E+03 -0.86759911110E+02  0.15443591545E+03  0.00000000000E+00 0.  1.
         13    1    4    4    0    0  0.47880775079E+02 -0.36457428437E+02  0.18603506415E+02  0.62990500564E+02  0.00000000000E+00 0. -1.
          2    1    1    2  501    0 -0.96673363292E+02 -0.63138080894E+02 -0.11150159198E+03  0.16051405373E+03  0.00000000000E+00 0. -1.
<scales pt_clust_5="13000.00000" pt_clust_6="13000.00000" pt_clust_7="13000.00000" pt_clust_8="13000.00000" pt_clust_9="115.46496"></scales>
<clustering>
<clus scale="   80.252">  5  6 -1 -1</clus>
<clus scale="   91.158">  7  8 -1 -1</clus>
<clus scale="  115.465">  2  9  1 -1</clus>
<clus scale="  206.340">  1  5  2 -1</clus>
<clus scale="  115.465">  2  5  1 -1</clus>
</clustering>
</event>
<event>
 9    1  0.6345107E-005  0.1280497E+03  0.7546771E-02  0.1233080E+00
         21   -1    0    0  501  502  0.00000000000E+00  0.00000000000E+00  0.12623264309E+03  0.12623264309E+03  0.00000000000E+00 0. -1.
          3   -1    0    0  502    0 -0.00000000000E+00 -0.00000000000E+00 -0.47128489467E+03  0.47128489467E+03  0.00000000000E+00 0. -1.
         23    2    1    2    0    0  0.60731720232E+02 -0.80731816847E+02 -0.36531380135E+03  0.38986632478E+03  0.91299559917E+02 0.  0.
        -24    2    1    2    0    0 -0.51697326914E+02 -0.16126392189E+02  0.44586414187E+02  0.10737742803E+03  0.81297537384E+02 0.  0.
         11    1    4    4    0    0 -0.40307556454E+02  0.29866922739E+02  0.25730739479E+02  0.56380875617E+02  0.00000000000E+00 0. -1.
        -12    1    4    4    0    0 -0.11389770460E+02 -0.45993314927E+02  0.18855674707E+02  0.50996552411E+02  0.00000000000E+00 0.  1.
        -11    1    3    3    0    0 -0.23990502196E+02 -0.13489104916E+02 -0.61677630680E+02  0.67539842119E+02  0.00000000000E+00 0.  1.
         11    1    3    3    0    0  0.84722222428E+02 -0.67242711932E+02 -0.30363617067E+03  0.32232648266E+03  0.00000000000E+00 0. -1.
          4    1    1    2  501    0 -0.90343933178E+01  0.96858209036E+02 -0.24324864411E+02  0.10027378495E+03  0.00000000000E+00 0. -1.
<scales pt_clust_5="13000.00000" pt_clust_6="13000.00000" pt_clust_7="13000.00000" pt_clust_8="13000.00000" pt_clust_9="97.27864"></scales>
<clustering>
<clus scale="   81.298">  5  6 -1 -1</clus>
<clus scale="   91.300">  7  8 -1 -1</clus>
<clus scale="   97.279">  1  9  2 -1</clus>
<clus scale="  121.121">  1  5  2 -1</clus>
<clus scale="   97.279">  1  5  2 -1</clus>
</clustering>
</event>
<event>
 9    1  0.6345107E-005  0.1228617E+03  0.7546771E-02  0.1244905E+00
         21   -1    0    0  501  502  0.00000000000E+00  0.00000000000E+00  0.51929390659E+02  0.51929390659E+02  0.00000000000E+00 0.  1.
          1   -1    0    0  502    0 -0.00000000000E+00 -0.00000000000E+00 -0.79830991643E+03  0.79830991643E+03  0.00000000000E+00 0. -1.
         23    2    1    2    0    0 -0.70740049687E+02 -0.44273594460E+01 -0.52194679456E+03  0.53536898488E+03  0.95748302718E+02 0.  0.
        -24    2    1    2    0    0  0.11194370462E+03  0.32981495116E+02 -0.76422423548E+02  0.15859995701E+03  0.75461165634E+02 0.  0.
         11    1    4    4    0    0  0.14818076627E+02 -0.22192051640E+02 -0.20688099162E+02  0.33764774512E+02  0.00000000000E+00 0. -1.
        -12    1    4    4    0    0  0.97125627996E+02  0.55173546756E+02 -0.55734324387E+02  0.12483518250E+03  0.00000000000E+00 0.  1.
        -11    1    3    3    0    0 -0.94802548588E+02 -0.53566570750E+01 -0.40757392692E+03  0.41848861741E+03  0.00000000000E+00 0. -1.
         11    1    3    3    0    0  0.24062498901E+02  0.92929762902E+00 -0.11437286764E+03  0.11688036747E+03  0.00000000000E+00 0.  1.
          2    1    1    2  501    0 -0.41203654936E+02 -0.28554135670E+02 -0.14801130766E+03  0.15627036520E+03  0.00000000000E+00 0. -1.
<scales pt_clust_5="13000.00000" pt_clust_6="13000.00000" pt_clust_7="13000.00000" pt_clust_8="13000.00000" pt_clust_9="50.13065"></scales>
<clustering>
<clus scale="   50.131">  1  9  2 -1</clus>
<clus scale="   75.461">  5  6 -1 -1</clus>
<clus scale="   95.748">  7  8 -1 -1</clus>
<clus scale="  107.804">  1  5  2 -1</clus>
<clus scale="   50.131">  1  5  2 -1</clus>
</clustering>
</event>
<event>
 9    1  0.6345107E-005  0.1583774E+03  0.7546771E-02  0.1192811E+00
          1   -1    0    0  502    0 -0.00000000000E+00  0.00000000000E+00  0.10724648777E+04  0.10724648777E+04  0.00000000000E+00 0. -1.
         21   -1    0    0  501  502  0.00000000000E+00 -0.00000000000E+00 -0.41803141693E+02  0.41803141693E+02  0.00000000000E+00 0. -1.
         23    2    1    2    0    0 -0.74354754891E+02  0.11756218362E+03  0.86258984915E+03  0.87826970510E+03  0.89145557609E+02 0.  0.
        -24    2    1    2    0    0  0.65453923982E+02 -0.81342740198E+02  0.13317933855E+03  0.18492422301E+03  0.74561213038E+02 0.  0.
         13    1    4    4    0    0  0.73594504577E+02 -0.78141462819E+02  0.87704530563E+02  0.13861574224E+03  0.00000000000E+00 0. -1.
        -14    1    4    4    0    0 -0.81405805950E+01 -0.32012773791E+01  0.45474807988E+02  0.46308480765E+02  0.00000000000E+00 0.  1.
        -13    1    3    3    0    0  0.17713819767E+02  0.38437676561E+02  0.17497187297E+03  0.18001775113E+03  0.00000000000E+00 0.  1.
         13    1    3    3    0    0 -0.92068574658E+02  0.79124507064E+02  0.68761797618E+03  0.69825195397E+03  0.00000000000E+00 0. -1.
          2    1    1    2  501    0  0.89008309087E+01 -0.36219443426E+02  0.34892548277E+02  0.51074091262E+02  0.00000000000E+00 0. -1.
<scales pt_clust_5="13000.00000" pt_clust_6="13000.00000" pt_clust_7="13000.00000" pt_clust_8="13000.00000" pt_clust_9="37.29709"></scales>
<clustering>
<clus scale="   37.297">  2  9  1 -1</clus>
<clus scale="   74.561">  5  6 -1 -1</clus>
<clus scale="   89.146">  7  8 -1 -1</clus>
<clus scale="  150.651">  2  5  1 -1</clus>
<clus scale="   37.297">  2  5  1 -1</clus>
</clustering>
</event>
<event>
 9    1  0.6345107E-005  0.1295435E+03  0.7546771E-02  0.1228356E+00
         21   -1    0    0  501  502  0.00000000000E+00  0.00000000000E+00  0.28821319184E+03  0.28821319184E+03  0.00000000000E+00 0.  1.
          1   -1    0    0  502    0 -0.00000000000E+00 -0.00000000000E+00 -0.10512601801E+03  0.10512601801E+03  0.00000000000E+00 0. -1.
        -24    2    1    2    0    0  0.32935082947E+02  0.10083292816E+03  0.70291387595E+02  0.15248771796E+03  0.84021579785E+02 0.  0.
         23    2    1    2    0    0  0.27847408695E+02 -0.93122122804E+02  0.12351710278E+03  0.17865089351E+03  0.84926198236E+02 0.  0.
         13    1    3    3    0    0 -0.19478797121E+02  0.73207735822E+02  0.44601689766E+02  0.87909651639E+02  0.00000000000E+00 0. -1.
        -14    1    3    3    0    0  0.52413880068E+02  0.27625192337E+02  0.25689697830E+02  0.64578066323E+02  0.00000000000E+00 0.  1.
        -11    1    4    4    0    0  0.10224818124E+01 -0.52534014328E+02  0.77966688341E+01  0.53119263693E+02  0.00000000000E+00 0. -1.
         11    1    4    4    0    0  0.26824926882E+02 -0.40588108477E+02  0.11572043395E+03  0.12553162982E+03  0.00000000000E+00 0.  1.
          2    1    1    2  501    0 -0.60782491641E+02 -0.77108053547E+01 -0.10721316542E+02  0.62200598371E+02  0.00000000000E+00 0. -1.
<scales pt_clust_5="13000.00000" pt_clust_6="13000.00000" pt_clust_7="13000.00000" pt_clust_8="13000.00000" pt_clust_9="61.26966"></scales>
<clustering>
<clus scale="   61.270">  1  9  2 -1</clus>
<clus scale="   84.022">  5  6 -1 -1</clus>
<clus scale="   84.926">  7  8 -1 -1</clus>
<clus scale="  128.952">  2  5  1 -1</clus>
<clus scale="   61.270">  1  5  2 -1</clus>
</clustering>
</event>
<event>
 9    1  0.6345107E-005  0.9085903E+02  0.7546771E-02  0.1304789E+00
         -2   -1    0    0    0  501 -0.00000000000E+00  0.00000000000E+00  0.19442616384E+03  0.19442616384E+03  0.00000000000E+00 0.  1.
         21   -1    0    0  501  502  0.00000000000E+00 -0.00000000000E+00 -0.82767418565E+02  0.82767418565E+02  0.00000000000E+00 0.  1.
        -24    2    1    2    0    0 -0.36631489547E+02  0.35141566134E+02  0.67698612250E+02  0.11725051635E+03  0.81165175945E+02 0.  0.
         23    2    1    2    0    0 -0.19148901500E+01  0.15733465519E+02  0.33084071904E+02  0.95194468090E+02  0.87842029802E+02 0.  0.
         11    1    3    3    0    0 -0.23302654605E+02  0.66902698147E+01 -0.15188287589E+02  0.28608696261E+02  0.00000000000E+00 0. -1.
        -12    1    3    3    0    0 -0.13328834942E+02  0.28451296319E+02  0.82886899840E+02  0.88641820086E+02  0.00000000000E+00 0.  1.
        -13    1    4    4    0    0  0.20591177242E+02  0.17827439013E+02 -0.22411914082E+02  0.35271915950E+02  0.00000000000E+00 0.  1.
         13    1    4    4    0    0 -0.22506067392E+02 -0.20939734942E+01  0.55495985985E+02  0.59922552140E+02  0.00000000000E+00 0. -1.
         -1    1    1    2    0  502  0.38546379697E+02 -0.50875031653E+02  0.10876061123E+02  0.64748597969E+02  0.00000000000E+00 0.  1.
<scales pt_clust_5="13000.00000" pt_clust_6="13000.00000" pt_clust_7="13000.00000" pt_clust_8="13000.00000" pt_clust_9="63.82862"></scales>
<clustering>
<clus scale="   63.829">  2  9  1 -1</clus>
<clus scale="   81.165">  5  6 -1 -1</clus>
<clus scale="   84.421">  1  5  2 -1</clus>
<clus scale="   87.842">  7  8 -1 -1</clus>
<clus scale="   63.829">  2  5  1 -1</clus>
</clustering>
</event>
<event>
 9    1  0.6345107E-005  0.1458138E+03  0.7546771E-02  0.1233376E+00
         21   -1    0    0  501  502  0.00000000000E+00  0.00000000000E+00  0.32725717486E+02  0.32725717486E+02  0.00000000000E+00 0.  1.
          1   -1    0    0  502    0 -0.00000000000E+00 -0.00000000000E+00 -0.96261504208E+03  0.96261504208E+03  0.00000000000E+00 0. -1.
        -24    2    1    2    0    0 -0.63351963205E+01 -0.18030292630E+01 -0.13538397780E+03  0.15803856168E+03  0.81264874979E+02 0.  0.
         23    2    1    2    0    0 -0.11153972632E+03 -0.79396610234E+01 -0.49962247660E+03  0.51958325836E+03  0.88543743307E+02 0.  0.
         11    1    3    3    0    0  0.28920493440E+02  0.24718544805E+01 -0.11155918511E+03  0.11527340018E+03  0.00000000000E+00 0. -1.
        -12    1    3    3    0    0 -0.35255689760E+02 -0.42748837435E+01 -0.23824792684E+02  0.42765161497E+02  0.00000000000E+00 0.  1.
        -13    1    4    4    0    0 -0.17101607887E+02  0.34868097328E+02 -0.14537632948E+03  0.15047433793E+03  0.00000000000E+00 0. -1.
         13    1    4    4    0    0 -0.94438118434E+02 -0.42807758352E+02 -0.35424614712E+03  0.36910892043E+03  0.00000000000E+00 0.  1.
          2    1    1    2  501    0  0.11787492264E+03  0.97426902864E+01 -0.29488287019E+03  0.31771893953E+03  0.00000000000E+00 0. -1.
<scales pt_clust_5="13000.00000" pt_clust_6="13000.00000" pt_clust_7="13000.00000" pt_clust_8="13000.00000" pt_clust_9="115.85187"></scales>
<clustering>
<clus scale="   81.265">  5  6 -1 -1</clus>
<clus scale="   81.531">  2  5  1 -1</clus>
<clus scale="   88.544">  7  8 -1 -1</clus>
<clus scale="  115.852">  1  9  2 -1</clus>
<clus scale="  115.852">  1  5  2 -1</clus>
</clustering>
</event>
<event>
 9    1  0.6345107E-005  0.9392629E+02  0.7546771E-02  0.1302784E+00
          1   -1    0    0  502    0 -0.00000000000E+00  0.00000000000E+00  0.71519350587E+02  0.71519350587E+02  0.00000000000E+00 0. -1.
         21   -1    0    0  501  502  0.00000000000E+00 -0.00000000000E+00 -0.26582525706E+03  0.26582525706E+03  0.00000000000E+00 0. -1.
        -24    2    1    2    0    0 -0.40566041124E+02 -0.14687716565E+02  0.54986475332E+01  0.85473239373E+02  0.73580614389E+02 0.  0.
         23    2    1    2    0    0 -0.10535562806E+02 -0.19418465630E+02 -0.11658327098E+03  0.14842869074E+03  0.89170299258E+02 0.  0.
         11    1    3    3    0    0 -0.62087222465E+02 -0.85247829971E+01  0.12188519031E+01  0.62681581972E+02  0.00000000000E+00 0. -1.
        -12    1    3    3    0    0  0.21521181341E+02 -0.61629335677E+01  0.42797956301E+01  0.22791657401E+02  0.00000000000E+00 0.  1.
        -11    1    4    4    0    0 -0.20007542878E+01 -0.54646805399E+02 -0.59521779511E+02  0.80827709321E+02  0.00000000000E+00 0. -1.
         11    1    4    4    0    0 -0.85348085185E+01  0.35228339769E+02 -0.57061491472E+02  0.67600981415E+02  0.00000000000E+00 0.  1.
          2    1    1    2  501    0  0.51101603931E+02  0.34106182195E+02 -0.83221283027E+02  0.10344267754E+03  0.00000000000E+00 0. -1.
<scales pt_clust_5="13000.00000" pt_clust_6="13000.00000" pt_clust_7="13000.00000" pt_clust_8="13000.00000" pt_clust_9="61.43782"></scales>
<clustering>
<clus scale="   61.438">  2  9  1 -1</clus>
<clus scale="   73.581">  5  6 -1 -1</clus>
<clus scale="   79.277">  1  5  2 -1</clus>
<clus scale="   89.170">  7  8 -1 -1</clus>
<clus scale="   61.438">  2  5  1 -1</clus>
</clustering>
</event>
<event>
 9    1  0.6345107E-005  0.1678723E+03  0.7546771E-02  0.1182499E+00
          1   -1    0    0  502    0 -0.00000000000E+00  0.00000000000E+00  0.48598648991E+03  0.48598648991E+03  0.00000000000E+00 0. -1.
         21   -1    0    0  501  502  0.00000000000E+00 -0.00000000000E+00 -0.12171508022E+03  0.12171508022E+03  0.00000000000E+00 0.  1.
         23    2    1    2    0    0 -0.84875566847E+02 -0.53172314654E+02  0.13888168347E+03  0.19675442167E+03  0.96917612169E+02 0.  0.
        -24    2    1    2    0    0  0.19677860818E+03  0.80436560389E+02  0.16479895104E+03  0.28080541115E+03  0.80629546583E+02 0.  0.
         11    1    4    4    0    0  0.33780005893E+02 -0.13560207447E+02  0.11715594472E+02  0.38239026896E+02  0.00000000000E+00 0. -1.
        -12    1    4    4    0    0  0.16299860228E+03  0.93996767836E+02  0.15308335657E+03  0.24256638425E+03  0.00000000000E+00 0.  1.
        -11    1    3    3    0    0 -0.39562949006E+02  0.13274964941E+02  0.70438895925E+01  0.42321011435E+02  0.00000000000E+00 0.  1.
         11    1    3    3    0    0 -0.45312617840E+02 -0.66447279595E+02  0.13183779388E+03  0.15443341023E+03  0.00000000000E+00 0. -1.
          2    1    1    2  501    0 -0.11190304133E+03 -0.27264245735E+02  0.60590775171E+02  0.13014173731E+03  0.00000000000E+00 0. -1.
<scales pt_clust_5="13000.00000" pt_clust_6="13000.00000" pt_clust_7="13000.00000" pt_clust_8="13000.00000" pt_clust_9="115.17652"></scales>
<clustering>
<clus scale="   80.630">  5  6 -1 -1</clus>
<clus scale="   96.918">  7  8 -1 -1</clus>
<clus scale="  115.177">  2  9  1 -1</clus>
<clus scale="  159.026">  2  5  1 -1</clus>
<clus scale="  115.177">  2  5  1 -1</clus>
</clustering>
</event>
<event>
 9    1  0.6345107E-005  0.9746421E+02  0.7546771E-02  0.1293841E+00
         21   -1    0    0  501  502  0.00000000000E+00  0.00000000000E+00  0.29139327406E+03  0.29139327406E+03  0.00000000000E+00 0. -1.
          1   -1    0    0  502    0 -0.00000000000E+00 -0.00000000000E+00 -0.60739726568E+02  0.60739726568E+02  0.00000000000E+00 0. -1.
        -24    2    1    2    0    0  0.11509058689E+02 -0.16805706846E+02  0.43644835998E+01  0.83150195567E+02  0.80498547137E+02 0.  0.
         23    2    1    2    0    0  0.13350081987E+02  0.40249993554E+02  0.12718932941E+03  0.16415738435E+03  0.94721880517E+02 0.  0.
         11    1    3    3    0    0  0.39681004801E+02  0.75479812969E+01 -0.12482760821E+02  0.42277340046E+02  0.00000000000E+00 0. -1.
        -12    1    3    3    0    0 -0.28171946111E+02 -0.24353688143E+02  0.16847244421E+02  0.40872855521E+02  0.00000000000E+00 0.  1.
        -11    1    4    4    0    0 -0.24221979554E+02  0.39787152899E+02  0.11592042941E+03  0.12492905100E+03  0.00000000000E+00 0. -1.
         11    1    4    4    0    0  0.37572061541E+02  0.46284065509E+00  0.11268900005E+02  0.39228333347E+02  0.00000000000E+00 0.  1.
          2    1    1    2  501    0 -0.24859140676E+02 -0.23444286707E+02  0.99099734477E+02  0.10482542071E+03  0.00000000000E+00 0. -1.
<scales pt_clust_5="13000.00000" pt_clust_6="13000.00000" pt_clust_7="13000.00000" pt_clust_8="13000.00000" pt_clust_9="34.17033"></scales>
<clustering>
<clus scale="   34.170">  1  9  2 -1</clus>
<clus scale="   80.499">  5  6 -1 -1</clus>
<clus scale="   83.708">  2  5  1 -1</clus>
<clus scale="   94.722">  7  8 -1 -1</clus>
<clus scale="   34.170">  1  5  2 -1</clus>
</clustering>
</event>
<event>
 9    1  0.6345107E-005  0.9587052E+02  0.7546771E-02  0.1297799E+00
         -4   -1    0    0    0  501 -0.00000000000E+00  0.00000000000E+00  0.80677982780E+02  0.80677982780E+02  0.00000000000E+00 0.  1.
         21   -1    0    0  501  502  0.00000000000E+00 -0.00000000000E+00 -0.33115008170E+03  0.33115008170E+03  0.00000000000E+00 0. -1.
        -24    2    1    2    0    0  0.32199135199E+02 -0.11569386222E+02  0.36265023460E+02  0.91577161179E+02  0.76815294818E+02 0.  0.
         23    2    1    2    0    0  0.71782527405E+01 -0.13300744756E+02 -0.15761069981E+03  0.18298206087E+03  0.91721670194E+02 0.  0.
         11    1    3    3    0    0  0.28501572792E+02  0.18795618961E+02 -0.10479679934E+02  0.35713283737E+02  0.00000000000E+00 0. -1.
        -12    1    3    3    0    0  0.36975624067E+01 -0.30365005184E+02  0.46744703393E+02  0.55863877442E+02  0.00000000000E+00 0.  1.
        -11    1    4    4    0    0 -0.53240246931E-01  0.37427262287E+02 -0.40465951184E+02  0.55120740216E+02  0.00000000000E+00 0. -1.
         11    1    4    4    0    0  0.72314929875E+01 -0.50728007043E+02 -0.11714474862E+03  0.12786132065E+03  0.00000000000E+00 0.  1.
         -3    1    1    2    0  502 -0.39377387939E+02  0.24870130978E+02 -0.12912642258E+03  0.13726884243E+03  0.00000000000E+00 0.  1.
<scales pt_clust_5="13000.00000" pt_clust_6="13000.00000" pt_clust_7="13000.00000" pt_clust_8="13000.00000" pt_clust_9="46.57362"></scales>
<clustering>
<clus scale="   46.574">  2  9  1 -1</clus>
<clus scale="   76.815">  5  6 -1 -1</clus>
<clus scale="   81.724">  1  5  2 -1</clus>
<clus scale="   91.722">  7  8 -1 -1</clus>
<clus scale="   46.574">  2  5  1 -1</clus>
</clustering>
</event>
<event>
 9    1  0.6345107E-005  0.1934995E+03  0.7546771E-02  0.1155876E+00
          1   -1    0    0  502    0 -0.00000000000E+00  0.00000000000E+00  0.81559189910E+03  0.81559189910E+03  0.00000000000E+00 0. -1.
         21   -1    0    0  501  502  0.00000000000E+00 -0.00000000000E+00 -0.11850197747E+03  0.11850197747E+03  0.00000000000E+00 0. -1.
        -24    2    1    2    0    0  0.16217496631E+03  0.73894134852E+02  0.65525587433E+03  0.68439496992E+03  0.85294496595E+02 0.  0.
         23    2    1    2    0    0 -0.13715638892E+03 -0.48309133691E+02  0.86950575048E+02  0.19211399044E+03  0.90563433038E+02 0.  0.
         13    1    3    3    0    0  0.16185683550E+03  0.65401499104E+02  0.65251791510E+03  0.67546622477E+03  0.00000000000E+00 0. -1.
        -14    1    3    3    0    0  0.31813080121E+00  0.84926357480E+01  0.27379592284E+01  0.89287451465E+01  0.00000000000E+00 0.  1.
        -13    1    4    4    0    0  0.30179297902E+01 -0.29445580023E+02  0.19244970364E+02  0.35306075503E+02  0.00000000000E+00 0.  1.
         13    1    4    4    0    0 -0.14017431871E+03 -0.18863553668E+02  0.67705604684E+02  0.15680791494E+03  0.00000000000E+00 0. -1.
          2    1    1    2  501    0 -0.25018577391E+02 -0.25585001162E+02 -0.45116527743E+02  0.57584916208E+02  0.00000000000E+00 0. -1.
<scales pt_clust_5="13000.00000" pt_clust_6="13000.00000" pt_clust_7="13000.00000" pt_clust_8="13000.00000" pt_clust_9="35.78438"></scales>
<clustering>
<clus scale="   35.784">  2  9  1 -1</clus>
<clus scale="   85.294">  5  6 -1 -1</clus>
<clus scale="   90.563">  7  8 -1 -1</clus>
<clus scale="  191.090">  1  5  2 -1</clus>
<clus scale="   35.784">  2  5  1 -1</clus>
</clustering>
</event>
<event>
 9    1  0.6345107E-005  0.1316536E+03  0.7546771E-02  0.1233548E+00
         -2   -1    0    0    0  501 -0.00000000000E+00  0.00000000000E+00  0.50080857538E+03  0.50080857538E+03  0.00000000000E+00 0.  1.
         21   -1    0    0  501  502  0.00000000000E+00 -0.00000000000E+00 -0.13998284966E+03  0.13998284966E+03  0.00000000000E+00 0.  1.
        -24    2    1    2    0    0  0.74496103186E+02  0.34094372199E+01 -0.77472517320E+02  0.13485279447E+03  0.81375620327E+02 0.  0.
         23    2    1    2    0    0  0.12627391384E+02  0.65163420751E+02  0.33902105046E+03  0.35711423363E+03  0.90496302625E+02 0.  0.
         11    1    3    3    0    0  0.64680456484E+01  0.31661281481E+02 -0.73265427887E+01  0.33135337463E+02  0.00000000000E+00 0. -1.
        -12    1    3    3    0    0  0.68028057538E+02 -0.28251844261E+02 -0.70145974532E+02  0.10171745700E+03  0.00000000000E+00 0.  1.
        -11    1    4    4    0    0 -0.15265257863E+02  0.77368946271E+02  0.27725088870E+03  0.28824822155E+03  0.00000000000E+00 0.  1.
         11    1    4    4    0    0  0.27892649247E+02 -0.12205525520E+02  0.61770161767E+02  0.68866012081E+02  0.00000000000E+00 0. -1.
         -1    1    1    2    0  502 -0.87123494570E+02 -0.68572857971E+02  0.99277192581E+02  0.14882439694E+03  0.00000000000E+00 0.  1.
<scales pt_clust_5="13000.00000" pt_clust_6="13000.00000" pt_clust_7="13000.00000" pt_clust_8="13000.00000" pt_clust_9="95.61954"></scales>
<clustering>
<clus scale="   81.376">  5  6 -1 -1</clus>
<clus scale="   90.496">  7  8 -1 -1</clus>
<clus scale="  110.378">  1  5  2 -1</clus>
<clus scale="   95.620">  2  9  1 -1</clus>
<clus scale="   95.620">  2  5  1 -1</clus>
</clustering>
</event>
<event>
 9    1  0.6345107E-005  0.2319069E+03  0.7546771E-02  0.1160071E+00
         -4   -1    0    0    0  501 -0.00000000000E+00  0.00000000000E+00  0.19406025627E+03  0.19406025627E+03  0.00000000000E+00 0.  1.
         21   -1    0    0  501  502  0.00000000000E+00 -0.00000000000E+00 -0.57270240743E+03  0.57270240743E+03  0.00000000000E+00 0.  1.
        -24    2    1    2    0    0 -0.38939663873E+02  0.39920948338E+02 -0.24454448256E+03  0.26444403243E+03  0.83777459992E+02 0.  0.
         23    2    1    2    0    0  0.20408361247E+03 -0.14642426653E+03 -0.65381982002E+01  0.26803909944E+03  0.93338224146E+02 0.  0.
         13    1    3    3    0    0 -0.51916649464E+02  0.29490259055E+02 -0.84110145238E+02  0.10314809936E+03  0.00000000000E+00 0. -1.
        -14    1    3    3    0    0  0.12976985591E+02  0.10430689283E+02 -0.16043433732E+03  0.16129593307E+03  0.00000000000E+00 0.  1.
        -11    1    4    4    0    0  0.18560534496E+03 -0.96302451413E+02  0.16734497389E+02  0.20977023056E+03  0.00000000000E+00 0.  1.
         11    1    4    4    0    0  0.18478267507E+02 -0.50121815118E+02 -0.23272695589E+02  0.58268868881E+02  0.00000000000E+00 0. -1.
         -3    1    1    2    0  502 -0.16514394859E+03  0.10650331819E+03 -0.12755947040E+03  0.23427953182E+03  0.00000000000E+00 0.  1.
<scales pt_clust_5="13000.00000" pt_clust_6="13000.00000" pt_clust_7="13000.00000" pt_clust_8="13000.00000" pt_clust_9="212.29407"></scales>
<clustering>
<clus scale="   83.777">  5  6 -1 -1</clus>
<clus scale="   93.338">  7  8 -1 -1</clus>
<clus scale="  100.641">  1  5  2 -1</clus>
<clus scale="  212.294">  2  9  1 -1</clus>
<clus scale="  212.294">  2  5  1 -1</clus>
</clustering>
</event>
<event>
 9    1  0.6345107E-005  0.1104685E+03  0.7546771E-02  0.1265922E+00
         -4   -1    0    0    0  501 -0.00000000000E+00  0.00000000000E+00  0.18883262288E+03  0.18883262288E+03  0.00000000000E+00 0.  1.
         21   -1    0    0  501  502  0.00000000000E+00 -0.00000000000E+00 -0.10144503971E+03  0.10144503971E+03  0.00000000000E+00 0. -1.
        -24    2    1    2    0    0  0.24874138985E+02 -0.52317925061E+02  0.38710660109E+02  0.10536074177E+03  0.79034692561E+02 0.  0.
         23    2    1    2    0    0  0.81278198355E+01  0.63089237365E+02 -0.12693231918E+02  0.11440843638E+03  0.94243614380E+02 0.  0.
         13    1    3    3    0    0 -0.24008292226E+02 -0.40981356119E+02  0.14601797329E+02  0.49689859430E+02  0.00000000000E+00 0. -1.
        -14    1    3    3    0    0  0.48882431210E+02 -0.11336568941E+02  0.24108862780E+02  0.55670882344E+02  0.00000000000E+00 0.  1.
        -13    1    4    4    0    0  0.39010132600E+02 -0.46189769525E+01 -0.41638777607E+01  0.39502699548E+02  0.00000000000E+00 0.  1.
         13    1    4    4    0    0 -0.30882312765E+02  0.67708214317E+02 -0.85293541578E+01  0.74905736830E+02  0.00000000000E+00 0. -1.
         -3    1    1    2    0  502 -0.33001958820E+02 -0.10771312304E+02  0.61370154983E+02  0.70508484435E+02  0.00000000000E+00 0.  1.
<scales pt_clust_5="13000.00000" pt_clust_6="13000.00000" pt_clust_7="13000.00000" pt_clust_8="13000.00000" pt_clust_9="34.71529"></scales>
<clustering>
<clus scale="   34.715">  2  9  1 -1</clus>
<clus scale="   79.035">  5  6 -1 -1</clus>
<clus scale="   94.244">  7  8 -1 -1</clus>
<clus scale="   97.816">  1  5  2 -1</clus>
<clus scale="   34.715">  2  5  1 -1</clus>
</clustering>
</event>
<event>
 9    1  0.6345107E-005  0.1480647E+03  0.7546771E-02  0.1226444E+00
          1   -1    0    0  502    0 -0.00000000000E+00  0.00000000000E+00  0.13711756779E+04  0.13711756779E+04  0.00000000000E+00 0. -1.
         21   -1    0    0  501  502  0.00000000000E+00 -0.00000000000E+00 -0.25905110013E+02  0.25905110013E+02  0.00000000000E+00 0. -1.
        -24    2    1    2    0    0 -0.37192746995E+02  0.53360346112E+00  0.24124608700E+03  0.25743633574E+03  0.81793687431E+02 0.  0.
         23    2    1    2    0    0  0.61946264221E+02  0.10611871442E+03  0.42309573781E+03  0.44996959641E+03  0.91455525470E+02 0.  0.
         13    1    3    3    0    0 -0.39379665988E+02 -0.32749075975E+02  0.18580765230E+03  0.19273749952E+03  0.00000000000E+00 0. -1.
        -14    1    3    3    0    0  0.21869189928E+01  0.33282679436E+02  0.55438434707E+02  0.64698836218E+02  0.00000000000E+00 0.  1.
        -11    1    4    4    0    0  0.21269129474E+02 -0.11564293641E+02  0.36352001546E+02  0.43675814501E+02  0.00000000000E+00 0.  1.
         11    1    4    4    0    0  0.40677134747E+02  0.11768300807E+03  0.38674373627E+03  0.40629378191E+03  0.00000000000E+00 0. -1.
          2    1    1    2  501    0 -0.24753517225E+02 -0.10665231789E+03  0.68092874302E+03  0.68967485571E+03  0.00000000000E+00 0. -1.
<scales pt_clust_5="13000.00000" pt_clust_6="13000.00000" pt_clust_7="13000.00000" pt_clust_8="13000.00000" pt_clust_9="116.44336"></scales>
<clustering>
<clus scale="   81.794">  5  6 -1 -1</clus>
<clus scale="   89.854">  1  5  2 -1</clus>
<clus scale="   91.456">  7  8 -1 -1</clus>
<clus scale="  116.443">  2  9  1 -1</clus>
<clus scale="  116.443">  2  5  1 -1</clus>
</clustering>
</event>
<event>
 9    1  0.6345107E-005  0.2094788E+03  0.7546771E-02  0.1146016E+00
         21   -1    0    0  501  502  0.00000000000E+00  0.00000000000E+00  0.82939179331E+03  0.82939179331E+03  0.00000000000E+00 0.  1.
          3   -1    0    0  502    0 -0.00000000000E+00 -0.00000000000E+00 -0.11783801822E+03  0.11783801822E+03  0.00000000000E+00 0. -1.
         23    2    1    2    0    0  0.10674938927E+03  0.14161832852E+03  0.53275496220E+01  0.21348684249E+03  0.11873106606E+03 0.  0.
        -24    2    1    2    0    0 -0.93322257464E+02 -0.11210887635E+03  0.60573987428E+03  0.62815602661E+03  0.79885884732E+02 0.  0.
         13    1    4    4    0    0  0.95922920415E+01 -0.31031046515E+02  0.17282198967E+03  0.17584759887E+03  0.00000000000E+00 0. -1.
        -14    1    4    4    0    0 -0.10291454951E+03 -0.81077829832E+02  0.43291788461E+03  0.45230842774E+03  0.00000000000E+00 0.  1.
        -11    1    3    3    0    0  0.41255567080E+02  0.60800634287E+02 -0.56311100196E+02  0.92572560460E+02  0.00000000000E+00 0. -1.
         11    1    3    3    0    0  0.65493822194E+02  0.80817694238E+02  0.61638649818E+02  0.12091428203E+03  0.00000000000E+00 0.  1.
          4    1    1    2  501    0 -0.13427131810E+02 -0.29509452178E+02  0.10048635119E+03  0.10558694243E+03  0.00000000000E+00 0. -1.
<scales pt_clust_5="13000.00000" pt_clust_6="13000.00000" pt_clust_7="13000.00000" pt_clust_8="13000.00000" pt_clust_9="32.42061"></scales>
<clustering>
<clus scale="   32.421">  1  9  2 -1</clus>
<clus scale="   79.886">  5  6 -1 -1</clus>
<clus scale="  118.731">  7  8 -1 -1</clus>
<clus scale="  190.174">  1  5  2 -1</clus>
<clus scale="   32.421">  1  5  2 -1</clus>
</clustering>
</event>
<event>
 9    1  0.6345107E-005  0.5368073E+03  0.7546771E-02  0.1004686E+00
          1   -1    0    0  502    0 -0.00000000000E+00  0.00000000000E+00  0.86594999636E+03  0.86594999636E+03  0.00000000000E+00 0. -1.
         21   -1    0    0  501  502  0.00000000000E+00 -0.00000000000E+00 -0.75326136719E+03  0.75326136719E+03  0.00000000000E+00 0. -1.
        -24    2    1    2    0    0  0.54905647823E+03  0.70374923202E+02  0.41540124575E+03  0.69692344378E+03  0.82027101695E+02 0.  0.
         23    2    1    2    0    0 -0.45537527579E+03  0.19042449636E+03 -0.38565207896E+03  0.63302772660E+03  0.91479210886E+02 0.  0.
         13    1    3    3    0    0  0.13674067758E+03  0.52020460040E+02  0.12270692450E+03  0.19094797849E+03  0.00000000000E+00 0. -1.
        -14    1    3    3    0    0  0.41231580065E+03  0.18354463162E+02  0.29269432125E+03  0.50597546529E+03  0.00000000000E+00 0.  1.
        -13    1    4    4    0    0 -0.11734061681E+03  0.85282371333E+02 -0.82006827113E+02  0.16663439893E+03  0.00000000000E+00 0.  1.
         13    1    4    4    0    0 -0.33803465898E+03  0.10514212503E+03 -0.30364525185E+03  0.46639332767E+03  0.00000000000E+00 0. -1.
          2    1    1    2  501    0 -0.93681202440E+02 -0.26079941956E+03  0.82939462377E+02  0.28926019317E+03  0.00000000000E+00 0. -1.
<scales pt_clust_5="13000.00000" pt_clust_6="13000.00000" pt_clust_7="13000.00000" pt_clust_8="13000.00000" pt_clust_9="277.11474"></scales>
<clustering>
<clus scale="   82.027">  5  6 -1 -1</clus>
<clus scale="   91.479">  7  8 -1 -1</clus>
<clus scale="  277.115">  2  9  1 -1</clus>
<clus scale="  535.278">  1  5  2 -1</clus>
<clus scale="  277.115">  2  5  1 -1</clus>
</clustering>
</event>
<event>
 9    1  0.6345107E-005  0.1884833E+03  0.7546771E-02  0.1161276E+00
         21   -1    0    0  501  502  0.00000000000E+00  0.00000000000E+00  0.12766987892E+03  0.12766987892E+03  0.00000000000E+00 0. -1.
          3   -1    0    0  502    0 -0.00000000000E+00 -0.00000000000E+00 -0.46268422098E+03  0.46268422098E+03  0.00000000000E+00 0. -1.
         23    2    1    2    0    0  0.17564604758E+03 -0.23429064840E+02 -0.15607767403E+03  0.25330975914E+03  0.91679543165E+02 0.  0.
        -24    2    1    2    0    0 -0.14609130325E+03 -0.36817629532E+01 -0.12877267696E+02  0.16621049068E+03  0.78127325081E+02 0.  0.
         11    1    4    4    0    0 -0.13642526567E+03 -0.11415154699E+02 -0.34601385376E+02  0.14120699254E+03  0.00000000000E+00 0. -1.
        -12    1    4    4    0    0 -0.96660375747E+01  0.77333917458E+01  0.21724117681E+02  0.25003498141E+02  0.00000000000E+00 0.  1.
        -13    1    3    3    0    0  0.58357694995E+02  0.16629073719E+02 -0.10067915637E+03  0.11755185743E+03  0.00000000000E+00 0.  1.
         13    1    3    3    0    0  0.11728835259E+03 -0.40058138559E+02 -0.55398517653E+02  0.13575790170E+03  0.00000000000E+00 0. -1.
          4    1    1    2  501    0 -0.29554744333E+02  0.27110827793E+02 -0.16605940034E+03  0.17083385009E+03  0.00000000000E+00 0. -1.
<scales pt_clust_5="13000.00000" pt_clust_6="13000.00000" pt_clust_7="13000.00000" pt_clust_8="13000.00000" pt_clust_9="40.10588"></scales>
<clustering>
<clus scale="   40.106">  1  9  2 -1</clus>
<clus scale="   78.127">  5  6 -1 -1</clus>
<clus scale="   91.680">  7  8 -1 -1</clus>
<clus scale="  182.276">  1  5  2 -1</clus>
<clus scale="   40.106">  1  5  2 -1</clus>
</clustering>
</event>
<event>
 9    1  0.6345107E-005  0.8770341E+02  0.7546771E-02  0.1311972E+00
         21   -1    0    0  501  502  0.00000000000E+00  0.00000000000E+00  0.71383537367E+02  0.71383537367E+02  0.00000000000E+00 0. -1.
          3   -1    0    0  502    0 -0.00000000000E+00 -0.00000000000E+00 -0.41546972811E+03  0.41546972811E+03  0.00000000000E+00 0. -1.
         23    2    1    2    0    0  0.16522877396E+01  0.65523087260E+01 -0.24278307301E+03  0.25784199610E+03  0.86563338696E+02 0.  0.
        -24    2    1    2    0    0 -0.21397901543E+02  0.62014588243E+02 -0.11613870954E+03  0.15613189363E+03  0.81149793650E+02 0.  0.
         13    1    4    4    0    0 -0.36847280363E+02  0.74769378140E+02 -0.84583928562E+02  0.11875446496E+03  0.00000000000E+00 0. -1.
        -14    1    4    4    0    0  0.15449378820E+02 -0.12754789897E+02 -0.31554780978E+02  0.37377428667E+02  0.00000000000E+00 0.  1.
        -11    1    3    3    0    0  0.35291123244E+02 -0.22787793931E+02 -0.12604985139E+03  0.13286576673E+03  0.00000000000E+00 0.  1.
         11    1    3    3    0    0 -0.33638835504E+02  0.29340102657E+02 -0.11673322162E+03  0.12497622937E+03  0.00000000000E+00 0. -1.
          4    1    1    2  501    0  0.19745613804E+02 -0.68566896969E+02  0.14835591814E+02  0.72879375744E+02  0.00000000000E+00 0. -1.
<scales pt_clust_5="13000.00000" pt_clust_6="13000.00000" pt_clust_7="13000.00000" pt_clust_8="13000.00000" pt_clust_9="71.35341"></scales>
<clustering>
<clus scale="   71.353">  1  9  2 -1</clus>
<clus scale="   81.150">  5  6 -1 -1</clus>
<clus scale="   82.365">  1  5  2 -1</clus>
<clus scale="   86.563">  7  8 -1 -1</clus>
<clus scale="   71.353">  1  5  2 -1</clus>
</clustering>
</event>
<event>
 9    1  0.6345107E-005  0.1129768E+03  0.7546771E-02  0.1259697E+00
         21   -1    0    0  501  502  0.00000000000E+00  0.00000000000E+00  0.77275401177E+02  0.77275401177E+02  0.00000000000E+00 0. -1.
         -2   -1    0    0    0  501 -0.00000000000E+00 -0.00000000000E+00 -0.43750544664E+03  0.43750544664E+03  0.00000000000E+00 0.  1.
        -24    2    1    2    0    0  0.46477676815E+02 -0.55918458890E+02 -0.32600742787E+03  0.34352336237E+03  0.80252158750E+02 0.  0.
         23    2    1    2    0    0 -0.20247857359E+02  0.45661609195E+01  0.14462460336E+02  0.95790282314E+02  0.92389338528E+02 0.  0.
         11    1    3    3    0    0 -0.18833002760E+02 -0.18262725144E+02 -0.40686703171E+02  0.48410917545E+02  0.00000000000E+00 0. -1.
        -12    1    3    3    0    0  0.65310679575E+02 -0.37655733746E+02 -0.28532072469E+03  0.29511244483E+03  0.00000000000E+00 0.  1.
        -11    1    4    4    0    0  0.28320821310E+02  0.13786985237E+02 -0.18351851174E+02  0.36454633767E+02  0.00000000000E+00 0.  1.
         11    1    4    4    0    0 -0.48568678668E+02 -0.92208243177E+01  0.32814311509E+02  0.59335648547E+02  0.00000000000E+00 0. -1.
         -1    1    1    2    0  502 -0.26229819456E+02  0.51352297970E+02 -0.48685077939E+02  0.75467203138E+02  0.00000000000E+00 0.  1.
<scales pt_clust_5="13000.00000" pt_clust_6="13000.00000" pt_clust_7="13000.00000" pt_clust_8="13000.00000" pt_clust_9="57.66335"></scales>
<clustering>
<clus scale="   57.663">  1  9  2 -1</clus>
<clus scale="   80.252">  5  6 -1 -1</clus>
<clus scale="   92.389">  7  8 -1 -1</clus>
<clus scale="  103.288">  2  5  1 -1</clus>
<clus scale="   57.663">  1  5  2 -1</clus>
</clustering>
</event>
<event>
 9    1  0.6345107E-005  0.1001002E+03  0.7546771E-02  0.1286918E+00
          1   -1    0    0  502    0 -0.00000000000E+00  0.00000000000E+00  0.22615160402E+03  0.22615160402E+03  0.00000000000E+00 0. -1.
         21   -1    0    0  501  502  0.00000000000E+00 -0.00000000000E+00 -0.10103213488E+03  0.10103213488E+03  0.00000000000E+00 0.  1.
         23    2    1    2    0    0  0.28963187713E+02 -0.17432778436E+02  0.14427261723E+03  0.17388269004E+03  0.90982601671E+02 0.  0.
        -24    2    1    2    0    0 -0.56062818433E+02  0.29424582687E+02  0.22175457634E+02  0.10244589175E+03  0.77424570633E+02 0.  0.
         11    1    4    4    0    0 -0.59091677463E+01 -0.25141607027E+02  0.39843458771E+01  0.26132234490E+02  0.00000000000E+00 0. -1.
        -12    1    4    4    0    0 -0.50153650687E+02  0.54566189714E+02  0.18191111757E+02  0.76313657258E+02  0.00000000000E+00 0.  1.
        -11    1    3    3    0    0  0.14291791104E+02  0.28584601590E+02  0.13899121052E+02  0.34849968537E+02  0.00000000000E+00 0.  1.
         11    1    3    3    0    0  0.14671396609E+02 -0.46017380026E+02  0.13037349618E+03  0.13903272150E+03  0.00000000000E+00 0. -1.
          2    1    1    2  501    0  0.27099630719E+02 -0.11991804251E+02 -0.41328605719E+02  0.50855157113E+02  0.00000000000E+00 0. -1.
<scales pt_clust_5="13000.00000" pt_clust_6="13000.00000" pt_clust_7="13000.00000" pt_clust_8="13000.00000" pt_clust_9="29.63433"></scales>
<clustering>
<clus scale="   29.634">  2  9  1 -1</clus>
<clus scale="   77.425">  5  6 -1 -1</clus>
<clus scale="   87.959">  2  5  1 -1</clus>
<clus scale="   90.983">  7  8 -1 -1</clus>
<clus scale="   29.634">  2  5  1 -1</clus>
</clustering>
</event>
<event>
 9    1  0.6345107E-005  0.1728591E+03  0.7546771E-02  0.1181489E+00
          1   -1    0    0  502    0 -0.00000000000E+00  0.00000000000E+00  0.50772266391E+03  0.50772266391E+03  0.00000000000E+00 0. -1.
         21   -1    0    0  501  502  0.00000000000E+00 -0.00000000000E+00 -0.69445468223E+02  0.69445468223E+02  0.00000000000E+00 0. -1.
         23    2    1    2    0    0 -0.11527194405E+03 -0.49650560682E+02  0.17518513721E+03  0.23880308699E+03  0.10287994359E+03 0.  0.
        -24    2    1    2    0    0  0.14913685436E+03  0.39718277855E+02  0.15736253758E+03  0.22690108693E+03  0.53868284662E+02 0.  0.
         11    1    4    4    0    0  0.94421430657E+02  0.29177090318E+02  0.13394892653E+03  0.16646027780E+03  0.00000000000E+00 0. -1.
        -12    1    4    4    0    0  0.54715423705E+02  0.10541187537E+02  0.23413611046E+02  0.60440809128E+02  0.00000000000E+00 0.  1.
        -13    1    3    3    0    0 -0.56618769418E+02 -0.88729493990E+01  0.91275016109E+01  0.58032108071E+02  0.00000000000E+00 0. -1.
         13    1    3    3    0    0 -0.58653174635E+02 -0.40777611283E+02  0.16605763560E+03  0.18077097892E+03  0.00000000000E+00 0.  1.
          2    1    1    2  501    0 -0.33864910308E+02  0.99322828273E+01  0.10572952090E+03  0.11146395822E+03  0.00000000000E+00 0. -1.
<scales pt_clust_5="13000.00000" pt_clust_6="13000.00000" pt_clust_7="13000.00000" pt_clust_8="13000.00000" pt_clust_9="35.29141"></scales>
<clustering>
<clus scale="   35.291">  2  9  1 -1</clus>
<clus scale="   53.868">  5  6 -1 -1</clus>
<clus scale="  102.880">  7  8 -1 -1</clus>
<clus scale="  148.989">  2  5  1 -1</clus>
<clus scale="   35.291">  2  5  1 -1</clus>
</clustering>
</event>
<event>
 9    1  0.6345107E-005  0.9227423E+02  0.7546771E-02  0.1304282E+00
          1   -1    0    0  502    0 -0.00000000000E+00  0.00000000000E+00  0.40826900618E+03  0.40826900618E+03  0.00000000000E+00 0. -1.
         21   -1    0    0  501  502  0.00000000000E+00 -0.00000000000E+00 -0.71687286384E+02  0.71687286384E+02  0.00000000000E+00 0. -1.
        -24    2    1    2    0    0  0.32966599091E+01  0.21657482473E+02  0.26611037416E+03  0.27879205837E+03  0.80189563306E+02 0.  0.
         23    2    1    2    0    0  0.34481490944E+02  0.17308196145E+02  0.98820057739E+02  0.13993383104E+03  0.91255281424E+02 0.  0.
         13    1    3    3    0    0 -0.37072148225E+02  0.13652595392E+02  0.16419653776E+03  0.16888232752E+03  0.00000000000E+00 0. -1.
        -14    1    3    3    0    0  0.40368808134E+02  0.80048870812E+01  0.10191383640E+03  0.10990973085E+03  0.00000000000E+00 0.  1.
        -13    1    4    4    0    0  0.41570353770E+02  0.50339175559E+02  0.65963823626E+02  0.92808151237E+02  0.00000000000E+00 0. -1.
         13    1    4    4    0    0 -0.70888628264E+01 -0.33030979415E+02  0.32856234113E+02  0.47125679808E+02  0.00000000000E+00 0.  1.
          2    1    1    2  501    0 -0.37778150853E+02 -0.38965678618E+02 -0.28348712100E+02  0.61230403149E+02  0.00000000000E+00 0. -1.
<scales pt_clust_5="13000.00000" pt_clust_6="13000.00000" pt_clust_7="13000.00000" pt_clust_8="13000.00000" pt_clust_9="54.27258"></scales>
<clustering>
<clus scale="   54.273">  2  9  1 -1</clus>
<clus scale="   80.190">  5  6 -1 -1</clus>
<clus scale="   81.347">  1  5  2 -1</clus>
<clus scale="   91.255">  7  8 -1 -1</clus>
<clus scale="   54.273">  2  5  1 -1</clus>
</clustering>
</event>
<event>
 9    1  0.6345107E-005  0.1561543E+03  0.7546771E-02  0.1214238E+00
         -2   -1    0    0    0  501 -0.00000000000E+00  0.00000000000E+00  0.35249830528E+03  0.35249830528E+03  0.00000000000E+00 0.  1.
         21   -1    0    0  501  502  0.00000000000E+00 -0.00000000000E+00 -0.13333757527E+03  0.13333757527E+03  0.00000000000E+00 0. -1.
        -24    2    1    2    0    0  0.43393622364E+02 -0.35513499912E+02 -0.23407902489E+02  0.10169448294E+03  0.81545219506E+02 0.  0.
         23    2    1    2    0    0  0.10670751848E+03  0.26467029048E+02  0.90091646510E+02  0.16998859615E+03  0.93234220779E+02 0.  0.
         13    1    3    3    0    0  0.30525790186E+02 -0.52013321597E+02 -0.42170127198E+02  0.73590278692E+02  0.00000000000E+00 0. -1.
        -14    1    3    3    0    0  0.12867832178E+02  0.16499821685E+02  0.18762224709E+02  0.28104204252E+02  0.00000000000E+00 0.  1.
        -11    1    4    4    0    0  0.81479022362E+02  0.23834801093E+02  0.94099836991E+01  0.85413562281E+02  0.00000000000E+00 0. -1.
         11    1    4    4    0    0  0.25228496114E+02  0.26322279552E+01  0.80681662811E+02  0.84575033870E+02  0.00000000000E+00 0.  1.
         -1    1    1    2    0  502 -0.15010114084E+03  0.90464708642E+01  0.15247698599E+03  0.21415280146E+03  0.00000000000E+00 0.  1.
<scales pt_clust_5="13000.00000" pt_clust_6="13000.00000" pt_clust_7="13000.00000" pt_clust_8="13000.00000" pt_clust_9="125.26596"></scales>
<clustering>
<clus scale="   81.545">  5  6 -1 -1</clus>
<clus scale="   93.234">  7  8 -1 -1</clus>
<clus scale="   98.964">  1  5  2 -1</clus>
<clus scale="  125.266">  2  9  1 -1</clus>
<clus scale="  125.266">  2  5  1 -1</clus>
</clustering>
</event>
<event>
 9    1  0.6345107E-005  0.2134932E+03  0.7546771E-02  0.1171584E+00
          1   -1    0    0  502    0 -0.00000000000E+00  0.00000000000E+00  0.37378563062E+03  0.37378563062E+03  0.00000000000E+00 0. -1.
         21   -1    0    0  501  502  0.00000000000E+00 -0.00000000000E+00 -0.35274339975E+03  0.35274339975E+03  0.00000000000E+00 0. -1.
         23    2    1    2    0    0  0.18476014546E+02  0.10299486047E+00  0.17194199801E+03  0.19837430490E+03  0.97195372529E+02 0.  0.
        -24    2    1    2    0    0 -0.18940516862E+02 -0.19747792344E+03  0.75980471021E+02  0.22743605185E+03  0.81227164678E+02 0.  0.
         13    1    4    4    0    0 -0.50548590726E+02 -0.10658957244E+03  0.46387660638E+02  0.12676084584E+03  0.00000000000E+00 0. -1.
        -14    1    4    4    0    0  0.31608073864E+02 -0.90888350998E+02  0.29592810383E+02  0.10067520602E+03  0.00000000000E+00 0.  1.
        -11    1    3    3    0    0  0.63048391496E+01  0.46627277042E+02  0.57899350195E+02  0.74606894548E+02  0.00000000000E+00 0.  1.
         11    1    3    3    0    0  0.12171175397E+02 -0.46524282182E+02  0.11404264782E+03  0.12376741035E+03  0.00000000000E+00 0. -1.
          2    1    1    2  501    0  0.46450231589E+00  0.19737492858E+03 -0.22688023816E+03  0.30071867362E+03  0.00000000000E+00 0. -1.
<scales pt_clust_5="13000.00000" pt_clust_6="13000.00000" pt_clust_7="13000.00000" pt_clust_8="13000.00000" pt_clust_9="197.43726"></scales>
<clustering>
<clus scale="   81.227">  5  6 -1 -1</clus>
<clus scale="   97.195">  7  8 -1 -1</clus>
<clus scale="   98.936">  1  7  2 -1</clus>
<clus scale="  197.437">  2  9  1 -1</clus>
<clus scale="  197.437">  2  5  1 -1</clus>
</clustering>
</event>
<event>
 9    1  0.6345107E-005  0.1340476E+03  0.7546771E-02  0.1228920E+00
         21   -1    0    0  501  502  0.00000000000E+00  0.00000000000E+00  0.36683154302E+03  0.36683154302E+03  0.00000000000E+00 0.  1.
          3   -1    0    0  502    0 -0.00000000000E+00 -0.00000000000E+00 -0.17845865713E+03  0.17845865713E+03  0.00000000000E+00 0. -1.
        -24    2    1    2    0    0 -0.11898492951E+02  0.76810727178E+02 -0.11123563823E+03  0.15776605429E+03  0.80469240902E+02 0.  0.
         23    2    1    2    0    0  0.46740107021E+02 -0.10339662291E+03  0.10341986502E+03  0.18649992373E+03  0.10588226403E+03 0.  0.
         13    1    3    3    0    0  0.23784953396E+02  0.71877775059E+02 -0.71573303128E+02  0.10418673752E+03  0.00000000000E+00 0. -1.
        -14    1    3    3    0    0 -0.35683446347E+02  0.49329521191E+01 -0.39662335098E+02  0.53579316767E+02  0.00000000000E+00 0.  1.
        -11    1    4    4    0    0  0.26723799708E+02  0.13357676941E+02  0.98100822283E+00  0.29892329806E+02  0.00000000000E+00 0. -1.
         11    1    4    4    0    0  0.20016307313E+02 -0.11675429985E+03  0.10243885680E+03  0.15660759393E+03  0.00000000000E+00 0.  1.
          4    1    1    2  501    0 -0.34841614070E+02  0.26585895733E+02  0.19618865910E+03  0.20102422213E+03  0.00000000000E+00 0. -1.
<scales pt_clust_5="13000.00000" pt_clust_6="13000.00000" pt_clust_7="13000.00000" pt_clust_8="13000.00000" pt_clust_9="43.82634"></scales>
<clustering>
<clus scale="   43.826">  1  9  2 -1</clus>
<clus scale="   80.469">  5  6 -1 -1</clus>
<clus scale="  105.882">  7  8 -1 -1</clus>
<clus scale="  115.035">  2  5  1 -1</clus>
<clus scale="   43.826">  1  5  2 -1</clus>
</clustering>
</event>
<event>
 9    1  0.6345107E-005  0.1013886E+03  0.7546771E-02  0.1280958E+00
         21   -1    0    0  501  502  0.00000000000E+00  0.00000000000E+00  0.28594924535E+03  0.28594924535E+03  0.00000000000E+00 0. -1.
          1   -1    0    0  502    0 -0.00000000000E+00 -0.00000000000E+00 -0.11359465010E+03  0.11359465010E+03  0.00000000000E+00 0. -1.
        -24    2    1    2    0    0 -0.34375880662E+01  0.62394381069E+02 -0.47542066002E+02  0.11533946547E+03  0.84487090463E+02 0.  0.
         23    2    1    2    0    0  0.84797673108E+01  0.17619602194E+02  0.81963324627E+02  0.12466363130E+03  0.91873160119E+02 0.  0.
         13    1    3    3    0    0 -0.19593697317E+02  0.78967977379E+02 -0.41894882536E+02  0.91515220639E+02  0.00000000000E+00 0. -1.
        -14    1    3    3    0    0  0.16156109251E+02 -0.16573596310E+02 -0.56471834657E+01  0.23824244833E+02  0.00000000000E+00 0.  1.
        -11    1    4    4    0    0  0.43819947033E+02  0.33398014401E+02  0.51377470208E+02  0.75334318666E+02  0.00000000000E+00 0. -1.
         11    1    4    4    0    0 -0.35340179723E+02 -0.15778412206E+02  0.30585854419E+02  0.49329312636E+02  0.00000000000E+00 0.  1.
          2    1    1    2  501    0 -0.50421792446E+01 -0.80013983263E+02  0.13793333663E+03  0.15954079868E+03  0.00000000000E+00 0. -1.
<scales pt_clust_5="13000.00000" pt_clust_6="13000.00000" pt_clust_7="13000.00000" pt_clust_8="13000.00000" pt_clust_9="80.17270"></scales>
<clustering>
<clus scale="   80.173">  1  9  2 -1</clus>
<clus scale="   84.487">  5  6 -1 -1</clus>
<clus scale="   91.873">  7  8 -1 -1</clus>
<clus scale="   94.747">  2  5  1 -1</clus>
<clus scale="   80.173">  1  5  2 -1</clus>
</clustering>
</event>
<event>
 9    1  0.6345107E-005  0.1481461E+03  0.7546771E-02  0.1230612E+00
          1   -1    0    0  502    0 -0.00000000000E+00  0.00000000000E+00  0.90014929573E+02  0.90014929573E+02  0.00000000000E+00 0. -1.
         21   -1    0    0  501  502  0.00000000000E+00 -0.00000000000E+00 -0.46927966944E+03  0.46927966944E+03  0.00000000000E+00 0. -1.
        -24    2    1    2    0    0  0.65301949150E+01  0.81127872846E+01 -0.60589329374E+02  0.10219095116E+03  0.81630036764E+02 0.  0.
         23    2    1    2    0    0  0.99153380614E+02  0.47875518336E+02 -0.30671223661E+02  0.14525413264E+03  0.89635824010E+02 0.  0.
         11    1    3    3    0    0  0.22820324036E+02 -0.21687104572E+02  0.13947766301E+01  0.31512586306E+02  0.00000000000E+00 0. -1.
        -12    1    3    3    0    0 -0.16290129121E+02  0.29799891857E+02 -0.61984106004E+02  0.70678364855E+02  0.00000000000E+00 0.  1.
        -11    1    4    4    0    0  0.30149839701E+02 -0.17982434392E+02  0.16558456518E+02  0.38814472338E+02  0.00000000000E+00 0.  1.
         11    1    4    4    0    0  0.69003540913E+02  0.65857952727E+02 -0.47229680179E+02  0.10643966030E+03  0.00000000000E+00 0. -1.
          2    1    1    2  501    0 -0.10568357553E+03 -0.55988305620E+02 -0.28800418683E+03  0.31184951521E+03  0.00000000000E+00 0. -1.
<scales pt_clust_5="13000.00000" pt_clust_6="13000.00000" pt_clust_7="13000.00000" pt_clust_8="13000.00000" pt_clust_9="117.95202"></scales>
<clustering>
<clus scale="   81.630">  5  6 -1 -1</clus>
<clus scale="   82.292">  1  5  2 -1</clus>
<clus scale="   89.636">  7  8 -1 -1</clus>
<clus scale="  117.952">  2  9  1 -1</clus>
<clus scale="  117.952">  2  5  1 -1</clus>
</clustering>
</event>
<event>
 9    1  0.6345107E-005  0.1223142E+03  0.7546771E-02  0.1242548E+00
         -2   -1    0    0    0  501 -0.00000000000E+00  0.00000000000E+00  0.31396226550E+03  0.31396226550E+03  0.00000000000E+00 0.  1.
         21   -1    0    0  501  502  0.00000000000E+00 -0.00000000000E+00 -0.18588012313E+03  0.18588012313E+03  0.00000000000E+00 0.  1.
         23    2    1    2    0    0 -0.14773735167E+02 -0.84754749348E+02  0.17618862484E+03  0.21562942586E+03  0.89732864564E+02 0.  0.
        -24    2    1    2    0    0  0.36586536768E+02  0.72458810918E+02  0.89536356968E+02  0.14431106977E+03  0.78867431094E+02 0.  0.
         13    1    4    4    0    0 -0.82983958846E+01  0.36712308063E+02  0.76810765635E+02  0.85536838000E+02  0.00000000000E+00 0. -1.
        -14    1    4    4    0    0  0.44884932652E+02  0.35746502856E+02  0.12725591332E+02  0.58774231772E+02  0.00000000000E+00 0.  1.
        -13    1    3    3    0    0 -0.16661096181E+02 -0.19991123998E+02 -0.19275798728E+01  0.26095070968E+02  0.00000000000E+00 0. -1.
         13    1    3    3    0    0  0.18873610148E+01 -0.64763625350E+02  0.17811620472E+03  0.18953435489E+03  0.00000000000E+00 0.  1.
         -1    1    1    2    0  502 -0.21812801601E+02  0.12295938429E+02 -0.13764283945E+03  0.13990189300E+03  0.00000000000E+00 0.  1.
<scales pt_clust_5="13000.00000" pt_clust_6="13000.00000" pt_clust_7="13000.00000" pt_clust_8="13000.00000" pt_clust_9="25.03974"></scales>
<clustering>
<clus scale="   25.040">  2  9  1 -1</clus>
<clus scale="   78.867">  5  6 -1 -1</clus>
<clus scale="   89.733">  7  8 -1 -1</clus>
<clus scale="  114.581">  2  5  1 -1</clus>
<clus scale="   25.040">  2  5  1 -1</clus>
</clustering>
</event>
<event>
 9    1  0.6345107E-005  0.2626634E+03  0.7546771E-02  0.1106036E+00
         21   -1    0    0  501  502  0.00000000000E+00  0.00000000000E+00  0.84483349863E+03  0.84483349863E+03  0.00000000000E+00 0.  1.
          1   -1    0    0  502    0 -0.00000000000E+00 -0.00000000000E+00 -0.64256252852E+03  0.64256252852E+03  0.00000000000E+00 0. -1.
        -24    2    1    2    0    0  0.14057840034E+03  0.16264439484E+03  0.35240986268E+03  0.42087299980E+03  0.82011492055E+02 0.  0.
         23    2    1    2    0    0 -0.22590629850E+03 -0.17451384232E+03  0.40546187666E+03  0.50428291070E+03  0.91723408879E+02 0.  0.
         11    1    3    3    0    0 -0.42802441789E+01  0.40156318521E+02  0.62645014669E+02  0.74533537889E+02  0.00000000000E+00 0. -1.
        -12    1    3    3    0    0  0.14485864451E+03  0.12248807632E+03  0.28976484801E+03  0.34633946191E+03  0.00000000000E+00 0.  1.
        -11    1    4    4    0    0 -0.19456356461E+03 -0.15890652755E+03  0.29022809991E+03  0.38384712471E+03  0.00000000000E+00 0.  1.
         11    1    4    4    0    0 -0.31342733888E+02 -0.15607314765E+02  0.11523377676E+03  0.12043578599E+03  0.00000000000E+00 0. -1.
          2    1    1    2  501    0  0.85327898167E+02  0.11869447480E+02 -0.55560076924E+03  0.56224011665E+03  0.00000000000E+00 0. -1.
<scales pt_clust_5="13000.00000" pt_clust_6="13000.00000" pt_clust_7="13000.00000" pt_clust_8="13000.00000" pt_clust_9="86.14953"></scales>
<clustering>
<clus scale="   82.011">  5  6 -1 -1</clus>
<clus scale="   86.150">  1  9  2 -1</clus>
<clus scale="   91.723">  7  8 -1 -1</clus>
<clus scale="  259.432">  2  5  1 -1</clus>
<clus scale="   86.150">  1  5  2 -1</clus>
</clustering>
</event>
<event>
 9    1  0.6345107E-005  0.1401861E+03  0.7546771E-02  0.1229784E+00
         21   -1    0    0  501  502  0.00000000000E+00  0.00000000000E+00  0.11340122886E+04  0.11340122886E+04  0.00000000000E+00 0.  1.
         -2   -1    0    0    0  501 -0.00000000000E+00 -0.00000000000E+00 -0.92775058656E+02  0.92775058656E+02  0.00000000000E+00 0.  1.
        -24    2    1    2    0    0  0.24525804212E+01 -0.51234901520E+02  0.20333518315E+03  0.22606503410E+03  0.84434428119E+02 0.  0.
         23    2    1    2    0    0  0.91225701878E+02 -0.61037259598E+01 -0.25920213310E+02  0.12994551292E+03  0.88626151424E+02 0.  0.
         13    1    3    3    0    0 -0.28244336197E+02 -0.23061068458E+01  0.12819399757E+03  0.13128884823E+03  0.00000000000E+00 0. -1.
        -14    1    3    3    0    0  0.30696916618E+02 -0.48928794674E+02  0.75141185573E+02  0.94776185867E+02  0.00000000000E+00 0.  1.
        -11    1    4    4    0    0  0.47966358987E+02  0.30505688881E+02  0.16460177529E+02  0.59180284664E+02  0.00000000000E+00 0.  1.
         11    1    4    4    0    0  0.43259342891E+02 -0.36609414841E+02 -0.42380390839E+02  0.70765228256E+02  0.00000000000E+00 0. -1.
         -1    1    1    2    0  502 -0.93678282300E+02  0.57338627479E+02  0.86382226016E+03  0.87077680029E+03  0.00000000000E+00 0.  1.
<scales pt_clust_5="13000.00000" pt_clust_6="13000.00000" pt_clust_7="13000.00000" pt_clust_8="13000.00000" pt_clust_9="108.61654"></scales>
<clustering>
<clus scale="   84.434">  5  6 -1 -1</clus>
<clus scale="   88.626">  7  8 -1 -1</clus>
<clus scale="   98.794">  2  5  1 -1</clus>
<clus scale="  108.617">  1  9  2 -1</clus>
<clus scale="  108.617">  1  5  2 -1</clus>
</clustering>
</event>
<event>
 9    1  0.6345107E-005  0.1121228E+03  0.7546771E-02  0.1261447E+00
         21   -1    0    0  501  502  0.00000000000E+00  0.00000000000E+00  0.49215428163E+02  0.49215428163E+02  0.00000000000E+00 0.  1.
          1   -1    0    0  502    0 -0.00000000000E+00 -0.00000000000E+00 -0.31792648836E+03  0.31792648836E+03  0.00000000000E+00 0. -1.
         23    2    1    2    0    0  0.64929636916E+02  0.36593421615E+01 -0.14861653154E+03  0.18649437704E+03  0.92000166757E+02 0.  0.
        -24    2    1    2    0    0 -0.58482035748E+02 -0.31510929884E+02 -0.77576060638E+02  0.12941178418E+03  0.79475011754E+02 0.  0.
         13    1    4    4    0    0 -0.19091607991E+02 -0.48410788829E+02 -0.67763986546E+02  0.85440340843E+02  0.00000000000E+00 0. -1.
        -14    1    4    4    0    0 -0.39390427757E+02  0.16899858945E+02 -0.98120740924E+01  0.43971443338E+02  0.00000000000E+00 0.  1.
        -13    1    3    3    0    0  0.12202175769E+02 -0.32146337314E+02 -0.10169275692E+03  0.10734848348E+03  0.00000000000E+00 0.  1.
         13    1    3    3    0    0  0.52727461147E+02  0.35805679475E+02 -0.46923774627E+02  0.79145893557E+02  0.00000000000E+00 0. -1.
          2    1    1    2  501    0 -0.64476011681E+01  0.27851587723E+02 -0.42518468018E+02  0.51235755309E+02  0.00000000000E+00 0. -1.
<scales pt_clust_5="13000.00000" pt_clust_6="13000.00000" pt_clust_7="13000.00000" pt_clust_8="13000.00000" pt_clust_9="28.58817"></scales>
<clustering>
<clus scale="   28.588">  1  9  2 -1</clus>
<clus scale="   79.475">  5  6 -1 -1</clus>
<clus scale="   92.000">  7  8 -1 -1</clus>
<clus scale="  102.097">  1  5  2 -1</clus>
<clus scale="   28.588">  1  5  2 -1</clus>
</clustering>
</event>
<event>
 9    1  0.6345107E-005  0.9973726E+02  0.7546771E-02  0.1289645E+00
         21   -1    0    0  501  502  0.00000000000E+00  0.00000000000E+00  0.19974765352E+03  0.19974765352E+03  0.00000000000E+00 0. -1.
         -4   -1    0    0    0  501 -0.00000000000E+00 -0.00000000000E+00 -0.26399511702E+03  0.26399511702E+03  0.00000000000E+00 0.  1.
         23    2    1    2    0    0 -0.37456279241E+02  0.10120154062E+02 -0.23032400142E+03  0.25167176543E+03  0.93723751052E+02 0.  0.
        -24    2    1    2    0    0 -0.14496830130E+02  0.12387339269E+01  0.96133176412E+02  0.12420620141E+03  0.77291010574E+02 0.  0.
         11    1    4    4    0    0 -0.34748482844E+02  0.50685856676E+01  0.97419659647E+02  0.10355548130E+03  0.00000000000E+00 0. -1.
        -12    1    4    4    0    0  0.20251652714E+02 -0.38298517406E+01 -0.12864832356E+01  0.20650720112E+02  0.00000000000E+00 0.  1.
        -11    1    3    3    0    0  0.18703457034E+02  0.33465281862E+02 -0.64334892351E+02  0.74891406509E+02  0.00000000000E+00 0.  1.
         11    1    3    3    0    0 -0.56159736275E+02 -0.23345127799E+02 -0.16598910907E+03  0.17678035892E+03  0.00000000000E+00 0. -1.
         -3    1    1    2    0  502  0.51953109371E+02 -0.11358887989E+02  0.69943361513E+02  0.87864803701E+02  0.00000000000E+00 0.  1.
<scales pt_clust_5="13000.00000" pt_clust_6="13000.00000" pt_clust_7="13000.00000" pt_clust_8="13000.00000" pt_clust_9="53.18035"></scales>
<clustering>
<clus scale="   53.180">  1  9  2 -1</clus>
<clus scale="   77.291">  5  6 -1 -1</clus>
<clus scale="   84.482">  1  5  2 -1</clus>
<clus scale="   93.724">  7  8 -1 -1</clus>
<clus scale="   53.180">  1  5  2 -1</clus>
</clustering>
</event>
<event>
 9    1  0.6345107E-005  0.9530522E+02  0.7546771E-02  0.1296705E+00
         21   -1    0    0  501  502  0.00000000000E+00  0.00000000000E+00  0.89606818540E+02  0.89606818540E+02  0.00000000000E+00 0.  1.
          1   -1    0    0  502    0 -0.00000000000E+00 -0.00000000000E+00 -0.34440902507E+03  0.34440902507E+03  0.00000000000E+00 0. -1.
        -24    2    1    2    0    0  0.12642912650E+02 -0.22577205101E+02 -0.28512922421E+03  0.29730422730E+03  0.80134609517E+02 0.  0.
         23    2    1    2    0    0 -0.20455962655E+02  0.41767907569E+02  0.28805317223E+01  0.10232213532E+03  0.91096198616E+02 0.  0.
         13    1    3    3    0    0  0.25545098377E+02 -0.48603933760E+02 -0.17528542964E+03  0.18368417535E+03  0.00000000000E+00 0. -1.
        -14    1    3    3    0    0 -0.12902185727E+02  0.26026728659E+02 -0.10984379456E+03  0.11362005195E+03  0.00000000000E+00 0.  1.
        -13    1    4    4    0    0 -0.50899438100E+02  0.16324909619E+01 -0.56200859703E+01  0.51234784980E+02  0.00000000000E+00 0.  1.
         13    1    4    4    0    0  0.30443475445E+02  0.40135416607E+02  0.85006176926E+01  0.51087350338E+02  0.00000000000E+00 0. -1.
          2    1    1    2  501    0  0.78130500052E+01 -0.19190702467E+02  0.27446485956E+02  0.34389480992E+02  0.00000000000E+00 0. -1.
<scales pt_clust_5="13000.00000" pt_clust_6="13000.00000" pt_clust_7="13000.00000" pt_clust_8="13000.00000" pt_clust_9="20.72020"></scales>
<clustering>
<clus scale="   20.720">  1  9  2 -1</clus>
<clus scale="   80.135">  5  6 -1 -1</clus>
<clus scale="   84.889">  2  5  1 -1</clus>
<clus scale="   91.096">  7  8 -1 -1</clus>
<clus scale="   20.720">  1  5  2 -1</clus>
</clustering>
</event>
<event>
 9    1  0.6604846E-005  0.9619881E+02  0.7546771E-02  0.1295503E+00
         21   -1    0    0  501  502  0.00000000000E+00  0.00000000000E+00  0.32251027443E+03  0.32251027443E+03  0.00000000000E+00 0.  1.
          1   -1    0    0  502    0 -0.00000000000E+00 -0.00000000000E+00 -0.29865817996E+03  0.29865817996E+03  0.00000000000E+00 0. -1.
         23    2    1    2    0    0  0.32895771240E+02  0.10054922199E+02 -0.25379561949E+03  0.27231937403E+03  0.92533192843E+02 0.  0.
        -24    2    1    2    0    0  0.26256172604E+02 -0.72887841950E+01  0.23517454190E+02  0.87910787063E+02  0.80204257092E+02 0.  0.
         11    1    4    4    0    0  0.22736362991E+02 -0.36532022646E+02 -0.90803218261E+01  0.43977074996E+02  0.00000000000E+00 0. -1.
        -12    1    4    4    0    0  0.35198096131E+01  0.29243238452E+02  0.32597776016E+02  0.43933712067E+02  0.00000000000E+00 0.  1.
        -13    1    3    3    0    0 -0.21713369114E+02 -0.23490157236E+02 -0.57147857553E+02  0.65491491876E+02  0.00000000000E+00 0.  1.
         13    1    3    3    0    0  0.54609140353E+02  0.33545079435E+02 -0.19664776193E+03  0.20682788216E+03  0.00000000000E+00 0. -1.
          2    1    1    2  501    0 -0.59151943844E+02 -0.27661380041E+01  0.25413025977E+03  0.26093829330E+03  0.00000000000E+00 0. -1.
<scales pt_clust_5="13000.00000" pt_clust_6="13000.00000" pt_clust_7="13000.00000" pt_clust_8="13000.00000" pt_clust_9="59.21659"></scales>
<clustering>
<clus scale="   59.217">  1  9  2 -1</clus>
<clus scale="   80.204">  5  6 -1 -1</clus>
<clus scale="   84.407">  1  5  2 -1</clus>
<clus scale="   92.533">  7  8 -1 -1</clus>
<clus scale="   59.217">  1  5  2 -1</clus>
</clustering>
</event>
<event>
 9    1  0.6345107E-005  0.9333284E+02  0.7546771E-02  0.1297293E+00
          1   -1    0    0  502    0 -0.00000000000E+00  0.00000000000E+00  0.16413394823E+03  0.16413394823E+03  0.00000000000E+00 0. -1.
         21   -1    0    0  501  502  0.00000000000E+00 -0.00000000000E+00 -0.22983114510E+03  0.22983114510E+03  0.00000000000E+00 0. -1.
         23    2    1    2    0    0 -0.20125584031E+01 -0.12264133531E+01  0.87062995951E+02  0.12652595008E+03  0.91778517637E+02 0.  0.
        -24    2    1    2    0    0  0.66067048897E+02 -0.61147349120E+02 -0.48182843520E+02  0.12985322105E+03  0.80227298053E+02 0.  0.
         13    1    4    4    0    0 -0.14774172653E+02 -0.18202919864E+02  0.50201976515E+01  0.23975505284E+02  0.00000000000E+00 0. -1.
        -14    1    4    4    0    0  0.80841221550E+02 -0.42944429256E+02 -0.53203041171E+02  0.10587771577E+03  0.00000000000E+00 0.  1.
        -13    1    3    3    0    0 -0.26703714271E+02  0.37068836777E+02  0.36624533261E+02  0.58553765485E+02  0.00000000000E+00 0. -1.
         13    1    3    3    0    0  0.24691155867E+02 -0.38295250130E+02  0.50438462690E+02  0.67972184599E+02  0.00000000000E+00 0.  1.
          2    1    1    2  501    0 -0.64054490494E+02  0.62373762474E+02 -0.10457734931E+03  0.13758592219E+03  0.00000000000E+00 0. -1.
<scales pt_clust_5="13000.00000" pt_clust_6="13000.00000" pt_clust_7="13000.00000" pt_clust_8="13000.00000" pt_clust_9="89.40617"></scales>
<clustering>
<clus scale="   80.227">  5  6 -1 -1</clus>
<clus scale="   89.406">  2  9  1 -1</clus>
<clus scale="   89.406">  2  5  1 -1</clus>
<clus scale="   91.779">  7  8 -1 -1</clus>
<clus scale="   89.406">  2  5  1 -1</clus>
</clustering>
</event>
<event>
 9    1  0.6345107E-005  0.1545778E+03  0.7546771E-02  0.1197681E+00
         21   -1    0    0  501  502  0.00000000000E+00  0.00000000000E+00  0.48213468167E+02  0.48213468167E+02  0.00000000000E+00 0.  1.
          3   -1    0    0  502    0 -0.00000000000E+00 -0.00000000000E+00 -0.72165218338E+03  0.72165218338E+03  0.00000000000E+00 0. -1.
         23    2    1    2    0    0  0.11318364170E+03 -0.72476973036E+02 -0.47816654605E+03  0.50564505498E+03  0.94711284940E+02 0.  0.
        -24    2    1    2    0    0 -0.95389895224E+02  0.29399078049E+02 -0.11653100596E+03  0.17271926743E+03  0.79302787417E+02 0.  0.
         13    1    4    4    0    0 -0.28533157311E+02  0.44946055771E+02 -0.76678825861E+02  0.93348440431E+02  0.00000000000E+00 0. -1.
        -14    1    4    4    0    0 -0.66856737912E+02 -0.15546977722E+02 -0.39852180098E+02  0.79370827003E+02  0.00000000000E+00 0.  1.
        -11    1    3    3    0    0  0.78745364406E+02 -0.69697015203E+02 -0.44670699003E+03  0.45891790256E+03  0.00000000000E+00 0. -1.
         11    1    3    3    0    0  0.34438277298E+02 -0.27799578331E+01 -0.31459556019E+02  0.46727152425E+02  0.00000000000E+00 0.  1.
          4    1    1    2  501    0 -0.17793746480E+02  0.43077894987E+02 -0.78741163208E+02  0.91501329136E+02  0.00000000000E+00 0. -1.
<scales pt_clust_5="13000.00000" pt_clust_6="13000.00000" pt_clust_7="13000.00000" pt_clust_8="13000.00000" pt_clust_9="46.60818"></scales>
<clustering>
<clus scale="   46.608">  1  9  2 -1</clus>
<clus scale="   79.303">  5  6 -1 -1</clus>
<clus scale="   94.711">  7  8 -1 -1</clus>
<clus scale="  145.647">  1  5  2 -1</clus>
<clus scale="   46.608">  1  5  2 -1</clus>
</clustering>
</event>
<event>
 9    1  0.6345107E-005  0.1123400E+03  0.7546771E-02  0.1260807E+00
          1   -1    0    0  502    0 -0.00000000000E+00  0.00000000000E+00  0.10696024283E+03  0.10696024283E+03  0.00000000000E+00 0. -1.
         21   -1    0    0  501  502  0.00000000000E+00 -0.00000000000E+00 -0.57715819350E+03  0.57715819350E+03  0.00000000000E+00 0.  1.
         23    2    1    2    0    0  0.42235788316E+02 -0.45399658729E+02  0.39498532318E+02  0.11811901782E+03  0.92449864731E+02 0.  0.
        -24    2    1    2    0    0 -0.16650306593E+02  0.10015882201E+03 -0.48270433913E+03  0.49980456472E+03  0.80573578576E+02 0.  0.
         13    1    4    4    0    0  0.16249813660E+02  0.17990896199E+02 -0.30208083993E+02  0.38733152835E+02  0.00000000000E+00 0. -1.
        -14    1    4    4    0    0 -0.32900120253E+02  0.82167925813E+02 -0.45249625514E+03  0.46107141188E+03  0.00000000000E+00 0.  1.
        -13    1    3    3    0    0 -0.12978830203E+02 -0.25558280755E+02 -0.19692058086E+02  0.34777189367E+02  0.00000000000E+00 0.  1.
         13    1    3    3    0    0  0.55214618519E+02 -0.19841377974E+02  0.59190590404E+02  0.83341828456E+02  0.00000000000E+00 0. -1.
          2    1    1    2  501    0 -0.25585481723E+02 -0.54759163283E+02 -0.26992143861E+02  0.66194853793E+02  0.00000000000E+00 0. -1.
<scales pt_clust_5="13000.00000" pt_clust_6="13000.00000" pt_clust_7="13000.00000" pt_clust_8="13000.00000" pt_clust_9="60.44160"></scales>
<clustering>
<clus scale="   60.442">  2  9  1 -1</clus>
<clus scale="   80.574">  5  6 -1 -1</clus>
<clus scale="   92.450">  7  8 -1 -1</clus>
<clus scale="  102.788">  2  5  1 -1</clus>
<clus scale="   60.442">  2  5  1 -1</clus>
</clustering>
</event>
<event>
 9    1  0.6345107E-005  0.1722165E+03  0.7546771E-02  0.1176900E+00
         21   -1    0    0  501  502  0.00000000000E+00  0.00000000000E+00  0.50574549804E+03  0.50574549804E+03  0.00000000000E+00 0. -1.
          3   -1    0    0  502    0 -0.00000000000E+00 -0.00000000000E+00 -0.14655503128E+03  0.14655503128E+03  0.00000000000E+00 0. -1.
         23    2    1    2    0    0  0.17272995860E+03 -0.17950183579E+02  0.70201937041E+02  0.20833987573E+03  0.91210438925E+02 0.  0.
        -24    2    1    2    0    0 -0.74346479487E+02  0.54280405955E+02  0.31317088202E+03  0.33633175327E+03  0.81051128476E+02 0.  0.
         11    1    4    4    0    0 -0.39942251097E+02  0.73053633120E+02  0.20385783070E+03  0.22020497695E+03  0.00000000000E+00 0. -1.
        -12    1    4    4    0    0 -0.34404228390E+02 -0.18773227165E+02  0.10931305132E+03  0.11612677632E+03  0.00000000000E+00 0.  1.
        -13    1    3    3    0    0  0.16231555331E+03  0.85707342524E+01  0.41196432709E+02  0.16768107347E+03  0.00000000000E+00 0. -1.
         13    1    3    3    0    0  0.10414405289E+02 -0.26520917831E+02  0.29005504332E+02  0.40658802266E+02  0.00000000000E+00 0.  1.
          4    1    1    2  501    0 -0.98383479112E+02 -0.36330222376E+02 -0.24182352298E+02  0.10762890031E+03  0.00000000000E+00 0. -1.
<scales pt_clust_5="13000.00000" pt_clust_6="13000.00000" pt_clust_7="13000.00000" pt_clust_8="13000.00000" pt_clust_9="104.87709"></scales>
<clustering>
<clus scale="   81.051">  5  6 -1 -1</clus>
<clus scale="   91.210">  7  8 -1 -1</clus>
<clus scale="  104.877">  1  9  2 -1</clus>
<clus scale="  167.058">  1  5  2 -1</clus>
<clus scale="  104.877">  1  5  2 -1</clus>
</clustering>
</event>
<event>
 9    1  0.6345107E-005  0.1144320E+03  0.7546771E-02  0.1255253E+00
         -4   -1    0    0    0  501 -0.00000000000E+00  0.00000000000E+00  0.29523069948E+03  0.29523069948E+03  0.00000000000E+00 0.  1.
         21   -1    0    0  501  502  0.00000000000E+00 -0.00000000000E+00 -0.68427431009E+02  0.68427431009E+02  0.00000000000E+00 0. -1.
        -24    2    1    2    0    0 -0.33453449881E+02 -0.58284355008E+02  0.14473125037E+03  0.17858663861E+03  0.80186366097E+02 0.  0.
         23    2    1    2    0    0  0.24729033898E+02  0.80876220630E+02  0.97606108304E+02  0.15629970388E+03  0.88034975283E+02 0.  0.
         11    1    3    3    0    0  0.22256677799E+02 -0.39547263747E+02  0.54785464634E+02  0.71139250149E+02  0.00000000000E+00 0. -1.
        -12    1    3    3    0    0 -0.55710127680E+02 -0.18737091262E+02  0.89945785735E+02  0.10744738846E+03  0.00000000000E+00 0.  1.
        -11    1    4    4    0    0 -0.82880902292E+01  0.37566612873E+02  0.94178095681E+02  0.10173227879E+03  0.00000000000E+00 0.  1.
         11    1    4    4    0    0  0.33017124127E+02  0.43309607757E+02  0.34280126225E+01  0.54567425084E+02  0.00000000000E+00 0. -1.
         -3    1    1    2    0  502  0.87244159827E+01 -0.22591865622E+02 -0.15534090203E+02  0.28771788004E+02  0.00000000000E+00 0.  1.
<scales pt_clust_5="13000.00000" pt_clust_6="13000.00000" pt_clust_7="13000.00000" pt_clust_8="13000.00000" pt_clust_9="24.21792"></scales>
<clustering>
<clus scale="   24.218">  2  9  1 -1</clus>
<clus scale="   80.186">  5  6 -1 -1</clus>
<clus scale="   88.035">  7  8 -1 -1</clus>
<clus scale="  108.510">  1  5  2 -1</clus>
<clus scale="   24.218">  2  5  1 -1</clus>
</clustering>
</event>
<event>
 9    1  0.6345107E-005  0.1490582E+03  0.7546771E-02  0.1224377E+00
          1   -1    0    0  502    0 -0.00000000000E+00  0.00000000000E+00  0.58498859218E+03  0.58498859218E+03  0.00000000000E+00 0. -1.
         21   -1    0    0  501  502  0.00000000000E+00 -0.00000000000E+00 -0.94383959036E+02  0.94383959036E+02  0.00000000000E+00 0. -1.
        -24    2    1    2    0    0 -0.34240510366E+02 -0.27509556889E+02  0.35982028807E+03  0.37138044464E+03  0.80768847258E+02 0.  0.
         23    2    1    2    0    0  0.69742797753E+02 -0.89221788328E+02  0.11361042698E+03  0.18477862181E+03  0.91712728703E+02 0.  0.
         13    1    3    3    0    0 -0.33374724513E+02  0.22915744767E+02  0.13321499701E+03  0.13923088387E+03  0.00000000000E+00 0. -1.
        -14    1    3    3    0    0 -0.86578585364E+00 -0.50425301655E+02  0.22660529106E+03  0.23214956077E+03  0.00000000000E+00 0.  1.
        -11    1    4    4    0    0  0.49445262513E+02 -0.96516810366E+02  0.53516318257E+02  0.12093107536E+03  0.00000000000E+00 0. -1.
         11    1    4    4    0    0  0.20297535239E+02  0.72950220380E+01  0.60094108727E+02  0.63847546445E+02  0.00000000000E+00 0.  1.
          2    1    1    2  501    0 -0.35502287386E+02  0.11673134522E+03  0.17173918092E+02  0.12321348477E+03  0.00000000000E+00 0. -1.
<scales pt_clust_5="13000.00000" pt_clust_6="13000.00000" pt_clust_7="13000.00000" pt_clust_8="13000.00000" pt_clust_9="117.50366"></scales>
<clustering>
<clus scale="   80.769">  5  6 -1 -1</clus>
<clus scale="   91.713">  7  8 -1 -1</clus>
<clus scale="   91.939">  1  5  2 -1</clus>
<clus scale="  117.504">  2  9  1 -1</clus>
<clus scale="  117.504">  2  5  1 -1</clus>
</clustering>
</event>
<event>
 9    1  0.6345107E-005  0.1769003E+03  0.7546771E-02  0.1185902E+00
         21   -1    0    0  501  502  0.00000000000E+00  0.00000000000E+00  0.33412883971E+03  0.33412883971E+03  0.00000000000E+00 0.  1.
         -4   -1    0    0    0  501 -0.00000000000E+00 -0.00000000000E+00 -0.19730150344E+03  0.19730150344E+03  0.00000000000E+00 0.  1.
        -24    2    1    2    0    0 -0.91000884813E+02 -0.35248105152E+02 -0.87624415182E+01  0.12626403309E+03  0.79638154911E+02 0.  0.
         23    2    1    2    0    0 -0.12022590044E+03  0.58894850747E+02  0.10515452944E+03  0.18880796680E+03  0.81658451401E+02 0.  0.
         13    1    3    3    0    0 -0.88040967918E+02 -0.56197539102E+02 -0.37211716591E+01  0.10451422177E+03  0.00000000000E+00 0. -1.
        -14    1    3    3    0    0 -0.29599168952E+01  0.20949433950E+02 -0.50412698591E+01  0.21749811325E+02  0.00000000000E+00 0.  1.
        -11    1    4    4    0    0 -0.58943233940E+02 -0.95779435358E+01  0.65759558972E+02  0.88827706409E+02  0.00000000000E+00 0. -1.
         11    1    4    4    0    0 -0.61282666502E+02  0.68472794283E+02  0.39394970470E+02  0.99980260396E+02  0.00000000000E+00 0.  1.
         -3    1    1    2    0  502  0.21122678526E+03 -0.23646745595E+02  0.40435248343E+02  0.21635834325E+03  0.00000000000E+00 0.  1.
<scales pt_clust_5="13000.00000" pt_clust_6="13000.00000" pt_clust_7="13000.00000" pt_clust_8="13000.00000" pt_clust_9="156.92560"></scales>
<clustering>
<clus scale="   79.638">  5  6 -1 -1</clus>
<clus scale="   81.658">  7  8 -1 -1</clus>
<clus scale="  125.960">  2  5  1 -1</clus>
<clus scale="  156.926">  1  9  2 -1</clus>
<clus scale="  156.926">  1  5  2 -1</clus>
</clustering>
</event>
<event>
 9    1  0.6345107E-005  0.1028137E+03  0.7546771E-02  0.1279248E+00
         21   -1    0    0  501  502  0.00000000000E+00  0.00000000000E+00  0.17448495762E+03  0.17448495762E+03  0.00000000000E+00 0. -1.
          1   -1    0    0  502    0 -0.00000000000E+00 -0.00000000000E+00 -0.16541216047E+03  0.16541216047E+03  0.00000000000E+00 0. -1.
        -24    2    1    2    0    0 -0.50319086178E+02  0.55026144933E+01 -0.11379347577E+03  0.14843122063E+03  0.80750126510E+02 0.  0.
         23    2    1    2    0    0  0.32572256358E+02 -0.23352291687E+02  0.44094538309E+02  0.10877038900E+03  0.90996636221E+02 0.  0.
         13    1    3    3    0    0 -0.52547160069E+02  0.16694905670E+02 -0.12232915384E+03  0.13418027346E+03  0.00000000000E+00 0. -1.
        -14    1    3    3    0    0  0.22280738906E+01 -0.11192291176E+02  0.85356780755E+01  0.14250947170E+02  0.00000000000E+00 0.  1.
        -11    1    4    4    0    0  0.27661666438E+02  0.26870776099E+02 -0.43612740536E+01  0.38810141840E+02  0.00000000000E+00 0.  1.
         11    1    4    4    0    0  0.49105899202E+01 -0.50223067786E+02  0.48455812362E+02  0.69960247161E+02  0.00000000000E+00 0. -1.
          2    1    1    2  501    0  0.17746829820E+02  0.17849677194E+02  0.78771734615E+02  0.82695508456E+02  0.00000000000E+00 0. -1.
<scales pt_clust_5="13000.00000" pt_clust_6="13000.00000" pt_clust_7="13000.00000" pt_clust_8="13000.00000" pt_clust_9="25.17064"></scales>
<clustering>
<clus scale="   25.171">  1  9  2 -1</clus>
<clus scale="   80.750">  5  6 -1 -1</clus>
<clus scale="   90.997">  7  8 -1 -1</clus>
<clus scale="   93.866">  2  5  1 -1</clus>
<clus scale="   25.171">  1  5  2 -1</clus>
</clustering>
</event>
<event>
 9    1  0.6345107E-005  0.1003797E+03  0.7546771E-02  0.1285827E+00
          1   -1    0    0  502    0 -0.00000000000E+00  0.00000000000E+00  0.76852510500E+03  0.76852510500E+03  0.00000000000E+00 0. -1.
         21   -1    0    0  501  502  0.00000000000E+00 -0.00000000000E+00 -0.28136625312E+02  0.28136625312E+02  0.00000000000E+00 0.  1.
        -24    2    1    2    0    0  0.16401875262E+01 -0.30305840827E+02  0.46558933059E+03  0.47333756506E+03  0.79711301194E+02 0.  0.
         23    2    1    2    0    0  0.65219624627E+01  0.77514782794E+02  0.21672479746E+03  0.24803847463E+03  0.92208294179E+02 0.  0.
         11    1    3    3    0    0 -0.38916017567E+02 -0.16207229046E+02  0.24689966073E+03  0.25047269945E+03  0.00000000000E+00 0. -1.
        -12    1    3    3    0    0  0.40556205093E+02 -0.14098611781E+02  0.21868966985E+03  0.22286486562E+03  0.00000000000E+00 0.  1.
        -11    1    4    4    0    0  0.38529827859E+02  0.72504599452E+02  0.18631634353E+03  0.20360561005E+03  0.00000000000E+00 0.  1.
         11    1    4    4    0    0 -0.32007865396E+02  0.50101833419E+01  0.30408453930E+02  0.44432864580E+02  0.00000000000E+00 0. -1.
          2    1    1    2  501    0 -0.81621499889E+01 -0.47208941967E+02  0.58074351640E+02  0.75285690622E+02  0.00000000000E+00 0. -1.
<scales pt_clust_5="13000.00000" pt_clust_6="13000.00000" pt_clust_7="13000.00000" pt_clust_8="13000.00000" pt_clust_9="47.90934"></scales>
<clustering>
<clus scale="   47.909">  2  9  1 -1</clus>
<clus scale="   79.711">  5  6 -1 -1</clus>
<clus scale="   89.037">  1  5  2 -1</clus>
<clus scale="   92.208">  7  8 -1 -1</clus>
<clus scale="   47.909">  2  5  1 -1</clus>
</clustering>
</event>
<event>
 9    1  0.6345107E-005  0.1033243E+03  0.7546771E-02  0.1276192E+00
          1   -1    0    0  502    0 -0.00000000000E+00  0.00000000000E+00  0.61062658872E+03  0.61062658872E+03  0.00000000000E+00 0. -1.
         21   -1    0    0  501  502  0.00000000000E+00 -0.00000000000E+00 -0.48780279736E+02  0.48780279736E+02  0.00000000000E+00 0.  1.
        -24    2    1    2    0    0  0.25666624763E+02 -0.47179793379E+02  0.50863557964E+03  0.51838185551E+03  0.84409044098E+02 0.  0.
         23    2    1    2    0    0 -0.39340992331E+01  0.30694807333E+02  0.60019581370E+02  0.11291064123E+03  0.90492068281E+02 0.  0.
         11    1    3    3    0    0 -0.27634698940E+02 -0.32974178339E+02  0.17461551727E+03  0.17983757087E+03  0.00000000000E+00 0. -1.
        -12    1    3    3    0    0  0.53301323704E+02 -0.14205615041E+02  0.33402006236E+03  0.33854428465E+03  0.00000000000E+00 0.  1.
        -11    1    4    4    0    0 -0.25445134067E+02 -0.14075395410E+02 -0.65945367741E+01  0.29817101115E+02  0.00000000000E+00 0.  1.
         11    1    4    4    0    0  0.21511034834E+02  0.44770202742E+02  0.66614118145E+02  0.83093540118E+02  0.00000000000E+00 0. -1.
          2    1    1    2  501    0 -0.21732525530E+02  0.16484986047E+02 -0.68088520199E+01  0.28114371711E+02  0.00000000000E+00 0. -1.
<scales pt_clust_5="13000.00000" pt_clust_6="13000.00000" pt_clust_7="13000.00000" pt_clust_8="13000.00000" pt_clust_9="27.27742"></scales>
<clustering>
<clus scale="   27.277">  2  9  1 -1</clus>
<clus scale="   84.409">  5  6 -1 -1</clus>
<clus scale="   90.492">  7  8 -1 -1</clus>
<clus scale="   98.041">  1  5  2 -1</clus>
<clus scale="   27.277">  2  5  1 -1</clus>
</clustering>
</event>
<event>
 9    1  0.6345107E-005  0.1280823E+03  0.7546771E-02  0.1234171E+00
          1   -1    0    0  502    0 -0.00000000000E+00  0.00000000000E+00  0.51935155990E+03  0.51935155990E+03  0.00000000000E+00 0. -1.
         21   -1    0    0  501  502  0.00000000000E+00 -0.00000000000E+00 -0.71571622771E+02  0.71571622771E+02  0.00000000000E+00 0. -1.
        -24    2    1    2    0    0 -0.24109253712E+01  0.63281535768E+02  0.16711482803E+03  0.19498751530E+03  0.77989743188E+02 0.  0.
         23    2    1    2    0    0  0.54332661027E+02 -0.12407930166E+03  0.26927300468E+03  0.31517667398E+03  0.92090572907E+02 0.  0.
         11    1    3    3    0    0  0.36881555325E+02  0.26088868433E+02  0.91079080260E+02  0.10166748271E+03  0.00000000000E+00 0. -1.
        -12    1    3    3    0    0 -0.39292480696E+02  0.37192667335E+02  0.76035747774E+02  0.93320032588E+02  0.00000000000E+00 0.  1.
        -11    1    4    4    0    0  0.39852519925E+02 -0.10946158392E+01  0.61121718910E+02  0.72974557557E+02  0.00000000000E+00 0.  1.
         11    1    4    4    0    0  0.14480141102E+02 -0.12298468582E+03  0.20815128577E+03  0.24220211642E+03  0.00000000000E+00 0. -1.
          2    1    1    2  501    0 -0.51921735656E+02  0.60797765892E+02  0.11392104419E+02  0.80758993394E+02  0.00000000000E+00 0. -1.
<scales pt_clust_5="13000.00000" pt_clust_6="13000.00000" pt_clust_7="13000.00000" pt_clust_8="13000.00000" pt_clust_9="79.95145"></scales>
<clustering>
<clus scale="   77.990">  5  6 -1 -1</clus>
<clus scale="   79.951">  2  9  1 -1</clus>
<clus scale="   92.091">  7  8 -1 -1</clus>
<clus scale="  118.350">  1  5  2 -1</clus>
<clus scale="   79.951">  2  5  1 -1</clus>
</clustering>
</event>
<event>
 9    1  0.6345107E-005  0.1339204E+03  0.7546771E-02  0.1224559E+00
         21   -1    0    0  501  502  0.00000000000E+00  0.00000000000E+00  0.18500386318E+03  0.18500386318E+03  0.00000000000E+00 0. -1.
         -4   -1    0    0    0  501 -0.00000000000E+00 -0.00000000000E+00 -0.11070617462E+03  0.11070617462E+03  0.00000000000E+00 0.  1.
        -24    2    1    2    0    0 -0.83153370828E+02 -0.51427535387E+02  0.82213494730E+01  0.12667427267E+03  0.80121821573E+02 0.  0.
         23    2    1    2    0    0  0.93033194382E+02  0.33065240749E+02  0.56876051913E+02  0.14624475678E+03  0.91674195940E+02 0.  0.
         13    1    3    3    0    0 -0.99347190046E+01 -0.43588403747E+02 -0.18439012938E+02  0.48359536609E+02  0.00000000000E+00 0. -1.
        -14    1    3    3    0    0 -0.73218651824E+02 -0.78391316395E+01  0.26660362411E+02  0.78314736056E+02  0.00000000000E+00 0.  1.
        -13    1    4    4    0    0  0.43030835338E+02  0.25736440932E+02 -0.20218340113E+02  0.54062912044E+02  0.00000000000E+00 0.  1.
         13    1    4    4    0    0  0.50002359043E+02  0.73287998173E+01  0.77094392026E+02  0.92181844734E+02  0.00000000000E+00 0. -1.
         -3    1    1    2    0  502 -0.98798235534E+01  0.18362294637E+02  0.92002871758E+01  0.22791008357E+02  0.00000000000E+00 0.  1.
<scales pt_clust_5="13000.00000" pt_clust_6="13000.00000" pt_clust_7="13000.00000" pt_clust_8="13000.00000" pt_clust_9="20.85149"></scales>
<clustering>
<clus scale="   20.851">  1  9  2 -1</clus>
<clus scale="   80.122">  5  6 -1 -1</clus>
<clus scale="   91.674">  7  8 -1 -1</clus>
<clus scale="  126.293">  2  5  1 -1</clus>
<clus scale="   20.851">  1  5  2 -1</clus>
</clustering>
</event>
<event>
 9    1  0.6345107E-005  0.1838564E+03  0.7546771E-02  0.1193433E+00
         -2   -1    0    0    0  501 -0.00000000000E+00  0.00000000000E+00  0.34042543242E+03  0.34042543242E+03  0.00000000000E+00 0.  1.
         21   -1    0    0  501  502  0.00000000000E+00 -0.00000000000E+00 -0.18518693629E+03  0.18518693629E+03  0.00000000000E+00 0.  1.
         23    2    1    2    0    0  0.86555140835E+01 -0.24078907832E+02  0.11816096829E+03  0.15160931709E+03  0.91480374263E+02 0.  0.
        -24    2    1    2    0    0  0.33286773872E+02 -0.14372670830E+03  0.93046782193E+02  0.19220525802E+03  0.80745164191E+02 0.  0.
         11    1    4    4    0    0  0.47491186802E+02 -0.40851730912E+02  0.22075421750E+02  0.66419883979E+02  0.00000000000E+00 0. -1.
        -12    1    4    4    0    0 -0.14204412930E+02 -0.10287497739E+03  0.70971360443E+02  0.12578537404E+03  0.00000000000E+00 0.  1.
        -11    1    3    3    0    0  0.49299668310E+02 -0.85920770128E+01  0.49910097165E+02  0.70677428377E+02  0.00000000000E+00 0.  1.
         11    1    3    3    0    0 -0.40644154227E+02 -0.15486830819E+02  0.68250871124E+02  0.80931888714E+02  0.00000000000E+00 0. -1.
         -1    1    1    2    0  502 -0.41942287955E+02  0.16780561614E+03 -0.55969254345E+02  0.18179779360E+03  0.00000000000E+00 0.  1.
<scales pt_clust_5="13000.00000" pt_clust_6="13000.00000" pt_clust_7="13000.00000" pt_clust_8="13000.00000" pt_clust_9="165.17688"></scales>
<clustering>
<clus scale="   80.745">  5  6 -1 -1</clus>
<clus scale="   91.480">  7  8 -1 -1</clus>
<clus scale="   94.991">  1  7  2 -1</clus>
<clus scale="  165.177">  2  9  1 -1</clus>
<clus scale="  165.177">  2  5  1 -1</clus>
</clustering>
</event>
<event>
 9    1  0.6345107E-005  0.1201950E+03  0.7546771E-02  0.1244931E+00
         21   -1    0    0  501  502  0.00000000000E+00  0.00000000000E+00  0.26927247572E+03  0.26927247572E+03  0.00000000000E+00 0. -1.
         -2   -1    0    0    0  501 -0.00000000000E+00 -0.00000000000E+00 -0.20752685973E+03  0.20752685973E+03  0.00000000000E+00 0.  1.
        -24    2    1    2    0    0  0.24693471339E+02 -0.76969995965E+02 -0.16279892905E+03  0.19861919742E+03  0.80074630681E+02 0.  0.
         23    2    1    2    0    0 -0.18795719224E+02  0.99933015227E+02  0.15599010233E+03  0.20564190432E+03  0.87268517762E+02 0.  0.
         11    1    3    3    0    0 -0.13142210718E+02 -0.27125157179E+02 -0.11766128882E+03  0.12146057278E+03  0.00000000000E+00 0. -1.
        -12    1    3    3    0    0  0.37835682057E+02 -0.49844838786E+02 -0.45137640234E+02  0.77158624639E+02  0.00000000000E+00 0.  1.
        -13    1    4    4    0    0 -0.29404949485E+02  0.63343336450E+02  0.33674295786E+02  0.77530558643E+02  0.00000000000E+00 0.  1.
         13    1    4    4    0    0  0.10609230261E+02  0.36589678777E+02  0.12231580654E+03  0.12811134567E+03  0.00000000000E+00 0. -1.
         -1    1    1    2    0  502 -0.58977521147E+01 -0.22963019262E+02  0.68554442719E+02  0.72538233713E+02  0.00000000000E+00 0.  1.
<scales pt_clust_5="13000.00000" pt_clust_6="13000.00000" pt_clust_7="13000.00000" pt_clust_8="13000.00000" pt_clust_9="23.70831"></scales>
<clustering>
<clus scale="   23.708">  1  9  2 -1</clus>
<clus scale="   80.075">  5  6 -1 -1</clus>
<clus scale="   87.269">  7  8 -1 -1</clus>
<clus scale="  115.078">  2  5  1 -1</clus>
<clus scale="   23.708">  1  5  2 -1</clus>
</clustering>
</event>
<event>
 9    1  0.6345107E-005  0.1108998E+03  0.7546771E-02  0.1268077E+00
         -4   -1    0    0    0  501 -0.00000000000E+00  0.00000000000E+00  0.61236288621E+02  0.61236288621E+02  0.00000000000E+00 0.  1.
         21   -1    0    0  501  502  0.00000000000E+00 -0.00000000000E+00 -0.72704820822E+03  0.72704820822E+03  0.00000000000E+00 0.  1.
         23    2    1    2    0    0 -0.34673890306E+02 -0.16005145193E+02 -0.46976209515E+01  0.92832380585E+02  0.84482778724E+02 0.  0.
        -24    2    1    2    0    0 -0.72302012869E+02 -0.88016484325E+01 -0.39347131997E+03  0.40615644587E+03  0.69558096583E+02 0.  0.
         13    1    4    4    0    0 -0.19247641853E+02  0.29188312153E+02 -0.11862852802E+03  0.12367359032E+03  0.00000000000E+00 0. -1.
        -14    1    4    4    0    0 -0.53054371015E+02 -0.37989960586E+02 -0.27484279195E+03  0.28248285555E+03  0.00000000000E+00 0.  1.
        -13    1    3    3    0    0  0.17617191033E+02  0.15242873363E+02 -0.19228787703E+02  0.30206901278E+02  0.00000000000E+00 0. -1.
         13    1    3    3    0    0 -0.52291081339E+02 -0.31248018557E+02  0.14531166752E+02  0.62625479307E+02  0.00000000000E+00 0.  1.
         -3    1    1    2    0  502  0.10697590317E+03  0.24806793626E+02 -0.26764297867E+03  0.28929567038E+03  0.00000000000E+00 0.  1.
<scales pt_clust_5="13000.00000" pt_clust_6="13000.00000" pt_clust_7="13000.00000" pt_clust_8="13000.00000" pt_clust_9="86.37390"></scales>
<clustering>
<clus scale="   69.558">  5  6 -1 -1</clus>
<clus scale="   84.483">  7  8 -1 -1</clus>
<clus scale="   92.713">  1  7  2 -1</clus>
<clus scale="   86.374">  2  9  1 -1</clus>
<clus scale="   86.374">  2  5  1 -1</clus>
</clustering>
</event>
<event>
 9    1  0.6345107E-005  0.1055345E+03  0.7546771E-02  0.1279800E+00
         21   -1    0    0  501  502  0.00000000000E+00  0.00000000000E+00  0.37947841042E+03  0.37947841042E+03  0.00000000000E+00 0. -1.
         -2   -1    0    0    0  501 -0.00000000000E+00 -0.00000000000E+00 -0.56135545773E+02  0.56135545773E+02  0.00000000000E+00 0.  1.
        -24    2    1    2    0    0 -0.52944785194E+01 -0.16353495173E+02  0.30405194842E+02  0.88279086578E+02  0.81075600192E+02 0.  0.
         23    2    1    2    0    0  0.38482677905E+02  0.63987895946E+02  0.22523453940E+03  0.25814851089E+03  0.10165967052E+03 0.  0.
         11    1    3    3    0    0  0.23593022715E+02 -0.30309396599E+02 -0.69553033026E+01  0.39034170761E+02  0.00000000000E+00 0. -1.
        -12    1    3    3    0    0 -0.28887501234E+02  0.13955901426E+02  0.37360498145E+02  0.49244915817E+02  0.00000000000E+00 0.  1.
        -11    1    4    4    0    0  0.70497510350E+02  0.32799626634E+02  0.11137938617E+03  0.13583476042E+03  0.00000000000E+00 0. -1.
         11    1    4    4    0    0 -0.32014832445E+02  0.31188269312E+02  0.11385515323E+03  0.12231375048E+03  0.00000000000E+00 0.  1.
         -1    1    1    2    0  502 -0.33188199386E+02 -0.47634400773E+02  0.67703130402E+02  0.89186358720E+02  0.00000000000E+00 0.  1.
<scales pt_clust_5="13000.00000" pt_clust_6="13000.00000" pt_clust_7="13000.00000" pt_clust_8="13000.00000" pt_clust_9="58.05594"></scales>
<clustering>
<clus scale="   58.056">  1  9  2 -1</clus>
<clus scale="   81.076">  5  6 -1 -1</clus>
<clus scale="   85.884">  2  5  1 -1</clus>
<clus scale="  101.660">  7  8 -1 -1</clus>
<clus scale="   58.056">  1  5  2 -1</clus>
</clustering>
</event>
<event>
 9    1  0.6345107E-005  0.1094867E+03  0.7546771E-02  0.1265193E+00
          3   -1    0    0  502    0 -0.00000000000E+00  0.00000000000E+00  0.46822593000E+02  0.46822593000E+02  0.00000000000E+00 0. -1.
         21   -1    0    0  501  502  0.00000000000E+00 -0.00000000000E+00 -0.53939972232E+03  0.53939972232E+03  0.00000000000E+00 0. -1.
        -24    2    1    2    0    0 -0.61350920123E+02 -0.63513299091E+02 -0.89143800973E+02  0.14697794737E+03  0.76537737106E+02 0.  0.
         23    2    1    2    0    0 -0.10972223740E+02  0.35571828470E+02 -0.25479883412E+03  0.27160315645E+03  0.86371778075E+02 0.  0.
         11    1    3    3    0    0 -0.51158950449E+00 -0.48970231577E+02 -0.17831490289E+02  0.52118205556E+02  0.00000000000E+00 0. -1.
        -12    1    3    3    0    0 -0.60839330618E+02 -0.14543067514E+02 -0.71312310683E+02  0.94859741818E+02  0.00000000000E+00 0.  1.
        -13    1    4    4    0    0 -0.46291774491E+02  0.87792758024E+01 -0.99350117481E+02  0.10995658194E+03  0.00000000000E+00 0.  1.
         13    1    4    4    0    0  0.35319550751E+02  0.26792552667E+02 -0.15544871664E+03  0.16164657450E+03  0.00000000000E+00 0. -1.
          4    1    1    2  501    0  0.72323143863E+02  0.27941470621E+02 -0.14863449423E+03  0.16764121150E+03  0.00000000000E+00 0. -1.
<scales pt_clust_5="13000.00000" pt_clust_6="13000.00000" pt_clust_7="13000.00000" pt_clust_8="13000.00000" pt_clust_9="77.53298"></scales>
<clustering>
<clus scale="   76.538">  5  6 -1 -1</clus>
<clus scale="   77.533">  2  9  1 -1</clus>
<clus scale="   86.372">  7  8 -1 -1</clus>
<clus scale="  101.908">  1  5  2 -1</clus>
<clus scale="   77.533">  2  5  1 -1</clus>
</clustering>
</event>
<event>
 9    1  0.6345107E-005  0.1512580E+03  0.7546771E-02  0.1203140E+00
         21   -1    0    0  501  502  0.00000000000E+00  0.00000000000E+00  0.40375595280E+03  0.40375595280E+03  0.00000000000E+00 0.  1.
          3   -1    0    0  502    0 -0.00000000000E+00 -0.00000000000E+00 -0.19407037982E+03  0.19407037982E+03  0.00000000000E+00 0. -1.
         23    2    1    2    0    0  0.93180388590E+02  0.59996230327E+02 -0.13224898758E+03  0.20004007925E+03  0.10121317167E+03 0.  0.
        -24    2    1    2    0    0 -0.86946922787E+02 -0.89543184402E+02  0.18093736550E+03  0.23398156660E+03  0.80195349125E+02 0.  0.
         11    1    4    4    0    0 -0.31631716686E+02 -0.36440145119E+02  0.13949328063E+02  0.50229806193E+02  0.00000000000E+00 0. -1.
        -12    1    4    4    0    0 -0.55315206101E+02 -0.53103039283E+02  0.16698803743E+03  0.18375176041E+03  0.00000000000E+00 0.  1.
        -13    1    3    3    0    0  0.15018668479E+02  0.56370395439E+02 -0.17044062433E+02  0.60775669054E+02  0.00000000000E+00 0.  1.
         13    1    3    3    0    0  0.78161720112E+02  0.36258348879E+01 -0.11520492514E+03  0.13926441019E+03  0.00000000000E+00 0. -1.
          4    1    1    2  501    0 -0.62334658032E+01  0.29546954075E+02  0.16099719506E+03  0.16380468678E+03  0.00000000000E+00 0. -1.
<scales pt_clust_5="13000.00000" pt_clust_6="13000.00000" pt_clust_7="13000.00000" pt_clust_8="13000.00000" pt_clust_9="30.19733"></scales>
<clustering>
<clus scale="   30.197">  1  9  2 -1</clus>
<clus scale="   80.195">  5  6 -1 -1</clus>
<clus scale="  101.213">  7  8 -1 -1</clus>
<clus scale="  138.080">  1  5  2 -1</clus>
<clus scale="   30.197">  1  5  2 -1</clus>
</clustering>
</event>
<event>
 9    1  0.6345107E-005  0.1313753E+03  0.7546771E-02  0.1241674E+00
         -2   -1    0    0    0  501 -0.00000000000E+00  0.00000000000E+00  0.82126965505E+02  0.82126965505E+02  0.00000000000E+00 0.  1.
         21   -1    0    0  501  502  0.00000000000E+00 -0.00000000000E+00 -0.53283976177E+03  0.53283976177E+03  0.00000000000E+00 0. -1.
         23    2    1    2    0    0 -0.20406618864E+02 -0.18856369757E+02 -0.61931264895E+02  0.11266878216E+03  0.89926526282E+02 0.  0.
        -24    2    1    2    0    0  0.44832353574E+02 -0.93146213821E+02 -0.36192980303E+03  0.38456005589E+03  0.78785133035E+02 0.  0.
         11    1    4    4    0    0  0.12894266350E+02 -0.54436419248E+02 -0.29840692645E+03  0.30360546701E+03  0.00000000000E+00 0. -1.
        -12    1    4    4    0    0  0.31938087224E+02 -0.38709794573E+02 -0.63522876581E+02  0.80954588879E+02  0.00000000000E+00 0.  1.
        -13    1    3    3    0    0  0.16323832314E+02  0.22122791072E+02 -0.48926335023E+02  0.56121935507E+02  0.00000000000E+00 0. -1.
         13    1    3    3    0    0 -0.36730451178E+02 -0.40979160829E+02 -0.13004929872E+02  0.56546846658E+02  0.00000000000E+00 0.  1.
         -1    1    1    2    0  502 -0.24425734710E+02  0.11200258358E+03 -0.26851728345E+02  0.11773788923E+03  0.00000000000E+00 0.  1.
<scales pt_clust_5="13000.00000" pt_clust_6="13000.00000" pt_clust_7="13000.00000" pt_clust_8="13000.00000" pt_clust_9="105.13028"></scales>
<clustering>
<clus scale="   78.785">  5  6 -1 -1</clus>
<clus scale="   89.927">  7  8 -1 -1</clus>
<clus scale="   94.121">  1  7  2 -1</clus>
<clus scale="  105.130">  2  9  1 -1</clus>
<clus scale="  105.130">  2  5  1 -1</clus>
</clustering>
</event>
<event>
 9    1  0.6345107E-005  0.1130329E+03  0.7546771E-02  0.1260529E+00
         21   -1    0    0  501  502  0.00000000000E+00  0.00000000000E+00  0.12438461766E+03  0.12438461766E+03  0.00000000000E+00 0.  1.
          1   -1    0    0  502    0 -0.00000000000E+00 -0.00000000000E+00 -0.18438228453E+03  0.18438228453E+03  0.00000000000E+00 0. -1.
         23    2    1    2    0    0 -0.14153525267E+02 -0.71840633237E+02 -0.95491306460E+02  0.15148046480E+03  0.92012731423E+02 0.  0.
        -24    2    1    2    0    0  0.12810587442E+02  0.39598524603E+02  0.68297671732E+02  0.11127055344E+03  0.77358967138E+02 0.  0.
         11    1    4    4    0    0 -0.17175123841E+02  0.17320781050E+02  0.69744439951E+02  0.73886949045E+02  0.00000000000E+00 0. -1.
        -12    1    4    4    0    0  0.29985711283E+02  0.22277743553E+02 -0.14467682194E+01  0.37383604391E+02  0.00000000000E+00 0.  1.
        -11    1    3    3    0    0 -0.99658552149E+01 -0.93109152674E+02 -0.64678236011E+02  0.11380644444E+03  0.00000000000E+00 0.  1.
         11    1    3    3    0    0 -0.41876700516E+01  0.21268519437E+02 -0.30813070449E+02  0.37674020359E+02  0.00000000000E+00 0. -1.
          2    1    1    2  501    0  0.13429378243E+01  0.32242108634E+02 -0.32804032145E+02  0.46015883955E+02  0.00000000000E+00 0. -1.
<scales pt_clust_5="13000.00000" pt_clust_6="13000.00000" pt_clust_7="13000.00000" pt_clust_8="13000.00000" pt_clust_9="32.27008"></scales>
<clustering>
<clus scale="   32.270">  1  9  2 -1</clus>
<clus scale="   77.359">  5  6 -1 -1</clus>
<clus scale="   92.013">  7  8 -1 -1</clus>
<clus scale="  101.462">  1  5  2 -1</clus>
<clus scale="   32.270">  1  5  2 -1</clus>
</clustering>
</event>
<event>
 9    1  0.6345107E-005  0.1647623E+03  0.7546771E-02  0.1204260E+00
         21   -1    0    0  501  502  0.00000000000E+00  0.00000000000E+00  0.56089049525E+03  0.56089049525E+03  0.00000000000E+00 0. -1.
          1   -1    0    0  502    0 -0.00000000000E+00 -0.00000000000E+00 -0.81795052441E+02  0.81795052441E+02  0.00000000000E+00 0. -1.
        -24    2    1    2    0    0  0.46186407560E+02  0.49351758893E+02  0.11824659364E+03  0.15766116188E+03  0.79410356420E+02 0.  0.
         23    2    1    2    0    0  0.57712230889E+02 -0.13810513320E+03  0.13558334770E+03  0.22155401808E+03  0.91102191763E+02 0.  0.
         11    1    3    3    0    0  0.54401640973E+02  0.40625681039E+02  0.40630764837E+02  0.79125492426E+02  0.00000000000E+00 0. -1.
        -12    1    3    3    0    0 -0.82152334127E+01  0.87260778544E+01  0.77615828805E+02  0.78535669449E+02  0.00000000000E+00 0.  1.
        -13    1    4    4    0    0 -0.19725327676E+02 -0.37490094133E+01  0.13579804553E+02  0.24239527949E+02  0.00000000000E+00 0.  1.
         13    1    4    4    0    0  0.77437558565E+02 -0.13435612379E+03  0.12200354315E+03  0.19731449013E+03  0.00000000000E+00 0. -1.
          2    1    1    2  501    0 -0.10389863845E+03  0.88753374307E+02  0.22526550146E+03  0.26347036773E+03  0.00000000000E+00 0. -1.
<scales pt_clust_5="13000.00000" pt_clust_6="13000.00000" pt_clust_7="13000.00000" pt_clust_8="13000.00000" pt_clust_9="137.28440"></scales>
<clustering>
<clus scale="   79.410">  5  6 -1 -1</clus>
<clus scale="   91.102">  7  8 -1 -1</clus>
<clus scale="  104.282">  2  5  1 -1</clus>
<clus scale="  137.284">  1  9  2 -1</clus>
<clus scale="  137.284">  1  5  2 -1</clus>
</clustering>
</event>
<event>
 9    1  0.6345107E-005  0.1119469E+03  0.7546771E-02  0.1260979E+00
         21   -1    0    0  501  502  0.00000000000E+00  0.00000000000E+00  0.46394665680E+02  0.46394665680E+02  0.00000000000E+00 0. -1.
          1   -1    0    0  502    0 -0.00000000000E+00 -0.00000000000E+00 -0.47843431902E+03  0.47843431902E+03  0.00000000000E+00 0. -1.
         23    2    1    2    0    0 -0.18174933528E+02  0.66042460378E+02 -0.26625865951E+03  0.28994619591E+03  0.92104223447E+02 0.  0.
        -24    2    1    2    0    0  0.19844816482E+02 -0.46033626213E+02 -0.34142538734E+02  0.10172189057E+03  0.81662222523E+02 0.  0.
         11    1    4    4    0    0  0.80533919361E+01 -0.24502711360E+02  0.26085183360E+02  0.36683467347E+02  0.00000000000E+00 0. -1.
        -12    1    4    4    0    0  0.11791424545E+02 -0.21530914853E+02 -0.60227722095E+02  0.65038423227E+02  0.00000000000E+00 0.  1.
        -11    1    3    3    0    0  0.14661124347E+02 -0.14531510555E+02 -0.19893217217E+02  0.28667986629E+02  0.00000000000E+00 0.  1.
         11    1    3    3    0    0 -0.32836057875E+02  0.80573970933E+02 -0.24636544230E+03  0.26127820928E+03  0.00000000000E+00 0. -1.
          2    1    1    2  501    0 -0.16698829538E+01 -0.20008834165E+02 -0.13163845509E+03  0.13316089821E+03  0.00000000000E+00 0. -1.
<scales pt_clust_5="13000.00000" pt_clust_6="13000.00000" pt_clust_7="13000.00000" pt_clust_8="13000.00000" pt_clust_9="20.07841"></scales>
<clustering>
<clus scale="   20.078">  1  9  2 -1</clus>
<clus scale="   81.662">  5  6 -1 -1</clus>
<clus scale="   92.104">  7  8 -1 -1</clus>
<clus scale="  103.526">  1  5  2 -1</clus>
<clus scale="   20.078">  1  5  2 -1</clus>
</clustering>
</event>
<event>
 9    1  0.6345107E-005  0.1246927E+03  0.7546771E-02  0.1237645E+00
         21   -1    0    0  501  502  0.00000000000E+00  0.00000000000E+00  0.15315162587E+03  0.15315162587E+03  0.00000000000E+00 0.  1.
          1   -1    0    0  502    0 -0.00000000000E+00 -0.00000000000E+00 -0.12862146339E+03  0.12862146339E+03  0.00000000000E+00 0. -1.
        -24    2    1    2    0    0  0.85543289244E+02  0.13237839462E+02  0.17464085471E+02  0.11892940452E+03  0.79663757445E+02 0.  0.
         23    2    1    2    0    0 -0.85478163194E+02 -0.38159944076E+02  0.27135433676E+02  0.13084533139E+03  0.87301038200E+02 0.  0.
         11    1    3    3    0    0  0.58363395685E+02 -0.20303041088E+02  0.36477057859E+02  0.71757056679E+02  0.00000000000E+00 0. -1.
        -12    1    3    3    0    0  0.27179893560E+02  0.33540880550E+02 -0.19012972388E+02  0.47172347843E+02  0.00000000000E+00 0.  1.
        -13    1    4    4    0    0 -0.59362877105E+02 -0.56883573538E+02 -0.87426025523E+01  0.82680863663E+02  0.00000000000E+00 0.  1.
         13    1    4    4    0    0 -0.26115286089E+02  0.18723629462E+02  0.35878036229E+02  0.48164467726E+02  0.00000000000E+00 0. -1.
          2    1    1    2  501    0 -0.65126050662E-01  0.24922104614E+02 -0.20069356673E+02  0.31998353349E+02  0.00000000000E+00 0. -1.
<scales pt_clust_5="13000.00000" pt_clust_6="13000.00000" pt_clust_7="13000.00000" pt_clust_8="13000.00000" pt_clust_9="24.92220"></scales>
<clustering>
<clus scale="   24.922">  1  9  2 -1</clus>
<clus scale="   79.664">  5  6 -1 -1</clus>
<clus scale="   87.301">  7  8 -1 -1</clus>
<clus scale="  119.470">  2  5  1 -1</clus>
<clus scale="   24.922">  1  5  2 -1</clus>
</clustering>
</event>
<event>
 9    1  0.6345107E-005  0.1114610E+03  0.7546771E-02  0.1261214E+00
         -2   -1    0    0    0  501 -0.00000000000E+00  0.00000000000E+00  0.41266655556E+03  0.41266655556E+03  0.00000000000E+00 0.  1.
         21   -1    0    0  501  502  0.00000000000E+00 -0.00000000000E+00 -0.40359197346E+02  0.40359197346E+02  0.00000000000E+00 0. -1.
         23    2    1    2    0    0  0.48466575819E+02  0.48742221523E+02  0.25278059888E+03  0.27645209466E+03  0.88334117645E+02 0.  0.
        -24    2    1    2    0    0 -0.61844686419E+02 -0.30592930393E+02  0.10993313866E+03  0.15207043052E+03  0.79242843417E+02 0.  0.
         11    1    4    4    0    0 -0.75367341427E+02 -0.31870961856E+02  0.63171956471E+02  0.10337645016E+03  0.00000000000E+00 0. -1.
        -12    1    4    4    0    0  0.13522655008E+02  0.12780314632E+01  0.46761182191E+02  0.48693980355E+02  0.00000000000E+00 0.  1.
        -13    1    3    3    0    0  0.69616010432E+02  0.33983730736E+02  0.22754104792E+03  0.24036682665E+03  0.00000000000E+00 0.  1.
         13    1    3    3    0    0 -0.21149434613E+02  0.14758490787E+02  0.25239550955E+02  0.36085268007E+02  0.00000000000E+00 0. -1.
         -1    1    1    2    0  502  0.13378110600E+02 -0.18149291130E+02  0.95936206740E+01  0.24503227734E+02  0.00000000000E+00 0.  1.
<scales pt_clust_5="13000.00000" pt_clust_6="13000.00000" pt_clust_7="13000.00000" pt_clust_8="13000.00000" pt_clust_9="22.54708"></scales>
<clustering>
<clus scale="   22.547">  2  9  1 -1</clus>
<clus scale="   79.243">  5  6 -1 -1</clus>
<clus scale="   88.334">  7  8 -1 -1</clus>
<clus scale="  104.403">  2  5  1 -1</clus>
<clus scale="   22.547">  2  5  1 -1</clus>
</clustering>
</event>
<event>
 9    1  0.6345107E-005  0.4781743E+03  0.7546771E-02  0.1019701E+00
          1   -1    0    0  502    0 -0.00000000000E+00  0.00000000000E+00  0.67191602938E+03  0.67191602938E+03  0.00000000000E+00 0. -1.
         21   -1    0    0  501  502  0.00000000000E+00 -0.00000000000E+00 -0.89479762141E+03  0.89479762141E+03  0.00000000000E+00 0. -1.
         23    2    1    2    0    0 -0.28323126368E+03 -0.39028481462E+03  0.45164833929E+03  0.66743837171E+03  0.94581036139E+02 0.  0.
        -24    2    1    2    0    0  0.34062990425E+03  0.24949102397E+03 -0.41689895822E+03  0.60012445805E+03  0.89833852593E+02 0.  0.
         11    1    4    4    0    0  0.22948626025E+03  0.18733963621E+03 -0.34169854453E+03  0.45223663968E+03  0.00000000000E+00 0. -1.
        -12    1    4    4    0    0  0.11114364399E+03  0.62151387762E+02 -0.75200413696E+02  0.14788781837E+03  0.00000000000E+00 0.  1.
        -13    1    3    3    0    0 -0.27232904771E+03 -0.32740855403E+03  0.41056448625E+03  0.59154261795E+03  0.00000000000E+00 0. -1.
         13    1    3    3    0    0 -0.10902215979E+02 -0.62876260590E+02  0.41083853042E+02  0.75895753766E+02  0.00000000000E+00 0.  1.
          2    1    1    2  501    0 -0.57398640561E+02  0.14079379065E+03 -0.25763097309E+03  0.29915082102E+03  0.00000000000E+00 0. -1.
<scales pt_clust_5="13000.00000" pt_clust_6="13000.00000" pt_clust_7="13000.00000" pt_clust_8="13000.00000" pt_clust_9="152.04439"></scales>
<clustering>
<clus scale="   89.834">  5  6 -1 -1</clus>
<clus scale="   94.581">  7  8 -1 -1</clus>
<clus scale="  152.044">  2  9  1 -1</clus>
<clus scale="  477.258">  2  5  1 -1</clus>
<clus scale="  152.044">  2  5  1 -1</clus>
</clustering>
</event>
<event>
 9    1  0.6345107E-005  0.1416877E+03  0.7546771E-02  0.1232665E+00
          1   -1    0    0  502    0 -0.00000000000E+00  0.00000000000E+00  0.44889867239E+03  0.44889867239E+03  0.00000000000E+00 0. -1.
         21   -1    0    0  501  502  0.00000000000E+00 -0.00000000000E+00 -0.93942900810E+02  0.93942900810E+02  0.00000000000E+00 0. -1.
        -24    2    1    2    0    0 -0.28174695861E+02 -0.25798930011E+02  0.11787664465E+03  0.14841033273E+03  0.81678180882E+02 0.  0.
         23    2    1    2    0    0 -0.10024753114E+03  0.60093404883E+00  0.15854880239E+02  0.13739549448E+03  0.92607861743E+02 0.  0.
         13    1    3    3    0    0 -0.39294887161E+02 -0.66955178193E+01  0.11976620429E+03  0.12622544041E+03  0.00000000000E+00 0. -1.
        -14    1    3    3    0    0  0.11120191300E+02 -0.19103412192E+02 -0.18895596420E+01  0.22184892327E+02  0.00000000000E+00 0.  1.
        -13    1    4    4    0    0 -0.81446349468E+02 -0.37314591972E+02  0.27117367267E+02  0.93601486223E+02  0.00000000000E+00 0.  1.
         13    1    4    4    0    0 -0.18801181668E+02  0.37915526021E+02 -0.11262487028E+02  0.43794008262E+02  0.00000000000E+00 0. -1.
          2    1    1    2  501    0  0.12842222700E+03  0.25197995962E+02  0.22122424670E+03  0.25703574598E+03  0.00000000000E+00 0. -1.
<scales pt_clust_5="13000.00000" pt_clust_6="13000.00000" pt_clust_7="13000.00000" pt_clust_8="13000.00000" pt_clust_9="107.23428"></scales>
<clustering>
<clus scale="   81.678">  5  6 -1 -1</clus>
<clus scale="   90.171">  1  5  2 -1</clus>
<clus scale="   92.608">  7  8 -1 -1</clus>
<clus scale="  107.234">  2  9  1 -1</clus>
<clus scale="  107.234">  2  5  1 -1</clus>
</clustering>
</event>
<event>
 9    1  0.6345107E-005  0.9669859E+02  0.7546771E-02  0.1293251E+00
         -2   -1    0    0    0  501 -0.00000000000E+00  0.00000000000E+00  0.21815422082E+03  0.21815422082E+03  0.00000000000E+00 0.  1.
         21   -1    0    0  501  502  0.00000000000E+00 -0.00000000000E+00 -0.10369472404E+03  0.10369472404E+03  0.00000000000E+00 0.  1.
        -24    2    1    2    0    0 -0.34578935637E+02  0.54368774760E+01  0.16266871940E+03  0.18495634542E+03  0.80761841305E+02 0.  0.
         23    2    1    2    0    0  0.11695266348E+02  0.19544630468E+02 -0.35624678695E+02  0.10075247210E+03  0.91450374884E+02 0.  0.
         11    1    3    3    0    0 -0.40789660390E+02  0.33913587515E+02  0.13380609014E+03  0.14393747799E+03  0.00000000000E+00 0. -1.
        -12    1    3    3    0    0  0.62107247535E+01 -0.28476710039E+02  0.28862629267E+02  0.41018867425E+02  0.00000000000E+00 0.  1.
        -11    1    4    4    0    0 -0.13309701095E+02  0.32593469247E+02  0.18462030613E+02  0.39753351496E+02  0.00000000000E+00 0.  1.
         11    1    4    4    0    0  0.25004967443E+02 -0.13048838779E+02 -0.54086709308E+02  0.60999120601E+02  0.00000000000E+00 0. -1.
         -1    1    1    2    0  502  0.22883669289E+02 -0.24981507944E+02 -0.12584543925E+02  0.36140127353E+02  0.00000000000E+00 0.  1.
<scales pt_clust_5="13000.00000" pt_clust_6="13000.00000" pt_clust_7="13000.00000" pt_clust_8="13000.00000" pt_clust_9="33.87828"></scales>
<clustering>
<clus scale="   33.878">  2  9  1 -1</clus>
<clus scale="   80.762">  5  6 -1 -1</clus>
<clus scale="   86.660">  1  5  2 -1</clus>
<clus scale="   91.450">  7  8 -1 -1</clus>
<clus scale="   33.878">  2  5  1 -1</clus>
</clustering>
</event>
<event>
 9    1  0.6345107E-005  0.9120339E+02  0.7546771E-02  0.1304600E+00
          1   -1    0    0  502    0 -0.00000000000E+00  0.00000000000E+00  0.44499939535E+03  0.44499939535E+03  0.00000000000E+00 0. -1.
         21   -1    0    0  501  502  0.00000000000E+00 -0.00000000000E+00 -0.47923766921E+02  0.47923766921E+02  0.00000000000E+00 0.  1.
        -24    2    1    2    0    0  0.17188264740E+02  0.17074010662E+02  0.29912050769E+03  0.31064496708E+03  0.80251225357E+02 0.  0.
         23    2    1    2    0    0  0.22726279304E+01 -0.31707747582E+02  0.13678870626E+02  0.94555000230E+02  0.87994263861E+02 0.  0.
         13    1    3    3    0    0  0.43291344304E+02 -0.11078686289E+02  0.18136278949E+03  0.18678688175E+03  0.00000000000E+00 0. -1.
        -14    1    3    3    0    0 -0.26103079564E+02  0.28152696951E+02  0.11775771820E+03  0.12385808534E+03  0.00000000000E+00 0.  1.
        -11    1    4    4    0    0 -0.31668025966E+02 -0.48504102884E+01 -0.21665680013E+02  0.38675470765E+02  0.00000000000E+00 0.  1.
         11    1    4    4    0    0  0.33940653896E+02 -0.26857337293E+02  0.35344550638E+02  0.55879529465E+02  0.00000000000E+00 0. -1.
          2    1    1    2  501    0 -0.19460892670E+02  0.14633736920E+02  0.84276250116E+02  0.87723194957E+02  0.00000000000E+00 0. -1.
<scales pt_clust_5="13000.00000" pt_clust_6="13000.00000" pt_clust_7="13000.00000" pt_clust_8="13000.00000" pt_clust_9="24.34899"></scales>
<clustering>
<clus scale="   24.349">  2  9  1 -1</clus>
<clus scale="   80.251">  5  6 -1 -1</clus>
<clus scale="   83.758">  1  5  2 -1</clus>
<clus scale="   87.994">  7  8 -1 -1</clus>
<clus scale="   24.349">  2  5  1 -1</clus>
</clustering>
</event>
<event>
 9    1  0.6345107E-005  0.1475223E+03  0.7546771E-02  0.1206349E+00
         21   -1    0    0  501  502  0.00000000000E+00  0.00000000000E+00  0.12928069970E+03  0.12928069970E+03  0.00000000000E+00 0.  1.
          1   -1    0    0  502    0 -0.00000000000E+00 -0.00000000000E+00 -0.32633697180E+03  0.32633697180E+03  0.00000000000E+00 0. -1.
        -24    2    1    2    0    0 -0.46223317574E+02 -0.11725019738E+03 -0.23055979785E+03  0.27386575036E+03  0.77203788517E+02 0.  0.
         23    2    1    2    0    0  0.44742105148E+02  0.73518784337E+02 -0.12741612027E+01  0.12585811123E+03  0.91824686504E+02 0.  0.
         11    1    3    3    0    0 -0.17882911169E+02 -0.11791823032E+03 -0.19149762959E+03  0.22560108531E+03  0.00000000000E+00 0. -1.
        -12    1    3    3    0    0 -0.28340406405E+02  0.66803293965E+00 -0.39062168254E+02  0.48264665045E+02  0.00000000000E+00 0.  1.
        -13    1    4    4    0    0  0.66531761449E+02  0.26579621967E+02 -0.12954039687E+02  0.72806309682E+02  0.00000000000E+00 0. -1.
         13    1    4    4    0    0 -0.21789656301E+02  0.46939162371E+02  0.11679878484E+02  0.53051801545E+02  0.00000000000E+00 0.  1.
          2    1    1    2  501    0  0.14812124268E+01  0.43731413041E+02  0.34777686957E+02  0.55893809916E+02  0.00000000000E+00 0. -1.
<scales pt_clust_5="13000.00000" pt_clust_6="13000.00000" pt_clust_7="13000.00000" pt_clust_8="13000.00000" pt_clust_9="43.75649"></scales>
<clustering>
<clus scale="   43.756">  1  9  2 -1</clus>
<clus scale="   77.204">  5  6 -1 -1</clus>
<clus scale="   91.825">  7  8 -1 -1</clus>
<clus scale="  138.894">  2  5  1 -1</clus>
<clus scale="   43.756">  1  5  2 -1</clus>
</clustering>
</event>
<event>
 9    1  0.6345107E-005  0.1223495E+03  0.7546771E-02  0.1246925E+00
         -2   -1    0    0    0  501 -0.00000000000E+00  0.00000000000E+00  0.14470417878E+03  0.14470417878E+03  0.00000000000E+00 0.  1.
         21   -1    0    0  501  502  0.00000000000E+00 -0.00000000000E+00 -0.20558439789E+03  0.20558439789E+03  0.00000000000E+00 0. -1.
         23    2    1    2    0    0  0.55311975724E+02 -0.11830282169E+02 -0.51945007269E+02  0.11698302313E+03  0.88246097280E+02 0.  0.
        -24    2    1    2    0    0  0.69830978092E+01 -0.87895469303E+02 -0.16156148880E+02  0.11550044488E+03  0.72835118197E+02 0.  0.
         11    1    4    4    0    0  0.37835384414E+02 -0.37379817271E+02 -0.18364045208E+02  0.56267265878E+02  0.00000000000E+00 0. -1.
        -12    1    4    4    0    0 -0.30852286605E+02 -0.50515652032E+02  0.22078963282E+01  0.59233179006E+02  0.00000000000E+00 0.  1.
        -13    1    3    3    0    0  0.39598595201E+02  0.25532373440E+02  0.46779295357E+01  0.47348007984E+02  0.00000000000E+00 0.  1.
         13    1    3    3    0    0  0.15713380523E+02 -0.37362655608E+02 -0.56622936804E+02  0.69635015143E+02  0.00000000000E+00 0. -1.
         -1    1    1    2    0  502 -0.62295073533E+02  0.99725751472E+02  0.72209370395E+01  0.11780510865E+03  0.00000000000E+00 0.  1.
<scales pt_clust_5="13000.00000" pt_clust_6="13000.00000" pt_clust_7="13000.00000" pt_clust_8="13000.00000" pt_clust_9="98.30795"></scales>
<clustering>
<clus scale="   72.835">  5  6 -1 -1</clus>
<clus scale="   88.246">  7  8 -1 -1</clus>
<clus scale="  104.818">  1  7  2 -1</clus>
<clus scale="   98.308">  2  9  1 -1</clus>
<clus scale="   98.308">  2  5  1 -1</clus>
</clustering>
</event>
<event>
 9    1  0.6345107E-005  0.1371374E+03  0.7546771E-02  0.1238086E+00
         21   -1    0    0  501  502  0.00000000000E+00  0.00000000000E+00  0.63717416115E+02  0.63717416115E+02  0.00000000000E+00 0. -1.
         -2   -1    0    0    0  501 -0.00000000000E+00 -0.00000000000E+00 -0.44807919077E+03  0.44807919077E+03  0.00000000000E+00 0.  1.
        -24    2    1    2    0    0 -0.87690314450E+01 -0.39075192727E+02 -0.75831130367E+02  0.11692789657E+03  0.79485885948E+02 0.  0.
         23    2    1    2    0    0 -0.62342363897E+02  0.96656710481E+02 -0.13885895542E+03  0.20209697033E+03  0.91281355693E+02 0.  0.
         11    1    3    3    0    0 -0.39963998896E+02 -0.32571801159E+02 -0.65652006720E+02  0.83475921228E+02  0.00000000000E+00 0. -1.
        -12    1    3    3    0    0  0.31194967452E+02 -0.65033915683E+01 -0.10179123647E+02  0.33451975344E+02  0.00000000000E+00 0.  1.
        -13    1    4    4    0    0 -0.10681472056E+02 -0.17056058255E+02 -0.94035571292E+01  0.22213281053E+02  0.00000000000E+00 0.  1.
         13    1    4    4    0    0 -0.51660891841E+02  0.11371276874E+03 -0.12945539829E+03  0.17988368927E+03  0.00000000000E+00 0. -1.
         -1    1    1    2    0  502  0.71111395342E+02 -0.57581517754E+02 -0.16967168887E+03  0.19277173998E+03  0.00000000000E+00 0.  1.
<scales pt_clust_5="13000.00000" pt_clust_6="13000.00000" pt_clust_7="13000.00000" pt_clust_8="13000.00000" pt_clust_9="102.34451"></scales>
<clustering>
<clus scale="   79.486">  5  6 -1 -1</clus>
<clus scale="   89.004">  2  5  1 -1</clus>
<clus scale="   91.281">  7  8 -1 -1</clus>
<clus scale="  102.345">  1  9  2 -1</clus>
<clus scale="  102.345">  1  5  2 -1</clus>
</clustering>
</event>
<event>
 9    1  0.6345107E-005  0.9509169E+02  0.7546771E-02  0.1301454E+00
         21   -1    0    0  501  502  0.00000000000E+00  0.00000000000E+00  0.84648385223E+02  0.84648385223E+02  0.00000000000E+00 0.  1.
          3   -1    0    0  502    0 -0.00000000000E+00 -0.00000000000E+00 -0.23607680429E+03  0.23607680429E+03  0.00000000000E+00 0. -1.
         23    2    1    2    0    0 -0.11601594279E+01  0.64005117186E+01 -0.18595698720E+03  0.20869954251E+03  0.94515530118E+02 0.  0.
        -24    2    1    2    0    0  0.13419116912E+01 -0.29619377850E+02  0.23501052589E+02  0.86320494271E+02  0.77587498911E+02 0.  0.
         11    1    4    4    0    0 -0.98344206543E+01 -0.45402618200E+02 -0.10109752059E+02  0.47542829698E+02  0.00000000000E+00 0. -1.
        -12    1    4    4    0    0  0.11176332345E+02  0.15783240351E+02  0.33610804648E+02  0.38777664573E+02  0.00000000000E+00 0.  1.
        -13    1    3    3    0    0  0.58293296734E+01 -0.42187243442E+02 -0.11306359363E+03  0.12081854492E+03  0.00000000000E+00 0.  1.
         13    1    3    3    0    0 -0.69894891013E+01  0.48587755160E+02 -0.72893393572E+02  0.87880997581E+02  0.00000000000E+00 0. -1.
          4    1    1    2  501    0 -0.18175226326E+00  0.23218866131E+02  0.11027515541E+02  0.25705152738E+02  0.00000000000E+00 0. -1.
<scales pt_clust_5="13000.00000" pt_clust_6="13000.00000" pt_clust_7="13000.00000" pt_clust_8="13000.00000" pt_clust_9="23.21958"></scales>
<clustering>
<clus scale="   23.220">  1  9  2 -1</clus>
<clus scale="   77.587">  5  6 -1 -1</clus>
<clus scale="   78.288">  1  5  2 -1</clus>
<clus scale="   94.516">  7  8 -1 -1</clus>
<clus scale="   23.220">  1  5  2 -1</clus>
</clustering>
</event>
<event>
 9    1  0.6345107E-005  0.1749017E+03  0.7546771E-02  0.1198412E+00
         21   -1    0    0  501  502  0.00000000000E+00  0.00000000000E+00  0.19882268952E+03  0.19882268952E+03  0.00000000000E+00 0.  1.
         -4   -1    0    0    0  501 -0.00000000000E+00 -0.00000000000E+00 -0.46906786119E+03  0.46906786119E+03  0.00000000000E+00 0.  1.
         23    2    1    2    0    0 -0.41969213522E+01  0.37603450350E+02  0.11898535882E+03  0.15475781823E+03  0.91437591078E+02 0.  0.
        -24    2    1    2    0    0  0.12910744380E+03 -0.11211145109E+03 -0.22784100689E+03  0.29587560575E+03  0.79957114413E+02 0.  0.
         13    1    4    4    0    0  0.56093817900E+02 -0.95961648370E+02 -0.16058383210E+03  0.19530059266E+03  0.00000000000E+00 0. -1.
        -14    1    4    4    0    0  0.73013625900E+02 -0.16149802716E+02 -0.67257174794E+02  0.10057501308E+03  0.00000000000E+00 0.  1.
        -11    1    3    3    0    0  0.30531202717E+02 -0.13343228405E+02  0.63956182120E+02  0.72115111557E+02  0.00000000000E+00 0.  1.
         11    1    3    3    0    0 -0.34728124069E+02  0.50946678755E+02  0.55029176699E+02  0.82642706670E+02  0.00000000000E+00 0. -1.
         -3    1    1    2    0  502 -0.12491052245E+03  0.74508000736E+02 -0.16138952359E+03  0.21725712674E+03  0.00000000000E+00 0.  1.
<scales pt_clust_5="13000.00000" pt_clust_6="13000.00000" pt_clust_7="13000.00000" pt_clust_8="13000.00000" pt_clust_9="155.55529"></scales>
<clustering>
<clus scale="   79.957">  5  6 -1 -1</clus>
<clus scale="   91.438">  7  8 -1 -1</clus>
<clus scale="   98.957">  2  7  1 -1</clus>
<clus scale="  155.555">  1  9  2 -1</clus>
<clus scale="  155.555">  1  5  2 -1</clus>
</clustering>
</event>
<event>
 9    1  0.6345107E-005  0.2547229E+03  0.7546771E-02  0.1110854E+00
         21   -1    0    0  501  502  0.00000000000E+00  0.00000000000E+00  0.12607825678E+03  0.12607825678E+03  0.00000000000E+00 0. -1.
          1   -1    0    0  502    0 -0.00000000000E+00 -0.00000000000E+00 -0.10758441233E+04  0.10758441233E+04  0.00000000000E+00 0. -1.
         23    2    1    2    0    0 -0.23512904752E+03 -0.94212956403E+02 -0.52189433240E+03  0.58710583434E+03  0.90320631030E+02 0.  0.
        -24    2    1    2    0    0  0.22998967106E+03 -0.61033195739E+02 -0.13990212489E+03  0.28762522311E+03  0.80841602209E+02 0.  0.
         13    1    4    4    0    0  0.41264967466E+02 -0.43777919570E+02 -0.20137269631E+02  0.63441417151E+02  0.00000000000E+00 0. -1.
        -14    1    4    4    0    0  0.18872470359E+03 -0.17255276169E+02 -0.11976485526E+03  0.22418380596E+03  0.00000000000E+00 0.  1.
        -11    1    3    3    0    0 -0.10426255659E+03 -0.85902599340E+02 -0.30624619052E+03  0.33471878717E+03  0.00000000000E+00 0.  1.
         11    1    3    3    0    0 -0.13086649093E+03 -0.83103570624E+01 -0.21564814188E+03  0.25238704717E+03  0.00000000000E+00 0. -1.
          2    1    1    2  501    0  0.51393764623E+01  0.15524615214E+03 -0.28796940922E+03  0.32719132261E+03  0.00000000000E+00 0. -1.
<scales pt_clust_5="13000.00000" pt_clust_6="13000.00000" pt_clust_7="13000.00000" pt_clust_8="13000.00000" pt_clust_9="155.33128"></scales>
<clustering>
<clus scale="   80.842">  5  6 -1 -1</clus>
<clus scale="   90.321">  7  8 -1 -1</clus>
<clus scale="  155.331">  1  9  2 -1</clus>
<clus scale="  251.518">  1  5  2 -1</clus>
<clus scale="  155.331">  1  5  2 -1</clus>
</clustering>
</event>
<event>
 9    1  0.6345107E-005  0.1306396E+03  0.7546771E-02  0.1230010E+00
         21   -1    0    0  501  502  0.00000000000E+00  0.00000000000E+00  0.24766054098E+03  0.24766054098E+03  0.00000000000E+00 0. -1.
          1   -1    0    0  502    0 -0.00000000000E+00 -0.00000000000E+00 -0.35569389079E+03  0.35569389079E+03  0.00000000000E+00 0. -1.
         23    2    1    2    0    0  0.47706136212E+02 -0.71171253083E+02 -0.19845248458E+03  0.23592337997E+03  0.94526344929E+02 0.  0.
        -24    2    1    2    0    0 -0.93914465825E+02  0.48822497902E+02 -0.10215032094E+03  0.16813812203E+03  0.81438177895E+02 0.  0.
         11    1    4    4    0    0 -0.28345179413E+02  0.66205611608E+01  0.10662281773E+02  0.30999439973E+02  0.00000000000E+00 0. -1.
        -12    1    4    4    0    0 -0.65569286412E+02  0.42201936741E+02 -0.11281260271E+03  0.13713868206E+03  0.00000000000E+00 0.  1.
        -11    1    3    3    0    0  0.63525365566E+02 -0.30825080603E+02 -0.66340371581E+02  0.96884996599E+02  0.00000000000E+00 0.  1.
         11    1    3    3    0    0 -0.15819229354E+02 -0.40346172480E+02 -0.13211211299E+03  0.13903838337E+03  0.00000000000E+00 0. -1.
          2    1    1    2  501    0  0.46208329614E+02  0.22348755182E+02  0.19256945571E+03  0.19929292977E+03  0.00000000000E+00 0. -1.
<scales pt_clust_5="13000.00000" pt_clust_6="13000.00000" pt_clust_7="13000.00000" pt_clust_8="13000.00000" pt_clust_9="51.32910"></scales>
<clustering>
<clus scale="   51.329">  1  9  2 -1</clus>
<clus scale="   81.438">  5  6 -1 -1</clus>
<clus scale="   94.526">  7  8 -1 -1</clus>
<clus scale="  121.506">  1  5  2 -1</clus>
<clus scale="   51.329">  1  5  2 -1</clus>
</clustering>
</event>
<event>
 9    1  0.6345107E-005  0.1082417E+03  0.7546771E-02  0.1269167E+00
         21   -1    0    0  501  502  0.00000000000E+00  0.00000000000E+00  0.12720884274E+03  0.12720884274E+03  0.00000000000E+00 0.  1.
         -4   -1    0    0    0  501 -0.00000000000E+00 -0.00000000000E+00 -0.22668189034E+03  0.22668189034E+03  0.00000000000E+00 0.  1.
         23    2    1    2    0    0  0.33750256329E+02 -0.41274476733E+02 -0.15138259574E+03  0.18570068489E+03  0.93409805929E+02 0.  0.
        -24    2    1    2    0    0 -0.62568989249E+02  0.21165572001E+02 -0.12962860839E+01  0.10442682829E+03  0.80872877132E+02 0.  0.
         11    1    4    4    0    0 -0.50814618581E+02  0.51193704687E+02 -0.22434342937E+01  0.72166154522E+02  0.00000000000E+00 0. -1.
        -12    1    4    4    0    0 -0.11754370668E+02 -0.30028132685E+02  0.94714820977E+00  0.32260673770E+02  0.00000000000E+00 0.  1.
        -13    1    3    3    0    0  0.45878956434E+02 -0.15545059701E+02 -0.21954787005E+02  0.53184022009E+02  0.00000000000E+00 0. -1.
         13    1    3    3    0    0 -0.12128700106E+02 -0.25729417032E+02 -0.12942780873E+03  0.13251666288E+03  0.00000000000E+00 0.  1.
         -3    1    1    2    0  502  0.28818732920E+02  0.20108904732E+02  0.53205834225E+02  0.63763219901E+02  0.00000000000E+00 0.  1.
<scales pt_clust_5="13000.00000" pt_clust_6="13000.00000" pt_clust_7="13000.00000" pt_clust_8="13000.00000" pt_clust_9="35.14096"></scales>
<clustering>
<clus scale="   35.141">  1  9  2 -1</clus>
<clus scale="   80.873">  5  6 -1 -1</clus>
<clus scale="   93.410">  7  8 -1 -1</clus>
<clus scale="   97.628">  1  5  2 -1</clus>
<clus scale="   35.141">  1  5  2 -1</clus>
</clustering>
</event>
<event>
 9    1  0.6345107E-005  0.9870188E+02  0.7546771E-02  0.1292918E+00
          3   -1    0    0  502    0 -0.00000000000E+00  0.00000000000E+00  0.13290229854E+03  0.13290229854E+03  0.00000000000E+00 0. -1.
         21   -1    0    0  501  502  0.00000000000E+00 -0.00000000000E+00 -0.17733705660E+03  0.17733705660E+03  0.00000000000E+00 0. -1.
         23    2    1    2    0    0  0.43613356835E+02  0.30271989687E+02  0.64718288928E+02  0.12488663291E+03  0.92680612334E+02 0.  0.
        -24    2    1    2    0    0  0.13973507136E+02  0.13069352144E+02 -0.65180787346E+02  0.10092358963E+03  0.74638924414E+02 0.  0.
         13    1    4    4    0    0  0.49669855247E+00  0.43466157327E+02 -0.41537099899E+02  0.60123907144E+02  0.00000000000E+00 0. -1.
        -14    1    4    4    0    0  0.13476808583E+02 -0.30396805183E+02 -0.23643687447E+02  0.40799682487E+02  0.00000000000E+00 0.  1.
        -13    1    3    3    0    0  0.85420362066E+01 -0.32502502381E+02  0.29948744618E+02  0.45014512635E+02  0.00000000000E+00 0.  1.
         13    1    3    3    0    0  0.35071320629E+02  0.62774492068E+02  0.34769544310E+02  0.79872120270E+02  0.00000000000E+00 0. -1.
          4    1    1    2  501    0 -0.57586863971E+02 -0.43341341831E+02 -0.43972259645E+02  0.84429132603E+02  0.00000000000E+00 0. -1.
<scales pt_clust_5="13000.00000" pt_clust_6="13000.00000" pt_clust_7="13000.00000" pt_clust_8="13000.00000" pt_clust_9="72.07440"></scales>
<clustering>
<clus scale="   72.074">  2  9  1 -1</clus>
<clus scale="   74.639">  5  6 -1 -1</clus>
<clus scale="   81.996">  2  5  1 -1</clus>
<clus scale="   92.681">  7  8 -1 -1</clus>
<clus scale="   72.074">  2  5  1 -1</clus>
</clustering>
</event>
<event>
 9    1  0.6345107E-005  0.8786639E+02  0.7546771E-02  0.1314545E+00
          1   -1    0    0  502    0 -0.00000000000E+00  0.00000000000E+00  0.14154909656E+03  0.14154909656E+03  0.00000000000E+00 0. -1.
         21   -1    0    0  501  502  0.00000000000E+00 -0.00000000000E+00 -0.28546353062E+03  0.28546353062E+03  0.00000000000E+00 0. -1.
        -24    2    1    2    0    0  0.16992203496E+02 -0.11723890408E+01  0.10817227289E+03  0.13307286614E+03  0.75611094462E+02 0.  0.
         23    2    1    2    0    0 -0.61371011971E+02  0.87911003649E+01 -0.16588560703E+03  0.19668672494E+03  0.85580071225E+02 0.  0.
         13    1    3    3    0    0 -0.51049605402E+01 -0.24055286579E+02  0.95857988893E+02  0.98961969812E+02  0.00000000000E+00 0. -1.
        -14    1    3    3    0    0  0.22097164036E+02  0.22882897539E+02  0.12314283998E+02  0.34110896332E+02  0.00000000000E+00 0.  1.
        -11    1    4    4    0    0 -0.35707035630E+02  0.45826257138E+02 -0.11413151477E+03  0.12806654871E+03  0.00000000000E+00 0.  1.
         11    1    4    4    0    0 -0.25663976341E+02 -0.37035156773E+02 -0.51754092263E+02  0.68620176222E+02  0.00000000000E+00 0. -1.
          2    1    1    2  501    0  0.44378808475E+02 -0.76187113241E+01 -0.86201099924E+02  0.97253036107E+02  0.00000000000E+00 0. -1.
<scales pt_clust_5="13000.00000" pt_clust_6="13000.00000" pt_clust_7="13000.00000" pt_clust_8="13000.00000" pt_clust_9="45.02803"></scales>
<clustering>
<clus scale="   45.028">  2  9  1 -1</clus>
<clus scale="   75.611">  5  6 -1 -1</clus>
<clus scale="   78.189">  1  5  2 -1</clus>
<clus scale="   85.580">  7  8 -1 -1</clus>
<clus scale="   45.028">  2  5  1 -1</clus>
</clustering>
</event>
<event>
 9    1  0.6345107E-005  0.1189744E+03  0.7546771E-02  0.1247677E+00
         21   -1    0    0  501  502  0.00000000000E+00  0.00000000000E+00  0.87495170022E+02  0.87495170022E+02  0.00000000000E+00 0.  1.
          3   -1    0    0  502    0 -0.00000000000E+00 -0.00000000000E+00 -0.39595962742E+03  0.39595962742E+03  0.00000000000E+00 0. -1.
         23    2    1    2    0    0 -0.51717261049E+02  0.63493346334E+02 -0.30371364592E+03  0.32701436226E+03  0.89388669795E+02 0.  0.
        -24    2    1    2    0    0  0.15453245370E+02 -0.71166691380E+02 -0.28938763338E+02  0.11217966167E+03  0.80270316515E+02 0.  0.
         11    1    4    4    0    0  0.24144501810E+02  0.66448203210E+01  0.70405565886E+01  0.26013074441E+02  0.00000000000E+00 0. -1.
        -12    1    4    4    0    0 -0.86912564402E+01 -0.77811511701E+02 -0.35979319926E+02  0.86166587225E+02  0.00000000000E+00 0.  1.
        -13    1    3    3    0    0 -0.21251721023E+02 -0.20795560427E+02 -0.53121236506E+02  0.60876569778E+02  0.00000000000E+00 0.  1.
         13    1    3    3    0    0 -0.30465540026E+02  0.84288906761E+02 -0.25059240941E+03  0.26613779248E+03  0.00000000000E+00 0. -1.
          4    1    1    2  501    0  0.36264015679E+02  0.76733450457E+01  0.24187951858E+02  0.44260773518E+02  0.00000000000E+00 0. -1.
<scales pt_clust_5="13000.00000" pt_clust_6="13000.00000" pt_clust_7="13000.00000" pt_clust_8="13000.00000" pt_clust_9="37.06695"></scales>
<clustering>
<clus scale="   37.067">  1  9  2 -1</clus>
<clus scale="   80.270">  5  6 -1 -1</clus>
<clus scale="   89.389">  7  8 -1 -1</clus>
<clus scale="  112.285">  1  5  2 -1</clus>
<clus scale="   37.067">  1  5  2 -1</clus>
</clustering>
</event>
<event>
 9    1  0.6345107E-005  0.9504136E+02  0.7546771E-02  0.1297417E+00
         -2   -1    0    0    0  501 -0.00000000000E+00  0.00000000000E+00  0.10774555810E+03  0.10774555810E+03  0.00000000000E+00 0.  1.
         21   -1    0    0  501  502  0.00000000000E+00 -0.00000000000E+00 -0.13396961012E+03  0.13396961012E+03  0.00000000000E+00 0.  1.
        -24    2    1    2    0    0 -0.23205418033E+02 -0.36696829710E+02  0.87868670926E+01  0.91632729688E+02  0.80213461339E+02 0.  0.
         23    2    1    2    0    0 -0.14851656962E+02  0.50898210805E+01 -0.38915885238E+02  0.10045792128E+03  0.91273598757E+02 0.  0.
         11    1    3    3    0    0 -0.33987584875E+02  0.10399891904E+02 -0.14015995247E+02  0.38206829232E+02  0.00000000000E+00 0. -1.
        -12    1    3    3    0    0  0.10782166842E+02 -0.47096721615E+02  0.22802862340E+02  0.53425900456E+02  0.00000000000E+00 0.  1.
        -11    1    4    4    0    0 -0.27857545963E+02  0.43646065329E+02 -0.24569732817E+02  0.57312247002E+02  0.00000000000E+00 0.  1.
         11    1    4    4    0    0  0.13005889001E+02 -0.38556244248E+02 -0.14346152421E+02  0.43145674274E+02  0.00000000000E+00 0. -1.
         -1    1    1    2    0  502  0.38057074995E+02  0.31607008630E+02  0.39049661255E+01  0.49624517248E+02  0.00000000000E+00 0.  1.
<scales pt_clust_5="13000.00000" pt_clust_6="13000.00000" pt_clust_7="13000.00000" pt_clust_8="13000.00000" pt_clust_9="49.47066"></scales>
<clustering>
<clus scale="   49.471">  2  9  1 -1</clus>
<clus scale="   80.213">  5  6 -1 -1</clus>
<clus scale="   84.476">  1  5  2 -1</clus>
<clus scale="   91.274">  7  8 -1 -1</clus>
<clus scale="   49.471">  2  5  1 -1</clus>
</clustering>
</event>
<event>
 9    1  0.6345107E-005  0.1571234E+03  0.7546771E-02  0.1220280E+00
          1   -1    0    0  502    0 -0.00000000000E+00  0.00000000000E+00  0.29570605357E+03  0.29570605357E+03  0.00000000000E+00 0. -1.
         21   -1    0    0  501  502  0.00000000000E+00 -0.00000000000E+00 -0.17549603116E+03  0.17549603116E+03  0.00000000000E+00 0. -1.
        -24    2    1    2    0    0  0.28439948049E+02  0.70749476029E+01 -0.57075332229E+02  0.10281610016E+03  0.80340969460E+02 0.  0.
         23    2    1    2    0    0 -0.11108342962E+03  0.89013767281E+02  0.17415666637E+03  0.24160753662E+03  0.88208152718E+02 0.  0.
         11    1    3    3    0    0  0.26139167048E+02  0.35701280417E+02 -0.59325841750E+02  0.74009411407E+02  0.00000000000E+00 0. -1.
        -12    1    3    3    0    0  0.23007810005E+01 -0.28626332814E+02  0.22505095215E+01  0.28806688750E+02  0.00000000000E+00 0.  1.
        -13    1    4    4    0    0 -0.30001401216E+02  0.10415439187E+02 -0.25932096453E+01  0.31863618512E+02  0.00000000000E+00 0.  1.
         13    1    4    4    0    0 -0.81082028405E+02  0.78598328094E+02  0.17674987602E+03  0.20974391811E+03  0.00000000000E+00 0. -1.
          2    1    1    2  501    0  0.82643481573E+02 -0.96088714884E+02  0.31286882623E+01  0.12677844795E+03  0.00000000000E+00 0. -1.
<scales pt_clust_5="13000.00000" pt_clust_6="13000.00000" pt_clust_7="13000.00000" pt_clust_8="13000.00000" pt_clust_9="130.02722"></scales>
<clustering>
<clus scale="   80.341">  5  6 -1 -1</clus>
<clus scale="   85.519">  1  5  2 -1</clus>
<clus scale="   88.208">  7  8 -1 -1</clus>
<clus scale="  130.027">  2  9  1 -1</clus>
<clus scale="  130.027">  2  5  1 -1</clus>
</clustering>
</event>
<event>
 9    1  0.6345107E-005  0.3628160E+03  0.7546771E-02  0.1095818E+00
         21   -1    0    0  501  502  0.00000000000E+00  0.00000000000E+00  0.26288877656E+04  0.26288877656E+04  0.00000000000E+00 0.  1.
          3   -1    0    0  502    0 -0.00000000000E+00 -0.00000000000E+00 -0.12109100391E+03  0.12109100391E+03  0.00000000000E+00 0. -1.
        -24    2    1    2    0    0 -0.97089165179E+02  0.26561894320E+02  0.11993108397E+03  0.17560037746E+03  0.79499606522E+02 0.  0.
         23    2    1    2    0    0 -0.76611434587E+02 -0.33561357372E+03  0.32836333153E+03  0.48458539922E+03  0.92166961922E+02 0.  0.
         11    1    3    3    0    0 -0.98609666355E+02  0.66104286801E+01  0.68046582009E+02  0.11999125547E+03  0.00000000000E+00 0. -1.
        -12    1    3    3    0    0  0.15205011755E+01  0.19951465640E+02  0.51884501959E+02  0.55609121990E+02  0.00000000000E+00 0.  1.
        -13    1    4    4    0    0 -0.79467265598E+02 -0.23585876224E+03  0.18591743755E+03  0.31066009659E+03  0.00000000000E+00 0.  1.
         13    1    4    4    0    0  0.28558310114E+01 -0.99754811475E+02  0.14244589397E+03  0.17392530263E+03  0.00000000000E+00 0. -1.
          4    1    1    2  501    0  0.17370059977E+03  0.30905167940E+03  0.20595023461E+04  0.20897929928E+04  0.00000000000E+00 0. -1.
<scales pt_clust_5="13000.00000" pt_clust_6="13000.00000" pt_clust_7="13000.00000" pt_clust_8="13000.00000" pt_clust_9="350.91408"></scales>
<clustering>
<clus scale="   79.500">  5  6 -1 -1</clus>
<clus scale="   92.167">  7  8 -1 -1</clus>
<clus scale="  128.265">  2  5  1 -1</clus>
<clus scale="  350.914">  1  9  2 -1</clus>
<clus scale="  350.914">  1  5  2 -1</clus>
</clustering>
</event>
<event>
 9    1  0.6345107E-005  0.1144684E+03  0.7546771E-02  0.1258459E+00
         21   -1    0    0  501  502  0.00000000000E+00  0.00000000000E+00  0.28163116710E+03  0.28163116710E+03  0.00000000000E+00 0. -1.
         -2   -1    0    0    0  501 -0.00000000000E+00 -0.00000000000E+00 -0.89776452498E+02  0.89776452498E+02  0.00000000000E+00 0.  1.
        -24    2    1    2    0    0 -0.47539640241E+01 -0.64607028012E+02 -0.29614145072E+02  0.10722280195E+03  0.80144016790E+02 0.  0.
         23    2    1    2    0    0 -0.24077106928E+02  0.52822991387E+02  0.18465858215E+03  0.21596562331E+03  0.95772558656E+02 0.  0.
         11    1    3    3    0    0 -0.24551459060E+02 -0.59482214772E+02  0.75625299531E+01  0.64792745547E+02  0.00000000000E+00 0. -1.
        -12    1    3    3    0    0  0.19797495036E+02 -0.51248132399E+01 -0.37176675025E+02  0.42430056403E+02  0.00000000000E+00 0.  1.
        -13    1    4    4    0    0 -0.34718247047E+02  0.25397341327E+01  0.14997217158E+03  0.15395927765E+03  0.00000000000E+00 0. -1.
         13    1    4    4    0    0  0.10641140119E+02  0.50283257254E+02  0.34686410575E+02  0.62006345657E+02  0.00000000000E+00 0.  1.
         -1    1    1    2    0  502  0.28831070952E+02  0.11784036625E+02  0.36810277520E+02  0.48219194337E+02  0.00000000000E+00 0.  1.
<scales pt_clust_5="13000.00000" pt_clust_6="13000.00000" pt_clust_7="13000.00000" pt_clust_8="13000.00000" pt_clust_9="31.14633"></scales>
<clustering>
<clus scale="   31.146">  1  9  2 -1</clus>
<clus scale="   80.144">  5  6 -1 -1</clus>
<clus scale="   95.773">  7  8 -1 -1</clus>
<clus scale="  101.753">  2  5  1 -1</clus>
<clus scale="   31.146">  1  5  2 -1</clus>
</clustering>
</event>
<event>
 9    1  0.6345107E-005  0.9884984E+02  0.7546771E-02  0.1291136E+00
          1   -1    0    0  502    0 -0.00000000000E+00  0.00000000000E+00  0.95567552097E+02  0.95567552097E+02  0.00000000000E+00 0. -1.
         21   -1    0    0  501  502  0.00000000000E+00 -0.00000000000E+00 -0.39785654304E+03  0.39785654304E+03  0.00000000000E+00 0. -1.
         23    2    1    2    0    0  0.43098691430E+01 -0.50664104146E+02  0.47639810961E+02  0.11199486663E+03  0.87680511754E+02 0.  0.
        -24    2    1    2    0    0 -0.28673377241E+02  0.23600461712E+02 -0.96593006313E+02  0.12548969152E+03  0.70981049957E+02 0.  0.
         11    1    4    4    0    0  0.22372547505E+02  0.31987145655E+01 -0.15068538344E+02  0.27162906776E+02  0.00000000000E+00 0. -1.
        -12    1    4    4    0    0 -0.51045924745E+02  0.20401747146E+02 -0.81524467970E+02  0.98326784741E+02  0.00000000000E+00 0.  1.
        -13    1    3    3    0    0 -0.18085585088E+02 -0.19971322525E+02  0.64894624267E+02  0.70265598768E+02  0.00000000000E+00 0. -1.
         13    1    3    3    0    0  0.22395454231E+02 -0.30692781620E+02 -0.17254813306E+02  0.41729267859E+02  0.00000000000E+00 0.  1.
          2    1    1    2  501    0  0.24363508098E+02  0.27063642434E+02 -0.25333579559E+03  0.25593953700E+03  0.00000000000E+00 0. -1.
<scales pt_clust_5="13000.00000" pt_clust_6="13000.00000" pt_clust_7="13000.00000" pt_clust_8="13000.00000" pt_clust_9="36.41457"></scales>
<clustering>
<clus scale="   36.415">  2  9  1 -1</clus>
<clus scale="   70.981">  5  6 -1 -1</clus>
<clus scale="   84.390">  2  5  1 -1</clus>
<clus scale="   87.681">  7  8 -1 -1</clus>
<clus scale="   36.415">  2  5  1 -1</clus>
</clustering>
</event>
<event>
 9    1  0.6345107E-005  0.1929466E+03  0.7546771E-02  0.1185233E+00
          1   -1    0    0  502    0 -0.00000000000E+00  0.00000000000E+00  0.20322545898E+03  0.20322545898E+03  0.00000000000E+00 0. -1.
         21   -1    0    0  501  502  0.00000000000E+00 -0.00000000000E+00 -0.33578982614E+03  0.33578982614E+03  0.00000000000E+00 0. -1.
         23    2    1    2    0    0  0.40228808988E+02  0.13115526806E+02 -0.84261850982E+02  0.12964829630E+03  0.88984532850E+02 0.  0.
        -24    2    1    2    0    0 -0.13787536925E+03  0.11803391262E+03 -0.11840250676E+03  0.23146523258E+03  0.81334975960E+02 0.  0.
         13    1    4    4    0    0 -0.12625647363E+03  0.68810393386E+02 -0.64636754936E+02  0.15764985715E+03  0.00000000000E+00 0. -1.
        -14    1    4    4    0    0 -0.11618895620E+02  0.49223519234E+02 -0.53765751819E+02  0.73815375430E+02  0.00000000000E+00 0.  1.
        -13    1    3    3    0    0  0.55683011974E+02 -0.21181437925E+02 -0.41010360554E+02  0.72326349333E+02  0.00000000000E+00 0. -1.
         13    1    3    3    0    0 -0.15454202987E+02  0.34296964732E+02 -0.43251490428E+02  0.57321946967E+02  0.00000000000E+00 0.  1.
          2    1    1    2  501    0  0.97646560265E+02 -0.13114943943E+03  0.70099990573E+02  0.17790175624E+03  0.00000000000E+00 0. -1.
<scales pt_clust_5="13000.00000" pt_clust_6="13000.00000" pt_clust_7="13000.00000" pt_clust_8="13000.00000" pt_clust_9="174.96588"></scales>
<clustering>
<clus scale="   81.335">  5  6 -1 -1</clus>
<clus scale="   88.985">  7  8 -1 -1</clus>
<clus scale="   98.532">  1  7  2 -1</clus>
<clus scale="  174.966">  2  9  1 -1</clus>
<clus scale="  174.966">  2  5  1 -1</clus>
</clustering>
</event>
<event>
 9    1  0.6345107E-005  0.1119009E+03  0.7546771E-02  0.1262346E+00
          1   -1    0    0  502    0 -0.00000000000E+00  0.00000000000E+00  0.15684071943E+03  0.15684071943E+03  0.00000000000E+00 0. -1.
         21   -1    0    0  501  502  0.00000000000E+00 -0.00000000000E+00 -0.20259390610E+03  0.20259390610E+03  0.00000000000E+00 0. -1.
         23    2    1    2    0    0 -0.58545142501E+02  0.42953932616E+02  0.13920928810E+02  0.11730189644E+03  0.91067934045E+02 0.  0.
        -24    2    1    2    0    0  0.10842652785E+02 -0.54752034027E+02 -0.12702407013E+03  0.15876163631E+03  0.77167314454E+02 0.  0.
         11    1    4    4    0    0  0.83467890048E+01 -0.67753206833E+02 -0.61400535233E+02  0.91816075117E+02  0.00000000000E+00 0. -1.
        -12    1    4    4    0    0  0.24958637800E+01  0.13001172806E+02 -0.65623534898E+02  0.66945561189E+02  0.00000000000E+00 0.  1.
        -13    1    3    3    0    0  0.24478941613E+02  0.66724875251E+01 -0.13982869969E+01  0.25410546606E+02  0.00000000000E+00 0.  1.
         13    1    3    3    0    0 -0.83024084114E+02  0.36281445091E+02  0.15319215807E+02  0.91891349831E+02  0.00000000000E+00 0. -1.
          2    1    1    2  501    0  0.47702489716E+02  0.11798101410E+02  0.67349954647E+02  0.83371092790E+02  0.00000000000E+00 0. -1.
<scales pt_clust_5="13000.00000" pt_clust_6="13000.00000" pt_clust_7="13000.00000" pt_clust_8="13000.00000" pt_clust_9="49.13985"></scales>
<clustering>
<clus scale="   49.140">  2  9  1 -1</clus>
<clus scale="   77.167">  5  6 -1 -1</clus>
<clus scale="   91.068">  7  8 -1 -1</clus>
<clus scale="  100.912">  2  5  1 -1</clus>
<clus scale="   49.140">  2  5  1 -1</clus>
</clustering>
</event>
<event>
 9    1  0.6345107E-005  0.1283119E+03  0.7546771E-02  0.1246501E+00
         -2   -1    0    0    0  501 -0.00000000000E+00  0.00000000000E+00  0.85611138422E+02  0.85611138422E+02  0.00000000000E+00 0.  1.
         21   -1    0    0  501  502  0.00000000000E+00 -0.00000000000E+00 -0.58460511429E+03  0.58460511429E+03  0.00000000000E+00 0.  1.
         23    2    1    2    0    0 -0.11462223618E+02  0.13988245830E+01 -0.23278956777E+03  0.25018188671E+03  0.90921143288E+02 0.  0.
        -24    2    1    2    0    0 -0.83225734046E+02 -0.37412408558E+02  0.13777572042E+02  0.12228833872E+03  0.80239673314E+02 0.  0.
         11    1    4    4    0    0  0.49804787829E+01 -0.20666659696E+02 -0.17166063796E+02  0.27323794359E+02  0.00000000000E+00 0. -1.
        -12    1    4    4    0    0 -0.88206212829E+02 -0.16745748862E+02  0.30943635838E+02  0.94964544360E+02  0.00000000000E+00 0.  1.
        -13    1    3    3    0    0 -0.31042288396E+02  0.37832961290E+02 -0.10454827994E+03  0.11543526094E+03  0.00000000000E+00 0. -1.
         13    1    3    3    0    0  0.19580064779E+02 -0.36434136708E+02 -0.12824128783E+03  0.13474662577E+03  0.00000000000E+00 0.  1.
         -1    1    1    2    0  502  0.94687957664E+02  0.36013583975E+02 -0.27998198014E+03  0.29774602728E+03  0.00000000000E+00 0.  1.
<scales pt_clust_5="13000.00000" pt_clust_6="13000.00000" pt_clust_7="13000.00000" pt_clust_8="13000.00000" pt_clust_9="100.12759"></scales>
<clustering>
<clus scale="   80.240">  5  6 -1 -1</clus>
<clus scale="   90.921">  7  8 -1 -1</clus>
<clus scale="   91.652">  1  7  2 -1</clus>
<clus scale="  100.128">  2  9  1 -1</clus>
<clus scale="  100.128">  2  5  1 -1</clus>
</clustering>
</event>
<event>
 9    1  0.6345107E-005  0.1264526E+03  0.7546771E-02  0.1235799E+00
         21   -1    0    0  501  502  0.00000000000E+00  0.00000000000E+00  0.39343161805E+02  0.39343161805E+02  0.00000000000E+00 0. -1.
          1   -1    0    0  502    0 -0.00000000000E+00 -0.00000000000E+00 -0.82291708852E+03  0.82291708852E+03  0.00000000000E+00 0. -1.
        -24    2    1    2    0    0  0.22204408583E+02  0.55933163316E+02 -0.25284959210E+03  0.27178488460E+03  0.79451574892E+02 0.  0.
         23    2    1    2    0    0 -0.15181115080E+02 -0.12687739589E+03 -0.47464933721E+03  0.49977356794E+03  0.90295548351E+02 0.  0.
         13    1    3    3    0    0 -0.26821693636E+02  0.39872742622E+02 -0.11885414647E+03  0.12820119729E+03  0.00000000000E+00 0. -1.
        -14    1    3    3    0    0  0.49026102219E+02  0.16060420694E+02 -0.13399544563E+03  0.14358368731E+03  0.00000000000E+00 0.  1.
        -13    1    4    4    0    0 -0.46838465049E+02 -0.35888038735E+02 -0.21008934850E+03  0.21821853149E+03  0.00000000000E+00 0.  1.
         13    1    4    4    0    0  0.31657349969E+02 -0.90989357159E+02 -0.26455998871E+03  0.28155503645E+03  0.00000000000E+00 0. -1.
          2    1    1    2  501    0 -0.70232935035E+01  0.70944232577E+02 -0.56074997402E+02  0.90701797784E+02  0.00000000000E+00 0. -1.
<scales pt_clust_5="13000.00000" pt_clust_6="13000.00000" pt_clust_7="13000.00000" pt_clust_8="13000.00000" pt_clust_9="71.29103"></scales>
<clustering>
<clus scale="   71.291">  1  9  2 -1</clus>
<clus scale="   79.452">  5  6 -1 -1</clus>
<clus scale="   90.296">  7  8 -1 -1</clus>
<clus scale="  118.952">  2  5  1 -1</clus>
<clus scale="   71.291">  1  5  2 -1</clus>
</clustering>
</event>
<event>
 9    1  0.6345107E-005  0.9320889E+02  0.7546771E-02  0.1302183E+00
          1   -1    0    0  502    0 -0.00000000000E+00  0.00000000000E+00  0.30420912482E+03  0.30420912482E+03  0.00000000000E+00 0. -1.
         21   -1    0    0  501  502  0.00000000000E+00 -0.00000000000E+00 -0.19354582421E+03  0.19354582421E+03  0.00000000000E+00 0.  1.
         23    2    1    2    0    0  0.17526450160E+02 -0.27339939360E+01  0.24285597029E+03  0.26006943714E+03  0.91336951164E+02 0.  0.
        -24    2    1    2    0    0 -0.11109778441E+01  0.60200923606E+02 -0.86071152786E+01  0.10040730898E+03  0.79888420861E+02 0.  0.
         13    1    4    4    0    0 -0.43460432201E+01  0.47457510501E+02  0.32213057689E+02  0.57522034737E+02  0.00000000000E+00 0. -1.
        -14    1    4    4    0    0  0.32350653759E+01  0.12743413105E+02 -0.40820172967E+02  0.42885274240E+02  0.00000000000E+00 0.  1.
        -13    1    3    3    0    0  0.44051279934E+02 -0.31310138624E+02  0.14290076988E+03  0.15277915458E+03  0.00000000000E+00 0. -1.
         13    1    3    3    0    0 -0.26524829774E+02  0.28576144688E+02  0.99955200416E+02  0.10729028255E+03  0.00000000000E+00 0.  1.
          2    1    1    2  501    0 -0.16415472316E+02 -0.57466929670E+02 -0.12358555441E+03  0.13727820291E+03  0.00000000000E+00 0. -1.
<scales pt_clust_5="13000.00000" pt_clust_6="13000.00000" pt_clust_7="13000.00000" pt_clust_8="13000.00000" pt_clust_9="59.76551"></scales>
<clustering>
<clus scale="   59.766">  2  9  1 -1</clus>
<clus scale="   79.888">  5  6 -1 -1</clus>
<clus scale="   82.022">  2  5  1 -1</clus>
<clus scale="   91.337">  7  8 -1 -1</clus>
<clus scale="   59.766">  2  5  1 -1</clus>
</clustering>
</event>
<event>
 9    1  0.6345107E-005  0.1102175E+03  0.7546771E-02  0.1263973E+00
         21   -1    0    0  501  502  0.00000000000E+00  0.00000000000E+00  0.52268384409E+02  0.52268384409E+02  0.00000000000E+00 0.  1.
         -2   -1    0    0    0  501 -0.00000000000E+00 -0.00000000000E+00 -0.46516221346E+03  0.46516221346E+03  0.00000000000E+00 0.  1.
        -24    2    1    2    0    0 -0.50457348215E+02  0.45913508590E+02 -0.33104056342E+03  0.34732306495E+03  0.79946623150E+02 0.  0.
         23    2    1    2    0    0  0.40533407501E+02 -0.17370234835E+02 -0.21155983895E+02  0.10230367547E+03  0.89854238506E+02 0.  0.
         11    1    3    3    0    0 -0.16954601927E+01 -0.21576911377E+02 -0.60168291097E+02  0.63942637914E+02  0.00000000000E+00 0. -1.
        -12    1    3    3    0    0 -0.48761888022E+02  0.67490419966E+02 -0.27087227233E+03  0.28338042703E+03  0.00000000000E+00 0.  1.
        -13    1    4    4    0    0 -0.14207531018E+02  0.23121198018E+02 -0.20836063316E+02  0.34213816945E+02  0.00000000000E+00 0. -1.
         13    1    4    4    0    0  0.54740938518E+02 -0.40491432853E+02 -0.31992057908E+00  0.68089858522E+02  0.00000000000E+00 0.  1.
         -1    1    1    2    0  502  0.99239407146E+01 -0.28543273755E+02 -0.60697281732E+02  0.67803857453E+02  0.00000000000E+00 0.  1.
<scales pt_clust_5="13000.00000" pt_clust_6="13000.00000" pt_clust_7="13000.00000" pt_clust_8="13000.00000" pt_clust_9="30.21927"></scales>
<clustering>
<clus scale="   30.219">  1  9  2 -1</clus>
<clus scale="   79.947">  5  6 -1 -1</clus>
<clus scale="   89.854">  7  8 -1 -1</clus>
<clus scale="  102.301">  2  5  1 -1</clus>
<clus scale="   30.219">  1  5  2 -1</clus>
</clustering>
</event>
<event>
 9    1  0.6345107E-005  0.1551633E+03  0.7546771E-02  0.1208505E+00
          1   -1    0    0  502    0 -0.00000000000E+00  0.00000000000E+00  0.22343910335E+03  0.22343910335E+03  0.00000000000E+00 0. -1.
         21   -1    0    0  501  502  0.00000000000E+00 -0.00000000000E+00 -0.72475446929E+03  0.72475446929E+03  0.00000000000E+00 0.  1.
        -24    2    1    2    0    0  0.21612814590E+02 -0.78370658084E+02  0.17035617735E+03  0.20496763392E+03  0.79883853141E+02 0.  0.
         23    2    1    2    0    0 -0.13856945286E+03  0.86708261746E+02 -0.30074701274E+03  0.35421002872E+03  0.91083274290E+02 0.  0.
         13    1    3    3    0    0  0.66565709882E+01 -0.92869457961E+02  0.13713466923E+03  0.16575573493E+03  0.00000000000E+00 0. -1.
        -14    1    3    3    0    0  0.14956243602E+02  0.14498799877E+02  0.33221508119E+02  0.39211898988E+02  0.00000000000E+00 0.  1.
        -11    1    4    4    0    0 -0.18198335737E+02  0.21373937196E+02 -0.14109937518E+03  0.14386472219E+03  0.00000000000E+00 0.  1.
         11    1    4    4    0    0 -0.12037111712E+03  0.65334324551E+02 -0.15964763756E+03  0.21034530653E+03  0.00000000000E+00 0. -1.
          2    1    1    2  501    0  0.11695663827E+03 -0.83376036622E+01 -0.37092453054E+03  0.38901590999E+03  0.00000000000E+00 0. -1.
<scales pt_clust_5="13000.00000" pt_clust_6="13000.00000" pt_clust_7="13000.00000" pt_clust_8="13000.00000" pt_clust_9="125.61640"></scales>
<clustering>
<clus scale="   79.884">  5  6 -1 -1</clus>
<clus scale="   91.083">  7  8 -1 -1</clus>
<clus scale="  113.976">  1  5  2 -1</clus>
<clus scale="  125.616">  2  9  1 -1</clus>
<clus scale="  125.616">  2  5  1 -1</clus>
</clustering>
</event>
<event>
 9    1  0.6345107E-005  0.1459501E+03  0.7546771E-02  0.1208032E+00
          1   -1    0    0  502    0 -0.00000000000E+00  0.00000000000E+00  0.32962311776E+03  0.32962311776E+03  0.00000000000E+00 0. -1.
         21   -1    0    0  501  502  0.00000000000E+00 -0.00000000000E+00 -0.11216246973E+03  0.11216246973E+03  0.00000000000E+00 0. -1.
         23    2    1    2    0    0  0.54004430487E+02 -0.11303343419E+03  0.19212160791E+03  0.24701709727E+03  0.91726214159E+02 0.  0.
        -24    2    1    2    0    0  0.10156578410E+02  0.98661229576E+02  0.99027462559E+01  0.12722980134E+03  0.79070624495E+02 0.  0.
         13    1    4    4    0    0  0.35128000765E+02  0.61271806297E+02 -0.19791164584E+02  0.73347807604E+02  0.00000000000E+00 0. -1.
        -14    1    4    4    0    0 -0.24971422355E+02  0.37389423279E+02  0.29693910840E+02  0.53881993732E+02  0.00000000000E+00 0.  1.
        -11    1    3    3    0    0  0.63588283268E+02 -0.56728312249E+02  0.63461425147E+02  0.10624934664E+03  0.00000000000E+00 0.  1.
         11    1    3    3    0    0 -0.95838527808E+01 -0.56305121940E+02  0.12866018276E+03  0.14076775063E+03  0.00000000000E+00 0. -1.
          2    1    1    2  501    0 -0.64161008897E+02  0.14372204613E+02  0.15436293871E+02  0.67538688887E+02  0.00000000000E+00 0. -1.
<scales pt_clust_5="13000.00000" pt_clust_6="13000.00000" pt_clust_7="13000.00000" pt_clust_8="13000.00000" pt_clust_9="65.75101"></scales>
<clustering>
<clus scale="   65.751">  2  9  1 -1</clus>
<clus scale="   79.071">  5  6 -1 -1</clus>
<clus scale="   91.726">  7  8 -1 -1</clus>
<clus scale="  138.347">  2  5  1 -1</clus>
<clus scale="   65.751">  2  5  1 -1</clus>
</clustering>
</event>
<event>
 9    1  0.6345107E-005  0.2348848E+03  0.7546771E-02  0.1136929E+00
         21   -1    0    0  501  502  0.00000000000E+00  0.00000000000E+00  0.23391696946E+03  0.23391696946E+03  0.00000000000E+00 0. -1.
          1   -1    0    0  502    0 -0.00000000000E+00 -0.00000000000E+00 -0.73920752945E+03  0.73920752945E+03  0.00000000000E+00 0. -1.
         23    2    1    2    0    0 -0.11099174154E+03  0.86786680569E+02 -0.46110925039E+03  0.49071278111E+03  0.91248003421E+02 0.  0.
        -24    2    1    2    0    0  0.12047984201E+02 -0.26456798433E+03 -0.27201210185E+02  0.27824418156E+03  0.80861279233E+02 0.  0.
         13    1    4    4    0    0 -0.31803463473E+01 -0.21402670091E+03  0.89968403165E+01  0.21423932049E+03  0.00000000000E+00 0. -1.
        -14    1    4    4    0    0  0.15228330548E+02 -0.50541283418E+02 -0.36198050501E+02  0.64004861073E+02  0.00000000000E+00 0.  1.
        -11    1    3    3    0    0 -0.79295228486E+02  0.39493001852E+02 -0.38835439035E+03  0.39832971639E+03  0.00000000000E+00 0. -1.
         11    1    3    3    0    0 -0.31696513051E+02  0.47293678717E+02 -0.72754860044E+02  0.92383064715E+02  0.00000000000E+00 0.  1.
          2    1    1    2  501    0  0.98943757336E+02  0.17778130376E+03 -0.16980099410E+02  0.20416753625E+03  0.00000000000E+00 0. -1.
<scales pt_clust_5="13000.00000" pt_clust_6="13000.00000" pt_clust_7="13000.00000" pt_clust_8="13000.00000" pt_clust_9="220.52738"></scales>
<clustering>
<clus scale="   80.861">  5  6 -1 -1</clus>
<clus scale="   91.248">  7  8 -1 -1</clus>
<clus scale="  167.861">  2  7  1 -1</clus>
<clus scale="  220.527">  1  9  2 -1</clus>
<clus scale="  220.527">  1  5  2 -1</clus>
</clustering>
</event>
<event>
 9    1  0.6345107E-005  0.9429472E+02  0.7546771E-02  0.1301758E+00
          1   -1    0    0  502    0 -0.00000000000E+00  0.00000000000E+00  0.41101265092E+03  0.41101265092E+03  0.00000000000E+00 0. -1.
         21   -1    0    0  501  502  0.00000000000E+00 -0.00000000000E+00 -0.14022780777E+03  0.14022780777E+03  0.00000000000E+00 0. -1.
        -24    2    1    2    0    0  0.22690463974E+02  0.11336497528E+02  0.32442136229E+03  0.33424392372E+03  0.76330903972E+02 0.  0.
         23    2    1    2    0    0 -0.21463476559E+01 -0.21424763133E+02  0.53105724134E+02  0.10782813150E+03  0.91340356487E+02 0.  0.
         11    1    3    3    0    0 -0.43726177786E+01  0.20407366737E+02  0.21439002510E+02  0.29920080748E+02  0.00000000000E+00 0. -1.
        -12    1    3    3    0    0  0.27063081753E+02 -0.90708692089E+01  0.30298235978E+03  0.30432384297E+03  0.00000000000E+00 0.  1.
        -11    1    4    4    0    0  0.37434636430E+02 -0.10946114021E+02 -0.21433406596E+01  0.39061020545E+02  0.00000000000E+00 0.  1.
         11    1    4    4    0    0 -0.39580984086E+02 -0.10478649113E+02  0.55249064794E+02  0.68767110955E+02  0.00000000000E+00 0. -1.
          2    1    1    2  501    0 -0.20544116318E+02  0.10088265605E+02 -0.10674224327E+03  0.10916840348E+03  0.00000000000E+00 0. -1.
<scales pt_clust_5="13000.00000" pt_clust_6="13000.00000" pt_clust_7="13000.00000" pt_clust_8="13000.00000" pt_clust_9="22.88742"></scales>
<clustering>
<clus scale="   22.887">  2  9  1 -1</clus>
<clus scale="   76.331">  5  6 -1 -1</clus>
<clus scale="   79.843">  1  5  2 -1</clus>
<clus scale="   91.340">  7  8 -1 -1</clus>
<clus scale="   22.887">  2  5  1 -1</clus>
</clustering>
</event>
<event>
 9    1  0.6345107E-005  0.1775020E+03  0.7546771E-02  0.1171490E+00
         21   -1    0    0  501  502  0.00000000000E+00  0.00000000000E+00  0.14833930282E+04  0.14833930282E+04  0.00000000000E+00 0. -1.
          3   -1    0    0  502    0 -0.00000000000E+00 -0.00000000000E+00 -0.29487953908E+02  0.29487953908E+02  0.00000000000E+00 0. -1.
        -24    2    1    2    0    0 -0.45255750420E+01 -0.13443441851E+03  0.46107599562E+03  0.48694657804E+03  0.80204753071E+02 0.  0.
         23    2    1    2    0    0 -0.46301612017E+01  0.18513260846E+03  0.82663560578E+03  0.85193898918E+03  0.90432822778E+02 0.  0.
         13    1    3    3    0    0  0.34939235372E+02 -0.39056275772E+02  0.18196912664E+03  0.18936447897E+03  0.00000000000E+00 0. -1.
        -14    1    3    3    0    0 -0.39464810414E+02 -0.95378142737E+02  0.27910686898E+03  0.29758209907E+03  0.00000000000E+00 0.  1.
        -11    1    4    4    0    0 -0.32847396434E+02  0.11598554500E+03  0.63348975075E+03  0.64485724188E+03  0.00000000000E+00 0.  1.
         11    1    4    4    0    0  0.28217235233E+02  0.69147063462E+02  0.19314585503E+03  0.20708174730E+03  0.00000000000E+00 0. -1.
          4    1    1    2  501    0  0.91557362437E+01 -0.50698189953E+02  0.16619347287E+03  0.17399541487E+03  0.00000000000E+00 0. -1.
<scales pt_clust_5="13000.00000" pt_clust_6="13000.00000" pt_clust_7="13000.00000" pt_clust_8="13000.00000" pt_clust_9="51.51831"></scales>
<clustering>
<clus scale="   51.518">  1  9  2 -1</clus>
<clus scale="   80.205">  5  6 -1 -1</clus>
<clus scale="   90.433">  7  8 -1 -1</clus>
<clus scale="  172.516">  2  5  1 -1</clus>
<clus scale="   51.518">  1  5  2 -1</clus>
</clustering>
</event>
<event>
 9    1  0.6345107E-005  0.1076627E+03  0.7546771E-02  0.1268520E+00
          1   -1    0    0  502    0 -0.00000000000E+00  0.00000000000E+00  0.34488439336E+03  0.34488439336E+03  0.00000000000E+00 0. -1.
         21   -1    0    0  501  502  0.00000000000E+00 -0.00000000000E+00 -0.45659836287E+02  0.45659836287E+02  0.00000000000E+00 0. -1.
        -24    2    1    2    0    0 -0.61315028244E+02  0.27360741197E+02  0.16991110357E+03  0.20056904137E+03  0.82764813745E+02 0.  0.
         23    2    1    2    0    0  0.28010606784E+02 -0.32467379921E+02  0.73789196988E+02  0.12502747615E+03  0.91369028395E+02 0.  0.
         13    1    3    3    0    0 -0.39847787415E+02  0.56639900774E+02  0.12410772968E+03  0.14212196553E+03  0.00000000000E+00 0. -1.
        -14    1    3    3    0    0 -0.21467240830E+02 -0.29279159577E+02  0.45803373891E+02  0.58447075840E+02  0.00000000000E+00 0.  1.
        -11    1    4    4    0    0  0.49448336271E+02  0.54972111299E+01  0.62697478456E+02  0.80039559562E+02  0.00000000000E+00 0.  1.
         11    1    4    4    0    0 -0.21437729487E+02 -0.37964591051E+02  0.11091718532E+02  0.44987916592E+02  0.00000000000E+00 0. -1.
          2    1    1    2  501    0  0.33304421461E+02  0.51066387246E+01  0.55524256522E+02  0.64947712124E+02  0.00000000000E+00 0. -1.
<scales pt_clust_5="13000.00000" pt_clust_6="13000.00000" pt_clust_7="13000.00000" pt_clust_8="13000.00000" pt_clust_9="33.69367"></scales>
<clustering>
<clus scale="   33.694">  2  9  1 -1</clus>
<clus scale="   82.765">  5  6 -1 -1</clus>
<clus scale="   91.369">  7  8 -1 -1</clus>
<clus scale="  100.464">  1  5  2 -1</clus>
<clus scale="   33.694">  2  5  1 -1</clus>
</clustering>
</event>
<event>
 9    1  0.6345107E-005  0.1102155E+03  0.7546771E-02  0.1264501E+00
         21   -1    0    0  501  502  0.00000000000E+00  0.00000000000E+00  0.11853999719E+03  0.11853999719E+03  0.00000000000E+00 0.  1.
         -2   -1    0    0    0  501 -0.00000000000E+00 -0.00000000000E+00 -0.46783694556E+03  0.46783694556E+03  0.00000000000E+00 0.  1.
         23    2    1    2    0    0  0.25089368847E+02 -0.38246839852E+02 -0.24062866249E+03  0.26198754492E+03  0.92967861617E+02 0.  0.
        -24    2    1    2    0    0  0.43362509620E+02  0.11286039738E+03 -0.15650821983E+03  0.21240055056E+03  0.77468667658E+02 0.  0.
         13    1    4    4    0    0 -0.19876919778E+02  0.87116036523E+01 -0.25636781470E+02  0.33589113448E+02  0.00000000000E+00 0. -1.
        -14    1    4    4    0    0  0.63239429398E+02  0.10414879372E+03 -0.13087143836E+03  0.17881143711E+03  0.00000000000E+00 0.  1.
        -13    1    3    3    0    0  0.37172526701E+02  0.14686584749E+02 -0.15903103866E+03  0.16397671716E+03  0.00000000000E+00 0.  1.
         13    1    3    3    0    0 -0.12083157853E+02 -0.52933424601E+02 -0.81597623826E+02  0.98010827758E+02  0.00000000000E+00 0. -1.
         -1    1    1    2    0  502 -0.68451878467E+02 -0.74613557525E+02  0.47839933954E+02  0.11198884727E+03  0.00000000000E+00 0.  1.
<scales pt_clust_5="13000.00000" pt_clust_6="13000.00000" pt_clust_7="13000.00000" pt_clust_8="13000.00000" pt_clust_9="101.25632"></scales>
<clustering>
<clus scale="   77.469">  5  6 -1 -1</clus>
<clus scale="   92.968">  7  8 -1 -1</clus>
<clus scale="  101.256">  1  9  2 -1</clus>
<clus scale="  101.256">  1  5  2 -1</clus>
<clus scale="  101.256">  1  5  2 -1</clus>
</clustering>
</event>
<event>
 9    1  0.6345107E-005  0.9899963E+02  0.7546771E-02  0.1282952E+00
         21   -1    0    0  501  502  0.00000000000E+00  0.00000000000E+00  0.41404095786E+02  0.41404095786E+02  0.00000000000E+00 0. -1.
          1   -1    0    0  502    0 -0.00000000000E+00 -0.00000000000E+00 -0.61940984576E+03  0.61940984576E+03  0.00000000000E+00 0. -1.
        -24    2    1    2    0    0 -0.46881623810E+02 -0.28335171440E+02 -0.49653608625E+03  0.50630321001E+03  0.82426251442E+02 0.  0.
         23    2    1    2    0    0  0.50369102149E+02  0.90848549963E+00 -0.81014341783E+02  0.12685945806E+03  0.83618937609E+02 0.  0.
         13    1    3    3    0    0  0.23545330076E+02 -0.76583253063E+01 -0.99102554059E+02  0.10214865998E+03  0.00000000000E+00 0. -1.
        -14    1    3    3    0    0 -0.70426953886E+02 -0.20676846134E+02 -0.39743353219E+03  0.40415455003E+03  0.00000000000E+00 0.  1.
        -13    1    4    4    0    0  0.21141296111E+02  0.35274941256E+02 -0.93459697226E+01  0.42173724425E+02  0.00000000000E+00 0.  1.
         13    1    4    4    0    0  0.29227806039E+02 -0.34366455756E+02 -0.71668372061E+02  0.84685733632E+02  0.00000000000E+00 0. -1.
          2    1    1    2  501    0 -0.34874783391E+01  0.27426685941E+02 -0.45532194049E+00  0.27651273477E+02  0.00000000000E+00 0. -1.
<scales pt_clust_5="13000.00000" pt_clust_6="13000.00000" pt_clust_7="13000.00000" pt_clust_8="13000.00000" pt_clust_9="27.64752"></scales>
<clustering>
<clus scale="   27.648">  1  9  2 -1</clus>
<clus scale="   82.426">  5  6 -1 -1</clus>
<clus scale="   83.619">  7  8 -1 -1</clus>
<clus scale="   97.994">  2  5  1 -1</clus>
<clus scale="   27.648">  1  5  2 -1</clus>
</clustering>
</event>
<event>
 9    1  0.6345107E-005  0.2245380E+03  0.7546771E-02  0.1148436E+00
         21   -1    0    0  501  502  0.00000000000E+00  0.00000000000E+00  0.11441423128E+03  0.11441423128E+03  0.00000000000E+00 0.  1.
         -2   -1    0    0    0  501 -0.00000000000E+00 -0.00000000000E+00 -0.11611352581E+04  0.11611352581E+04  0.00000000000E+00 0.  1.
         23    2    1    2    0    0 -0.10133643100E+03 -0.55537102601E+02 -0.10935447731E+02  0.14618407835E+03  0.88863708742E+02 0.  0.
        -24    2    1    2    0    0 -0.45625529363E+02  0.21477886023E+03 -0.55265255477E+03  0.59986255518E+03  0.78731131615E+02 0.  0.
         11    1    4    4    0    0  0.10121566193E+02  0.24771551488E+02 -0.26408590740E+02  0.37596403155E+02  0.00000000000E+00 0. -1.
        -12    1    4    4    0    0 -0.55747095556E+02  0.19000730874E+03 -0.52624396403E+03  0.56226615203E+03  0.00000000000E+00 0.  1.
        -13    1    3    3    0    0 -0.96877295602E+02 -0.74365958249E+01 -0.28408524953E+01  0.97203826074E+02  0.00000000000E+00 0.  1.
         13    1    3    3    0    0 -0.44591354005E+01 -0.48100506776E+02 -0.80945952353E+01  0.48980252273E+02  0.00000000000E+00 0. -1.
         -1    1    1    2    0  502  0.14696196037E+03 -0.15924175763E+03 -0.48313302429E+03  0.52950285582E+03  0.00000000000E+00 0.  1.
<scales pt_clust_5="13000.00000" pt_clust_6="13000.00000" pt_clust_7="13000.00000" pt_clust_8="13000.00000" pt_clust_9="210.28244"></scales>
<clustering>
<clus scale="   78.731">  5  6 -1 -1</clus>
<clus scale="   88.864">  7  8 -1 -1</clus>
<clus scale="  145.775">  2  7  1 -1</clus>
<clus scale="  210.282">  1  9  2 -1</clus>
<clus scale="  210.282">  1  5  2 -1</clus>
</clustering>
</event>
<event>
 9    1  0.6345107E-005  0.2213667E+03  0.7546771E-02  0.1150112E+00
         21   -1    0    0  501  502  0.00000000000E+00  0.00000000000E+00  0.86835992324E+02  0.86835992324E+02  0.00000000000E+00 0. -1.
          1   -1    0    0  502    0 -0.00000000000E+00 -0.00000000000E+00 -0.11972577969E+04  0.11972577969E+04  0.00000000000E+00 0. -1.
        -24    2    1    2    0    0 -0.76086635497E+02 -0.67553890109E+02 -0.49024619087E+03  0.51158136026E+03  0.10498312407E+03 0.  0.
         23    2    1    2    0    0  0.13870446358E+02  0.23108269129E+03 -0.19496921192E+03  0.31271572700E+03  0.78654515607E+02 0.  0.
         11    1    3    3    0    0  0.47757617503E+01 -0.58159358360E+02 -0.13404706515E+03  0.14619827134E+03  0.00000000000E+00 0. -1.
        -12    1    3    3    0    0 -0.80862397247E+02 -0.93945317495E+01 -0.35619912571E+03  0.36538308893E+03  0.00000000000E+00 0.  1.
        -13    1    4    4    0    0 -0.10896814220E+02  0.21150388378E+03 -0.17919563663E+03  0.27742334004E+03  0.00000000000E+00 0. -1.
         13    1    4    4    0    0  0.24767260578E+02  0.19578807505E+02 -0.15773575288E+02  0.35292386959E+02  0.00000000000E+00 0.  1.
          2    1    1    2  501    0  0.62216189138E+02 -0.16352880118E+03 -0.42520640177E+03  0.45979670194E+03  0.00000000000E+00 0. -1.
<scales pt_clust_5="13000.00000" pt_clust_6="13000.00000" pt_clust_7="13000.00000" pt_clust_8="13000.00000" pt_clust_9="206.92207"></scales>
<clustering>
<clus scale="   78.655">  7  8 -1 -1</clus>
<clus scale="  104.983">  5  6 -1 -1</clus>
<clus scale="  146.199">  2  5  1 -1</clus>
<clus scale="  206.922">  1  9  2 -1</clus>
<clus scale="  206.922">  1  5  2 -1</clus>
</clustering>
</event>
<event>
 9    1  0.6345107E-005  0.1027057E+03  0.7546771E-02  0.1281823E+00
         21   -1    0    0  501  502  0.00000000000E+00  0.00000000000E+00  0.14111375123E+03  0.14111375123E+03  0.00000000000E+00 0. -1.
          1   -1    0    0  502    0 -0.00000000000E+00 -0.00000000000E+00 -0.31510652216E+03  0.31510652216E+03  0.00000000000E+00 0. -1.
        -24    2    1    2    0    0 -0.37171514387E+02 -0.11496748765E+02 -0.19848679409E+03  0.21764101486E+03  0.80353638410E+02 0.  0.
         23    2    1    2    0    0  0.53181021292E+02 -0.72121070098E+02 -0.34678225517E+02  0.13489898579E+03  0.94686256993E+02 0.  0.
         11    1    3    3    0    0 -0.57618440195E+02  0.92045239095E+01 -0.15181734694E+03  0.16264413528E+03  0.00000000000E+00 0. -1.
        -12    1    3    3    0    0  0.20446925808E+02 -0.20701272675E+02 -0.46669447156E+02  0.54996879577E+02  0.00000000000E+00 0.  1.
        -13    1    4    4    0    0  0.71136770358E+02 -0.28631726376E+02 -0.41764036966E+02  0.87318100277E+02  0.00000000000E+00 0.  1.
         13    1    4    4    0    0 -0.17955749067E+02 -0.43489343723E+02  0.70858114494E+01  0.47580885509E+02  0.00000000000E+00 0. -1.
          2    1    1    2  501    0 -0.16009506904E+02  0.83617818864E+02  0.59172248681E+02  0.10368027275E+03  0.00000000000E+00 0. -1.
<scales pt_clust_5="13000.00000" pt_clust_6="13000.00000" pt_clust_7="13000.00000" pt_clust_8="13000.00000" pt_clust_9="85.13662"></scales>
<clustering>
<clus scale="   80.354">  5  6 -1 -1</clus>
<clus scale="   85.137">  1  9  2 -1</clus>
<clus scale="   89.664">  2  5  1 -1</clus>
<clus scale="   94.686">  7  8 -1 -1</clus>
<clus scale="   85.137">  1  5  2 -1</clus>
</clustering>
</event>
<event>
 9    1  0.6345107E-005  0.1469641E+03  0.7546771E-02  0.1206381E+00
         21   -1    0    0  501  502  0.00000000000E+00  0.00000000000E+00  0.17052777893E+03  0.17052777893E+03  0.00000000000E+00 0.  1.
         -2   -1    0    0    0  501 -0.00000000000E+00 -0.00000000000E+00 -0.19249392948E+03  0.19249392948E+03  0.00000000000E+00 0.  1.
         23    2    1    2    0    0 -0.16527089761E+02  0.11582594102E+03  0.53958738880E+01  0.14909991138E+03  0.92265241609E+02 0.  0.
        -24    2    1    2    0    0  0.59210468806E+02 -0.10000879290E+03  0.25507006466E+02  0.14415656608E+03  0.81381016772E+02 0.  0.
         13    1    4    4    0    0  0.66951908425E+02 -0.85096077213E+02 -0.60066151873E+01  0.10844344067E+03  0.00000000000E+00 0. -1.
        -14    1    4    4    0    0 -0.77414396185E+01 -0.14912715687E+02  0.31513621653E+02  0.35713125406E+02  0.00000000000E+00 0.  1.
        -13    1    3    3    0    0  0.98750004925E+01  0.11754579607E+03  0.18786185778E+02  0.11944643395E+03  0.00000000000E+00 0.  1.
         13    1    3    3    0    0 -0.26402090253E+02 -0.17198550451E+01 -0.13390311890E+02  0.29653477429E+02  0.00000000000E+00 0. -1.
         -1    1    1    2    0  502 -0.42683379045E+02 -0.15817148121E+02 -0.52869030902E+02  0.69765230953E+02  0.00000000000E+00 0.  1.
<scales pt_clust_5="13000.00000" pt_clust_6="13000.00000" pt_clust_7="13000.00000" pt_clust_8="13000.00000" pt_clust_9="45.51983"></scales>
<clustering>
<clus scale="   45.520">  1  9  2 -1</clus>
<clus scale="   81.381">  5  6 -1 -1</clus>
<clus scale="   92.265">  7  8 -1 -1</clus>
<clus scale="  140.387">  1  5  2 -1</clus>
<clus scale="   45.520">  1  5  2 -1</clus>
</clustering>
</event>
<event>
 9    1  0.6345107E-005  0.1195561E+03  0.7546771E-02  0.1247430E+00
         21   -1    0    0  501  502  0.00000000000E+00  0.00000000000E+00  0.42596950176E+03  0.42596950176E+03  0.00000000000E+00 0. -1.
          1   -1    0    0  502    0 -0.00000000000E+00 -0.00000000000E+00 -0.65081711350E+02  0.65081711350E+02  0.00000000000E+00 0. -1.
         23    2    1    2    0    0 -0.72807557155E+02  0.77863406526E+01  0.19740689587E+02  0.11944630556E+03  0.92283029891E+02 0.  0.
        -24    2    1    2    0    0  0.83929030455E+02 -0.31521362154E+02  0.27292277407E+03  0.29851867647E+03  0.81171923510E+02 0.  0.
         11    1    4    4    0    0  0.39711458357E+02 -0.57048909284E+02  0.14563405814E+03  0.16137179700E+03  0.00000000000E+00 0. -1.
        -12    1    4    4    0    0  0.44217572098E+02  0.25527547129E+02  0.12728871593E+03  0.13714687947E+03  0.00000000000E+00 0.  1.
        -13    1    3    3    0    0 -0.61822122846E+02 -0.33572132515E+02 -0.40850020140E+01  0.70468079271E+02  0.00000000000E+00 0. -1.
         13    1    3    3    0    0 -0.10985434309E+02  0.41358473167E+02  0.23825691601E+02  0.48978226284E+02  0.00000000000E+00 0.  1.
          2    1    1    2  501    0 -0.11121473300E+02  0.23735021502E+02  0.68224326754E+02  0.73086231091E+02  0.00000000000E+00 0. -1.
<scales pt_clust_5="13000.00000" pt_clust_6="13000.00000" pt_clust_7="13000.00000" pt_clust_8="13000.00000" pt_clust_9="26.21142"></scales>
<clustering>
<clus scale="   26.211">  1  9  2 -1</clus>
<clus scale="   81.172">  5  6 -1 -1</clus>
<clus scale="   92.283">  7  8 -1 -1</clus>
<clus scale="  111.204">  1  5  2 -1</clus>
<clus scale="   26.211">  1  5  2 -1</clus>
</clustering>
</event>
<event>
 9    1  0.6345107E-005  0.1239407E+03  0.7546771E-02  0.1261533E+00
          1   -1    0    0  502    0 -0.00000000000E+00  0.00000000000E+00  0.24999289088E+03  0.24999289088E+03  0.00000000000E+00 0. -1.
         21   -1    0    0  501  502  0.00000000000E+00 -0.00000000000E+00 -0.94305344652E+02  0.94305344652E+02  0.00000000000E+00 0.  1.
        -24    2    1    2    0    0  0.11258590903E+01 -0.17806094672E+01  0.10677712068E+03  0.13075012636E+03  0.75430788910E+02 0.  0.
         23    2    1    2    0    0 -0.72015754973E+02  0.40696584997E+02  0.13683029224E+02  0.12533926640E+03  0.93167727349E+02 0.  0.
         13    1    3    3    0    0 -0.35760096440E+02 -0.61846810086E+01  0.37769627455E+02  0.52379189900E+02  0.00000000000E+00 0. -1.
        -14    1    3    3    0    0  0.36885955530E+02  0.44040715414E+01  0.69007493222E+02  0.78370936464E+02  0.00000000000E+00 0.  1.
        -11    1    4    4    0    0 -0.25548646345E+02 -0.10973249926E+02 -0.31834645672E+02  0.42268075531E+02  0.00000000000E+00 0. -1.
         11    1    4    4    0    0 -0.46467108628E+02  0.51669834923E+02  0.45517674897E+02  0.83071190873E+02  0.00000000000E+00 0.  1.
          2    1    1    2  501    0  0.70889895882E+02 -0.38915975529E+02  0.35227396328E+02  0.88208842764E+02  0.00000000000E+00 0. -1.
<scales pt_clust_5="13000.00000" pt_clust_6="13000.00000" pt_clust_7="13000.00000" pt_clust_8="13000.00000" pt_clust_9="81.73781"></scales>
<clustering>
<clus scale="   75.431">  5  6 -1 -1</clus>
<clus scale="   75.460">  1  5  2 -1</clus>
<clus scale="   81.738">  2  9  1 -1</clus>
<clus scale="   93.168">  7  8 -1 -1</clus>
<clus scale="   81.738">  2  5  1 -1</clus>
</clustering>
</event>
<event>
 9    1  0.6345107E-005  0.1123281E+03  0.7546771E-02  0.1259554E+00
         21   -1    0    0  501  502  0.00000000000E+00  0.00000000000E+00  0.39736449568E+03  0.39736449568E+03  0.00000000000E+00 0. -1.
         -4   -1    0    0    0  501 -0.00000000000E+00 -0.00000000000E+00 -0.60411064081E+02  0.60411064081E+02  0.00000000000E+00 0.  1.
         23    2    1    2    0    0 -0.65958542215E+02  0.90114891967E+00  0.23030571638E+02  0.11509431157E+03  0.91460111339E+02 0.  0.
        -24    2    1    2    0    0  0.61477587424E+02  0.28634723987E+02  0.23238231903E+03  0.25584055174E+03  0.82785291832E+02 0.  0.
         13    1    4    4    0    0  0.70878287866E+02 -0.59110236488E+01  0.14951211377E+03  0.16556733994E+03  0.00000000000E+00 0. -1.
        -14    1    4    4    0    0 -0.94007004426E+01  0.34545747636E+02  0.82870205258E+02  0.90273211796E+02  0.00000000000E+00 0.  1.
        -13    1    3    3    0    0  0.21390824595E+02  0.12302401672E+02  0.50630427592E+01  0.25190293085E+02  0.00000000000E+00 0. -1.
         13    1    3    3    0    0 -0.87349366810E+02 -0.11401252752E+02  0.17967528879E+02  0.89904018489E+02  0.00000000000E+00 0.  1.
         -3    1    1    2    0  502  0.44809547918E+01 -0.29535872907E+02  0.81540540937E+02  0.86840696454E+02  0.00000000000E+00 0.  1.
<scales pt_clust_5="13000.00000" pt_clust_6="13000.00000" pt_clust_7="13000.00000" pt_clust_8="13000.00000" pt_clust_9="29.87385"></scales>
<clustering>
<clus scale="   29.874">  1  9  2 -1</clus>
<clus scale="   82.785">  5  6 -1 -1</clus>
<clus scale="   91.460">  7  8 -1 -1</clus>
<clus scale="  105.385">  1  5  2 -1</clus>
<clus scale="   29.874">  1  5  2 -1</clus>
</clustering>
</event>
<event>
 9    1  0.6345107E-005  0.2069519E+03  0.7546771E-02  0.1179877E+00
         21   -1    0    0  501  502  0.00000000000E+00  0.00000000000E+00  0.10172063593E+03  0.10172063593E+03  0.00000000000E+00 0.  1.
         -2   -1    0    0    0  501 -0.00000000000E+00 -0.00000000000E+00 -0.61148326135E+03  0.61148326135E+03  0.00000000000E+00 0.  1.
        -24    2    1    2    0    0 -0.60653048434E+01 -0.59866273650E+02 -0.13458455517E+03  0.16191596768E+03  0.66955354203E+02 0.  0.
         23    2    1    2    0    0 -0.17860131729E+03 -0.14364929827E+01 -0.24879663161E+03  0.31927056267E+03  0.90185554484E+02 0.  0.
         13    1    3    3    0    0 -0.27197557678E+02 -0.55124864786E+02 -0.12264102845E+03  0.13718337990E+03  0.00000000000E+00 0. -1.
        -14    1    3    3    0    0  0.21132252835E+02 -0.47414088635E+01 -0.11943526719E+02  0.24732587781E+02  0.00000000000E+00 0.  1.
        -13    1    4    4    0    0 -0.13822181545E+03  0.30895554671E+02 -0.21507487666E+03  0.25752088873E+03  0.00000000000E+00 0.  1.
         13    1    4    4    0    0 -0.40379501837E+02 -0.32332047654E+02 -0.33721754953E+02  0.61749673936E+02  0.00000000000E+00 0. -1.
         -1    1    1    2    0  502  0.18466662213E+03  0.61302766632E+02 -0.12638143864E+03  0.23201736694E+03  0.00000000000E+00 0.  1.
<scales pt_clust_5="13000.00000" pt_clust_6="13000.00000" pt_clust_7="13000.00000" pt_clust_8="13000.00000" pt_clust_9="186.26765"></scales>
<clustering>
<clus scale="   66.955">  5  6 -1 -1</clus>
<clus scale="   90.021">  2  5  1 -1</clus>
<clus scale="   90.186">  7  8 -1 -1</clus>
<clus scale="  186.268">  1  9  2 -1</clus>
<clus scale="  186.268">  1  5  2 -1</clus>
</clustering>
</event>
<event>
 9    1  0.6345107E-005  0.1202572E+03  0.7546771E-02  0.1245148E+00
         21   -1    0    0  501  502  0.00000000000E+00  0.00000000000E+00  0.15344356091E+03  0.15344356091E+03  0.00000000000E+00 0. -1.
         -4   -1    0    0    0  501 -0.00000000000E+00 -0.00000000000E+00 -0.49874754836E+03  0.49874754836E+03  0.00000000000E+00 0.  1.
         23    2    1    2    0    0 -0.81897324927E+02 -0.22728574358E+02 -0.36775290124E+03  0.38739760106E+03  0.87240730230E+02 0.  0.
        -24    2    1    2    0    0  0.29844312265E+02  0.86694709425E+02  0.95865219336E+02  0.15438002859E+03  0.78970863826E+02 0.  0.
         13    1    4    4    0    0  0.39074756151E+02  0.76119537465E+02  0.35892105236E+02  0.92786118414E+02  0.00000000000E+00 0. -1.
        -14    1    4    4    0    0 -0.92304438863E+01  0.10575171960E+02  0.59973114100E+02  0.61593910179E+02  0.00000000000E+00 0.  1.
        -13    1    3    3    0    0  0.11409901480E+02 -0.25927408399E+02 -0.92702618110E+02  0.96933955673E+02  0.00000000000E+00 0. -1.
         13    1    3    3    0    0 -0.93307226407E+02  0.31988340409E+01 -0.27505028313E+03  0.29046364538E+03  0.00000000000E+00 0.  1.
         -3    1    1    2    0  502  0.52053012662E+02 -0.63966135067E+02 -0.73416305537E+02  0.11041347962E+03  0.00000000000E+00 0.  1.
<scales pt_clust_5="13000.00000" pt_clust_6="13000.00000" pt_clust_7="13000.00000" pt_clust_8="13000.00000" pt_clust_9="82.46932"></scales>
<clustering>
<clus scale="   78.971">  5  6 -1 -1</clus>
<clus scale="   82.469">  1  9  2 -1</clus>
<clus scale="   87.241">  7  8 -1 -1</clus>
<clus scale="  114.400">  1  5  2 -1</clus>
<clus scale="   82.469">  1  5  2 -1</clus>
</clustering>
</event>
<event>
 9    1  0.6345107E-005  0.1374565E+03  0.7546771E-02  0.1219103E+00
         -4   -1    0    0    0  501 -0.00000000000E+00  0.00000000000E+00  0.50591806976E+03  0.50591806976E+03  0.00000000000E+00 0.  1.
         21   -1    0    0  501  502  0.00000000000E+00 -0.00000000000E+00 -0.67287957501E+02  0.67287957501E+02  0.00000000000E+00 0.  1.
         23    2    1    2    0    0 -0.59874078280E+02 -0.89591070981E+02  0.32856230137E+03  0.35728525836E+03  0.89933890782E+02 0.  0.
        -24    2    1    2    0    0  0.26009853698E+02  0.90770047664E+02  0.27289814795E+02  0.12647596844E+03  0.79597252204E+02 0.  0.
         11    1    4    4    0    0 -0.15313005528E+00  0.87980508633E+02  0.40706633863E+02  0.96941339936E+02  0.00000000000E+00 0. -1.
        -12    1    4    4    0    0  0.26162983753E+02  0.27895390317E+01 -0.13416819068E+02  0.29534628503E+02  0.00000000000E+00 0.  1.
        -13    1    3    3    0    0 -0.29363126520E+02  0.12651372005E+02  0.54508470322E+02  0.63193541992E+02  0.00000000000E+00 0. -1.
         13    1    3    3    0    0 -0.30510951760E+02 -0.10224244299E+03  0.27405383105E+03  0.29409171637E+03  0.00000000000E+00 0.  1.
         -3    1    1    2    0  502  0.33864224581E+02 -0.11789766832E+01  0.82777996094E+02  0.89444800463E+02  0.00000000000E+00 0.  1.
<scales pt_clust_5="13000.00000" pt_clust_6="13000.00000" pt_clust_7="13000.00000" pt_clust_8="13000.00000" pt_clust_9="33.88476"></scales>
<clustering>
<clus scale="   33.885">  2  9  1 -1</clus>
<clus scale="   79.597">  5  6 -1 -1</clus>
<clus scale="   89.934">  7  8 -1 -1</clus>
<clus scale="  130.927">  2  5  1 -1</clus>
<clus scale="   33.885">  2  5  1 -1</clus>
</clustering>
</event>
<event>
 9    1  0.6345107E-005  0.1345613E+03  0.7546771E-02  0.1224622E+00
         21   -1    0    0  501  502  0.00000000000E+00  0.00000000000E+00  0.65363370819E+02  0.65363370819E+02  0.00000000000E+00 0.  1.
          1   -1    0    0  502    0 -0.00000000000E+00 -0.00000000000E+00 -0.37377585156E+03  0.37377585156E+03  0.00000000000E+00 0. -1.
        -24    2    1    2    0    0 -0.37950906825E+01 -0.90912933699E+02 -0.12532726342E+03  0.17410314610E+03  0.79532498373E+02 0.  0.
         23    2    1    2    0    0 -0.42816133745E+02  0.98590538143E+02 -0.12473089586E+03  0.18995759278E+03  0.94724733574E+02 0.  0.
         11    1    3    3    0    0  0.12309650596E+02 -0.86726734654E+02 -0.13005597413E+03  0.15680436986E+03  0.00000000000E+00 0. -1.
        -12    1    3    3    0    0 -0.16104741279E+02 -0.41861990456E+01  0.47287107124E+01  0.17298776232E+02  0.00000000000E+00 0.  1.
        -11    1    4    4    0    0  0.14251834699E+02  0.55071992530E+02 -0.14981640035E+02  0.58825918536E+02  0.00000000000E+00 0.  1.
         11    1    4    4    0    0 -0.57067968443E+02  0.43518545614E+02 -0.10974925583E+03  0.13113167424E+03  0.00000000000E+00 0. -1.
          2    1    1    2  501    0  0.46611224427E+02 -0.76776044441E+01 -0.58354321458E+02  0.75078483505E+02  0.00000000000E+00 0. -1.
<scales pt_clust_5="13000.00000" pt_clust_6="13000.00000" pt_clust_7="13000.00000" pt_clust_8="13000.00000" pt_clust_9="47.23933"></scales>
<clustering>
<clus scale="   47.239">  1  9  2 -1</clus>
<clus scale="   79.532">  5  6 -1 -1</clus>
<clus scale="   94.725">  7  8 -1 -1</clus>
<clus scale="  124.336">  2  5  1 -1</clus>
<clus scale="   47.239">  1  5  2 -1</clus>
</clustering>
</event>
<event>
 9    1  0.6345107E-005  0.9259143E+02  0.7546771E-02  0.1300635E+00
         -4   -1    0    0    0  501 -0.00000000000E+00  0.00000000000E+00  0.21901959646E+03  0.21901959646E+03  0.00000000000E+00 0.  1.
         21   -1    0    0  501  502  0.00000000000E+00 -0.00000000000E+00 -0.11588836120E+03  0.11588836120E+03  0.00000000000E+00 0. -1.
         23    2    1    2    0    0 -0.30047062922E+02 -0.12453355220E+02  0.59476158780E+02  0.10105892219E+03  0.74950518643E+02 0.  0.
        -24    2    1    2    0    0  0.87419542309E+02 -0.10826618153E+01 -0.44269497775E+02  0.12799273709E+03  0.82334705808E+02 0.  0.
         13    1    4    4    0    0  0.79024868654E+02 -0.11415366655E+01 -0.67094999326E+02  0.10367242597E+03  0.00000000000E+00 0. -1.
        -14    1    4    4    0    0  0.83946736556E+01  0.58874850247E-01  0.22825501551E+02  0.24320311122E+02  0.00000000000E+00 0.  1.
        -11    1    3    3    0    0 -0.35071878638E+02 -0.39842488696E+02  0.45450124178E+02  0.69879713540E+02  0.00000000000E+00 0.  1.
         11    1    3    3    0    0  0.50248157152E+01  0.27389133475E+02  0.14026034602E+02  0.31179208652E+02  0.00000000000E+00 0. -1.
         -3    1    1    2    0  502 -0.57372479387E+02  0.13536017035E+02  0.87924574258E+02  0.10585629838E+03  0.00000000000E+00 0.  1.
<scales pt_clust_5="13000.00000" pt_clust_6="13000.00000" pt_clust_7="13000.00000" pt_clust_8="13000.00000" pt_clust_9="58.94768"></scales>
<clustering>
<clus scale="   58.948">  2  9  1 -1</clus>
<clus scale="   74.951">  7  8 -1 -1</clus>
<clus scale="   82.335">  5  6 -1 -1</clus>
<clus scale="   86.092">  1  7  2 -1</clus>
<clus scale="   58.948">  2  5  1 -1</clus>
</clustering>
</event>
<event>
 9    1  0.6345107E-005  0.1012424E+03  0.7546771E-02  0.1281958E+00
          3   -1    0    0  502    0 -0.00000000000E+00  0.00000000000E+00  0.10466032718E+03  0.10466032718E+03  0.00000000000E+00 0. -1.
         21   -1    0    0  501  502  0.00000000000E+00 -0.00000000000E+00 -0.22353094093E+03  0.22353094093E+03  0.00000000000E+00 0.  1.
        -24    2    1    2    0    0  0.19891706793E+02 -0.43060642795E+02  0.55201234914E+02  0.10925559140E+03  0.81484409306E+02 0.  0.
         23    2    1    2    0    0 -0.39198681076E+02  0.20537721169E+02 -0.11494041398E+03  0.15278004337E+03  0.90399714025E+02 0.  0.
         13    1    3    3    0    0  0.25579622476E+02 -0.58785139441E+02  0.15180761735E+02  0.65882207249E+02  0.00000000000E+00 0. -1.
        -14    1    3    3    0    0 -0.56879156830E+01  0.15724496646E+02  0.40020473178E+02  0.43373384155E+02  0.00000000000E+00 0.  1.
        -11    1    4    4    0    0 -0.10105723087E+02  0.45454822916E+02 -0.10237418364E+03  0.11246661745E+03  0.00000000000E+00 0.  1.
         11    1    4    4    0    0 -0.29092957989E+02 -0.24917101747E+02 -0.12566230346E+02  0.40313425916E+02  0.00000000000E+00 0. -1.
          4    1    1    2  501    0  0.19306974283E+02  0.22522921626E+02 -0.59131434683E+02  0.66155633337E+02  0.00000000000E+00 0. -1.
<scales pt_clust_5="13000.00000" pt_clust_6="13000.00000" pt_clust_7="13000.00000" pt_clust_8="13000.00000" pt_clust_9="29.66549"></scales>
<clustering>
<clus scale="   29.665">  2  9  1 -1</clus>
<clus scale="   81.484">  5  6 -1 -1</clus>
<clus scale="   90.400">  7  8 -1 -1</clus>
<clus scale="   93.368">  1  5  2 -1</clus>
<clus scale="   29.665">  2  5  1 -1</clus>
</clustering>
</event>
<event>
 9    1  0.6345107E-005  0.1472897E+03  0.7546771E-02  0.1206523E+00
          1   -1    0    0  502    0 -0.00000000000E+00  0.00000000000E+00  0.51325011412E+03  0.51325011412E+03  0.00000000000E+00 0. -1.
         21   -1    0    0  501  502  0.00000000000E+00 -0.00000000000E+00 -0.74061861239E+02  0.74061861239E+02  0.00000000000E+00 0. -1.
         23    2    1    2    0    0  0.20872914949E+02 -0.10821969634E+03  0.24827562202E+03  0.28779781980E+03  0.95076912746E+02 0.  0.
        -24    2    1    2    0    0  0.33111191956E+02  0.11770748496E+03  0.19535783039E+03  0.24452268595E+03  0.81702258243E+02 0.  0.
         11    1    4    4    0    0 -0.55169477690E+01  0.10567869394E+03  0.12960141434E+03  0.16731691386E+03  0.00000000000E+00 0. -1.
        -12    1    4    4    0    0  0.38628139725E+02  0.12028791016E+02  0.65756416045E+02  0.77205772083E+02  0.00000000000E+00 0.  1.
        -11    1    3    3    0    0  0.46633275431E+02 -0.95002349453E+02  0.13871615516E+03  0.17447716321E+03  0.00000000000E+00 0. -1.
         11    1    3    3    0    0 -0.25760360482E+02 -0.13217346884E+02  0.10955946687E+03  0.11332065660E+03  0.00000000000E+00 0.  1.
          2    1    1    2  501    0 -0.53984106905E+02 -0.94877886189E+01 -0.44451995279E+01  0.54991469612E+02  0.00000000000E+00 0. -1.
<scales pt_clust_5="13000.00000" pt_clust_6="13000.00000" pt_clust_7="13000.00000" pt_clust_8="13000.00000" pt_clust_9="54.81151"></scales>
<clustering>
<clus scale="   54.812">  2  9  1 -1</clus>
<clus scale="   81.702">  5  6 -1 -1</clus>
<clus scale="   95.077">  7  8 -1 -1</clus>
<clus scale="  139.032">  2  5  1 -1</clus>
<clus scale="   54.812">  2  5  1 -1</clus>
</clustering>
</event>
<event>
 9    1  0.6345107E-005  0.1308279E+03  0.7546771E-02  0.1239939E+00
         21   -1    0    0  501  502  0.00000000000E+00  0.00000000000E+00  0.43333203291E+03  0.43333203291E+03  0.00000000000E+00 0. -1.
          3   -1    0    0  502    0 -0.00000000000E+00 -0.00000000000E+00 -0.76175244673E+02  0.76175244673E+02  0.00000000000E+00 0. -1.
         23    2    1    2    0    0  0.13487207975E+02  0.36812672469E+02  0.20505742746E+03  0.22758398925E+03  0.90602681933E+02 0.  0.
        -24    2    1    2    0    0  0.74634472621E+02 -0.83123401803E+02  0.94555696152E+02  0.16693899558E+03  0.80299714437E+02 0.  0.
         11    1    4    4    0    0  0.23577301901E+02 -0.81843215156E+02  0.47649432400E+02  0.97594412955E+02  0.00000000000E+00 0. -1.
        -12    1    4    4    0    0  0.51057170720E+02 -0.12801866466E+01  0.46906263752E+02  0.69344582622E+02  0.00000000000E+00 0.  1.
        -13    1    3    3    0    0  0.39274043782E+02 -0.66475480384E+01  0.13789702859E+03  0.14353477246E+03  0.00000000000E+00 0.  1.
         13    1    3    3    0    0 -0.25786835807E+02  0.43460220508E+02  0.67160398871E+02  0.84049216796E+02  0.00000000000E+00 0. -1.
          4    1    1    2  501    0 -0.88121680596E+02  0.46310729333E+02  0.57543664628E+02  0.11498429276E+03  0.00000000000E+00 0. -1.
<scales pt_clust_5="13000.00000" pt_clust_6="13000.00000" pt_clust_7="13000.00000" pt_clust_8="13000.00000" pt_clust_9="103.28556"></scales>
<clustering>
<clus scale="   80.300">  5  6 -1 -1</clus>
<clus scale="   90.603">  7  8 -1 -1</clus>
<clus scale="   98.721">  2  7  1 -1</clus>
<clus scale="  103.286">  1  9  2 -1</clus>
<clus scale="  103.286">  1  5  2 -1</clus>
</clustering>
</event>
<event>
 9    1  0.6345107E-005  0.1440898E+03  0.7546771E-02  0.1231548E+00
         21   -1    0    0  501  502  0.00000000000E+00  0.00000000000E+00  0.57211003084E+03  0.57211003084E+03  0.00000000000E+00 0.  1.
          1   -1    0    0  502    0 -0.00000000000E+00 -0.00000000000E+00 -0.82508189621E+02  0.82508189621E+02  0.00000000000E+00 0. -1.
        -24    2    1    2    0    0 -0.37945372311E+02 -0.43927142420E+01  0.39073567331E+01  0.87816691244E+02  0.78976937179E+02 0.  0.
         23    2    1    2    0    0 -0.60884237034E+02  0.85385661338E+02  0.36646251132E+03  0.39203479157E+03  0.91645535182E+02 0.  0.
         11    1    3    3    0    0 -0.61689977749E+02 -0.28895633817E+00 -0.55297891272E+01  0.61937996563E+02  0.00000000000E+00 0. -1.
        -12    1    3    3    0    0  0.23744605439E+02 -0.41037579038E+01  0.94371458603E+01  0.25878694681E+02  0.00000000000E+00 0.  1.
        -11    1    4    4    0    0 -0.55020325714E+01  0.83424650936E+02  0.23171464465E+03  0.24633639864E+03  0.00000000000E+00 0.  1.
         11    1    4    4    0    0 -0.55382204462E+02  0.19610104021E+01  0.13474786667E+03  0.14569839294E+03  0.00000000000E+00 0. -1.
          2    1    1    2  501    0  0.98829609344E+02 -0.80992947096E+02  0.11923197317E+03  0.17476673765E+03  0.00000000000E+00 0. -1.
<scales pt_clust_5="13000.00000" pt_clust_6="13000.00000" pt_clust_7="13000.00000" pt_clust_8="13000.00000" pt_clust_9="111.18887"></scales>
<clustering>
<clus scale="   78.977">  5  6 -1 -1</clus>
<clus scale="   87.730">  2  5  1 -1</clus>
<clus scale="   91.646">  7  8 -1 -1</clus>
<clus scale="  111.189">  1  9  2 -1</clus>
<clus scale="  111.189">  1  5  2 -1</clus>
</clustering>
</event>
<event>
 9    1  0.6345107E-005  0.2820411E+03  0.7546771E-02  0.1095035E+00
         21   -1    0    0  501  502  0.00000000000E+00  0.00000000000E+00  0.54038299516E+02  0.54038299516E+02  0.00000000000E+00 0. -1.
          1   -1    0    0  502    0 -0.00000000000E+00 -0.00000000000E+00 -0.17883429177E+04  0.17883429177E+04  0.00000000000E+00 0. -1.
         23    2    1    2    0    0 -0.10370982438E+03  0.22838677808E+03 -0.75739085738E+03  0.80301578766E+03  0.90979098230E+02 0.  0.
        -24    2    1    2    0    0  0.74960494762E+02 -0.27693837796E+03 -0.84197920816E+03  0.89310841160E+03  0.79998168306E+02 0.  0.
         11    1    4    4    0    0  0.69285180777E+02 -0.24914391644E+03 -0.65863629262E+03  0.70758384191E+03  0.00000000000E+00 0. -1.
        -12    1    4    4    0    0  0.56753139850E+01 -0.27794461524E+02 -0.18334291555E+03  0.18552456970E+03  0.00000000000E+00 0.  1.
        -13    1    3    3    0    0 -0.28222731937E+02  0.87943660086E+02 -0.41736779602E+03  0.42746518818E+03  0.00000000000E+00 0.  1.
         13    1    3    3    0    0 -0.75487092441E+02  0.14044311799E+03 -0.34002306137E+03  0.37555059949E+03  0.00000000000E+00 0. -1.
          2    1    1    2  501    0  0.28749329616E+02  0.48551599884E+02 -0.13493455266E+03  0.14625701797E+03  0.00000000000E+00 0. -1.
<scales pt_clust_5="13000.00000" pt_clust_6="13000.00000" pt_clust_7="13000.00000" pt_clust_8="13000.00000" pt_clust_9="56.42501"></scales>
<clustering>
<clus scale="   56.425">  1  9  2 -1</clus>
<clus scale="   79.998">  5  6 -1 -1</clus>
<clus scale="   90.979">  7  8 -1 -1</clus>
<clus scale="  278.693">  1  5  2 -1</clus>
<clus scale="   56.425">  1  5  2 -1</clus>
</clustering>
</event>
<event>
 9    1  0.6345107E-005  0.1846465E+03  0.7546771E-02  0.1194903E+00
         21   -1    0    0  501  502  0.00000000000E+00  0.00000000000E+00  0.35402263241E+02  0.35402263241E+02  0.00000000000E+00 0. -1.
          1   -1    0    0  502    0 -0.00000000000E+00 -0.00000000000E+00 -0.13692120739E+04  0.13692120739E+04  0.00000000000E+00 0. -1.
        -24    2    1    2    0    0 -0.39856145793E+02 -0.12705609717E+02 -0.23101053931E+03  0.24821480392E+03  0.80590165264E+02 0.  0.
         23    2    1    2    0    0  0.15111617972E+03  0.10158663698E+03 -0.58452515523E+03  0.61891772739E+03  0.90738919943E+02 0.  0.
         13    1    3    3    0    0 -0.44639705124E+02 -0.20463930962E+02 -0.62623502127E+02  0.79581271432E+02  0.00000000000E+00 0. -1.
        -14    1    3    3    0    0  0.47835593310E+01  0.77583212455E+01 -0.16838703719E+03  0.16863353249E+03  0.00000000000E+00 0.  1.
        -11    1    4    4    0    0  0.59905631939E+02  0.93686762635E+02 -0.29504869918E+03  0.31530878376E+03  0.00000000000E+00 0.  1.
         11    1    4    4    0    0  0.91210547784E+02  0.78998743477E+01 -0.28947645605E+03  0.30360894363E+03  0.00000000000E+00 0. -1.
          2    1    1    2  501    0 -0.11126003393E+03 -0.88881027266E+02 -0.51827411608E+03  0.53748180579E+03  0.00000000000E+00 0. -1.
<scales pt_clust_5="13000.00000" pt_clust_6="13000.00000" pt_clust_7="13000.00000" pt_clust_8="13000.00000" pt_clust_9="160.81292"></scales>
<clustering>
<clus scale="   80.590">  5  6 -1 -1</clus>
<clus scale="   90.739">  7  8 -1 -1</clus>
<clus scale="   90.800">  2  5  1 -1</clus>
<clus scale="  160.813">  1  9  2 -1</clus>
<clus scale="  160.813">  1  5  2 -1</clus>
</clustering>
</event>
<event>
 9    1  0.6345107E-005  0.1148353E+03  0.7546771E-02  0.1258097E+00
         -2   -1    0    0    0  501 -0.00000000000E+00  0.00000000000E+00  0.42243509947E+03  0.42243509947E+03  0.00000000000E+00 0.  1.
         21   -1    0    0  501  502  0.00000000000E+00 -0.00000000000E+00 -0.10880206043E+03  0.10880206043E+03  0.00000000000E+00 0. -1.
        -24    2    1    2    0    0  0.56375305515E+02  0.27736511118E+02  0.12139220235E+03  0.15914843130E+03  0.81514828548E+02 0.  0.
         23    2    1    2    0    0 -0.23543547886E+02 -0.58500793924E+02 -0.49411871407E+02  0.12628312098E+03  0.97617888074E+02 0.  0.
         13    1    3    3    0    0  0.74260116688E+02  0.27628528688E+02  0.11598270625E+03  0.14046312213E+03  0.00000000000E+00 0. -1.
        -14    1    3    3    0    0 -0.17884811173E+02  0.10798243062E+00  0.54094960976E+01  0.18685309174E+02  0.00000000000E+00 0.  1.
        -13    1    4    4    0    0  0.26228951199E+02 -0.31791823539E+02 -0.55872093428E+02  0.69428875469E+02  0.00000000000E+00 0. -1.
         13    1    4    4    0    0 -0.49772499085E+02 -0.26708970385E+02  0.64602220210E+01  0.56854245512E+02  0.00000000000E+00 0.  1.
         -1    1    1    2    0  502 -0.32831757629E+02  0.30764282806E+02  0.24165270810E+03  0.24580560762E+03  0.00000000000E+00 0.  1.
<scales pt_clust_5="13000.00000" pt_clust_6="13000.00000" pt_clust_7="13000.00000" pt_clust_8="13000.00000" pt_clust_9="44.99297"></scales>
<clustering>
<clus scale="   44.993">  2  9  1 -1</clus>
<clus scale="   81.515">  5  6 -1 -1</clus>
<clus scale="   97.618">  7  8 -1 -1</clus>
<clus scale="  101.502">  1  5  2 -1</clus>
<clus scale="   44.993">  2  5  1 -1</clus>
</clustering>
</event>
<event>
 9    1  0.6345107E-005  0.1412481E+03  0.7546771E-02  0.1233041E+00
          1   -1    0    0  502    0 -0.00000000000E+00  0.00000000000E+00  0.11460491167E+04  0.11460491167E+04  0.00000000000E+00 0. -1.
         21   -1    0    0  501  502  0.00000000000E+00 -0.00000000000E+00 -0.34682071213E+02  0.34682071213E+02  0.00000000000E+00 0. -1.
        -24    2    1    2    0    0  0.48830189585E+02  0.30719091250E+02  0.29241823839E+03  0.30604766111E+03  0.69488810222E+02 0.  0.
         23    2    1    2    0    0 -0.19915494888E+02  0.99618311981E+02  0.20398679536E+03  0.24539649044E+03  0.91040594360E+02 0.  0.
         11    1    3    3    0    0  0.61975799183E+02  0.13537956023E+02  0.25550441588E+03  0.26326181355E+03  0.00000000000E+00 0. -1.
        -12    1    3    3    0    0 -0.13145609599E+02  0.17181135228E+02  0.36913822506E+02  0.42785847560E+02  0.00000000000E+00 0.  1.
        -13    1    4    4    0    0 -0.29124888965E+02  0.79205993159E+02  0.20629039163E+03  0.22288466567E+03  0.00000000000E+00 0. -1.
         13    1    4    4    0    0  0.92093940771E+01  0.20412318822E+02 -0.23035962713E+01  0.22511824776E+02  0.00000000000E+00 0.  1.
          2    1    1    2  501    0 -0.28914694697E+02 -0.13033740323E+03  0.61496201173E+03  0.62928703635E+03  0.00000000000E+00 0. -1.
<scales pt_clust_5="13000.00000" pt_clust_6="13000.00000" pt_clust_7="13000.00000" pt_clust_8="13000.00000" pt_clust_9="107.99373"></scales>
<clustering>
<clus scale="   69.489">  5  6 -1 -1</clus>
<clus scale="   90.315">  1  5  2 -1</clus>
<clus scale="   91.041">  7  8 -1 -1</clus>
<clus scale="  107.994">  2  9  1 -1</clus>
<clus scale="  107.994">  2  5  1 -1</clus>
</clustering>
</event>
<event>
 9    1  0.6345107E-005  0.9936816E+02  0.7546771E-02  0.1287484E+00
          3   -1    0    0  502    0 -0.00000000000E+00  0.00000000000E+00  0.51529741423E+02  0.51529741423E+02  0.00000000000E+00 0. -1.
         21   -1    0    0  501  502  0.00000000000E+00 -0.00000000000E+00 -0.39680659122E+03  0.39680659122E+03  0.00000000000E+00 0. -1.
         23    2    1    2    0    0  0.27619925456E+02  0.13944771299E+02 -0.43975485052E+02  0.10604445858E+03  0.91401679310E+02 0.  0.
        -24    2    1    2    0    0 -0.60782504294E+02  0.16510324210E+02 -0.12967010582E+03  0.16485298735E+03  0.79969165693E+02 0.  0.
         11    1    4    4    0    0 -0.26241765922E+02  0.11562204236E+02 -0.12662000012E+03  0.12982657384E+03  0.00000000000E+00 0. -1.
        -12    1    4    4    0    0 -0.34540738373E+02  0.49481199743E+01 -0.30501057013E+01  0.35026413510E+02  0.00000000000E+00 0.  1.
        -13    1    3    3    0    0 -0.17223082776E+02 -0.26705220995E+02 -0.30481291177E+02  0.44033084386E+02  0.00000000000E+00 0.  1.
         13    1    3    3    0    0  0.44843008232E+02  0.40649992294E+02 -0.13494193874E+02  0.62011374191E+02  0.00000000000E+00 0. -1.
          4    1    1    2  501    0  0.33162578839E+02 -0.30455095509E+02 -0.17163125893E+03  0.17743888671E+03  0.00000000000E+00 0. -1.
<scales pt_clust_5="13000.00000" pt_clust_6="13000.00000" pt_clust_7="13000.00000" pt_clust_8="13000.00000" pt_clust_9="45.02521"></scales>
<clustering>
<clus scale="   45.025">  2  9  1 -1</clus>
<clus scale="   79.969">  5  6 -1 -1</clus>
<clus scale="   88.965">  2  5  1 -1</clus>
<clus scale="   91.402">  7  8 -1 -1</clus>
<clus scale="   45.025">  2  5  1 -1</clus>
</clustering>
</event>
<event>
 9    1  0.6345107E-005  0.9358397E+02  0.7546771E-02  0.1296127E+00
          1   -1    0    0  502    0 -0.00000000000E+00  0.00000000000E+00  0.65443132954E+03  0.65443132954E+03  0.00000000000E+00 0. -1.
         21   -1    0    0  501  502  0.00000000000E+00 -0.00000000000E+00 -0.24954818757E+02  0.24954818757E+02  0.00000000000E+00 0.  1.
        -24    2    1    2    0    0  0.48697166284E+02  0.13205219295E+02  0.32525847682E+03  0.33929946461E+03  0.82372678242E+02 0.  0.
         23    2    1    2    0    0 -0.33318039762E+01 -0.21137117297E+02  0.11287071475E+03  0.14327528241E+03  0.85616176366E+02 0.  0.
         11    1    3    3    0    0 -0.37462458753E+01 -0.29018457786E+02  0.96366456509E+02  0.10071047210E+03  0.00000000000E+00 0. -1.
        -12    1    3    3    0    0  0.52443412160E+02  0.42223677080E+02  0.22889202031E+03  0.23858899251E+03  0.00000000000E+00 0.  1.
        -13    1    4    4    0    0 -0.18641177298E+02 -0.50228153941E+02  0.55409226361E+02  0.77074920079E+02  0.00000000000E+00 0.  1.
         13    1    4    4    0    0  0.15309373321E+02  0.29091036644E+02  0.57461488386E+02  0.66200362326E+02  0.00000000000E+00 0. -1.
          2    1    1    2  501    0 -0.45365362308E+02  0.79318980025E+01  0.19134731921E+03  0.19681140127E+03  0.00000000000E+00 0. -1.
<scales pt_clust_5="13000.00000" pt_clust_6="13000.00000" pt_clust_7="13000.00000" pt_clust_8="13000.00000" pt_clust_9="46.05359"></scales>
<clustering>
<clus scale="   46.054">  2  9  1 -1</clus>
<clus scale="   82.373">  5  6 -1 -1</clus>
<clus scale="   85.616">  7  8 -1 -1</clus>
<clus scale="   90.626">  1  5  2 -1</clus>
<clus scale="   46.054">  2  5  1 -1</clus>
</clustering>
</event>
<event>
 9    1  0.6345107E-005  0.1181246E+03  0.7546771E-02  0.1265255E+00
         -2   -1    0    0    0  501 -0.00000000000E+00  0.00000000000E+00  0.15312848637E+03  0.15312848637E+03  0.00000000000E+00 0.  1.
         21   -1    0    0  501  502  0.00000000000E+00 -0.00000000000E+00 -0.31371522887E+03  0.31371522887E+03  0.00000000000E+00 0.  1.
        -24    2    1    2    0    0 -0.91685546549E+01 -0.88327303056E+01 -0.22340008395E+03  0.23764775722E+03  0.80042360570E+02 0.  0.
         23    2    1    2    0    0  0.97258514089E+02 -0.29599210923E+02  0.13491526510E+02  0.12117051431E+03  0.64536349455E+02 0.  0.
         11    1    3    3    0    0  0.12240051174E+02 -0.39899141208E+02 -0.14047193189E+03  0.14654051989E+03  0.00000000000E+00 0. -1.
        -12    1    3    3    0    0 -0.21408605829E+02  0.31066410902E+02 -0.82928152062E+02  0.91107237332E+02  0.00000000000E+00 0.  1.
        -11    1    4    4    0    0  0.30737238171E+02  0.20625174101E+02  0.25540865638E+01  0.37103894341E+02  0.00000000000E+00 0. -1.
         11    1    4    4    0    0  0.66521275917E+02 -0.50224385024E+02  0.10937439946E+02  0.84066619971E+02  0.00000000000E+00 0.  1.
         -1    1    1    2    0  502 -0.88089959434E+02  0.38431941228E+02  0.49321814941E+02  0.10802544371E+03  0.00000000000E+00 0.  1.
<scales pt_clust_5="13000.00000" pt_clust_6="13000.00000" pt_clust_7="13000.00000" pt_clust_8="13000.00000" pt_clust_9="98.93683"></scales>
<clustering>
<clus scale="   64.536">  7  8 -1 -1</clus>
<clus scale="   80.042">  5  6 -1 -1</clus>
<clus scale="   81.049">  1  5  2 -1</clus>
<clus scale="   98.937">  2  9  1 -1</clus>
<clus scale="   98.937">  2  5  1 -1</clus>
</clustering>
</event>
<event>
 9    1  0.6345107E-005  0.1334204E+03  0.7546771E-02  0.1234112E+00
         21   -1    0    0  501  502  0.00000000000E+00  0.00000000000E+00  0.22668449114E+03  0.22668449114E+03  0.00000000000E+00 0.  1.
          3   -1    0    0  502    0 -0.00000000000E+00 -0.00000000000E+00 -0.33024999570E+03  0.33024999570E+03  0.00000000000E+00 0. -1.
        -24    2    1    2    0    0 -0.67073471521E+02 -0.63854817023E+01 -0.21864837307E+03  0.24248021131E+03  0.80311374469E+02 0.  0.
         23    2    1    2    0    0 -0.79314535372E+02  0.12361218569E+02  0.11595409059E+03  0.16794176064E+03  0.91189300896E+02 0.  0.
         11    1    3    3    0    0 -0.60754838619E+02  0.30072429375E+02 -0.13824021551E+03  0.15396706988E+03  0.00000000000E+00 0. -1.
        -12    1    3    3    0    0 -0.63186329020E+01 -0.36457911078E+02 -0.80408157564E+02  0.88513141424E+02  0.00000000000E+00 0.  1.
        -13    1    4    4    0    0 -0.80837026493E+02 -0.19173563753E+02  0.10632545391E+03  0.13493462324E+03  0.00000000000E+00 0.  1.
         13    1    4    4    0    0  0.15224911211E+01  0.31534782322E+02  0.96286366766E+01  0.33007137404E+02  0.00000000000E+00 0. -1.
          4    1    1    2  501    0  0.14638800689E+03 -0.59757368670E+01 -0.87122207580E+00  0.14651251490E+03  0.00000000000E+00 0. -1.
<scales pt_clust_5="13000.00000" pt_clust_6="13000.00000" pt_clust_7="13000.00000" pt_clust_8="13000.00000" pt_clust_9="97.39365"></scales>
<clustering>
<clus scale="   80.311">  5  6 -1 -1</clus>
<clus scale="   91.189">  7  8 -1 -1</clus>
<clus scale="  104.831">  2  5  1 -1</clus>
<clus scale="   97.394">  1  9  2 -1</clus>
<clus scale="   97.394">  1  5  2 -1</clus>
</clustering>
</event>
<event>
 9    1  0.6345107E-005  0.2365178E+03  0.7546771E-02  0.1122603E+00
          3   -1    0    0  502    0 -0.00000000000E+00  0.00000000000E+00  0.15759248372E+04  0.15759248372E+04  0.00000000000E+00 0. -1.
         21   -1    0    0  501  502  0.00000000000E+00 -0.00000000000E+00 -0.14986643095E+03  0.14986643095E+03  0.00000000000E+00 0. -1.
        -24    2    1    2    0    0 -0.89800196238E+02  0.17973872724E+03  0.65423348636E+03  0.68925859368E+03  0.81767163241E+02 0.  0.
         23    2    1    2    0    0  0.28515647167E+02 -0.36010703899E+03  0.17721637657E+03  0.41215470910E+03  0.89306430059E+02 0.  0.
         13    1    3    3    0    0 -0.51152554491E+02  0.16934637682E+03  0.53339107106E+03  0.56196157686E+03  0.00000000000E+00 0. -1.
        -14    1    3    3    0    0 -0.38647641748E+02  0.10392350426E+02  0.12084241529E+03  0.12729701683E+03  0.00000000000E+00 0.  1.
        -11    1    4    4    0    0 -0.10744760511E+02 -0.33272107988E+02  0.46005047065E+02  0.57783625741E+02  0.00000000000E+00 0.  1.
         11    1    4    4    0    0  0.39260407678E+02 -0.32683493100E+03  0.13121132951E+03  0.35437108336E+03  0.00000000000E+00 0. -1.
          4    1    1    2  501    0  0.61284549072E+02  0.18036831175E+03  0.59460854331E+03  0.62437796535E+03  0.00000000000E+00 0. -1.
<scales pt_clust_5="13000.00000" pt_clust_6="13000.00000" pt_clust_7="13000.00000" pt_clust_8="13000.00000" pt_clust_9="190.49556"></scales>
<clustering>
<clus scale="   81.767">  5  6 -1 -1</clus>
<clus scale="   89.306">  7  8 -1 -1</clus>
<clus scale="  190.496">  2  9  1 -1</clus>
<clus scale="  233.775">  1  5  2 -1</clus>
<clus scale="  190.496">  2  5  1 -1</clus>
</clustering>
</event>
<event>
 9    1  0.6345107E-005  0.9640095E+02  0.7546771E-02  0.1294116E+00
          3   -1    0    0  502    0 -0.00000000000E+00  0.00000000000E+00  0.16981010296E+03  0.16981010296E+03  0.00000000000E+00 0. -1.
         21   -1    0    0  501  502  0.00000000000E+00 -0.00000000000E+00 -0.95514567607E+02  0.95514567607E+02  0.00000000000E+00 0. -1.
         23    2    1    2    0    0 -0.31815201762E+02  0.23717044895E+02  0.78051913741E+02  0.12648437056E+03  0.91276993136E+02 0.  0.
        -24    2    1    2    0    0 -0.49260609615E+01 -0.18491706018E+02 -0.35652263034E+02  0.89905935699E+02  0.80285640973E+02 0.  0.
         11    1    4    4    0    0 -0.42349375432E+02 -0.78849345462E+01 -0.13500669924E+02  0.45143215224E+02  0.00000000000E+00 0. -1.
        -12    1    4    4    0    0  0.37423314471E+02 -0.10606771471E+02 -0.22151593110E+02  0.44762720475E+02  0.00000000000E+00 0.  1.
        -11    1    3    3    0    0 -0.16891264587E+02  0.56754518627E+02  0.65065206656E+02  0.87976538470E+02  0.00000000000E+00 0.  1.
         11    1    3    3    0    0 -0.14923937175E+02 -0.33037473732E+02  0.12986707084E+02  0.38507832090E+02  0.00000000000E+00 0. -1.
          4    1    1    2  501    0  0.36741262724E+02 -0.52253388773E+01  0.31895884649E+02  0.48934364311E+02  0.00000000000E+00 0. -1.
<scales pt_clust_5="13000.00000" pt_clust_6="13000.00000" pt_clust_7="13000.00000" pt_clust_8="13000.00000" pt_clust_9="37.11099"></scales>
<clustering>
<clus scale="   37.111">  2  9  1 -1</clus>
<clus scale="   80.286">  5  6 -1 -1</clus>
<clus scale="   86.066">  2  5  1 -1</clus>
<clus scale="   91.277">  7  8 -1 -1</clus>
<clus scale="   37.111">  2  5  1 -1</clus>
</clustering>
</event>
<event>
 9    1  0.6345107E-005  0.1102306E+03  0.7546771E-02  0.1263352E+00
         21   -1    0    0  501  502  0.00000000000E+00  0.00000000000E+00  0.26416455858E+02  0.26416455858E+02  0.00000000000E+00 0.  1.
         -4   -1    0    0    0  501 -0.00000000000E+00 -0.00000000000E+00 -0.10712135350E+04  0.10712135350E+04  0.00000000000E+00 0.  1.
         23    2    1    2    0    0 -0.33209451552E+02 -0.54065316669E+02 -0.31222460853E+03  0.33091356710E+03  0.89407251283E+02 0.  0.
        -24    2    1    2    0    0 -0.41594314062E+02  0.79724235941E+02 -0.25046525891E+03  0.27816617346E+03  0.80978598273E+02 0.  0.
         11    1    4    4    0    0 -0.29541309159E+02  0.70566117807E+01 -0.20377069382E+02  0.36574713578E+02  0.00000000000E+00 0. -1.
        -12    1    4    4    0    0 -0.12053004902E+02  0.72667624161E+02 -0.23008818953E+03  0.24159145988E+03  0.00000000000E+00 0.  1.
        -11    1    3    3    0    0  0.21496863184E+02 -0.10567011201E+02 -0.22450732789E+02  0.32830051100E+02  0.00000000000E+00 0. -1.
         11    1    3    3    0    0 -0.54706314736E+02 -0.43498305468E+02 -0.28977387574E+03  0.29808351600E+03  0.00000000000E+00 0.  1.
         -3    1    1    2    0  502  0.74803765614E+02 -0.25658919272E+02 -0.48210721171E+03  0.48855025030E+03  0.00000000000E+00 0.  1.
<scales pt_clust_5="13000.00000" pt_clust_6="13000.00000" pt_clust_7="13000.00000" pt_clust_8="13000.00000" pt_clust_9="79.08217"></scales>
<clustering>
<clus scale="   79.082">  1  9  2 -1</clus>
<clus scale="   80.979">  5  6 -1 -1</clus>
<clus scale="   89.407">  7  8 -1 -1</clus>
<clus scale="  103.512">  1  5  2 -1</clus>
<clus scale="   79.082">  1  5  2 -1</clus>
</clustering>
</event>
<event>
 9    1  0.6345107E-005  0.1020791E+03  0.7546771E-02  0.1281733E+00
         21   -1    0    0  501  502  0.00000000000E+00  0.00000000000E+00  0.35444148926E+02  0.35444148926E+02  0.00000000000E+00 0.  1.
          1   -1    0    0  502    0 -0.00000000000E+00 -0.00000000000E+00 -0.39526087154E+03  0.39526087154E+03  0.00000000000E+00 0. -1.
        -24    2    1    2    0    0  0.25632898014E+02 -0.34370216822E+02 -0.19907569957E+03  0.21865928014E+03  0.79639119573E+02 0.  0.
         23    2    1    2    0    0 -0.30316207125E+01  0.55310300058E+02 -0.11763560329E+03  0.15906100636E+03  0.91617948928E+02 0.  0.
         11    1    3    3    0    0  0.34470177046E+02  0.14454181448E+02 -0.11622188826E+03  0.12208457633E+03  0.00000000000E+00 0. -1.
        -12    1    3    3    0    0 -0.88372790319E+01 -0.48824398270E+02 -0.82853811309E+02  0.96574703808E+02  0.00000000000E+00 0.  1.
        -11    1    4    4    0    0 -0.38112375989E+02  0.60574511579E+02 -0.77141282739E+02  0.10522643280E+03  0.00000000000E+00 0.  1.
         11    1    4    4    0    0  0.35080755276E+02 -0.52642115213E+01 -0.40494320555E+02  0.53834573564E+02  0.00000000000E+00 0. -1.
          2    1    1    2  501    0 -0.22601277302E+02 -0.20940083236E+02 -0.43105419751E+02  0.52984733966E+02  0.00000000000E+00 0. -1.
<scales pt_clust_5="13000.00000" pt_clust_6="13000.00000" pt_clust_7="13000.00000" pt_clust_8="13000.00000" pt_clust_9="30.81079"></scales>
<clustering>
<clus scale="   30.811">  1  9  2 -1</clus>
<clus scale="   79.639">  5  6 -1 -1</clus>
<clus scale="   91.481">  2  5  1 -1</clus>
<clus scale="   91.618">  7  8 -1 -1</clus>
<clus scale="   30.811">  1  5  2 -1</clus>
</clustering>
</event>
<event>
 9    1  0.6345107E-005  0.1708862E+03  0.7546771E-02  0.1201734E+00
         21   -1    0    0  501  502  0.00000000000E+00  0.00000000000E+00  0.12114945511E+03  0.12114945511E+03  0.00000000000E+00 0. -1.
          1   -1    0    0  502    0 -0.00000000000E+00 -0.00000000000E+00 -0.54965252044E+03  0.54965252044E+03  0.00000000000E+00 0. -1.
         23    2    1    2    0    0  0.26950815515E+02 -0.16017292252E+02 -0.11519433570E+02  0.99382724965E+02  0.93601968803E+02 0.  0.
        -24    2    1    2    0    0 -0.70292318875E+02 -0.13327991589E+03 -0.57603804213E+02  0.17985571459E+03  0.79531966780E+02 0.  0.
         13    1    4    4    0    0 -0.75465107814E+02 -0.58660859037E+02 -0.32079362611E+02  0.10082243989E+03  0.00000000000E+00 0. -1.
        -14    1    4    4    0    0  0.51727889393E+01 -0.74619056849E+02 -0.25524441602E+02  0.79033274698E+02  0.00000000000E+00 0.  1.
        -11    1    3    3    0    0  0.46999981459E+02 -0.88972831330E+01  0.27328011584E+02  0.55090653667E+02  0.00000000000E+00 0. -1.
         11    1    3    3    0    0 -0.20049165944E+02 -0.71200091193E+01 -0.38847445154E+02  0.44292071298E+02  0.00000000000E+00 0.  1.
          2    1    1    2  501    0  0.43341503360E+02  0.14929720814E+03 -0.35937982755E+03  0.39156353600E+03  0.00000000000E+00 0. -1.
<scales pt_clust_5="13000.00000" pt_clust_6="13000.00000" pt_clust_7="13000.00000" pt_clust_8="13000.00000" pt_clust_9="151.25074"></scales>
<clustering>
<clus scale="   79.532">  5  6 -1 -1</clus>
<clus scale="   93.602">  7  8 -1 -1</clus>
<clus scale="   98.713">  2  7  1 -1</clus>
<clus scale="  151.251">  1  9  2 -1</clus>
<clus scale="  151.251">  1  5  2 -1</clus>
</clustering>
</event>
<event>
 9    1  0.6345107E-005  0.1264559E+03  0.7546771E-02  0.1236482E+00
         21   -1    0    0  501  502  0.00000000000E+00  0.00000000000E+00  0.66057254485E+03  0.66057254485E+03  0.00000000000E+00 0.  1.
         -2   -1    0    0    0  501 -0.00000000000E+00 -0.00000000000E+00 -0.77371502115E+02  0.77371502115E+02  0.00000000000E+00 0.  1.
        -24    2    1    2    0    0 -0.50728390651E+02  0.88577721298E+02  0.23018340527E+03  0.26422000922E+03  0.80052675650E+02 0.  0.
         23    2    1    2    0    0 -0.65466516983E+02 -0.81770607681E+02  0.32516647255E+03  0.35404412823E+03  0.92960812897E+02 0.  0.
         13    1    3    3    0    0  0.16129424789E+02  0.46537716119E+02  0.69578448786E+02  0.85247157730E+02  0.00000000000E+00 0. -1.
        -14    1    3    3    0    0 -0.66857815440E+02  0.42040005179E+02  0.16060495649E+03  0.17897285149E+03  0.00000000000E+00 0.  1.
        -13    1    4    4    0    0 -0.64608826377E+02 -0.54893993720E+02  0.31344847670E+03  0.32471156206E+03  0.00000000000E+00 0.  1.
         13    1    4    4    0    0 -0.85769060585E+00 -0.26876613962E+02  0.11717995859E+02  0.29332566171E+02  0.00000000000E+00 0. -1.
         -1    1    1    2    0  502  0.11619490763E+03 -0.68071136166E+01  0.27851164909E+02  0.11967990952E+03  0.00000000000E+00 0.  1.
<scales pt_clust_5="13000.00000" pt_clust_6="13000.00000" pt_clust_7="13000.00000" pt_clust_8="13000.00000" pt_clust_9="116.39419"></scales>
<clustering>
<clus scale="   80.053">  5  6 -1 -1</clus>
<clus scale="   92.961">  7  8 -1 -1</clus>
<clus scale="  116.394">  1  9  2 -1</clus>
<clus scale="  117.294">  2  5  1 -1</clus>
<clus scale="  116.394">  1  5  2 -1</clus>
</clustering>
</event>
<event>
 9    1  0.6345107E-005  0.1010960E+03  0.7546771E-02  0.1280443E+00
         -2   -1    0    0    0  501 -0.00000000000E+00  0.00000000000E+00  0.10724508550E+03  0.10724508550E+03  0.00000000000E+00 0.  1.
         21   -1    0    0  501  502  0.00000000000E+00 -0.00000000000E+00 -0.24664819546E+03  0.24664819546E+03  0.00000000000E+00 0.  1.
         23    2    1    2    0    0  0.25057292315E+02 -0.47925870368E+02  0.46341610695E+02  0.11196724797E+03  0.86396543837E+02 0.  0.
        -24    2    1    2    0    0  0.12540811389E+02  0.56621836471E+02 -0.75109738597E+02  0.12475378166E+03  0.80985979593E+02 0.  0.
         13    1    4    4    0    0 -0.17567046059E+01  0.74972716243E+02 -0.65549255939E+02  0.99602706520E+02  0.00000000000E+00 0. -1.
        -14    1    4    4    0    0  0.14297515995E+02 -0.18350879772E+02 -0.95604826577E+01  0.25151075140E+02  0.00000000000E+00 0.  1.
        -13    1    3    3    0    0 -0.32238480590E+02 -0.21437385478E+02  0.15353990468E+02  0.41648843323E+02  0.00000000000E+00 0.  1.
         13    1    3    3    0    0  0.57295772904E+02 -0.26488484890E+02  0.30987620228E+02  0.70318404645E+02  0.00000000000E+00 0. -1.
         -1    1    1    2    0  502 -0.37598103704E+02 -0.86959661030E+01 -0.11063498205E+03  0.11717225133E+03  0.00000000000E+00 0.  1.
<scales pt_clust_5="13000.00000" pt_clust_6="13000.00000" pt_clust_7="13000.00000" pt_clust_8="13000.00000" pt_clust_9="38.59064"></scales>
<clustering>
<clus scale="   38.591">  2  9  1 -1</clus>
<clus scale="   80.986">  5  6 -1 -1</clus>
<clus scale="   86.397">  7  8 -1 -1</clus>
<clus scale="   96.513">  2  5  1 -1</clus>
<clus scale="   38.591">  2  5  1 -1</clus>
</clustering>
</event>
<event>
 9    1  0.6345107E-005  0.9882182E+02  0.7546771E-02  0.1288869E+00
         -4   -1    0    0    0  501 -0.00000000000E+00  0.00000000000E+00  0.45482620990E+03  0.45482620990E+03  0.00000000000E+00 0.  1.
         21   -1    0    0  501  502  0.00000000000E+00 -0.00000000000E+00 -0.29947963663E+02  0.29947963663E+02  0.00000000000E+00 0. -1.
        -24    2    1    2    0    0  0.33122911646E+02 -0.29116460437E+01  0.26927693520E+03  0.28323033972E+03  0.81263476105E+02 0.  0.
         23    2    1    2    0    0 -0.35552493932E+02 -0.20112455053E+02  0.14273378769E+03  0.17505637911E+03  0.92754035190E+02 0.  0.
         11    1    3    3    0    0 -0.21606023911E+02  0.16383068086E+02  0.12102957670E+03  0.12402976911E+03  0.00000000000E+00 0. -1.
        -12    1    3    3    0    0  0.54728935557E+02 -0.19294714130E+02  0.14824735850E+03  0.15920057061E+03  0.00000000000E+00 0.  1.
        -13    1    4    4    0    0  0.14223164067E+02  0.26804721275E+02  0.26988034052E+02  0.40609672009E+02  0.00000000000E+00 0.  1.
         13    1    4    4    0    0 -0.49775657998E+02 -0.46917176328E+02  0.11574575364E+03  0.13444670710E+03  0.00000000000E+00 0. -1.
         -3    1    1    2    0  502  0.24295822854E+01  0.23024101097E+02  0.12867523346E+02  0.26487454737E+02  0.00000000000E+00 0.  1.
<scales pt_clust_5="13000.00000" pt_clust_6="13000.00000" pt_clust_7="13000.00000" pt_clust_8="13000.00000" pt_clust_9="23.15194"></scales>
<clustering>
<clus scale="   23.152">  2  9  1 -1</clus>
<clus scale="   81.263">  5  6 -1 -1</clus>
<clus scale="   88.126">  1  5  2 -1</clus>
<clus scale="   92.754">  7  8 -1 -1</clus>
<clus scale="   23.152">  2  5  1 -1</clus>
</clustering>
</event>
<event>
 9    1  0.6345107E-005  0.1736149E+03  0.7546771E-02  0.1175985E+00
          1   -1    0    0  502    0 -0.00000000000E+00  0.00000000000E+00  0.83962086380E+03  0.83962086380E+03  0.00000000000E+00 0. -1.
         21   -1    0    0  501  502  0.00000000000E+00 -0.00000000000E+00 -0.76340801163E+02  0.76340801163E+02  0.00000000000E+00 0.  1.
        -24    2    1    2    0    0  0.14777250567E+03 -0.27757582871E+01  0.66999309992E+03  0.69044274890E+03  0.77304704349E+02 0.  0.
         23    2    1    2    0    0 -0.14425336768E+03  0.33507997777E+02  0.75546553727E+02  0.18985973789E+03  0.91693065659E+02 0.  0.
         11    1    3    3    0    0  0.14644533745E+03 -0.13871259075E+02  0.65717689693E+03  0.67343902660E+03  0.00000000000E+00 0. -1.
        -12    1    3    3    0    0  0.13271682160E+01  0.11095500788E+02  0.12816202983E+02  0.17003722302E+02  0.00000000000E+00 0.  1.
        -11    1    4    4    0    0 -0.78368313139E+02 -0.28419973774E+02  0.42662988478E+02  0.93645170721E+02  0.00000000000E+00 0.  1.
         11    1    4    4    0    0 -0.65885054546E+02  0.61927971551E+02  0.32883565249E+02  0.96214567174E+02  0.00000000000E+00 0. -1.
          2    1    1    2  501    0 -0.35191379836E+01 -0.30732239490E+02  0.17740408998E+02  0.35659178168E+02  0.00000000000E+00 0. -1.
<scales pt_clust_5="13000.00000" pt_clust_6="13000.00000" pt_clust_7="13000.00000" pt_clust_8="13000.00000" pt_clust_9="30.93307"></scales>
<clustering>
<clus scale="   30.933">  2  9  1 -1</clus>
<clus scale="   77.305">  5  6 -1 -1</clus>
<clus scale="   91.693">  7  8 -1 -1</clus>
<clus scale="  166.465">  1  5  2 -1</clus>
<clus scale="   30.933">  2  5  1 -1</clus>
</clustering>
</event>
<event>
 9    1  0.6345107E-005  0.9867767E+02  0.7546771E-02  0.1287766E+00
          1   -1    0    0  502    0 -0.00000000000E+00  0.00000000000E+00  0.72316297114E+03  0.72316297114E+03  0.00000000000E+00 0. -1.
         21   -1    0    0  501  502  0.00000000000E+00 -0.00000000000E+00 -0.18347086809E+02  0.18347086809E+02  0.00000000000E+00 0.  1.
         23    2    1    2    0    0  0.37575505330E+02  0.15755181577E+02  0.37452830603E+03  0.38718594767E+03  0.89338467122E+02 0.  0.
        -24    2    1    2    0    0 -0.22342120052E+02 -0.45323948267E+02  0.23262136560E+03  0.25114922432E+03  0.80061242341E+02 0.  0.
         11    1    4    4    0    0  0.30375258729E+02 -0.17061498369E+02  0.88120519708E+02  0.94757464419E+02  0.00000000000E+00 0. -1.
        -12    1    4    4    0    0 -0.52717378781E+02 -0.28262449898E+02  0.14450084589E+03  0.15639175990E+03  0.00000000000E+00 0.  1.
        -13    1    3    3    0    0 -0.17001581382E+02 -0.24454773947E+02  0.95257179612E+02  0.99804909729E+02  0.00000000000E+00 0.  1.
         13    1    3    3    0    0  0.54577086712E+02  0.40209955525E+02  0.27927112642E+03  0.28738103794E+03  0.00000000000E+00 0. -1.
          2    1    1    2  501    0 -0.15233385278E+02  0.29568766690E+02  0.97666212699E+02  0.10317488596E+03  0.00000000000E+00 0. -1.
<scales pt_clust_5="13000.00000" pt_clust_6="13000.00000" pt_clust_7="13000.00000" pt_clust_8="13000.00000" pt_clust_9="33.26211"></scales>
<clustering>
<clus scale="   33.262">  2  9  1 -1</clus>
<clus scale="   80.061">  5  6 -1 -1</clus>
<clus scale="   89.338">  7  8 -1 -1</clus>
<clus scale="   90.364">  2  5  1 -1</clus>
<clus scale="   33.262">  2  5  1 -1</clus>
</clustering>
</event>
<event>
 9    1  0.6345107E-005  0.1682741E+03  0.7546771E-02  0.1208519E+00
         21   -1    0    0  501  502  0.00000000000E+00  0.00000000000E+00  0.83299758152E+02  0.83299758152E+02  0.00000000000E+00 0. -1.
          1   -1    0    0  502    0 -0.00000000000E+00 -0.00000000000E+00 -0.51665425425E+03  0.51665425425E+03  0.00000000000E+00 0. -1.
        -24    2    1    2    0    0 -0.22701248629E+02  0.34379536756E+02 -0.13650020821E+03  0.16313264580E+03  0.79263194786E+02 0.  0.
         23    2    1    2    0    0  0.13695708797E+03  0.62126444912E+02 -0.17478465175E+03  0.24377008485E+03  0.79102722298E+02 0.  0.
         11    1    3    3    0    0 -0.20583249198E+02  0.24688198860E+02 -0.14594067364E+03  0.14943847407E+03  0.00000000000E+00 0. -1.
        -12    1    3    3    0    0 -0.21179994309E+01  0.96913378964E+01  0.94404654297E+01  0.13694171729E+02  0.00000000000E+00 0.  1.
        -13    1    4    4    0    0  0.40914932463E+02  0.16544756453E+02 -0.11181714833E+03  0.12021162725E+03  0.00000000000E+00 0.  1.
         13    1    4    4    0    0  0.96042155506E+02  0.45581688459E+02 -0.62967503422E+02  0.12355845760E+03  0.00000000000E+00 0. -1.
          2    1    1    2  501    0 -0.11425583934E+03 -0.96505981668E+02 -0.12206963613E+03  0.19305128175E+03  0.00000000000E+00 0. -1.
<scales pt_clust_5="13000.00000" pt_clust_6="13000.00000" pt_clust_7="13000.00000" pt_clust_8="13000.00000" pt_clust_9="148.52245"></scales>
<clustering>
<clus scale="   79.103">  7  8 -1 -1</clus>
<clus scale="   79.263">  5  6 -1 -1</clus>
<clus scale="   89.331">  2  5  1 -1</clus>
<clus scale="  148.522">  1  9  2 -1</clus>
<clus scale="  148.522">  1  5  2 -1</clus>
</clustering>
</event>
<event>
 9    1  0.6345107E-005  0.1104525E+03  0.7546771E-02  0.1263669E+00
         -2   -1    0    0    0  501 -0.00000000000E+00  0.00000000000E+00  0.11272893727E+03  0.11272893727E+03  0.00000000000E+00 0.  1.
         21   -1    0    0  501  502  0.00000000000E+00 -0.00000000000E+00 -0.19316681269E+03  0.19316681269E+03  0.00000000000E+00 0.  1.
         23    2    1    2    0    0 -0.50029184212E+02 -0.49226475373E+02  0.34663443973E+02  0.11932329271E+03  0.90057363305E+02 0.  0.
        -24    2    1    2    0    0  0.16865319713E+02  0.55090360503E+02 -0.43810530345E+02  0.10772701566E+03  0.79789476150E+02 0.  0.
         11    1    4    4    0    0 -0.61619228802E+01  0.23660488025E+02 -0.60565608471E+02  0.65314477083E+02  0.00000000000E+00 0. -1.
        -12    1    4    4    0    0  0.23027242593E+02  0.31429872478E+02  0.16755078126E+02  0.42412538576E+02  0.00000000000E+00 0.  1.
        -13    1    3    3    0    0 -0.40248679523E+02 -0.73144464686E+02  0.40560923547E+02  0.92818411086E+02  0.00000000000E+00 0.  1.
         13    1    3    3    0    0 -0.97805046889E+01  0.23917989313E+02 -0.58974795738E+01  0.26504881628E+02  0.00000000000E+00 0. -1.
         -1    1    1    2    0  502  0.33163864499E+02 -0.58638851302E+01 -0.71290789040E+02  0.78845441588E+02  0.00000000000E+00 0.  1.
<scales pt_clust_5="13000.00000" pt_clust_6="13000.00000" pt_clust_7="13000.00000" pt_clust_8="13000.00000" pt_clust_9="33.67829"></scales>
<clustering>
<clus scale="   33.678">  2  9  1 -1</clus>
<clus scale="   79.789">  5  6 -1 -1</clus>
<clus scale="   90.057">  7  8 -1 -1</clus>
<clus scale="  102.254">  2  5  1 -1</clus>
<clus scale="   33.678">  2  5  1 -1</clus>
</clustering>
</event>
<event>
 9    1  0.6345107E-005  0.1077674E+03  0.7546771E-02  0.1267621E+00
         21   -1    0    0  501  502  0.00000000000E+00  0.00000000000E+00  0.60179186945E+02  0.60179186945E+02  0.00000000000E+00 0. -1.
          1   -1    0    0  502    0 -0.00000000000E+00 -0.00000000000E+00 -0.53676853262E+03  0.53676853262E+03  0.00000000000E+00 0. -1.
         23    2    1    2    0    0 -0.40112474133E+02  0.40770339972E+01 -0.10888679544E+03  0.14513235208E+03  0.87071422483E+02 0.  0.
        -24    2    1    2    0    0  0.79196315269E+02 -0.88716573541E+02 -0.11887779069E+03  0.18609905399E+03  0.79738585411E+02 0.  0.
         11    1    4    4    0    0  0.74187587673E+02 -0.10220441358E+03 -0.94276993280E+02  0.15759978357E+03  0.00000000000E+00 0. -1.
        -12    1    4    4    0    0  0.50087275959E+01  0.13487840040E+02 -0.24600797410E+02  0.28499270416E+02  0.00000000000E+00 0.  1.
        -11    1    3    3    0    0 -0.32675777380E+01  0.29640916599E+02 -0.92825846316E+02  0.97498198677E+02  0.00000000000E+00 0.  1.
         11    1    3    3    0    0 -0.36844896395E+02 -0.25563882601E+02 -0.16060949123E+02  0.47634153406E+02  0.00000000000E+00 0. -1.
          2    1    1    2  501    0 -0.39083841136E+02  0.84639539544E+02 -0.24882475955E+03  0.26571631349E+03  0.00000000000E+00 0. -1.
<scales pt_clust_5="13000.00000" pt_clust_6="13000.00000" pt_clust_7="13000.00000" pt_clust_8="13000.00000" pt_clust_9="93.22772"></scales>
<clustering>
<clus scale="   79.739">  5  6 -1 -1</clus>
<clus scale="   87.071">  7  8 -1 -1</clus>
<clus scale="   93.228">  1  9  2 -1</clus>
<clus scale="  101.934">  1  5  2 -1</clus>
<clus scale="   93.228">  1  5  2 -1</clus>
</clustering>
</event>
<event>
 9    1  0.6345107E-005  0.1036877E+03  0.7546771E-02  0.1279340E+00
          1   -1    0    0  502    0 -0.00000000000E+00  0.00000000000E+00  0.49606140194E+03  0.49606140194E+03  0.00000000000E+00 0. -1.
         21   -1    0    0  501  502  0.00000000000E+00 -0.00000000000E+00 -0.67279396000E+02  0.67279396000E+02  0.00000000000E+00 0.  1.
        -24    2    1    2    0    0  0.46750094981E+02 -0.48546602181E+02  0.30783838210E+03  0.32514738420E+03  0.80087502099E+02 0.  0.
         23    2    1    2    0    0  0.36436728016E+02  0.13124250472E+02  0.10552061622E+03  0.14647286160E+03  0.93913884170E+02 0.  0.
         13    1    3    3    0    0  0.91091239229E+00 -0.57750523484E+02  0.17903354822E+03  0.18811954740E+03  0.00000000000E+00 0. -1.
        -14    1    3    3    0    0  0.45839182588E+02  0.92039213030E+01  0.12880483387E+03  0.13702783680E+03  0.00000000000E+00 0.  1.
        -13    1    4    4    0    0 -0.25475912305E+02  0.17330223502E+02  0.66171929792E+02  0.72993719228E+02  0.00000000000E+00 0. -1.
         13    1    4    4    0    0  0.61912640321E+02 -0.42059730298E+01  0.39348686430E+02  0.73479142377E+02  0.00000000000E+00 0.  1.
          2    1    1    2  501    0 -0.83186822997E+02  0.35422351709E+02  0.15423007620E+02  0.91720552141E+02  0.00000000000E+00 0. -1.
<scales pt_clust_5="13000.00000" pt_clust_6="13000.00000" pt_clust_7="13000.00000" pt_clust_8="13000.00000" pt_clust_9="90.41455"></scales>
<clustering>
<clus scale="   80.088">  5  6 -1 -1</clus>
<clus scale="   90.415">  2  9  1 -1</clus>
<clus scale="   91.353">  1  5  2 -1</clus>
<clus scale="   93.914">  7  8 -1 -1</clus>
<clus scale="   90.415">  2  5  1 -1</clus>
</clustering>
</event>
<event>
 9    1  0.6345107E-005  0.1504074E+03  0.7546771E-02  0.1215742E+00
          1   -1    0    0  502    0 -0.00000000000E+00  0.00000000000E+00  0.45422460156E+03  0.45422460156E+03  0.00000000000E+00 0. -1.
         21   -1    0    0  501  502  0.00000000000E+00 -0.00000000000E+00 -0.15091178893E+03  0.15091178893E+03  0.00000000000E+00 0. -1.
         23    2    1    2    0    0 -0.46108814125E+02  0.32699430960E+02  0.17187698605E+03  0.20260696148E+03  0.91173499344E+02 0.  0.
        -24    2    1    2    0    0 -0.11079063792E+03  0.17262626658E+02 -0.55555113959E+02  0.15337233580E+03  0.88679980685E+02 0.  0.
         13    1    4    4    0    0 -0.69429038924E+02 -0.33431935250E+02 -0.36228220305E+02  0.85150277081E+02  0.00000000000E+00 0. -1.
        -14    1    4    4    0    0 -0.41361598992E+02  0.50694561908E+02 -0.19326893654E+02  0.68222058724E+02  0.00000000000E+00 0.  1.
        -13    1    3    3    0    0  0.18109440361E+02  0.22290165272E+02  0.14203964999E+02  0.32039911356E+02  0.00000000000E+00 0. -1.
         13    1    3    3    0    0 -0.64218254486E+02  0.10409265689E+02  0.15767302105E+03  0.17056705013E+03  0.00000000000E+00 0.  1.
          2    1    1    2  501    0  0.15689945204E+03 -0.49962057618E+02  0.18699094053E+03  0.24915709320E+03  0.00000000000E+00 0. -1.
<scales pt_clust_5="13000.00000" pt_clust_6="13000.00000" pt_clust_7="13000.00000" pt_clust_8="13000.00000" pt_clust_9="121.48353"></scales>
<clustering>
<clus scale="   88.680">  5  6 -1 -1</clus>
<clus scale="   91.173">  7  8 -1 -1</clus>
<clus scale="  107.275">  1  7  2 -1</clus>
<clus scale="  121.484">  2  9  1 -1</clus>
<clus scale="  121.484">  2  5  1 -1</clus>
</clustering>
</event>
<event>
 9    1  0.6345107E-005  0.1750166E+03  0.7546771E-02  0.1194037E+00
         -2   -1    0    0    0  501 -0.00000000000E+00  0.00000000000E+00  0.59505225872E+03  0.59505225872E+03  0.00000000000E+00 0.  1.
         21   -1    0    0  501  502  0.00000000000E+00 -0.00000000000E+00 -0.10473852700E+03  0.10473852700E+03  0.00000000000E+00 0.  1.
         23    2    1    2    0    0 -0.49966346117E+01 -0.56201345346E+02  0.10781871872E+03  0.15308412810E+03  0.92877966127E+02 0.  0.
        -24    2    1    2    0    0 -0.73051746050E+02  0.17792311298E+03  0.33413270814E+03  0.39423813309E+03  0.82376253875E+02 0.  0.
         13    1    4    4    0    0 -0.27191234085E+02  0.13046074332E+03  0.16128146746E+03  0.20921539261E+03  0.00000000000E+00 0. -1.
        -14    1    4    4    0    0 -0.45860511965E+02  0.47462369661E+02  0.17285124068E+03  0.18502274048E+03  0.00000000000E+00 0.  1.
        -13    1    3    3    0    0  0.24561530775E+02  0.16882754560E+02  0.31299390881E+02  0.43219764750E+02  0.00000000000E+00 0.  1.
         13    1    3    3    0    0 -0.29558165387E+02 -0.73084099906E+02  0.76519327843E+02  0.10986436335E+03  0.00000000000E+00 0. -1.
         -1    1    1    2    0  502  0.78048380662E+02 -0.12172176764E+03  0.48362304862E+02  0.15246852453E+03  0.00000000000E+00 0.  1.
<scales pt_clust_5="13000.00000" pt_clust_6="13000.00000" pt_clust_7="13000.00000" pt_clust_8="13000.00000" pt_clust_9="154.41818"></scales>
<clustering>
<clus scale="   82.376">  5  6 -1 -1</clus>
<clus scale="   92.878">  7  8 -1 -1</clus>
<clus scale="  108.673">  1  7  2 -1</clus>
<clus scale="  154.418">  2  9  1 -1</clus>
<clus scale="  154.418">  2  5  1 -1</clus>
</clustering>
</event>
<event>
 9    1  0.6345107E-005  0.2371532E+03  0.7546771E-02  0.1143956E+00
         21   -1    0    0  501  502  0.00000000000E+00  0.00000000000E+00  0.17521374516E+03  0.17521374516E+03  0.00000000000E+00 0. -1.
          1   -1    0    0  502    0 -0.00000000000E+00 -0.00000000000E+00 -0.80736410938E+03  0.80736410938E+03  0.00000000000E+00 0. -1.
         23    2    1    2    0    0 -0.57668669619E+02 -0.84622304309E+02 -0.12517291824E+03  0.18607741485E+03  0.92032249864E+02 0.  0.
        -24    2    1    2    0    0 -0.16894900640E+03  0.12519929546E+03 -0.51951630776E+03  0.56593746272E+03  0.78545447622E+02 0.  0.
         13    1    4    4    0    0 -0.14991206285E+03  0.72854904315E+02 -0.35344571129E+03  0.39077529924E+03  0.00000000000E+00 0. -1.
        -14    1    4    4    0    0 -0.19036943552E+02  0.52344391144E+02 -0.16607059647E+03  0.17516216348E+03  0.00000000000E+00 0.  1.
        -11    1    3    3    0    0 -0.19350168188E+02 -0.95603869241E+02 -0.94131673763E+02  0.13555552673E+03  0.00000000000E+00 0.  1.
         11    1    3    3    0    0 -0.38318501431E+02  0.10981564932E+02 -0.31041244475E+02  0.50521888116E+02  0.00000000000E+00 0. -1.
          2    1    1    2  501    0  0.22661767602E+03 -0.40576991151E+02  0.12538861776E+02  0.23056297697E+03  0.00000000000E+00 0. -1.
<scales pt_clust_5="13000.00000" pt_clust_6="13000.00000" pt_clust_7="13000.00000" pt_clust_8="13000.00000" pt_clust_9="223.76835"></scales>
<clustering>
<clus scale="   78.545">  5  6 -1 -1</clus>
<clus scale="   92.032">  7  8 -1 -1</clus>
<clus scale="  137.683">  2  7  1 -1</clus>
<clus scale="  223.768">  1  9  2 -1</clus>
<clus scale="  223.768">  1  5  2 -1</clus>
</clustering>
</event>
<event>
 9    1  0.6345107E-005  0.1041946E+03  0.7546771E-02  0.1276142E+00
         21   -1    0    0  501  502  0.00000000000E+00  0.00000000000E+00  0.52777753004E+02  0.52777753004E+02  0.00000000000E+00 0.  1.
         -2   -1    0    0    0  501 -0.00000000000E+00 -0.00000000000E+00 -0.37873785255E+03  0.37873785255E+03  0.00000000000E+00 0.  1.
         23    2    1    2    0    0  0.55995338974E+01 -0.52246560555E+02 -0.16105996275E+03  0.19221552796E+03  0.90804403632E+02 0.  0.
        -24    2    1    2    0    0  0.34263701955E+02  0.47092902509E+02 -0.38847449236E+02  0.10699392579E+03  0.80912502774E+02 0.  0.
         11    1    4    4    0    0  0.46109223998E+02 -0.39192012130E+01 -0.25969348882E+02  0.53064373710E+02  0.00000000000E+00 0. -1.
        -12    1    4    4    0    0 -0.11845522044E+02  0.51012103722E+02 -0.12878100354E+02  0.53929552078E+02  0.00000000000E+00 0.  1.
        -13    1    3    3    0    0 -0.31402483566E+02  0.77172901202E+01 -0.69737279142E+02  0.76869764167E+02  0.00000000000E+00 0. -1.
         13    1    3    3    0    0  0.37002017463E+02 -0.59963850675E+02 -0.91322683603E+02  0.11534576379E+03  0.00000000000E+00 0.  1.
         -1    1    1    2    0  502 -0.39863235852E+02  0.51536580457E+01 -0.12605268756E+03  0.13230615180E+03  0.00000000000E+00 0.  1.
<scales pt_clust_5="13000.00000" pt_clust_6="13000.00000" pt_clust_7="13000.00000" pt_clust_8="13000.00000" pt_clust_9="40.19502"></scales>
<clustering>
<clus scale="   40.195">  1  9  2 -1</clus>
<clus scale="   80.913">  5  6 -1 -1</clus>
<clus scale="   90.804">  7  8 -1 -1</clus>
<clus scale="   95.697">  1  5  2 -1</clus>
<clus scale="   40.195">  1  5  2 -1</clus>
</clustering>
</event>
<event>
 9    1  0.6345107E-005  0.1154046E+03  0.7546771E-02  0.1261781E+00
          1   -1    0    0  502    0 -0.00000000000E+00  0.00000000000E+00  0.74670853807E+03  0.74670853807E+03  0.00000000000E+00 0. -1.
         21   -1    0    0  501  502  0.00000000000E+00 -0.00000000000E+00 -0.37585670225E+02  0.37585670225E+02  0.00000000000E+00 0.  1.
        -24    2    1    2    0    0 -0.27142539465E+02  0.38283698836E+02  0.25731037441E+03  0.27388293054E+03  0.81245749523E+02 0.  0.
         23    2    1    2    0    0 -0.14338657591E+02 -0.53296474229E+02  0.10022913847E+03  0.15607114650E+03  0.10614241049E+03 0.  0.
         13    1    3    3    0    0 -0.57672478939E+01 -0.21260645010E+02  0.12850425721E+03  0.13037875707E+03  0.00000000000E+00 0. -1.
        -14    1    3    3    0    0 -0.21375291571E+02  0.59544343847E+02  0.12880611720E+03  0.14350417347E+03  0.00000000000E+00 0.  1.
        -11    1    4    4    0    0 -0.29650878279E+02  0.12959320267E+02 -0.29553767755E+01  0.32493888908E+02  0.00000000000E+00 0.  1.
         11    1    4    4    0    0  0.15312220688E+02 -0.66255794496E+02  0.10318451525E+03  0.12357725759E+03  0.00000000000E+00 0. -1.
          2    1    1    2  501    0  0.41481197056E+02  0.15012775393E+02  0.35158335496E+03  0.35434013126E+03  0.00000000000E+00 0. -1.
<scales pt_clust_5="13000.00000" pt_clust_6="13000.00000" pt_clust_7="13000.00000" pt_clust_8="13000.00000" pt_clust_9="44.11434"></scales>
<clustering>
<clus scale="   44.114">  2  9  1 -1</clus>
<clus scale="   81.246">  5  6 -1 -1</clus>
<clus scale="   93.021">  1  5  2 -1</clus>
<clus scale="  106.142">  7  8 -1 -1</clus>
<clus scale="   44.114">  2  5  1 -1</clus>
</clustering>
</event>
<event>
 9    1  0.6345107E-005  0.9551944E+02  0.7546771E-02  0.1297660E+00
         -2   -1    0    0    0  501 -0.00000000000E+00  0.00000000000E+00  0.21842520291E+03  0.21842520291E+03  0.00000000000E+00 0.  1.
         21   -1    0    0  501  502  0.00000000000E+00 -0.00000000000E+00 -0.13083514835E+03  0.13083514835E+03  0.00000000000E+00 0. -1.
         23    2    1    2    0    0 -0.16048326360E+02  0.24258389574E+02  0.14507253235E+03  0.17294906793E+03  0.89550668404E+02 0.  0.
        -24    2    1    2    0    0  0.22580519265E+01 -0.47827724872E+02  0.21903487240E+02  0.92360007699E+02  0.75881606493E+02 0.  0.
         11    1    4    4    0    0  0.13947229742E+02 -0.57509264456E+02 -0.71242506929E+01  0.59603654785E+02  0.00000000000E+00 0. -1.
        -12    1    4    4    0    0 -0.11689177816E+02  0.96815395844E+01  0.29027737933E+02  0.32756352914E+02  0.00000000000E+00 0.  1.
        -13    1    3    3    0    0  0.11958891449E+02 -0.25533449544E+02  0.87135442644E+02  0.91583609315E+02  0.00000000000E+00 0. -1.
         13    1    3    3    0    0 -0.28007217809E+02  0.49791839118E+02  0.57937089710E+02  0.81365458619E+02  0.00000000000E+00 0.  1.
         -1    1    1    2    0  502  0.13790274434E+02  0.23569335298E+02 -0.79385965033E+02  0.83951275628E+02  0.00000000000E+00 0.  1.
<scales pt_clust_5="13000.00000" pt_clust_6="13000.00000" pt_clust_7="13000.00000" pt_clust_8="13000.00000" pt_clust_9="27.30724"></scales>
<clustering>
<clus scale="   27.307">  2  9  1 -1</clus>
<clus scale="   75.882">  5  6 -1 -1</clus>
<clus scale="   82.841">  2  5  1 -1</clus>
<clus scale="   89.551">  7  8 -1 -1</clus>
<clus scale="   27.307">  2  5  1 -1</clus>
</clustering>
</event>
<event>
 9    1  0.6345107E-005  0.1277691E+03  0.7546771E-02  0.1234078E+00
          1   -1    0    0  502    0 -0.00000000000E+00  0.00000000000E+00  0.31233337833E+03  0.31233337833E+03  0.00000000000E+00 0. -1.
         21   -1    0    0  501  502  0.00000000000E+00 -0.00000000000E+00 -0.90080802472E+02  0.90080802472E+02  0.00000000000E+00 0. -1.
        -24    2    1    2    0    0  0.10432798100E+02 -0.85096282895E+02  0.69947098297E+02  0.13624919910E+03  0.79504886998E+02 0.  0.
         23    2    1    2    0    0 -0.57359136088E+02  0.83362394742E+02  0.36562880623E+02  0.14125927202E+03  0.91531297062E+02 0.  0.
         13    1    3    3    0    0  0.28387407819E+02 -0.69649524637E+02  0.15387249798E+02  0.76770232911E+02  0.00000000000E+00 0. -1.
        -14    1    3    3    0    0 -0.17954609719E+02 -0.15446758258E+02  0.54559848499E+02  0.59478966190E+02  0.00000000000E+00 0.  1.
        -11    1    4    4    0    0 -0.61182544063E+02  0.88449940292E+01  0.17474192985E+02  0.64240836217E+02  0.00000000000E+00 0.  1.
         11    1    4    4    0    0  0.38234079752E+01  0.74517400713E+02  0.19088687638E+02  0.77018435802E+02  0.00000000000E+00 0. -1.
          2    1    1    2  501    0  0.46926337988E+02  0.17338881529E+01  0.11574259693E+03  0.12490570968E+03  0.00000000000E+00 0. -1.
<scales pt_clust_5="13000.00000" pt_clust_6="13000.00000" pt_clust_7="13000.00000" pt_clust_8="13000.00000" pt_clust_9="46.95838"></scales>
<clustering>
<clus scale="   46.958">  2  9  1 -1</clus>
<clus scale="   79.505">  5  6 -1 -1</clus>
<clus scale="   91.531">  7  8 -1 -1</clus>
<clus scale="  119.449">  1  5  2 -1</clus>
<clus scale="   46.958">  2  5  1 -1</clus>
</clustering>
</event>
<event>
 9    1  0.6345107E-005  0.2162321E+03  0.7546771E-02  0.1171159E+00
         -2   -1    0    0    0  501 -0.00000000000E+00  0.00000000000E+00  0.43115741095E+03  0.43115741095E+03  0.00000000000E+00 0.  1.
         21   -1    0    0  501  502  0.00000000000E+00 -0.00000000000E+00 -0.18762865856E+03  0.18762865856E+03  0.00000000000E+00 0.  1.
         23    2    1    2    0    0  0.69057430099E+01 -0.28845756948E+02  0.48673373002E+02  0.10777118218E+03  0.91464547710E+02 0.  0.
        -24    2    1    2    0    0  0.33600288104E+02  0.21711763052E+03  0.21332707497E+03  0.31755109105E+03  0.84031004228E+02 0.  0.
         11    1    4    4    0    0  0.21657160119E+02  0.13524197157E+03  0.74444722824E+02  0.15588919210E+03  0.00000000000E+00 0. -1.
        -12    1    4    4    0    0  0.11943127985E+02  0.81875658947E+02  0.13888235215E+03  0.16166189895E+03  0.00000000000E+00 0.  1.
        -13    1    3    3    0    0 -0.40620270188E+02 -0.21283455617E+02  0.12392438551E+02  0.47503309005E+02  0.00000000000E+00 0. -1.
         13    1    3    3    0    0  0.47526013198E+02 -0.75623013314E+01  0.36280934451E+02  0.60267873171E+02  0.00000000000E+00 0.  1.
         -1    1    1    2    0  502 -0.40506031114E+02 -0.18827187357E+03 -0.18471695584E+02  0.19346379628E+03  0.00000000000E+00 0.  1.
<scales pt_clust_5="13000.00000" pt_clust_6="13000.00000" pt_clust_7="13000.00000" pt_clust_8="13000.00000" pt_clust_9="199.23637"></scales>
<clustering>
<clus scale="   84.031">  5  6 -1 -1</clus>
<clus scale="   91.465">  7  8 -1 -1</clus>
<clus scale="   96.154">  1  7  2 -1</clus>
<clus scale="  199.236">  2  9  1 -1</clus>
<clus scale="  199.236">  2  5  1 -1</clus>
</clustering>
</event>
<event>
 9    1  0.6345107E-005  0.9513629E+02  0.7546771E-02  0.1295038E+00
         21   -1    0    0  501  502  0.00000000000E+00  0.00000000000E+00  0.65142558778E+02  0.65142558778E+02  0.00000000000E+00 0.  1.
         -2   -1    0    0    0  501 -0.00000000000E+00 -0.00000000000E+00 -0.26912893487E+03  0.26912893487E+03  0.00000000000E+00 0.  1.
         23    2    1    2    0    0 -0.23239249168E+02 -0.15524654708E+02 -0.12009744350E+03  0.15183420863E+03  0.88595447792E+02 0.  0.
        -24    2    1    2    0    0  0.15778900937E+02  0.42483810328E+02 -0.11020488764E+03  0.14403178595E+03  0.80908530129E+02 0.  0.
         11    1    4    4    0    0  0.35740889742E+02 -0.83963158113E+01 -0.56683741485E+02  0.67534849281E+02  0.00000000000E+00 0. -1.
        -12    1    4    4    0    0 -0.19961988805E+02  0.50880126140E+02 -0.53521146159E+02  0.76496936666E+02  0.00000000000E+00 0.  1.
        -11    1    3    3    0    0 -0.14304586379E+02 -0.47642044631E+02 -0.36097025576E+02  0.61460400776E+02  0.00000000000E+00 0.  1.
         11    1    3    3    0    0 -0.89346627889E+01  0.32117389923E+02 -0.84000417929E+02  0.90373807858E+02  0.00000000000E+00 0. -1.
         -1    1    1    2    0  502  0.74603482310E+01 -0.26959155621E+02  0.26315955061E+02  0.38405499063E+02  0.00000000000E+00 0.  1.
<scales pt_clust_5="13000.00000" pt_clust_6="13000.00000" pt_clust_7="13000.00000" pt_clust_8="13000.00000" pt_clust_9="27.97236"></scales>
<clustering>
<clus scale="   27.972">  1  9  2 -1</clus>
<clus scale="   80.909">  5  6 -1 -1</clus>
<clus scale="   88.022">  1  5  2 -1</clus>
<clus scale="   88.595">  7  8 -1 -1</clus>
<clus scale="   27.972">  1  5  2 -1</clus>
</clustering>
</event>
<event>
 9    1  0.6640123E-005  0.1023246E+03  0.7546771E-02  0.1281920E+00
         21   -1    0    0  501  502  0.00000000000E+00  0.00000000000E+00  0.24489334894E+03  0.24489334894E+03  0.00000000000E+00 0.  1.
          1   -1    0    0  502    0 -0.00000000000E+00 -0.00000000000E+00 -0.18781994450E+03  0.18781994450E+03  0.00000000000E+00 0. -1.
         23    2    1    2    0    0 -0.28016570600E+02 -0.29377965831E+02 -0.91334710831E+01  0.10143850023E+03  0.92511382703E+02 0.  0.
        -24    2    1    2    0    0 -0.40751415347E+01  0.73426802471E+02  0.17722859249E+03  0.20759779601E+03  0.79238682566E+02 0.  0.
         11    1    4    4    0    0 -0.38014992881E+01  0.43768145029E+02  0.21209854160E+02  0.48784831963E+02  0.00000000000E+00 0. -1.
        -12    1    4    4    0    0 -0.27364224655E+00  0.29658657442E+02  0.15601873833E+03  0.15881296405E+03  0.00000000000E+00 0.  1.
        -13    1    3    3    0    0 -0.74557267784E+01  0.25797182706E+02 -0.28783493347E+02  0.39364603219E+02  0.00000000000E+00 0.  1.
         13    1    3    3    0    0 -0.20560843822E+02 -0.55175148537E+02  0.19650022264E+02  0.62073897007E+02  0.00000000000E+00 0. -1.
          2    1    1    2  501    0  0.32091712135E+02 -0.44048836640E+02 -0.11102171697E+03  0.12367699720E+03  0.00000000000E+00 0. -1.
<scales pt_clust_5="13000.00000" pt_clust_6="13000.00000" pt_clust_7="13000.00000" pt_clust_8="13000.00000" pt_clust_9="54.49937"></scales>
<clustering>
<clus scale="   54.499">  1  9  2 -1</clus>
<clus scale="   79.239">  5  6 -1 -1</clus>
<clus scale="   90.503">  1  5  2 -1</clus>
<clus scale="   92.511">  7  8 -1 -1</clus>
<clus scale="   54.499">  1  5  2 -1</clus>
</clustering>
</event>
<event>
 9    1  0.6345107E-005  0.1339872E+03  0.7546771E-02  0.1224288E+00
         21   -1    0    0  501  502  0.00000000000E+00  0.00000000000E+00  0.18004764264E+03  0.18004764264E+03  0.00000000000E+00 0. -1.
         -4   -1    0    0    0  501 -0.00000000000E+00 -0.00000000000E+00 -0.19278875871E+03  0.19278875871E+03  0.00000000000E+00 0.  1.
         23    2    1    2    0    0 -0.98567687805E+02 -0.35036263548E+02 -0.11340650656E+03  0.17922423066E+03  0.91198466456E+02 0.  0.
        -24    2    1    2    0    0  0.67487613100E+02  0.23484106253E+02  0.11506667489E+03  0.15746220009E+03  0.80298964005E+02 0.  0.
         11    1    4    4    0    0  0.71527302640E+02  0.45364537817E+02  0.84380638233E+02  0.11955830554E+03  0.00000000000E+00 0. -1.
        -12    1    4    4    0    0 -0.40396895402E+01 -0.21880431564E+02  0.30686036652E+02  0.37903894555E+02  0.00000000000E+00 0.  1.
        -11    1    3    3    0    0 -0.18786492441E+02 -0.32258001634E+02 -0.87770928751E+02  0.95379488893E+02  0.00000000000E+00 0.  1.
         11    1    3    3    0    0 -0.79781195364E+02 -0.27782619146E+01 -0.25635577811E+02  0.83844741771E+02  0.00000000000E+00 0. -1.
         -3    1    1    2    0  502  0.31080074705E+02  0.11552157295E+02 -0.14401284389E+02  0.36149970593E+02  0.00000000000E+00 0.  1.
<scales pt_clust_5="13000.00000" pt_clust_6="13000.00000" pt_clust_7="13000.00000" pt_clust_8="13000.00000" pt_clust_9="33.15757"></scales>
<clustering>
<clus scale="   33.158">  1  9  2 -1</clus>
<clus scale="   80.299">  5  6 -1 -1</clus>
<clus scale="   91.198">  7  8 -1 -1</clus>
<clus scale="  126.820">  1  5  2 -1</clus>
<clus scale="   33.158">  1  5  2 -1</clus>
</clustering>
</event>
<event>
 9    1  0.6345107E-005  0.1138976E+03  0.7546771E-02  0.1257158E+00
         -4   -1    0    0    0  501 -0.00000000000E+00  0.00000000000E+00  0.11219381894E+03  0.11219381894E+03  0.00000000000E+00 0.  1.
         21   -1    0    0  501  502  0.00000000000E+00 -0.00000000000E+00 -0.20483117331E+03  0.20483117331E+03  0.00000000000E+00 0.  1.
        -24    2    1    2    0    0 -0.63650915948E+02  0.29282320081E+02  0.28753429677E+02  0.10874522473E+03  0.78037624344E+02 0.  0.
         23    2    1    2    0    0  0.49894224016E+02 -0.65178540114E+02 -0.57461935631E+02  0.13368296568E+03  0.88496246169E+02 0.  0.
         11    1    3    3    0    0 -0.24506964737E+02 -0.22929671626E+02 -0.70772761576E+01  0.34299402317E+02  0.00000000000E+00 0. -1.
        -12    1    3    3    0    0 -0.39143951211E+02  0.52211991706E+02  0.35830705834E+02  0.74445822414E+02  0.00000000000E+00 0.  1.
        -11    1    4    4    0    0  0.67987161218E+02 -0.52798608916E+02 -0.17116981022E+02  0.87766384415E+02  0.00000000000E+00 0.  1.
         11    1    4    4    0    0 -0.18092937202E+02 -0.12379931198E+02 -0.40344954609E+02  0.45916581269E+02  0.00000000000E+00 0. -1.
         -3    1    1    2    0  502  0.13756691932E+02  0.35896220034E+02 -0.63928848410E+02  0.74596801840E+02  0.00000000000E+00 0.  1.
<scales pt_clust_5="13000.00000" pt_clust_6="13000.00000" pt_clust_7="13000.00000" pt_clust_8="13000.00000" pt_clust_9="38.44197"></scales>
<clustering>
<clus scale="   38.442">  2  9  1 -1</clus>
<clus scale="   78.038">  5  6 -1 -1</clus>
<clus scale="   88.496">  7  8 -1 -1</clus>
<clus scale="  105.976">  1  5  2 -1</clus>
<clus scale="   38.442">  2  5  1 -1</clus>
</clustering>
</event>
<event>
 9    1  0.6345107E-005  0.1294819E+03  0.7546771E-02  0.1231657E+00
         21   -1    0    0  501  502  0.00000000000E+00  0.00000000000E+00  0.74138212595E+02  0.74138212595E+02  0.00000000000E+00 0. -1.
         -2   -1    0    0    0  501 -0.00000000000E+00 -0.00000000000E+00 -0.47197818176E+03  0.47197818176E+03  0.00000000000E+00 0.  1.
        -24    2    1    2    0    0  0.17088110575E+02 -0.87126336382E+02 -0.26502536432E+03  0.29019799288E+03  0.78060421014E+02 0.  0.
         23    2    1    2    0    0 -0.33071414810E+02  0.10261871218E+03 -0.21996365260E+02  0.14288671588E+03  0.91150726401E+02 0.  0.
         13    1    3    3    0    0  0.72400885517E+01 -0.34577816864E+02 -0.22578902428E+02  0.41926735339E+02  0.00000000000E+00 0. -1.
        -14    1    3    3    0    0  0.98480220237E+01 -0.52548519518E+02 -0.24244646189E+03  0.24827125755E+03  0.00000000000E+00 0.  1.
        -11    1    4    4    0    0  0.31222955244E+02  0.45453847749E+02 -0.79278763771E+01  0.55711546677E+02  0.00000000000E+00 0.  1.
         11    1    4    4    0    0 -0.64294370054E+02  0.57164864430E+02 -0.14068488883E+02  0.87175169202E+02  0.00000000000E+00 0. -1.
         -1    1    1    2    0  502  0.15983304235E+02 -0.15492375796E+02 -0.11081823959E+03  0.11303168559E+03  0.00000000000E+00 0.  1.
<scales pt_clust_5="13000.00000" pt_clust_6="13000.00000" pt_clust_7="13000.00000" pt_clust_8="13000.00000" pt_clust_9="22.25938"></scales>
<clustering>
<clus scale="   22.259">  1  9  2 -1</clus>
<clus scale="   78.060">  5  6 -1 -1</clus>
<clus scale="   91.151">  7  8 -1 -1</clus>
<clus scale="  120.626">  2  5  1 -1</clus>
<clus scale="   22.259">  1  5  2 -1</clus>
</clustering>
</event>
<event>
 9    1  0.6345107E-005  0.1010034E+03  0.7546771E-02  0.1289769E+00
         -4   -1    0    0    0  501 -0.00000000000E+00  0.00000000000E+00  0.26164662007E+03  0.26164662007E+03  0.00000000000E+00 0.  1.
         21   -1    0    0  501  502  0.00000000000E+00 -0.00000000000E+00 -0.70896125339E+02  0.70896125339E+02  0.00000000000E+00 0. -1.
        -24    2    1    2    0    0  0.40188770890E+02  0.45909836673E+01  0.16183585016E+03  0.18082707477E+03  0.69795230021E+02 0.  0.
         23    2    1    2    0    0 -0.47463368897E+02  0.33530823936E+02  0.12713417393E+02  0.10966009131E+03  0.92122837037E+02 0.  0.
         13    1    3    3    0    0  0.17829029206E+02 -0.32155408337E+02  0.88055582445E+02  0.95423425675E+02  0.00000000000E+00 0. -1.
        -14    1    3    3    0    0  0.22359741685E+02  0.36746392005E+02  0.73780267719E+02  0.85403649092E+02  0.00000000000E+00 0.  1.
        -13    1    4    4    0    0 -0.36045486236E+02  0.43463416985E+00 -0.35156789479E+02  0.50353409332E+02  0.00000000000E+00 0. -1.
         13    1    4    4    0    0 -0.11417882660E+02  0.33096189766E+02  0.47870206871E+02  0.59306681979E+02  0.00000000000E+00 0.  1.
         -3    1    1    2    0  502  0.72745980065E+01 -0.38121807603E+02  0.16201227179E+02  0.42055579335E+02  0.00000000000E+00 0.  1.
<scales pt_clust_5="13000.00000" pt_clust_6="13000.00000" pt_clust_7="13000.00000" pt_clust_8="13000.00000" pt_clust_9="38.80969"></scales>
<clustering>
<clus scale="   38.810">  2  9  1 -1</clus>
<clus scale="   69.795">  5  6 -1 -1</clus>
<clus scale="   81.157">  1  5  2 -1</clus>
<clus scale="   92.123">  7  8 -1 -1</clus>
<clus scale="   38.810">  2  5  1 -1</clus>
</clustering>
</event>
<event>
 9    1  0.6345107E-005  0.1119839E+03  0.7546771E-02  0.1257077E+00
          1   -1    0    0  502    0 -0.00000000000E+00  0.00000000000E+00  0.16388336141E+03  0.16388336141E+03  0.00000000000E+00 0. -1.
         21   -1    0    0  501  502  0.00000000000E+00 -0.00000000000E+00 -0.26123657338E+03  0.26123657338E+03  0.00000000000E+00 0. -1.
         23    2    1    2    0    0  0.58491127705E+02 -0.53210102726E+02  0.81402237437E+02  0.14552297460E+03  0.91093824295E+02 0.  0.
        -24    2    1    2    0    0  0.98181994951E+01 -0.61691244968E+01 -0.16416069559E+03  0.18791782600E+03  0.90718907691E+02 0.  0.
         13    1    4    4    0    0 -0.19006182425E+02 -0.40169786342E+02 -0.60389651209E+02  0.74978374738E+02  0.00000000000E+00 0. -1.
        -14    1    4    4    0    0  0.28824381921E+02  0.34000661845E+02 -0.10377104438E+03  0.11293945126E+03  0.00000000000E+00 0.  1.
        -13    1    3    3    0    0  0.71494739042E+02 -0.69175675198E+02  0.61937301942E+02  0.11718788812E+03  0.00000000000E+00 0. -1.
         13    1    3    3    0    0 -0.13003611337E+02  0.15965572472E+02  0.19464935495E+02  0.28335086483E+02  0.00000000000E+00 0.  1.
          2    1    1    2  501    0 -0.68309327200E+02  0.59379227223E+02 -0.14594753822E+02  0.91679134198E+02  0.00000000000E+00 0. -1.
<scales pt_clust_5="13000.00000" pt_clust_6="13000.00000" pt_clust_7="13000.00000" pt_clust_8="13000.00000" pt_clust_9="90.51003"></scales>
<clustering>
<clus scale="   90.510">  2  9  1 -1</clus>
<clus scale="   90.719">  5  6 -1 -1</clus>
<clus scale="   91.094">  7  8 -1 -1</clus>
<clus scale="  111.679">  2  5  1 -1</clus>
<clus scale="   90.510">  2  5  1 -1</clus>
</clustering>
</event>
<event>
 9    1  0.6345107E-005  0.1287053E+03  0.7546771E-02  0.1241843E+00
         21   -1    0    0  501  502  0.00000000000E+00  0.00000000000E+00  0.24186397603E+03  0.24186397603E+03  0.00000000000E+00 0. -1.
          3   -1    0    0  502    0 -0.00000000000E+00 -0.00000000000E+00 -0.13657210806E+03  0.13657210806E+03  0.00000000000E+00 0. -1.
         23    2    1    2    0    0  0.58549967509E+02 -0.30965084124E+02 -0.53585368205E+02  0.14136386251E+03  0.11280698032E+03 0.  0.
        -24    2    1    2    0    0 -0.22326701124E+02  0.48724975655E+02  0.17051003068E+03  0.19508578707E+03  0.78180489369E+02 0.  0.
         11    1    4    4    0    0 -0.35286897003E+02  0.58021182622E+02  0.88568581313E+02  0.11160652458E+03  0.00000000000E+00 0. -1.
        -12    1    4    4    0    0  0.12960195879E+02 -0.92962069674E+01  0.81941449371E+02  0.83479262492E+02  0.00000000000E+00 0.  1.
        -13    1    3    3    0    0  0.56229876758E+02 -0.53311321801E+02 -0.76772777322E+02  0.10907774938E+03  0.00000000000E+00 0. -1.
         13    1    3    3    0    0  0.23200907517E+01  0.22346237677E+02  0.23187409117E+02  0.32286113129E+02  0.00000000000E+00 0.  1.
          4    1    1    2  501    0 -0.36223266386E+02 -0.17759891531E+02 -0.11632794503E+02  0.41986434509E+02  0.00000000000E+00 0. -1.
<scales pt_clust_5="13000.00000" pt_clust_6="13000.00000" pt_clust_7="13000.00000" pt_clust_8="13000.00000" pt_clust_9="40.34279"></scales>
<clustering>
<clus scale="   40.343">  1  9  2 -1</clus>
<clus scale="   78.180">  5  6 -1 -1</clus>
<clus scale="   99.759">  1  5  2 -1</clus>
<clus scale="  112.807">  7  8 -1 -1</clus>
<clus scale="   40.343">  1  5  2 -1</clus>
</clustering>
</event>
<event>
 9    1  0.6345107E-005  0.3649103E+03  0.7546771E-02  0.1086855E+00
          1   -1    0    0  502    0 -0.00000000000E+00  0.00000000000E+00  0.18475388220E+04  0.18475388220E+04  0.00000000000E+00 0. -1.
         21   -1    0    0  501  502  0.00000000000E+00 -0.00000000000E+00 -0.14978934504E+03  0.14978934504E+03  0.00000000000E+00 0. -1.
        -24    2    1    2    0    0 -0.13690401469E+03 -0.22835433623E+02  0.90188218416E+03  0.91590934114E+03  0.78957461992E+02 0.  0.
         23    2    1    2    0    0 -0.26724214444E+03  0.10841833680E+03  0.45200949116E+03  0.54392767340E+03  0.91497728266E+02 0.  0.
         11    1    3    3    0    0 -0.10497098815E+03  0.19055188547E+02  0.63051545730E+03  0.63947771694E+03  0.00000000000E+00 0. -1.
        -12    1    3    3    0    0 -0.31933026537E+02 -0.41890622170E+02  0.27136672686E+03  0.27643162420E+03  0.00000000000E+00 0.  1.
        -13    1    4    4    0    0 -0.47268829049E+02  0.61548646425E+02  0.11179450215E+03  0.13609036993E+03  0.00000000000E+00 0.  1.
         13    1    4    4    0    0 -0.21997331539E+03  0.46869690379E+02  0.34021498900E+03  0.40783730347E+03  0.00000000000E+00 0. -1.
          2    1    1    2  501    0  0.40414615913E+03 -0.85582903181E+02  0.34385780164E+03  0.53749115249E+03  0.00000000000E+00 0. -1.
<scales pt_clust_5="13000.00000" pt_clust_6="13000.00000" pt_clust_7="13000.00000" pt_clust_8="13000.00000" pt_clust_9="353.25297"></scales>
<clustering>
<clus scale="   78.957">  5  6 -1 -1</clus>
<clus scale="   91.498">  7  8 -1 -1</clus>
<clus scale="  159.682">  1  5  2 -1</clus>
<clus scale="  353.253">  2  9  1 -1</clus>
<clus scale="  353.253">  2  5  1 -1</clus>
</clustering>
</event>
<event>
 9    1  0.6345107E-005  0.2212384E+03  0.7546771E-02  0.1133811E+00
          1   -1    0    0  502    0 -0.00000000000E+00  0.00000000000E+00  0.42979243208E+03  0.42979243208E+03  0.00000000000E+00 0. -1.
         21   -1    0    0  501  502  0.00000000000E+00 -0.00000000000E+00 -0.43743365497E+03  0.43743365497E+03  0.00000000000E+00 0.  1.
        -24    2    1    2    0    0  0.55961417997E+02  0.19297668148E+03  0.35779992975E+03  0.41760941086E+03  0.77492905538E+02 0.  0.
         23    2    1    2    0    0 -0.67622881975E+02 -0.21060495645E+03 -0.34940732457E+03  0.42308689174E+03  0.89385332407E+02 0.  0.
         13    1    3    3    0    0  0.60841369012E+02  0.19838018393E+03  0.33918807194E+03  0.39762409095E+03  0.00000000000E+00 0. -1.
        -14    1    3    3    0    0 -0.48799510157E+01 -0.54035024480E+01  0.18611857810E+02  0.19985319906E+02  0.00000000000E+00 0.  1.
        -13    1    4    4    0    0 -0.10321300285E+02 -0.12556137992E+03 -0.25157692961E+03  0.28135945137E+03  0.00000000000E+00 0.  1.
         13    1    4    4    0    0 -0.57301581690E+02 -0.85043576536E+02 -0.97830394960E+02  0.14172744036E+03  0.00000000000E+00 0. -1.
          2    1    1    2  501    0  0.11661463978E+02  0.17628274972E+02 -0.16033828076E+02  0.26529784458E+02  0.00000000000E+00 0. -1.
<scales pt_clust_5="13000.00000" pt_clust_6="13000.00000" pt_clust_7="13000.00000" pt_clust_8="13000.00000" pt_clust_9="21.13636"></scales>
<clustering>
<clus scale="   21.136">  2  9  1 -1</clus>
<clus scale="   77.493">  5  6 -1 -1</clus>
<clus scale="   89.385">  7  8 -1 -1</clus>
<clus scale="  216.707">  1  5  2 -1</clus>
<clus scale="   21.136">  2  5  1 -1</clus>
</clustering>
</event>
<event>
 9    1  0.6345107E-005  0.2091013E+03  0.7546771E-02  0.1152776E+00
         -4   -1    0    0    0  501 -0.00000000000E+00  0.00000000000E+00  0.24806264194E+03  0.24806264194E+03  0.00000000000E+00 0.  1.
         21   -1    0    0  501  502  0.00000000000E+00 -0.00000000000E+00 -0.38232591302E+03  0.38232591302E+03  0.00000000000E+00 0.  1.
         23    2    1    2    0    0 -0.28266500078E+02 -0.12412391110E+03  0.46484304824E+02  0.16938228901E+03  0.10160624441E+03 0.  0.
        -24    2    1    2    0    0 -0.15496499353E+03  0.15686235571E+03 -0.13347345574E+03  0.26896348831E+03  0.76852109928E+02 0.  0.
         11    1    4    4    0    0 -0.19487274756E+02  0.18972462778E+02 -0.53006555800E+02  0.59576867818E+02  0.00000000000E+00 0. -1.
        -12    1    4    4    0    0 -0.13547771877E+03  0.13788989293E+03 -0.80466899942E+02  0.20938662049E+03  0.00000000000E+00 0.  1.
        -13    1    3    3    0    0 -0.53815842180E+02 -0.11801960315E+03  0.56217041003E+02  0.14136876351E+03  0.00000000000E+00 0.  1.
         13    1    3    3    0    0  0.25549342103E+02 -0.61043079418E+01 -0.97327361783E+01  0.28013525498E+02  0.00000000000E+00 0. -1.
         -3    1    1    2    0  502  0.18323149360E+03 -0.32738444613E+02 -0.47274120162E+02  0.19204277763E+03  0.00000000000E+00 0.  1.
<scales pt_clust_5="13000.00000" pt_clust_6="13000.00000" pt_clust_7="13000.00000" pt_clust_8="13000.00000" pt_clust_9="194.46629"></scales>
<clustering>
<clus scale="   76.852">  5  6 -1 -1</clus>
<clus scale="  101.606">  7  8 -1 -1</clus>
<clus scale="  162.879">  1  7  2 -1</clus>
<clus scale="  194.466">  2  9  1 -1</clus>
<clus scale="  194.466">  2  5  1 -1</clus>
</clustering>
</event>
<event>
 9    1  0.6345107E-005  0.1770532E+03  0.7546771E-02  0.1172615E+00
          1   -1    0    0  502    0 -0.00000000000E+00  0.00000000000E+00  0.15302162678E+04  0.15302162678E+04  0.00000000000E+00 0. -1.
         21   -1    0    0  501  502  0.00000000000E+00 -0.00000000000E+00 -0.32183010595E+02  0.32183010595E+02  0.00000000000E+00 0.  1.
        -24    2    1    2    0    0 -0.14094989961E+03 -0.83300545666E+02  0.10735656493E+04  0.10885320804E+04  0.74518666411E+02 0.  0.
         23    2    1    2    0    0  0.87361387972E+02  0.89160896738E+02  0.27965208905E+03  0.31934339141E+03  0.90516479769E+02 0.  0.
         13    1    3    3    0    0 -0.60684731086E+02 -0.78340357697E+02  0.55758900176E+03  0.56632618084E+03  0.00000000000E+00 0. -1.
        -14    1    3    3    0    0 -0.80265168523E+02 -0.49601879683E+01  0.51597664754E+03  0.52220589957E+03  0.00000000000E+00 0.  1.
        -11    1    4    4    0    0  0.76354896843E+01  0.46677292774E+02  0.35869618910E+02  0.59360760811E+02  0.00000000000E+00 0.  1.
         11    1    4    4    0    0  0.79725898288E+02  0.42483603965E+02  0.24378247014E+03  0.25998263060E+03  0.00000000000E+00 0. -1.
          2    1    1    2  501    0  0.53588511637E+02 -0.58603510723E+01  0.14481551884E+03  0.15452380655E+03  0.00000000000E+00 0. -1.
<scales pt_clust_5="13000.00000" pt_clust_6="13000.00000" pt_clust_7="13000.00000" pt_clust_8="13000.00000" pt_clust_9="53.90800"></scales>
<clustering>
<clus scale="   53.908">  2  9  1 -1</clus>
<clus scale="   74.519">  5  6 -1 -1</clus>
<clus scale="   90.516">  7  8 -1 -1</clus>
<clus scale="  169.433">  1  5  2 -1</clus>
<clus scale="   53.908">  2  5  1 -1</clus>
</clustering>
</event>
<event>
 9    1  0.6345107E-005  0.1215337E+03  0.7546771E-02  0.1244063E+00
         21   -1    0    0  501  502  0.00000000000E+00  0.00000000000E+00  0.33343990941E+02  0.33343990941E+02  0.00000000000E+00 0.  1.
          1   -1    0    0  502    0 -0.00000000000E+00 -0.00000000000E+00 -0.62967735506E+03  0.62967735506E+03  0.00000000000E+00 0. -1.
         23    2    1    2    0    0 -0.67611999549E+02  0.19906038001E+02 -0.23387860604E+03  0.26084846296E+03  0.91515492860E+02 0.  0.
        -24    2    1    2    0    0  0.92218389796E+02  0.22745620963E+02 -0.27516760822E+03  0.30195469615E+03  0.80236096760E+02 0.  0.
         13    1    4    4    0    0  0.10018896749E+03  0.37378064510E+02 -0.24818380957E+03  0.27024091519E+03  0.00000000000E+00 0. -1.
        -14    1    4    4    0    0 -0.79705776902E+01 -0.14632443547E+02 -0.26983798653E+02  0.31713780957E+02  0.00000000000E+00 0.  1.
        -11    1    3    3    0    0 -0.14361080981E+02 -0.20855071721E+02 -0.10140428790E+02  0.27276417644E+02  0.00000000000E+00 0. -1.
         11    1    3    3    0    0 -0.53250918567E+02  0.40761109722E+02 -0.22373817725E+03  0.23357204532E+03  0.00000000000E+00 0.  1.
          2    1    1    2  501    0 -0.24606390247E+02 -0.42651658965E+02 -0.87287149852E+02  0.10021818689E+03  0.00000000000E+00 0. -1.
<scales pt_clust_5="13000.00000" pt_clust_6="13000.00000" pt_clust_7="13000.00000" pt_clust_8="13000.00000" pt_clust_9="49.24062"></scales>
<clustering>
<clus scale="   49.241">  1  9  2 -1</clus>
<clus scale="   80.236">  5  6 -1 -1</clus>
<clus scale="   91.515">  7  8 -1 -1</clus>
<clus scale="  113.284">  1  5  2 -1</clus>
<clus scale="   49.241">  1  5  2 -1</clus>
</clustering>
</event>
<event>
 9    1  0.6345107E-005  0.1080948E+03  0.7546771E-02  0.1268377E+00
         -2   -1    0    0    0  501 -0.00000000000E+00  0.00000000000E+00  0.24918930279E+03  0.24918930279E+03  0.00000000000E+00 0.  1.
         21   -1    0    0  501  502  0.00000000000E+00 -0.00000000000E+00 -0.23296306402E+03  0.23296306402E+03  0.00000000000E+00 0. -1.
         23    2    1    2    0    0  0.56222785775E+02  0.23246800211E+01  0.21268258640E+03  0.23858319185E+03  0.92312789471E+02 0.  0.
        -24    2    1    2    0    0 -0.56384087111E+02  0.25077109117E+02 -0.10025714578E+03  0.14354332579E+03  0.82128949932E+02 0.  0.
         13    1    4    4    0    0 -0.35980415214E+02  0.19973708264E+02 -0.11209372261E+03  0.11940913679E+03  0.00000000000E+00 0. -1.
        -14    1    4    4    0    0 -0.20403671897E+02  0.51034008534E+01  0.11836576834E+02  0.24134188992E+02  0.00000000000E+00 0.  1.
        -13    1    3    3    0    0  0.19972996070E+02  0.24095117806E+02  0.12039345087E+02  0.33532687101E+02  0.00000000000E+00 0. -1.
         13    1    3    3    0    0  0.36249789705E+02 -0.21770437785E+02  0.20064324131E+03  0.20505050475E+03  0.00000000000E+00 0.  1.
         -1    1    1    2    0  502  0.16130133591E+00 -0.27401789138E+02 -0.96199201850E+02  0.10002584917E+03  0.00000000000E+00 0.  1.
<scales pt_clust_5="13000.00000" pt_clust_6="13000.00000" pt_clust_7="13000.00000" pt_clust_8="13000.00000" pt_clust_9="27.40226"></scales>
<clustering>
<clus scale="   27.402">  2  9  1 -1</clus>
<clus scale="   82.129">  5  6 -1 -1</clus>
<clus scale="   92.313">  7  8 -1 -1</clus>
<clus scale="   99.539">  2  5  1 -1</clus>
<clus scale="   27.402">  2  5  1 -1</clus>
</clustering>
</event>
<event>
 9    1  0.6345107E-005  0.1466240E+03  0.7546771E-02  0.1206978E+00
         -2   -1    0    0    0  501 -0.00000000000E+00  0.00000000000E+00  0.99195782181E+02  0.99195782181E+02  0.00000000000E+00 0.  1.
         21   -1    0    0  501  502  0.00000000000E+00 -0.00000000000E+00 -0.40357188885E+03  0.40357188885E+03  0.00000000000E+00 0.  1.
         23    2    1    2    0    0 -0.10371938631E+03  0.46429325736E+02 -0.37711067236E+02  0.15111061981E+03  0.92189486623E+02 0.  0.
        -24    2    1    2    0    0  0.78052872756E+02 -0.98112274887E+02 -0.25095880155E+03  0.29185251076E+03  0.80494090040E+02 0.  0.
         11    1    4    4    0    0  0.81691659288E+01 -0.71027608513E+02 -0.14946482482E+03  0.16568461094E+03  0.00000000000E+00 0. -1.
        -12    1    4    4    0    0  0.69883706828E+02 -0.27084666373E+02 -0.10149397673E+03  0.12616789982E+03  0.00000000000E+00 0.  1.
        -13    1    3    3    0    0 -0.79864891594E+02  0.45040829574E+02 -0.66816749792E+02  0.11345287696E+03  0.00000000000E+00 0.  1.
         13    1    3    3    0    0 -0.23854494712E+02  0.13884961618E+01  0.29105682556E+02  0.37657742851E+02  0.00000000000E+00 0. -1.
         -1    1    1    2    0  502  0.25666513550E+02  0.51682949150E+02 -0.15706237875E+02  0.59804540454E+02  0.00000000000E+00 0.  1.
<scales pt_clust_5="13000.00000" pt_clust_6="13000.00000" pt_clust_7="13000.00000" pt_clust_8="13000.00000" pt_clust_9="57.70529"></scales>
<clustering>
<clus scale="   57.705">  2  9  1 -1</clus>
<clus scale="   80.494">  5  6 -1 -1</clus>
<clus scale="   92.189">  7  8 -1 -1</clus>
<clus scale="  139.567">  2  5  1 -1</clus>
<clus scale="   57.705">  2  5  1 -1</clus>
</clustering>
</event>
<event>
 9    1  0.6345107E-005  0.1003017E+03  0.7546771E-02  0.1284015E+00
         21   -1    0    0  501  502  0.00000000000E+00  0.00000000000E+00  0.27379129694E+03  0.27379129694E+03  0.00000000000E+00 0.  1.
          3   -1    0    0  502    0 -0.00000000000E+00 -0.00000000000E+00 -0.17027830998E+03  0.17027830998E+03  0.00000000000E+00 0. -1.
        -24    2    1    2    0    0 -0.57392181031E+01 -0.65884776673E+02  0.31465888261E+02  0.10981211600E+03  0.81822101379E+02 0.  0.
         23    2    1    2    0    0 -0.25632956178E+02 -0.18305678328E+02  0.17377397840E+03  0.19853496484E+03  0.90700553433E+02 0.  0.
         11    1    3    3    0    0  0.25300532572E+02 -0.67421797715E+02  0.11635630293E+02  0.72946580782E+02  0.00000000000E+00 0. -1.
        -12    1    3    3    0    0 -0.31039750675E+02  0.15370210419E+01  0.19830257968E+02  0.36865535215E+02  0.00000000000E+00 0.  1.
        -11    1    4    4    0    0  0.23188540256E+02 -0.37015416797E+02  0.82343495983E+02  0.93211055195E+02  0.00000000000E+00 0.  1.
         11    1    4    4    0    0 -0.48821496434E+02  0.18709738469E+02  0.91430482418E+02  0.10532390965E+03  0.00000000000E+00 0. -1.
          4    1    1    2  501    0  0.31372174281E+02  0.84190455001E+02 -0.10172687971E+03  0.13572252609E+03  0.00000000000E+00 0. -1.
<scales pt_clust_5="13000.00000" pt_clust_6="13000.00000" pt_clust_7="13000.00000" pt_clust_8="13000.00000" pt_clust_9="89.84572"></scales>
<clustering>
<clus scale="   81.822">  5  6 -1 -1</clus>
<clus scale="   89.846">  1  9  2 -1</clus>
<clus scale="   90.701">  7  8 -1 -1</clus>
<clus scale="   92.351">  2  5  1 -1</clus>
<clus scale="   89.846">  1  5  2 -1</clus>
</clustering>
</event>
<event>
 9    1  0.6345107E-005  0.1100027E+03  0.7546771E-02  0.1263928E+00
         -2   -1    0    0    0  501 -0.00000000000E+00  0.00000000000E+00  0.10691585208E+03  0.10691585208E+03  0.00000000000E+00 0.  1.
         21   -1    0    0  501  502  0.00000000000E+00 -0.00000000000E+00 -0.52083298394E+03  0.52083298394E+03  0.00000000000E+00 0.  1.
         23    2    1    2    0    0 -0.48142526091E+02 -0.35999538631E+02  0.52813555620E+02  0.12183553955E+03  0.91874683345E+02 0.  0.
        -24    2    1    2    0    0  0.76459760323E+02  0.54101948605E+01 -0.44444888023E+03  0.45864753041E+03  0.83350973949E+02 0.  0.
         11    1    4    4    0    0  0.57463107427E+02 -0.53026097026E+01 -0.11684362960E+03  0.13031715222E+03  0.00000000000E+00 0. -1.
        -12    1    4    4    0    0  0.18996652896E+02  0.10712804563E+02 -0.32760525063E+03  0.32833037819E+03  0.00000000000E+00 0.  1.
        -11    1    3    3    0    0 -0.37795193791E+02  0.17137515374E+02 -0.59655196973E+01  0.41925630969E+02  0.00000000000E+00 0. -1.
         11    1    3    3    0    0 -0.10347332300E+02 -0.53137054005E+02  0.58779075317E+02  0.79909908580E+02  0.00000000000E+00 0.  1.
         -1    1    1    2    0  502 -0.28317234232E+02  0.30589343771E+02 -0.22281807255E+02  0.47265766062E+02  0.00000000000E+00 0.  1.
<scales pt_clust_5="13000.00000" pt_clust_6="13000.00000" pt_clust_7="13000.00000" pt_clust_8="13000.00000" pt_clust_9="41.68423"></scales>
<clustering>
<clus scale="   41.684">  2  9  1 -1</clus>
<clus scale="   83.351">  5  6 -1 -1</clus>
<clus scale="   91.875">  7  8 -1 -1</clus>
<clus scale="  102.990">  2  5  1 -1</clus>
<clus scale="   41.684">  2  5  1 -1</clus>
</clustering>
</event>
<event>
 9    1  0.6345107E-005  0.3490247E+03  0.7546771E-02  0.1089024E+00
         21   -1    0    0  501  502  0.00000000000E+00  0.00000000000E+00  0.18645731071E+03  0.18645731071E+03  0.00000000000E+00 0.  1.
          1   -1    0    0  502    0 -0.00000000000E+00 -0.00000000000E+00 -0.15204466058E+04  0.15204466058E+04  0.00000000000E+00 0. -1.
        -24    2    1    2    0    0  0.13572897592E+03  0.68265381989E+02 -0.79941668687E+03  0.81777073699E+03  0.81236825079E+02 0.  0.
         23    2    1    2    0    0 -0.18111286489E+03  0.28301752436E+03 -0.20390010027E+03  0.40456771934E+03  0.95911416010E+02 0.  0.
         13    1    3    3    0    0  0.11938226115E+03  0.26591675674E+02 -0.48504345193E+03  0.50022634052E+03  0.00000000000E+00 0. -1.
        -14    1    3    3    0    0  0.16346714773E+02  0.41673706315E+02 -0.31437323494E+03  0.31754439647E+03  0.00000000000E+00 0.  1.
        -13    1    4    4    0    0 -0.42428294345E+02  0.15494327494E+03 -0.92741990142E+02  0.18549570169E+03  0.00000000000E+00 0.  1.
         13    1    4    4    0    0 -0.13868457054E+03  0.12807424942E+03 -0.11115811013E+03  0.21907201765E+03  0.00000000000E+00 0. -1.
          2    1    1    2  501    0  0.45383888967E+02 -0.35128290635E+03 -0.33067250792E+03  0.48456546014E+03  0.00000000000E+00 0. -1.
<scales pt_clust_5="13000.00000" pt_clust_6="13000.00000" pt_clust_7="13000.00000" pt_clust_8="13000.00000" pt_clust_9="335.58802"></scales>
<clustering>
<clus scale="   81.237">  5  6 -1 -1</clus>
<clus scale="   95.911">  7  8 -1 -1</clus>
<clus scale="  172.284">  2  5  1 -1</clus>
<clus scale="  335.588">  1  9  2 -1</clus>
<clus scale="  335.588">  1  5  2 -1</clus>
</clustering>
</event>
<event>
 9    1  0.6345107E-005  0.1207869E+03  0.7546771E-02  0.1244893E+00
         21   -1    0    0  501  502  0.00000000000E+00  0.00000000000E+00  0.12291453698E+03  0.12291453698E+03  0.00000000000E+00 0.  1.
          3   -1    0    0  502    0 -0.00000000000E+00 -0.00000000000E+00 -0.27262508273E+03  0.27262508273E+03  0.00000000000E+00 0. -1.
         23    2    1    2    0    0 -0.71303477723E+02  0.28549071840E+01 -0.98834109913E+02  0.15202635144E+03  0.90837733455E+02 0.  0.
        -24    2    1    2    0    0  0.78349506974E+02  0.84152429408E+02 -0.65364648305E+02  0.15502693346E+03  0.80873581782E+02 0.  0.
         13    1    4    4    0    0  0.35085004784E+02  0.51651141607E+02 -0.77546469785E+02  0.99560298141E+02  0.00000000000E+00 0. -1.
        -14    1    4    4    0    0  0.43264502190E+02  0.32501287802E+02  0.12181821480E+02  0.55466635314E+02  0.00000000000E+00 0.  1.
        -11    1    3    3    0    0  0.14380113565E+02 -0.19582245689E+02 -0.35994861850E+02  0.43426743972E+02  0.00000000000E+00 0. -1.
         11    1    3    3    0    0 -0.85683591288E+02  0.22437152873E+02 -0.62839248063E+02  0.10859960747E+03  0.00000000000E+00 0.  1.
          4    1    1    2  501    0 -0.70460292505E+01 -0.87007336592E+02  0.14488212473E+02  0.88486334819E+02  0.00000000000E+00 0. -1.
<scales pt_clust_5="13000.00000" pt_clust_6="13000.00000" pt_clust_7="13000.00000" pt_clust_8="13000.00000" pt_clust_9="87.29217"></scales>
<clustering>
<clus scale="   80.874">  5  6 -1 -1</clus>
<clus scale="   87.292">  1  9  2 -1</clus>
<clus scale="   90.838">  7  8 -1 -1</clus>
<clus scale="  113.484">  1  5  2 -1</clus>
<clus scale="   87.292">  1  5  2 -1</clus>
</clustering>
</event>
<event>
 9    1  0.7900605E-005  0.1087163E+03  0.7546771E-02  0.1268002E+00
          1   -1    0    0  502    0 -0.00000000000E+00  0.00000000000E+00  0.52500642933E+03  0.52500642933E+03  0.00000000000E+00 0. -1.
         21   -1    0    0  501  502  0.00000000000E+00 -0.00000000000E+00 -0.93126217460E+02  0.93126217460E+02  0.00000000000E+00 0. -1.
        -24    2    1    2    0    0  0.56492615377E+02 -0.16262336282E+02  0.47442182570E+03  0.48472348342E+03  0.80155520741E+02 0.  0.
         23    2    1    2    0    0 -0.32021177700E+02  0.24189343161E+02 -0.34792191436E+02  0.10654390239E+03  0.92361390248E+02 0.  0.
         13    1    3    3    0    0  0.52564693167E+02 -0.43935463789E+02  0.38457859403E+03  0.39063290560E+03  0.00000000000E+00 0. -1.
        -14    1    3    3    0    0  0.39279222095E+01  0.27673127507E+02  0.89843231667E+02  0.94090577824E+02  0.00000000000E+00 0.  1.
        -11    1    4    4    0    0 -0.11954967084E+02  0.30920777546E+02 -0.63052544609E+02  0.71236501203E+02  0.00000000000E+00 0. -1.
         11    1    4    4    0    0 -0.20066210616E+02 -0.67314343852E+01  0.28260353173E+02  0.35307401191E+02  0.00000000000E+00 0.  1.
          2    1    1    2  501    0 -0.24471437677E+02 -0.79270068791E+01 -0.77494223912E+01  0.26865260978E+02  0.00000000000E+00 0. -1.
<scales pt_clust_5="13000.00000" pt_clust_6="13000.00000" pt_clust_7="13000.00000" pt_clust_8="13000.00000" pt_clust_9="25.72331"></scales>
<clustering>
<clus scale="   25.723">  2  9  1 -1</clus>
<clus scale="   80.156">  5  6 -1 -1</clus>
<clus scale="   92.361">  7  8 -1 -1</clus>
<clus scale="   98.557">  1  5  2 -1</clus>
<clus scale="   25.723">  2  5  1 -1</clus>
</clustering>
</event>
<event>
 9    1  0.6345107E-005  0.1548894E+03  0.7546771E-02  0.1196326E+00
         21   -1    0    0  501  502  0.00000000000E+00  0.00000000000E+00  0.87073604464E+02  0.87073604464E+02  0.00000000000E+00 0. -1.
          1   -1    0    0  502    0 -0.00000000000E+00 -0.00000000000E+00 -0.51152801679E+03  0.51152801679E+03  0.00000000000E+00 0. -1.
         23    2    1    2    0    0 -0.47107257601E+02 -0.11926507553E+03 -0.34772920484E+03  0.38164085611E+03  0.91054330983E+02 0.  0.
        -24    2    1    2    0    0 -0.65647709591E+01  0.12463797880E+03 -0.51076100097E+02  0.15723278636E+03  0.80843423542E+02 0.  0.
         11    1    4    4    0    0 -0.25241749260E+02  0.86221817663E+02  0.10415681918E+01  0.89846717308E+02  0.00000000000E+00 0. -1.
        -12    1    4    4    0    0  0.18676978301E+02  0.38416161135E+02 -0.52117668289E+02  0.67386069055E+02  0.00000000000E+00 0.  1.
        -13    1    3    3    0    0  0.97885042744E+01 -0.35989970452E+02 -0.28735442826E+02  0.47083101676E+02  0.00000000000E+00 0.  1.
         13    1    3    3    0    0 -0.56895761876E+02 -0.83275105081E+02 -0.31899376202E+03  0.33455775443E+03  0.00000000000E+00 0. -1.
          2    1    1    2  501    0  0.53672028560E+02 -0.53729032653E+01 -0.25649107383E+02  0.59727978777E+02  0.00000000000E+00 0. -1.
<scales pt_clust_5="13000.00000" pt_clust_6="13000.00000" pt_clust_7="13000.00000" pt_clust_8="13000.00000" pt_clust_9="53.94029"></scales>
<clustering>
<clus scale="   53.940">  1  9  2 -1</clus>
<clus scale="   80.843">  5  6 -1 -1</clus>
<clus scale="   91.054">  7  8 -1 -1</clus>
<clus scale="  149.116">  1  5  2 -1</clus>
<clus scale="   53.940">  1  5  2 -1</clus>
</clustering>
</event>
<event>
 9    1  0.6345107E-005  0.1071632E+03  0.7546771E-02  0.1274423E+00
         21   -1    0    0  501  502  0.00000000000E+00  0.00000000000E+00  0.15343032536E+03  0.15343032536E+03  0.00000000000E+00 0.  1.
         -2   -1    0    0    0  501 -0.00000000000E+00 -0.00000000000E+00 -0.17415230948E+03  0.17415230948E+03  0.00000000000E+00 0.  1.
        -24    2    1    2    0    0  0.58113377530E+02 -0.11292391269E+02 -0.14941117166E+02  0.93880221677E+02  0.71313226623E+02 0.  0.
         23    2    1    2    0    0 -0.51590758236E+02 -0.30608215311E+02  0.81821715669E+02  0.13637606588E+03  0.91132699997E+02 0.  0.
         11    1    3    3    0    0  0.45193999863E+02 -0.26624713218E+02  0.17882066782E+02  0.55417878793E+02  0.00000000000E+00 0. -1.
        -12    1    3    3    0    0  0.12919377667E+02  0.15332321949E+02 -0.32823183947E+02  0.38462342884E+02  0.00000000000E+00 0.  1.
        -11    1    4    4    0    0 -0.60788952176E+02  0.13505342546E+02  0.35178177122E+02  0.71520592346E+02  0.00000000000E+00 0. -1.
         11    1    4    4    0    0  0.91981939396E+01 -0.44113557856E+02  0.46643538548E+02  0.64855473530E+02  0.00000000000E+00 0.  1.
         -1    1    1    2    0  502 -0.65226192941E+01  0.41900606580E+02 -0.87602582619E+02  0.97326347284E+02  0.00000000000E+00 0.  1.
<scales pt_clust_5="13000.00000" pt_clust_6="13000.00000" pt_clust_7="13000.00000" pt_clust_8="13000.00000" pt_clust_9="42.40527"></scales>
<clustering>
<clus scale="   42.405">  1  9  2 -1</clus>
<clus scale="   71.313">  5  6 -1 -1</clus>
<clus scale="   90.909">  2  5  1 -1</clus>
<clus scale="   91.133">  7  8 -1 -1</clus>
<clus scale="   42.405">  1  5  2 -1</clus>
</clustering>
</event>
<event>
 9    1  0.6345107E-005  0.1904243E+03  0.7546771E-02  0.1159008E+00
         21   -1    0    0  501  502  0.00000000000E+00  0.00000000000E+00  0.85795726676E+02  0.85795726676E+02  0.00000000000E+00 0. -1.
         -4   -1    0    0    0  501 -0.00000000000E+00 -0.00000000000E+00 -0.92524306121E+03  0.92524306121E+03  0.00000000000E+00 0.  1.
        -24    2    1    2    0    0  0.45284434464E+02 -0.19709677776E+03 -0.46386186766E+03  0.51240449014E+03  0.80577350676E+02 0.  0.
         23    2    1    2    0    0 -0.10364317241E+03  0.73972535141E+02 -0.84313999901E+02  0.17706876960E+03  0.89613924397E+02 0.  0.
         11    1    3    3    0    0 -0.20932647034E+02 -0.83491420224E+02 -0.19200283367E+03  0.21041407059E+03  0.00000000000E+00 0. -1.
        -12    1    3    3    0    0  0.66217081498E+02 -0.11360535754E+03 -0.27185903398E+03  0.30199041955E+03  0.00000000000E+00 0.  1.
        -13    1    4    4    0    0 -0.11487704925E+03  0.43275036798E+02 -0.62328661811E+02  0.13767471568E+03  0.00000000000E+00 0. -1.
         13    1    4    4    0    0  0.11233876840E+02  0.30697498343E+02 -0.21985338089E+02  0.39394053920E+02  0.00000000000E+00 0.  1.
         -3    1    1    2    0  502  0.58358737947E+02  0.12312424262E+03 -0.29127146697E+03  0.32156552814E+03  0.00000000000E+00 0.  1.
<scales pt_clust_5="13000.00000" pt_clust_6="13000.00000" pt_clust_7="13000.00000" pt_clust_8="13000.00000" pt_clust_9="136.25469"></scales>
<clustering>
<clus scale="   80.577">  5  6 -1 -1</clus>
<clus scale="   89.614">  7  8 -1 -1</clus>
<clus scale="  136.255">  1  9  2 -1</clus>
<clus scale="  186.342">  2  5  1 -1</clus>
<clus scale="  136.255">  1  5  2 -1</clus>
</clustering>
</event>
<event>
 9    1  0.6345107E-005  0.9359766E+02  0.7546771E-02  0.1299097E+00
         -4   -1    0    0    0  501 -0.00000000000E+00  0.00000000000E+00  0.14461909618E+03  0.14461909618E+03  0.00000000000E+00 0.  1.
         21   -1    0    0  501  502  0.00000000000E+00 -0.00000000000E+00 -0.12951435552E+03  0.12951435552E+03  0.00000000000E+00 0.  1.
         23    2    1    2    0    0  0.18517831645E+02 -0.23335901711E+02  0.92297308064E+02  0.13258269394E+03  0.90398579957E+02 0.  0.
        -24    2    1    2    0    0 -0.79930736188E+00  0.99517887494E+01 -0.27774934042E+02  0.87373427913E+02  0.82237412122E+02 0.  0.
         13    1    4    4    0    0 -0.33399624102E+02  0.27742850189E+02 -0.25068184282E+02  0.50135960048E+02  0.00000000000E+00 0. -1.
        -14    1    4    4    0    0  0.32600316740E+02 -0.17791061440E+02 -0.27067497608E+01  0.37237467864E+02  0.00000000000E+00 0.  1.
        -11    1    3    3    0    0  0.33299644778E+02 -0.52151928742E+02  0.51575563278E+02  0.80552645775E+02  0.00000000000E+00 0.  1.
         11    1    3    3    0    0 -0.14781813133E+02  0.28816027031E+02  0.40721744786E+02  0.52030048162E+02  0.00000000000E+00 0. -1.
         -3    1    1    2    0  502 -0.17718524283E+02  0.13384112962E+02 -0.49417633357E+02  0.54177329845E+02  0.00000000000E+00 0.  1.
<scales pt_clust_5="13000.00000" pt_clust_6="13000.00000" pt_clust_7="13000.00000" pt_clust_8="13000.00000" pt_clust_9="22.20542"></scales>
<clustering>
<clus scale="   22.205">  2  9  1 -1</clus>
<clus scale="   82.237">  5  6 -1 -1</clus>
<clus scale="   85.742">  2  5  1 -1</clus>
<clus scale="   90.399">  7  8 -1 -1</clus>
<clus scale="   22.205">  2  5  1 -1</clus>
</clustering>
</event>
<event>
 9    1  0.6345107E-005  0.1377620E+03  0.7546771E-02  0.1218959E+00
         21   -1    0    0  501  502  0.00000000000E+00  0.00000000000E+00  0.24807698561E+03  0.24807698561E+03  0.00000000000E+00 0. -1.
          1   -1    0    0  502    0 -0.00000000000E+00 -0.00000000000E+00 -0.22697239254E+03  0.22697239254E+03  0.00000000000E+00 0. -1.
        -24    2    1    2    0    0 -0.95073822739E+02 -0.55413510679E+02 -0.11209569944E+03  0.17686369476E+03  0.81275037719E+02 0.  0.
         23    2    1    2    0    0  0.10598944212E+03 -0.57076559284E+02  0.58583770156E+02  0.16275750317E+03  0.92555125478E+02 0.  0.
         13    1    3    3    0    0 -0.15850449971E+02 -0.49139326469E+02 -0.69849582160E+02  0.86861235877E+02  0.00000000000E+00 0. -1.
        -14    1    3    3    0    0 -0.79223372769E+02 -0.62741842093E+01 -0.42246117282E+02  0.90002458887E+02  0.00000000000E+00 0.  1.
        -11    1    4    4    0    0  0.42355552336E+02 -0.73966081785E+02  0.41166501341E+02  0.94655453625E+02  0.00000000000E+00 0. -1.
         11    1    4    4    0    0  0.63633889785E+02  0.16889522501E+02  0.17417268815E+02  0.68102049547E+02  0.00000000000E+00 0.  1.
          2    1    1    2  501    0 -0.10915619383E+02  0.11249006996E+03  0.74616522357E+02  0.13542818021E+03  0.00000000000E+00 0. -1.
<scales pt_clust_5="13000.00000" pt_clust_6="13000.00000" pt_clust_7="13000.00000" pt_clust_8="13000.00000" pt_clust_9="113.01843"></scales>
<clustering>
<clus scale="   81.275">  5  6 -1 -1</clus>
<clus scale="   92.555">  7  8 -1 -1</clus>
<clus scale="  113.018">  1  9  2 -1</clus>
<clus scale="  130.451">  2  5  1 -1</clus>
<clus scale="  113.018">  1  5  2 -1</clus>
</clustering>
</event>
<event>
 9    1  0.6345107E-005  0.2231125E+03  0.7546771E-02  0.1144468E+00
         21   -1    0    0  501  502  0.00000000000E+00  0.00000000000E+00  0.10742158857E+03  0.10742158857E+03  0.00000000000E+00 0. -1.
          1   -1    0    0  502    0 -0.00000000000E+00 -0.00000000000E+00 -0.92399601076E+03  0.92399601076E+03  0.00000000000E+00 0. -1.
        -24    2    1    2    0    0 -0.53782430442E+02  0.13119350718E+03 -0.13188159160E+03  0.20992720875E+03  0.81070294306E+02 0.  0.
         23    2    1    2    0    0 -0.13950482361E+03  0.27452448283E+02 -0.43917088687E+03  0.47104848868E+03  0.93810330352E+02 0.  0.
         11    1    3    3    0    0 -0.42327455329E+02  0.12989228703E+03 -0.83325187783E+02  0.16002095683E+03  0.00000000000E+00 0. -1.
        -12    1    3    3    0    0 -0.11454975113E+02  0.13012201440E+01 -0.48556403817E+02  0.49906251917E+02  0.00000000000E+00 0.  1.
        -11    1    4    4    0    0 -0.57070447482E+02  0.57110903840E+02 -0.17493236273E+03  0.19266557254E+03  0.00000000000E+00 0.  1.
         11    1    4    4    0    0 -0.82434376130E+02 -0.29658455557E+02 -0.26423852415E+03  0.27838291614E+03  0.00000000000E+00 0. -1.
          2    1    1    2  501    0  0.19328725405E+03 -0.15864595546E+03 -0.24552194371E+03  0.35044190190E+03  0.00000000000E+00 0. -1.
<scales pt_clust_5="13000.00000" pt_clust_6="13000.00000" pt_clust_7="13000.00000" pt_clust_8="13000.00000" pt_clust_9="202.43218"></scales>
<clustering>
<clus scale="   81.070">  5  6 -1 -1</clus>
<clus scale="   93.810">  7  8 -1 -1</clus>
<clus scale="  163.330">  2  5  1 -1</clus>
<clus scale="  202.432">  1  9  2 -1</clus>
<clus scale="  202.432">  1  5  2 -1</clus>
</clustering>
</event>
<event>
 9    1  0.6345107E-005  0.1812946E+03  0.7546771E-02  0.1167773E+00
         21   -1    0    0  501  502  0.00000000000E+00  0.00000000000E+00  0.82214730727E+03  0.82214730727E+03  0.00000000000E+00 0.  1.
         -4   -1    0    0    0  501 -0.00000000000E+00 -0.00000000000E+00 -0.14604987979E+03  0.14604987979E+03  0.00000000000E+00 0.  1.
        -24    2    1    2    0    0  0.28003476068E+02 -0.15051584339E+03 -0.59463003854E+02  0.18257422207E+03  0.79738848456E+02 0.  0.
         23    2    1    2    0    0 -0.68465500031E+02  0.18171606502E+03  0.48910697552E+03  0.53392883496E+03  0.90255827055E+02 0.  0.
         11    1    3    3    0    0  0.18052241257E+02 -0.43298659638E+02  0.17660974976E+02  0.50125516236E+02  0.00000000000E+00 0. -1.
        -12    1    3    3    0    0  0.99512348112E+01 -0.10721718375E+03 -0.77123978830E+02  0.13244870583E+03  0.00000000000E+00 0.  1.
        -11    1    4    4    0    0 -0.36186172305E+02  0.10672447177E+03  0.16579910637E+03  0.20047168283E+03  0.00000000000E+00 0.  1.
         11    1    4    4    0    0 -0.32279327726E+02  0.74991593248E+02  0.32330786914E+03  0.33345715213E+03  0.00000000000E+00 0. -1.
         -3    1    1    2    0  502  0.40462023963E+02 -0.31200221631E+02  0.24645345582E+03  0.25169413004E+03  0.00000000000E+00 0.  1.
<scales pt_clust_5="13000.00000" pt_clust_6="13000.00000" pt_clust_7="13000.00000" pt_clust_8="13000.00000" pt_clust_9="51.09432"></scales>
<clustering>
<clus scale="   51.094">  1  9  2 -1</clus>
<clus scale="   79.739">  5  6 -1 -1</clus>
<clus scale="   90.256">  7  8 -1 -1</clus>
<clus scale="  176.295">  2  5  1 -1</clus>
<clus scale="   51.094">  1  5  2 -1</clus>
</clustering>
</event>
<event>
 9    1  0.6345107E-005  0.1321472E+03  0.7546771E-02  0.1245171E+00
         -4   -1    0    0    0  501 -0.00000000000E+00  0.00000000000E+00  0.70101797506E+02  0.70101797506E+02  0.00000000000E+00 0.  1.
         21   -1    0    0  501  502  0.00000000000E+00 -0.00000000000E+00 -0.44652306197E+03  0.44652306197E+03  0.00000000000E+00 0.  1.
        -24    2    1    2    0    0 -0.17253236245E+02 -0.24484358014E+02 -0.19478881707E+02  0.88348559266E+02  0.80801504587E+02 0.  0.
         23    2    1    2    0    0  0.75261565370E+02 -0.52240879950E+02 -0.14245484773E+03  0.19320900970E+03  0.92967333110E+02 0.  0.
         13    1    3    3    0    0 -0.16431341081E+02 -0.21647187981E+02 -0.50414025825E+02  0.57272713548E+02  0.00000000000E+00 0. -1.
        -14    1    3    3    0    0 -0.82189516422E+00 -0.28371700325E+01  0.30935144119E+02  0.31075845718E+02  0.00000000000E+00 0.  1.
        -13    1    4    4    0    0  0.14474204681E+02 -0.65211134899E+02 -0.88656928866E+02  0.11100471049E+03  0.00000000000E+00 0.  1.
         13    1    4    4    0    0  0.60787360689E+02  0.12970254949E+02 -0.53797918867E+02  0.82204299203E+02  0.00000000000E+00 0. -1.
         -3    1    1    2    0  502 -0.58008329125E+02  0.76725237964E+02 -0.21448753502E+03  0.23506729051E+03  0.00000000000E+00 0.  1.
<scales pt_clust_5="13000.00000" pt_clust_6="13000.00000" pt_clust_7="13000.00000" pt_clust_8="13000.00000" pt_clust_9="93.91458"></scales>
<clustering>
<clus scale="   80.802">  5  6 -1 -1</clus>
<clus scale="   86.174">  1  5  2 -1</clus>
<clus scale="   92.967">  7  8 -1 -1</clus>
<clus scale="   93.915">  2  9  1 -1</clus>
<clus scale="   93.915">  2  5  1 -1</clus>
</clustering>
</event>
<event>
 9    1  0.6345107E-005  0.9356055E+02  0.7546771E-02  0.1302449E+00
          1   -1    0    0  502    0 -0.00000000000E+00  0.00000000000E+00  0.67245272753E+02  0.67245272753E+02  0.00000000000E+00 0. -1.
         21   -1    0    0  501  502  0.00000000000E+00 -0.00000000000E+00 -0.25784384749E+03  0.25784384749E+03  0.00000000000E+00 0. -1.
         23    2    1    2    0    0 -0.15741354698E+02  0.12672145644E+02 -0.16406761623E+02  0.96377005620E+02  0.92795322417E+02 0.  0.
        -24    2    1    2    0    0  0.14838509699E+01  0.39428424810E+02 -0.13601997401E+03  0.16256957797E+03  0.79816238042E+02 0.  0.
         11    1    4    4    0    0 -0.37767836656E+02  0.24026656092E+02 -0.52370381248E+02  0.68893733537E+02  0.00000000000E+00 0. -1.
        -12    1    4    4    0    0  0.39251687626E+02  0.15401768718E+02 -0.83649592766E+02  0.93675844437E+02  0.00000000000E+00 0.  1.
        -13    1    3    3    0    0 -0.30510609900E+02  0.37464127856E+02  0.17919418989E+02  0.51532162476E+02  0.00000000000E+00 0. -1.
         13    1    3    3    0    0  0.14769255202E+02 -0.24791982212E+02 -0.34326180612E+02  0.44844843145E+02  0.00000000000E+00 0.  1.
          2    1    1    2  501    0  0.14257503728E+02 -0.52100570455E+02 -0.38171839103E+02  0.66142536652E+02  0.00000000000E+00 0. -1.
<scales pt_clust_5="13000.00000" pt_clust_6="13000.00000" pt_clust_7="13000.00000" pt_clust_8="13000.00000" pt_clust_9="54.01619"></scales>
<clustering>
<clus scale="   54.016">  2  9  1 -1</clus>
<clus scale="   79.816">  5  6 -1 -1</clus>
<clus scale="   80.705">  2  5  1 -1</clus>
<clus scale="   92.795">  7  8 -1 -1</clus>
<clus scale="   54.016">  2  5  1 -1</clus>
</clustering>
</event>
<event>
 9    1  0.6345107E-005  0.1744805E+03  0.7546771E-02  0.1201810E+00
         21   -1    0    0  501  502  0.00000000000E+00  0.00000000000E+00  0.38466858498E+03  0.38466858498E+03  0.00000000000E+00 0. -1.
          1   -1    0    0  502    0 -0.00000000000E+00 -0.00000000000E+00 -0.37238560671E+03  0.37238560671E+03  0.00000000000E+00 0. -1.
         23    2    1    2    0    0 -0.13781994867E+02 -0.15170993412E+01  0.10269552243E+03  0.13826814381E+03  0.91539413881E+02 0.  0.
        -24    2    1    2    0    0 -0.13985693069E+03  0.24444666218E+02 -0.30958483087E+03  0.35014672829E+03  0.81255529441E+02 0.  0.
         13    1    4    4    0    0 -0.13495942855E+03  0.19678282386E+02 -0.31377213781E+03  0.34213189945E+03  0.00000000000E+00 0. -1.
        -14    1    4    4    0    0 -0.48975021326E+01  0.47663838313E+01  0.41873069453E+01  0.80148288453E+01  0.00000000000E+00 0.  1.
        -13    1    3    3    0    0 -0.15754006479E+02 -0.45683519579E+02  0.55885437786E+02  0.73880679733E+02  0.00000000000E+00 0. -1.
         13    1    3    3    0    0  0.19720116122E+01  0.44166420238E+02  0.46810084645E+02  0.64387464082E+02  0.00000000000E+00 0.  1.
          2    1    1    2  501    0  0.15363892555E+03 -0.22927566876E+02  0.21917228670E+03  0.26863931958E+03  0.00000000000E+00 0. -1.
<scales pt_clust_5="13000.00000" pt_clust_6="13000.00000" pt_clust_7="13000.00000" pt_clust_8="13000.00000" pt_clust_9="154.40529"></scales>
<clustering>
<clus scale="   81.256">  5  6 -1 -1</clus>
<clus scale="   91.539">  7  8 -1 -1</clus>
<clus scale="   92.584">  2  7  1 -1</clus>
<clus scale="  154.405">  1  9  2 -1</clus>
<clus scale="  154.405">  1  5  2 -1</clus>
</clustering>
</event>
<event>
 9    1  0.6345107E-005  0.1857252E+03  0.7546771E-02  0.1173464E+00
         21   -1    0    0  501  502  0.00000000000E+00  0.00000000000E+00  0.10955137331E+03  0.10955137331E+03  0.00000000000E+00 0. -1.
          1   -1    0    0  502    0 -0.00000000000E+00 -0.00000000000E+00 -0.82694302004E+03  0.82694302004E+03  0.00000000000E+00 0. -1.
         23    2    1    2    0    0  0.90844942664E+02  0.65156549443E+02 -0.43254377008E+03  0.45587773306E+03  0.90731554162E+02 0.  0.
        -24    2    1    2    0    0 -0.21077185950E+02  0.11849668190E+03 -0.23812903655E+03  0.27867929555E+03  0.80442528136E+02 0.  0.
         11    1    4    4    0    0 -0.29055136244E+02  0.82898205024E+02 -0.22208359755E+03  0.23882511937E+03  0.00000000000E+00 0. -1.
        -12    1    4    4    0    0  0.79779502939E+01  0.35598476876E+02 -0.16045438993E+02  0.39854176183E+02  0.00000000000E+00 0.  1.
        -11    1    3    3    0    0  0.26150582647E+02 -0.17220701818E+02 -0.17619009300E+03  0.17895070387E+03  0.00000000000E+00 0.  1.
         11    1    3    3    0    0  0.64694360016E+02  0.82377251261E+02 -0.25635367708E+03  0.27692702919E+03  0.00000000000E+00 0. -1.
          2    1    1    2  501    0 -0.69767756714E+02 -0.18365323134E+03 -0.46718840109E+02  0.20193736475E+03  0.00000000000E+00 0. -1.
<scales pt_clust_5="13000.00000" pt_clust_6="13000.00000" pt_clust_7="13000.00000" pt_clust_8="13000.00000" pt_clust_9="167.40029"></scales>
<clustering>
<clus scale="   80.443">  5  6 -1 -1</clus>
<clus scale="   90.732">  7  8 -1 -1</clus>
<clus scale="  143.981">  2  7  1 -1</clus>
<clus scale="  167.400">  1  9  2 -1</clus>
<clus scale="  167.400">  1  5  2 -1</clus>
</clustering>
</event>
<event>
 9    1  0.6345107E-005  0.1286658E+03  0.7546771E-02  0.1232251E+00
         21   -1    0    0  501  502  0.00000000000E+00  0.00000000000E+00  0.31732324062E+03  0.31732324062E+03  0.00000000000E+00 0. -1.
         -4   -1    0    0    0  501 -0.00000000000E+00 -0.00000000000E+00 -0.82496789403E+02  0.82496789403E+02  0.00000000000E+00 0.  1.
         23    2    1    2    0    0  0.93958229558E+02 -0.32648658066E+02  0.33427827438E+02  0.13863687908E+03  0.90601770503E+02 0.  0.
        -24    2    1    2    0    0 -0.54499563218E+02  0.60734824314E+02  0.16446684820E+03  0.20027522756E+03  0.80011882504E+02 0.  0.
         13    1    4    4    0    0 -0.22008546944E+02  0.34358487372E+02  0.15084276098E+03  0.15626394444E+03  0.00000000000E+00 0. -1.
        -14    1    4    4    0    0 -0.32491016273E+02  0.26376336942E+02  0.13624087220E+02  0.44011283116E+02  0.00000000000E+00 0.  1.
        -13    1    3    3    0    0  0.11096594965E+03 -0.19943229451E+02  0.32719247492E+02  0.11739558569E+03  0.00000000000E+00 0. -1.
         13    1    3    3    0    0 -0.17007720097E+02 -0.12705428615E+02  0.70857994653E+00  0.21241293386E+02  0.00000000000E+00 0.  1.
         -3    1    1    2    0  502 -0.39458666341E+02 -0.28086166248E+02  0.36931775584E+02  0.60907923390E+02  0.00000000000E+00 0.  1.
<scales pt_clust_5="13000.00000" pt_clust_6="13000.00000" pt_clust_7="13000.00000" pt_clust_8="13000.00000" pt_clust_9="48.43366"></scales>
<clustering>
<clus scale="   48.434">  1  9  2 -1</clus>
<clus scale="   80.012">  5  6 -1 -1</clus>
<clus scale="   90.602">  7  8 -1 -1</clus>
<clus scale="  121.442">  1  5  2 -1</clus>
<clus scale="   48.434">  1  5  2 -1</clus>
</clustering>
</event>
<event>
 9    1  0.6345107E-005  0.2354396E+03  0.7546771E-02  0.1123374E+00
         21   -1    0    0  501  502  0.00000000000E+00  0.00000000000E+00  0.66192967605E+02  0.66192967605E+02  0.00000000000E+00 0. -1.
          1   -1    0    0  502    0 -0.00000000000E+00 -0.00000000000E+00 -0.10641699694E+04  0.10641699694E+04  0.00000000000E+00 0. -1.
         23    2    1    2    0    0  0.21441658703E+03  0.51913811354E+02 -0.65260066664E+03  0.69447036191E+03  0.87931432805E+02 0.  0.
        -24    2    1    2    0    0 -0.21549319408E+03 -0.16842453502E+02 -0.30792048612E+03  0.38456909265E+03  0.79733156896E+02 0.  0.
         13    1    4    4    0    0 -0.10029663125E+03 -0.23829528025E+02 -0.20704036067E+03  0.23128547640E+03  0.00000000000E+00 0. -1.
        -14    1    4    4    0    0 -0.11519656283E+03  0.69870745222E+01 -0.10088012545E+03  0.15328361625E+03  0.00000000000E+00 0.  1.
        -13    1    3    3    0    0  0.17875906018E+03  0.42001434869E+02 -0.61451764030E+03  0.64136639479E+03  0.00000000000E+00 0. -1.
         13    1    3    3    0    0  0.35657526856E+02  0.99123764851E+01 -0.38083026337E+02  0.53103967122E+02  0.00000000000E+00 0.  1.
          2    1    1    2  501    0  0.10766070485E+01 -0.35071357852E+02 -0.37455849067E+02  0.51323482477E+02  0.00000000000E+00 0. -1.
<scales pt_clust_5="13000.00000" pt_clust_6="13000.00000" pt_clust_7="13000.00000" pt_clust_8="13000.00000" pt_clust_9="35.08788"></scales>
<clustering>
<clus scale="   35.088">  1  9  2 -1</clus>
<clus scale="   79.733">  5  6 -1 -1</clus>
<clus scale="   87.931">  7  8 -1 -1</clus>
<clus scale="  232.502">  1  5  2 -1</clus>
<clus scale="   35.088">  1  5  2 -1</clus>
</clustering>
</event>
<event>
 9    1  0.6345107E-005  0.1988311E+03  0.7546771E-02  0.1157398E+00
          3   -1    0    0  502    0 -0.00000000000E+00  0.00000000000E+00  0.19480897933E+03  0.19480897933E+03  0.00000000000E+00 0. -1.
         21   -1    0    0  501  502  0.00000000000E+00 -0.00000000000E+00 -0.58502678464E+03  0.58502678464E+03  0.00000000000E+00 0. -1.
        -24    2    1    2    0    0 -0.14986132627E+03 -0.62837126581E+01 -0.69394151890E+02  0.18358191810E+03  0.79930408362E+02 0.  0.
         23    2    1    2    0    0 -0.56468134305E+02  0.15516454286E+03 -0.28168063042E+03  0.33882516808E+03  0.90519784692E+02 0.  0.
         13    1    3    3    0    0 -0.13658728983E+03  0.38224023964E+01 -0.28730028630E+02  0.13962848222E+03  0.00000000000E+00 0. -1.
        -14    1    3    3    0    0 -0.13274036440E+02 -0.10106115054E+02 -0.40664123261E+02  0.43953435878E+02  0.00000000000E+00 0.  1.
        -11    1    4    4    0    0 -0.37829930586E+02  0.18631093766E+02 -0.11542093734E+03  0.12288292834E+03  0.00000000000E+00 0.  1.
         11    1    4    4    0    0 -0.18638203718E+02  0.13653344909E+03 -0.16625969308E+03  0.21594223974E+03  0.00000000000E+00 0. -1.
          4    1    1    2  501    0  0.20632946057E+03 -0.14888083020E+03 -0.39143023003E+02  0.25742867779E+03  0.00000000000E+00 0. -1.
<scales pt_clust_5="13000.00000" pt_clust_6="13000.00000" pt_clust_7="13000.00000" pt_clust_8="13000.00000" pt_clust_9="177.03112"></scales>
<clustering>
<clus scale="   79.930">  5  6 -1 -1</clus>
<clus scale="   90.520">  7  8 -1 -1</clus>
<clus scale="  169.961">  1  5  2 -1</clus>
<clus scale="  177.031">  2  9  1 -1</clus>
<clus scale="  177.031">  2  5  1 -1</clus>
</clustering>
</event>
<event>
 9    1  0.6345107E-005  0.2929047E+03  0.7546771E-02  0.1089143E+00
         21   -1    0    0  501  502  0.00000000000E+00  0.00000000000E+00  0.14308258450E+03  0.14308258450E+03  0.00000000000E+00 0.  1.
          1   -1    0    0  502    0 -0.00000000000E+00 -0.00000000000E+00 -0.74610627005E+03  0.74610627005E+03  0.00000000000E+00 0. -1.
        -24    2    1    2    0    0  0.18703188667E+03 -0.21477636675E+03 -0.35026436292E+03  0.45859688604E+03  0.80722770082E+02 0.  0.
         23    2    1    2    0    0 -0.19024847932E+03  0.19205480273E+03 -0.14295619536E+03  0.31841646896E+03  0.88730168364E+02 0.  0.
         11    1    3    3    0    0  0.48757763020E+02 -0.81520190613E+02 -0.17245648965E+03  0.19688601209E+03  0.00000000000E+00 0. -1.
        -12    1    3    3    0    0  0.13827412365E+03 -0.13325617614E+03 -0.17780787326E+03  0.26171087396E+03  0.00000000000E+00 0.  1.
        -11    1    4    4    0    0 -0.18576061299E+03  0.17085107441E+03 -0.15234325647E+03  0.29479749449E+03  0.00000000000E+00 0.  1.
         11    1    4    4    0    0 -0.44878663368E+01  0.21203728322E+02  0.93870611098E+01  0.23618974476E+02  0.00000000000E+00 0. -1.
          2    1    1    2  501    0  0.32165926524E+01  0.22721564022E+02 -0.10980312727E+03  0.11217549955E+03  0.00000000000E+00 0. -1.
<scales pt_clust_5="13000.00000" pt_clust_6="13000.00000" pt_clust_7="13000.00000" pt_clust_8="13000.00000" pt_clust_9="22.94813"></scales>
<clustering>
<clus scale="   22.948">  1  9  2 -1</clus>
<clus scale="   80.723">  5  6 -1 -1</clus>
<clus scale="   88.730">  7  8 -1 -1</clus>
<clus scale="  290.579">  2  5  1 -1</clus>
<clus scale="   22.948">  1  5  2 -1</clus>
</clustering>
</event>
<event>
 9    1  0.6345107E-005  0.1237851E+03  0.7546771E-02  0.1241182E+00
         21   -1    0    0  501  502  0.00000000000E+00  0.00000000000E+00  0.11602709723E+03  0.11602709723E+03  0.00000000000E+00 0. -1.
          1   -1    0    0  502    0 -0.00000000000E+00 -0.00000000000E+00 -0.19658877312E+03  0.19658877312E+03  0.00000000000E+00 0. -1.
         23    2    1    2    0    0 -0.58802601582E+02  0.86713759988E+01 -0.33049955617E+02  0.11493646327E+03  0.92656096986E+02 0.  0.
        -24    2    1    2    0    0  0.11279704089E+03 -0.60607241850E+01 -0.29898909773E+02  0.14082497829E+03  0.78599140534E+02 0.  0.
         11    1    4    4    0    0  0.84488752792E+02  0.58903832018E+01  0.15405025182E+02  0.86083452321E+02  0.00000000000E+00 0. -1.
        -12    1    4    4    0    0  0.28308288103E+02 -0.11951107387E+02 -0.45303934955E+02  0.54741525969E+02  0.00000000000E+00 0.  1.
        -11    1    3    3    0    0 -0.77492627858E+02  0.25206644557E+02 -0.12158238071E+02  0.82391170978E+02  0.00000000000E+00 0. -1.
         11    1    3    3    0    0  0.18690026276E+02 -0.16535268558E+02 -0.20891717546E+02  0.32545292294E+02  0.00000000000E+00 0.  1.
          2    1    1    2  501    0 -0.53994439313E+02 -0.26106518138E+01 -0.17612810496E+02  0.56854428791E+02  0.00000000000E+00 0. -1.
<scales pt_clust_5="13000.00000" pt_clust_6="13000.00000" pt_clust_7="13000.00000" pt_clust_8="13000.00000" pt_clust_9="54.05754"></scales>
<clustering>
<clus scale="   54.058">  1  9  2 -1</clus>
<clus scale="   78.599">  5  6 -1 -1</clus>
<clus scale="   92.656">  7  8 -1 -1</clus>
<clus scale="  113.646">  1  5  2 -1</clus>
<clus scale="   54.058">  1  5  2 -1</clus>
</clustering>
</event>
<event>
 9    1  0.6345107E-005  0.1283119E+03  0.7546771E-02  0.1247282E+00
          1   -1    0    0  502    0 -0.00000000000E+00  0.00000000000E+00  0.82777715115E+03  0.82777715115E+03  0.00000000000E+00 0. -1.
         21   -1    0    0  501  502  0.00000000000E+00 -0.00000000000E+00 -0.11041406984E+03  0.11041406984E+03  0.00000000000E+00 0. -1.
        -24    2    1    2    0    0 -0.18277305007E+02  0.36775567481E+02 -0.66514281425E+02  0.11209220450E+03  0.80336856016E+02 0.  0.
         23    2    1    2    0    0 -0.13370555928E+02  0.78667303301E+02  0.22989895632E+03  0.25933564587E+03  0.89633312590E+02 0.  0.
         13    1    3    3    0    0 -0.49120871211E+02  0.26143457590E+02 -0.52779496826E+02  0.76694299974E+02  0.00000000000E+00 0. -1.
        -14    1    3    3    0    0  0.30843566204E+02  0.10632109891E+02 -0.13734784599E+02  0.35397904527E+02  0.00000000000E+00 0.  1.
        -11    1    4    4    0    0  0.21444789703E+02 -0.31012995739E+01  0.13834980679E+02  0.25708048445E+02  0.00000000000E+00 0. -1.
         11    1    4    4    0    0 -0.34815345631E+02  0.81768602875E+02  0.21606397564E+03  0.23362759742E+03  0.00000000000E+00 0.  1.
          2    1    1    2  501    0  0.31647860935E+02 -0.11544287078E+03  0.55397840641E+03  0.56676337062E+03  0.00000000000E+00 0. -1.
<scales pt_clust_5="13000.00000" pt_clust_6="13000.00000" pt_clust_7="13000.00000" pt_clust_8="13000.00000" pt_clust_9="91.81412"></scales>
<clustering>
<clus scale="   80.337">  5  6 -1 -1</clus>
<clus scale="   89.633">  7  8 -1 -1</clus>
<clus scale="   90.225">  1  5  2 -1</clus>
<clus scale="   91.814">  2  9  1 -1</clus>
<clus scale="   91.814">  2  5  1 -1</clus>
</clustering>
</event>
<event>
 9    1  0.6345107E-005  0.2207383E+03  0.7546771E-02  0.1134808E+00
         21   -1    0    0  501  502  0.00000000000E+00  0.00000000000E+00  0.65678786370E+02  0.65678786370E+02  0.00000000000E+00 0. -1.
          1   -1    0    0  502    0 -0.00000000000E+00 -0.00000000000E+00 -0.15187973572E+04  0.15187973572E+04  0.00000000000E+00 0. -1.
         23    2    1    2    0    0 -0.19410280840E+03 -0.50417638836E+02 -0.61368769594E+03  0.65316619633E+03  0.98972993061E+02 0.  0.
        -24    2    1    2    0    0  0.12077000809E+03  0.19394062287E+03 -0.51268210430E+03  0.56697314478E+03  0.80107719807E+02 0.  0.
         11    1    4    4    0    0  0.88521681281E+02  0.14953226526E+03 -0.45640174439E+03  0.48836312176E+03  0.00000000000E+00 0. -1.
        -12    1    4    4    0    0  0.32248326807E+02  0.44408357606E+02 -0.56280359918E+02  0.78610023022E+02  0.00000000000E+00 0.  1.
        -11    1    3    3    0    0 -0.21555695749E+02 -0.43854387249E+02 -0.10139016491E+03  0.11255141421E+03  0.00000000000E+00 0.  1.
         11    1    3    3    0    0 -0.17254711265E+03 -0.65632515878E+01 -0.51229753103E+03  0.54061478212E+03  0.00000000000E+00 0. -1.
          2    1    1    2  501    0  0.73332800311E+02 -0.14352298403E+03 -0.32674877064E+03  0.36433680250E+03  0.00000000000E+00 0. -1.
<scales pt_clust_5="13000.00000" pt_clust_6="13000.00000" pt_clust_7="13000.00000" pt_clust_8="13000.00000" pt_clust_9="161.17241"></scales>
<clustering>
<clus scale="   80.108">  5  6 -1 -1</clus>
<clus scale="   98.973">  7  8 -1 -1</clus>
<clus scale="  161.172">  1  9  2 -1</clus>
<clus scale="  212.948">  1  5  2 -1</clus>
<clus scale="  161.172">  1  5  2 -1</clus>
</clustering>
</event>
<event>
 9    1  0.6345107E-005  0.1152101E+03  0.7546771E-02  0.1256495E+00
         21   -1    0    0  501  502  0.00000000000E+00  0.00000000000E+00  0.11118068508E+03  0.11118068508E+03  0.00000000000E+00 0.  1.
         -2   -1    0    0    0  501 -0.00000000000E+00 -0.00000000000E+00 -0.20244608115E+03  0.20244608115E+03  0.00000000000E+00 0.  1.
         23    2    1    2    0    0 -0.32666599661E+02  0.18457368106E+02 -0.31075631870E+02  0.10659728357E+03  0.94812999093E+02 0.  0.
        -24    2    1    2    0    0  0.86543320316E+02 -0.56987582279E+02 -0.32084320240E+02  0.13507675920E+03  0.80492213574E+02 0.  0.
         11    1    4    4    0    0  0.26060930879E+02 -0.22711384819E+01  0.24475617562E+02  0.35824377780E+02  0.00000000000E+00 0. -1.
        -12    1    4    4    0    0  0.60482389437E+02 -0.54716443797E+02 -0.56559937802E+02  0.99252381422E+02  0.00000000000E+00 0.  1.
        -11    1    3    3    0    0 -0.44376927259E+02  0.38879093910E+02  0.94297165230E+01  0.59747930256E+02  0.00000000000E+00 0.  1.
         11    1    3    3    0    0  0.11710327598E+02 -0.20421725804E+02 -0.40505348393E+02  0.46849353311E+02  0.00000000000E+00 0. -1.
         -1    1    1    2    0  502 -0.53876720655E+02  0.38530214173E+02 -0.28105443967E+02  0.71952723460E+02  0.00000000000E+00 0.  1.
<scales pt_clust_5="13000.00000" pt_clust_6="13000.00000" pt_clust_7="13000.00000" pt_clust_8="13000.00000" pt_clust_9="66.23657"></scales>
<clustering>
<clus scale="   66.237">  1  9  2 -1</clus>
<clus scale="   80.492">  5  6 -1 -1</clus>
<clus scale="   94.813">  7  8 -1 -1</clus>
<clus scale="  103.744">  1  5  2 -1</clus>
<clus scale="   66.237">  1  5  2 -1</clus>
</clustering>
</event>
<event>
 9    1  0.6345107E-005  0.1091034E+03  0.7546771E-02  0.1266746E+00
         -4   -1    0    0    0  501 -0.00000000000E+00  0.00000000000E+00  0.45404340544E+03  0.45404340544E+03  0.00000000000E+00 0.  1.
         21   -1    0    0  501  502  0.00000000000E+00 -0.00000000000E+00 -0.87402745646E+02  0.87402745646E+02  0.00000000000E+00 0.  1.
         23    2    1    2    0    0  0.62442525782E+02  0.12160781459E+02  0.28707235540E+03  0.30796442809E+03  0.91567451107E+02 0.  0.
        -24    2    1    2    0    0 -0.17509094636E+02 -0.83514600467E+02  0.90962925990E+02  0.14839225172E+03  0.80403666463E+02 0.  0.
         13    1    4    4    0    0 -0.18157574734E+02 -0.41986896540E+02  0.96207907055E+02  0.10652961270E+03  0.00000000000E+00 0. -1.
        -14    1    4    4    0    0  0.64848009710E+00 -0.41527703927E+02 -0.52449810658E+01  0.41862639027E+02  0.00000000000E+00 0.  1.
        -11    1    3    3    0    0  0.84088029586E+02  0.12274550554E+02  0.25855810861E+03  0.27216494418E+03  0.00000000000E+00 0.  1.
         11    1    3    3    0    0 -0.21645503804E+02 -0.11376909468E+00  0.28514246782E+02  0.35799483905E+02  0.00000000000E+00 0. -1.
         -3    1    1    2    0  502 -0.44933431146E+02  0.71353819008E+02 -0.11394621589E+02  0.85089471280E+02  0.00000000000E+00 0.  1.
<scales pt_clust_5="13000.00000" pt_clust_6="13000.00000" pt_clust_7="13000.00000" pt_clust_8="13000.00000" pt_clust_9="84.32307"></scales>
<clustering>
<clus scale="   80.404">  5  6 -1 -1</clus>
<clus scale="   84.323">  2  9  1 -1</clus>
<clus scale="   91.567">  7  8 -1 -1</clus>
<clus scale="   99.918">  2  5  1 -1</clus>
<clus scale="   84.323">  2  5  1 -1</clus>
</clustering>
</event>
<event>
 9    1  0.6345107E-005  0.9734828E+02  0.7546771E-02  0.1294164E+00
          1   -1    0    0  502    0 -0.00000000000E+00  0.00000000000E+00  0.30154158823E+03  0.30154158823E+03  0.00000000000E+00 0. -1.
         21   -1    0    0  501  502  0.00000000000E+00 -0.00000000000E+00 -0.99142865985E+02  0.99142865985E+02  0.00000000000E+00 0.  1.
         23    2    1    2    0    0 -0.25308240565E+02 -0.12591782389E+01  0.24736198492E+03  0.26581997646E+03  0.93969227581E+02 0.  0.
        -24    2    1    2    0    0  0.24640407821E+02 -0.35200321596E+02 -0.36051111624E+02  0.97325597032E+02  0.79538524315E+02 0.  0.
         11    1    4    4    0    0 -0.27475289224E+02 -0.25183794213E+02 -0.16651718584E+02  0.40821498511E+02  0.00000000000E+00 0. -1.
        -12    1    4    4    0    0  0.52115697045E+02 -0.10016527384E+02 -0.19399393040E+02  0.56504098521E+02  0.00000000000E+00 0.  1.
        -11    1    3    3    0    0  0.33937972286E+02 -0.14016339699E+02  0.92278623142E+02  0.99315598123E+02  0.00000000000E+00 0.  1.
         11    1    3    3    0    0 -0.59246212851E+02  0.12757161460E+02  0.15508336178E+03  0.16650437834E+03  0.00000000000E+00 0. -1.
          2    1    1    2  501    0  0.66783274327E+00  0.36459499835E+02 -0.89121510576E+01  0.37538880714E+02  0.00000000000E+00 0. -1.
<scales pt_clust_5="13000.00000" pt_clust_6="13000.00000" pt_clust_7="13000.00000" pt_clust_8="13000.00000" pt_clust_9="36.46562"></scales>
<clustering>
<clus scale="   36.466">  2  9  1 -1</clus>
<clus scale="   79.539">  5  6 -1 -1</clus>
<clus scale="   83.504">  2  5  1 -1</clus>
<clus scale="   93.969">  7  8 -1 -1</clus>
<clus scale="   36.466">  2  5  1 -1</clus>
</clustering>
</event>
<event>
 9    1  0.6345107E-005  0.2114277E+03  0.7546771E-02  0.1169766E+00
         -2   -1    0    0    0  501 -0.00000000000E+00  0.00000000000E+00  0.67434218266E+03  0.67434218266E+03  0.00000000000E+00 0.  1.
         21   -1    0    0  501  502  0.00000000000E+00 -0.00000000000E+00 -0.11439248347E+03  0.11439248347E+03  0.00000000000E+00 0.  1.
         23    2    1    2    0    0 -0.92586904822E+01 -0.61579900794E+02  0.83524059645E+02  0.13509806457E+03  0.86008202984E+02 0.  0.
        -24    2    1    2    0    0  0.20097243151E+03  0.52526449801E+01  0.12039351199E+03  0.24536488555E+03  0.72744902399E+02 0.  0.
         13    1    4    4    0    0  0.44463576878E+02 -0.24031296826E+02  0.97560370354E+01  0.51475170272E+02  0.00000000000E+00 0. -1.
        -14    1    4    4    0    0  0.15650885463E+03  0.29283941807E+02  0.11063747495E+03  0.19388971527E+03  0.00000000000E+00 0.  1.
        -13    1    3    3    0    0 -0.94449579412E+01 -0.27130227187E+02 -0.13790308355E+02  0.31865797687E+02  0.00000000000E+00 0. -1.
         13    1    3    3    0    0  0.18626745907E+00 -0.34449673607E+02  0.97314367999E+02  0.10323226689E+03  0.00000000000E+00 0.  1.
         -1    1    1    2    0  502 -0.19171374103E+03  0.56327255814E+02  0.35603212756E+03  0.40827171601E+03  0.00000000000E+00 0.  1.
<scales pt_clust_5="13000.00000" pt_clust_6="13000.00000" pt_clust_7="13000.00000" pt_clust_8="13000.00000" pt_clust_9="198.51925"></scales>
<clustering>
<clus scale="   72.745">  5  6 -1 -1</clus>
<clus scale="   86.008">  7  8 -1 -1</clus>
<clus scale="  106.185">  1  7  2 -1</clus>
<clus scale="  198.519">  2  9  1 -1</clus>
<clus scale="  198.519">  2  5  1 -1</clus>
</clustering>
</event>
<event>
 9    1  0.6345107E-005  0.1109308E+03  0.7546771E-02  0.1266304E+00
         21   -1    0    0  501  502  0.00000000000E+00  0.00000000000E+00  0.10866867556E+03  0.10866867556E+03  0.00000000000E+00 0.  1.
          1   -1    0    0  502    0 -0.00000000000E+00 -0.00000000000E+00 -0.27354515716E+03  0.27354515716E+03  0.00000000000E+00 0. -1.
        -24    2    1    2    0    0  0.38506686788E+02 -0.40892869831E+02 -0.15707610297E+03  0.18453985686E+03  0.78911753975E+02 0.  0.
         23    2    1    2    0    0 -0.14473154362E+02  0.53274020186E+02 -0.68874811273E+02  0.13088333364E+03  0.96639091334E+02 0.  0.
         11    1    3    3    0    0  0.52869846458E+02 -0.53706357298E+02 -0.13909693643E+03  0.15820098357E+03  0.00000000000E+00 0. -1.
        -12    1    3    3    0    0 -0.14363159669E+02  0.12813487466E+02 -0.17979166545E+02  0.26338873294E+02  0.00000000000E+00 0.  1.
        -13    1    4    4    0    0  0.39733390689E+02  0.93747724379E+01 -0.32711009939E+02  0.52312893871E+02  0.00000000000E+00 0. -1.
         13    1    4    4    0    0 -0.54206545051E+02  0.43899247748E+02 -0.36163801333E+02  0.78570439773E+02  0.00000000000E+00 0.  1.
          2    1    1    2  501    0 -0.24033532427E+02 -0.12381150355E+02  0.61074432640E+02  0.66790642214E+02  0.00000000000E+00 0. -1.
<scales pt_clust_5="13000.00000" pt_clust_6="13000.00000" pt_clust_7="13000.00000" pt_clust_8="13000.00000" pt_clust_9="27.03523"></scales>
<clustering>
<clus scale="   27.035">  1  9  2 -1</clus>
<clus scale="   78.912">  5  6 -1 -1</clus>
<clus scale="   95.883">  2  5  1 -1</clus>
<clus scale="   96.639">  7  8 -1 -1</clus>
<clus scale="   27.035">  1  5  2 -1</clus>
</clustering>
</event>
<event>
 9    1  0.6345107E-005  0.1087687E+03  0.7546771E-02  0.1267104E+00
         21   -1    0    0  501  502  0.00000000000E+00  0.00000000000E+00  0.23583643242E+03  0.23583643242E+03  0.00000000000E+00 0.  1.
         -2   -1    0    0    0  501 -0.00000000000E+00 -0.00000000000E+00 -0.22919393914E+03  0.22919393914E+03  0.00000000000E+00 0.  1.
         23    2    1    2    0    0  0.34064721728E+02 -0.51403826864E+02 -0.18185101888E+03  0.21251105594E+03  0.91040634596E+02 0.  0.
        -24    2    1    2    0    0  0.54064505090E+01  0.58502509617E+02  0.56549190484E+02  0.11461475167E+03  0.80541647716E+02 0.  0.
         13    1    4    4    0    0  0.29688257463E+02 -0.51216276254E+01  0.86090006253E+01  0.31332708030E+02  0.00000000000E+00 0. -1.
        -14    1    4    4    0    0 -0.24281806954E+02  0.63624137242E+02  0.47940189859E+02  0.83282043638E+02  0.00000000000E+00 0.  1.
        -13    1    3    3    0    0  0.25911505316E+02 -0.74792535699E+02 -0.10324886048E+03  0.13009864217E+03  0.00000000000E+00 0.  1.
         13    1    3    3    0    0  0.81532164116E+01  0.23388708835E+02 -0.78602158397E+02  0.82412413770E+02  0.00000000000E+00 0. -1.
         -1    1    1    2    0  502 -0.39471172237E+02 -0.70986827528E+01  0.13194432168E+03  0.13790456395E+03  0.00000000000E+00 0.  1.
<scales pt_clust_5="13000.00000" pt_clust_6="13000.00000" pt_clust_7="13000.00000" pt_clust_8="13000.00000" pt_clust_9="40.10442"></scales>
<clustering>
<clus scale="   40.104">  1  9  2 -1</clus>
<clus scale="   80.542">  5  6 -1 -1</clus>
<clus scale="   91.041">  7  8 -1 -1</clus>
<clus scale="  100.146">  1  5  2 -1</clus>
<clus scale="   40.104">  1  5  2 -1</clus>
</clustering>
</event>
<event>
 9    1  0.6345107E-005  0.1923895E+03  0.7546771E-02  0.1156672E+00
         21   -1    0    0  501  502  0.00000000000E+00  0.00000000000E+00  0.23207140102E+03  0.23207140102E+03  0.00000000000E+00 0. -1.
          1   -1    0    0  502    0 -0.00000000000E+00 -0.00000000000E+00 -0.30214012482E+03  0.30214012482E+03  0.00000000000E+00 0. -1.
         23    2    1    2    0    0 -0.15433327969E+03 -0.77651490833E+02 -0.97220231922E+02  0.21668777015E+03  0.87483146892E+02 0.  0.
        -24    2    1    2    0    0  0.16068167409E+03  0.57145392048E+02 -0.81453920548E+02  0.20681720062E+03  0.83990577314E+02 0.  0.
         11    1    4    4    0    0  0.12716265326E+03  0.11178284449E+02 -0.32404690978E+02  0.13170177837E+03  0.00000000000E+00 0. -1.
        -12    1    4    4    0    0  0.33519020829E+02  0.45967107600E+02 -0.49049229569E+02  0.75115422250E+02  0.00000000000E+00 0.  1.
        -13    1    3    3    0    0 -0.80651496318E+02 -0.35097069385E+01 -0.11573692181E+02  0.81553247954E+02  0.00000000000E+00 0.  1.
         13    1    3    3    0    0 -0.73681783368E+02 -0.74141783894E+02 -0.85646539742E+02  0.13513452220E+03  0.00000000000E+00 0. -1.
          2    1    1    2  501    0 -0.63483944040E+01  0.20506098784E+02  0.10860542867E+03  0.11070655507E+03  0.00000000000E+00 0. -1.
<scales pt_clust_5="13000.00000" pt_clust_6="13000.00000" pt_clust_7="13000.00000" pt_clust_8="13000.00000" pt_clust_9="21.46630"></scales>
<clustering>
<clus scale="   21.466">  1  9  2 -1</clus>
<clus scale="   83.991">  5  6 -1 -1</clus>
<clus scale="   87.483">  7  8 -1 -1</clus>
<clus scale="  190.827">  1  5  2 -1</clus>
<clus scale="   21.466">  1  5  2 -1</clus>
</clustering>
</event>
<event>
 9    1  0.6345107E-005  0.9288748E+02  0.7546771E-02  0.1300824E+00
         -2   -1    0    0    0  501 -0.00000000000E+00  0.00000000000E+00  0.30753416302E+03  0.30753416302E+03  0.00000000000E+00 0.  1.
         21   -1    0    0  501  502  0.00000000000E+00 -0.00000000000E+00 -0.75618826893E+02  0.75618826893E+02  0.00000000000E+00 0.  1.
         23    2    1    2    0    0 -0.21255870809E+02 -0.19640806668E+02  0.20960513646E+03  0.22926424625E+03  0.88262155235E+02 0.  0.
        -24    2    1    2    0    0  0.44127661081E+02 -0.17412024499E+02  0.46689106167E+02  0.10398521504E+03  0.79891321443E+02 0.  0.
         11    1    4    4    0    0  0.43207270608E+01  0.26754348401E+02 -0.19443825440E+01  0.27170654467E+02  0.00000000000E+00 0. -1.
        -12    1    4    4    0    0  0.39806934020E+02 -0.44166372901E+02  0.48633488711E+02  0.76814560569E+02  0.00000000000E+00 0.  1.
        -11    1    3    3    0    0 -0.55562125306E+02 -0.71902000756E+01  0.11682980738E+03  0.12956871782E+03  0.00000000000E+00 0.  1.
         11    1    3    3    0    0  0.34306254497E+02 -0.12450606593E+02  0.92775329084E+02  0.99695528429E+02  0.00000000000E+00 0. -1.
         -1    1    1    2    0  502 -0.22871790272E+02  0.37052831168E+02 -0.24378906497E+02  0.49903528630E+02  0.00000000000E+00 0.  1.
<scales pt_clust_5="13000.00000" pt_clust_6="13000.00000" pt_clust_7="13000.00000" pt_clust_8="13000.00000" pt_clust_9="43.54344"></scales>
<clustering>
<clus scale="   43.543">  2  9  1 -1</clus>
<clus scale="   79.891">  5  6 -1 -1</clus>
<clus scale="   84.974">  2  5  1 -1</clus>
<clus scale="   88.262">  7  8 -1 -1</clus>
<clus scale="   43.543">  2  5  1 -1</clus>
</clustering>
</event>
<event>
 9    1  0.6345107E-005  0.1197548E+03  0.7546771E-02  0.1247379E+00
         21   -1    0    0  501  502  0.00000000000E+00  0.00000000000E+00  0.23046907196E+03  0.23046907196E+03  0.00000000000E+00 0.  1.
         -4   -1    0    0    0  501 -0.00000000000E+00 -0.00000000000E+00 -0.17752524171E+03  0.17752524171E+03  0.00000000000E+00 0.  1.
        -24    2    1    2    0    0  0.83643606459E+02 -0.39106755317E+02 -0.10724877751E+03  0.16272376402E+03  0.80318938516E+02 0.  0.
         23    2    1    2    0    0 -0.38712674873E+02  0.13053438813E+01  0.33400675152E+02  0.10554249415E+03  0.92321383506E+02 0.  0.
         11    1    3    3    0    0 -0.12464849944E+02 -0.16070146425E+02 -0.59273954146E+01  0.21183864299E+02  0.00000000000E+00 0. -1.
        -12    1    3    3    0    0  0.96108456403E+02 -0.23036608892E+02 -0.10132138210E+03  0.14153989972E+03  0.00000000000E+00 0.  1.
        -11    1    4    4    0    0  0.64573483091E+01  0.39431798473E+02  0.60527010607E+01  0.40412860182E+02  0.00000000000E+00 0. -1.
         11    1    4    4    0    0 -0.45170023182E+02 -0.38126454591E+02  0.27347974092E+02  0.65129633969E+02  0.00000000000E+00 0.  1.
         -3    1    1    2    0  502 -0.44930931586E+02  0.37801411436E+02  0.12679193261E+03  0.13972805550E+03  0.00000000000E+00 0.  1.
<scales pt_clust_5="13000.00000" pt_clust_6="13000.00000" pt_clust_7="13000.00000" pt_clust_8="13000.00000" pt_clust_9="58.71742"></scales>
<clustering>
<clus scale="   58.717">  1  9  2 -1</clus>
<clus scale="   80.319">  5  6 -1 -1</clus>
<clus scale="   92.321">  7  8 -1 -1</clus>
<clus scale="  110.766">  2  5  1 -1</clus>
<clus scale="   58.717">  1  5  2 -1</clus>
</clustering>
</event>
<event>
 9    1  0.6345107E-005  0.1038724E+03  0.7546771E-02  0.1276685E+00
         21   -1    0    0  501  502  0.00000000000E+00  0.00000000000E+00  0.69747388948E+02  0.69747388948E+02  0.00000000000E+00 0.  1.
         -2   -1    0    0    0  501 -0.00000000000E+00 -0.00000000000E+00 -0.27671689924E+03  0.27671689924E+03  0.00000000000E+00 0.  1.
        -24    2    1    2    0    0 -0.56314957842E+02  0.18690911520E+02 -0.18902587363E+03  0.21401930432E+03  0.80949101731E+02 0.  0.
         23    2    1    2    0    0  0.26552203483E+02 -0.40586057237E+01 -0.26633011224E+02  0.98160422470E+02  0.90579575305E+02 0.  0.
         13    1    3    3    0    0 -0.39337627840E+02 -0.28416466087E+02 -0.73101660229E+02  0.87742790229E+02  0.00000000000E+00 0. -1.
        -14    1    3    3    0    0 -0.16977330002E+02  0.47107377607E+02 -0.11592421340E+03  0.12627651409E+03  0.00000000000E+00 0.  1.
        -13    1    4    4    0    0  0.47181030736E+02  0.23073717995E+02  0.35396949886E+01  0.52640056650E+02  0.00000000000E+00 0. -1.
         13    1    4    4    0    0 -0.20628827253E+02 -0.27132323719E+02 -0.30172706213E+02  0.45520365820E+02  0.00000000000E+00 0.  1.
         -1    1    1    2    0  502  0.29762754358E+02 -0.14632305797E+02  0.86893745611E+01  0.34284561397E+02  0.00000000000E+00 0.  1.
<scales pt_clust_5="13000.00000" pt_clust_6="13000.00000" pt_clust_7="13000.00000" pt_clust_8="13000.00000" pt_clust_9="33.16513"></scales>
<clustering>
<clus scale="   33.165">  1  9  2 -1</clus>
<clus scale="   80.949">  5  6 -1 -1</clus>
<clus scale="   90.580">  7  8 -1 -1</clus>
<clus scale="   95.591">  2  5  1 -1</clus>
<clus scale="   33.165">  1  5  2 -1</clus>
</clustering>
</event>
<event>
 9    1  0.6345107E-005  0.1167208E+03  0.7546771E-02  0.1252419E+00
         -4   -1    0    0    0  501 -0.00000000000E+00  0.00000000000E+00  0.12776236840E+03  0.12776236840E+03  0.00000000000E+00 0.  1.
         21   -1    0    0  501  502  0.00000000000E+00 -0.00000000000E+00 -0.21439946918E+03  0.21439946918E+03  0.00000000000E+00 0.  1.
        -24    2    1    2    0    0 -0.62356882429E+02  0.53054261264E+01  0.79822754703E+01  0.10225127725E+03  0.80467873371E+02 0.  0.
         23    2    1    2    0    0  0.83021849431E+02 -0.67884134919E+01  0.18228387425E+02  0.12517670360E+03  0.91641818923E+02 0.  0.
         11    1    3    3    0    0 -0.30506978547E+02 -0.56507575924E+01 -0.35566459022E+02  0.47197243657E+02  0.00000000000E+00 0. -1.
        -12    1    3    3    0    0 -0.31849903882E+02  0.10956183719E+02  0.43548734492E+02  0.55054033593E+02  0.00000000000E+00 0.  1.
        -11    1    4    4    0    0  0.16874349228E+02 -0.17742539827E+02  0.46389030428E+02  0.52454585361E+02  0.00000000000E+00 0.  1.
         11    1    4    4    0    0  0.66147500204E+02  0.10954126335E+02 -0.28160643003E+02  0.72722118240E+02  0.00000000000E+00 0. -1.
         -3    1    1    2    0  502 -0.20664967002E+02  0.14829873654E+01 -0.11284776368E+03  0.11473385673E+03  0.00000000000E+00 0.  1.
<scales pt_clust_5="13000.00000" pt_clust_6="13000.00000" pt_clust_7="13000.00000" pt_clust_8="13000.00000" pt_clust_9="20.71811"></scales>
<clustering>
<clus scale="   20.718">  2  9  1 -1</clus>
<clus scale="   80.468">  5  6 -1 -1</clus>
<clus scale="   91.642">  7  8 -1 -1</clus>
<clus scale="  108.169">  1  5  2 -1</clus>
<clus scale="   20.718">  2  5  1 -1</clus>
</clustering>
</event>
<event>
 9    1  0.6345107E-005  0.1034661E+03  0.7546771E-02  0.1276561E+00
         -2   -1    0    0    0  501 -0.00000000000E+00  0.00000000000E+00  0.10173096081E+03  0.10173096081E+03  0.00000000000E+00 0.  1.
         21   -1    0    0  501  502  0.00000000000E+00 -0.00000000000E+00 -0.45419961003E+03  0.45419961003E+03  0.00000000000E+00 0. -1.
        -24    2    1    2    0    0  0.13173708740E+02 -0.31223498586E+02  0.11104403970E+02  0.10289787835E+03  0.96520526910E+02 0.  0.
         23    2    1    2    0    0  0.22219582242E+01  0.71648743728E+02 -0.38714477740E+03  0.40376959080E+03  0.89500414619E+02 0.  0.
         11    1    3    3    0    0  0.51975845611E+02 -0.34375457775E+02  0.13972979461E+02  0.63862389395E+02  0.00000000000E+00 0. -1.
        -12    1    3    3    0    0 -0.38802136871E+02  0.31519591889E+01 -0.28685754909E+01  0.39035488953E+02  0.00000000000E+00 0.  1.
        -11    1    4    4    0    0  0.16675169040E+02 -0.17606806541E+02 -0.82067507875E+02  0.85575327916E+02  0.00000000000E+00 0.  1.
         11    1    4    4    0    0 -0.14453210816E+02  0.89255550268E+02 -0.30507726952E+03  0.31819426289E+03  0.00000000000E+00 0. -1.
         -1    1    1    2    0  502 -0.15395666964E+02 -0.40425245142E+02  0.23571724202E+02  0.49263101688E+02  0.00000000000E+00 0.  1.
<scales pt_clust_5="13000.00000" pt_clust_6="13000.00000" pt_clust_7="13000.00000" pt_clust_8="13000.00000" pt_clust_9="43.25770"></scales>
<clustering>
<clus scale="   43.258">  2  9  1 -1</clus>
<clus scale="   89.500">  7  8 -1 -1</clus>
<clus scale="   96.521">  5  6 -1 -1</clus>
<clus scale="   96.950">  2  7  1 -1</clus>
<clus scale="   43.258">  2  5  1 -1</clus>
</clustering>
</event>
<event>
 9    1  0.6345107E-005  0.1329016E+03  0.7546771E-02  0.1226246E+00
          3   -1    0    0  502    0 -0.00000000000E+00  0.00000000000E+00  0.17919058649E+03  0.17919058649E+03  0.00000000000E+00 0. -1.
         21   -1    0    0  501  502  0.00000000000E+00 -0.00000000000E+00 -0.27050475604E+03  0.27050475604E+03  0.00000000000E+00 0. -1.
         23    2    1    2    0    0 -0.93588190249E+02 -0.38180942412E+02  0.10501856588E+03  0.17292331806E+03  0.93043221311E+02 0.  0.
        -24    2    1    2    0    0  0.84726259841E+02 -0.78882925739E+01 -0.58625134526E+02  0.13129250161E+03  0.80994137536E+02 0.  0.
         11    1    4    4    0    0  0.78447428750E+02  0.20904213872E+02 -0.21672170744E+02  0.84027782429E+02  0.00000000000E+00 0. -1.
        -12    1    4    4    0    0  0.62788310911E+01 -0.28792506446E+02 -0.36952963782E+02  0.47264719184E+02  0.00000000000E+00 0.  1.
        -13    1    3    3    0    0 -0.15564447380E+02 -0.14419830678E+02 -0.16286807420E+02  0.26747778131E+02  0.00000000000E+00 0.  1.
         13    1    3    3    0    0 -0.78023742870E+02 -0.23761111733E+02  0.12130537330E+03  0.14617553993E+03  0.00000000000E+00 0. -1.
          4    1    1    2  501    0  0.88619304083E+01  0.46069234986E+02 -0.13770760090E+03  0.14547952285E+03  0.00000000000E+00 0. -1.
<scales pt_clust_5="13000.00000" pt_clust_6="13000.00000" pt_clust_7="13000.00000" pt_clust_8="13000.00000" pt_clust_9="46.91384"></scales>
<clustering>
<clus scale="   46.914">  2  9  1 -1</clus>
<clus scale="   80.994">  5  6 -1 -1</clus>
<clus scale="   93.043">  7  8 -1 -1</clus>
<clus scale="  124.763">  2  5  1 -1</clus>
<clus scale="   46.914">  2  5  1 -1</clus>
</clustering>
</event>
<event>
 9    1  0.6345107E-005  0.2183823E+03  0.7546771E-02  0.1171248E+00
         21   -1    0    0  501  502  0.00000000000E+00  0.00000000000E+00  0.25883651545E+03  0.25883651545E+03  0.00000000000E+00 0.  1.
         -2   -1    0    0    0  501 -0.00000000000E+00 -0.00000000000E+00 -0.62083545583E+03  0.62083545583E+03  0.00000000000E+00 0.  1.
         23    2    1    2    0    0  0.46888996010E+02  0.28212640198E+02  0.16401174468E+03  0.18861845541E+03  0.75382612826E+02 0.  0.
        -24    2    1    2    0    0 -0.14492279064E+03  0.14941166959E+03 -0.38142412797E+03  0.44192244032E+03  0.80527111010E+02 0.  0.
         11    1    4    4    0    0 -0.65896475194E+02  0.27165194238E+02 -0.17835367591E+03  0.19206854748E+03  0.00000000000E+00 0. -1.
        -12    1    4    4    0    0 -0.79026315446E+02  0.12224647535E+03 -0.20307045206E+03  0.24985389284E+03  0.00000000000E+00 0.  1.
        -13    1    3    3    0    0  0.53415400261E+02 -0.42667548951E+01  0.65163295990E+02  0.84366257038E+02  0.00000000000E+00 0. -1.
         13    1    3    3    0    0 -0.65264042510E+01  0.32479395093E+02  0.98848448687E+02  0.10425219837E+03  0.00000000000E+00 0.  1.
         -1    1    1    2    0  502  0.98033794630E+02 -0.17762430978E+03 -0.14458655709E+03  0.24913107555E+03  0.00000000000E+00 0.  1.
<scales pt_clust_5="13000.00000" pt_clust_6="13000.00000" pt_clust_7="13000.00000" pt_clust_8="13000.00000" pt_clust_9="202.99308"></scales>
<clustering>
<clus scale="   75.383">  7  8 -1 -1</clus>
<clus scale="   80.527">  5  6 -1 -1</clus>
<clus scale="   93.151">  2  7  1 -1</clus>
<clus scale="  202.993">  1  9  2 -1</clus>
<clus scale="  202.993">  1  5  2 -1</clus>
</clustering>
</event>
<event>
 9    1  0.6345107E-005  0.1187118E+03  0.7546771E-02  0.1249068E+00
         21   -1    0    0  501  502  0.00000000000E+00  0.00000000000E+00  0.28632155340E+03  0.28632155340E+03  0.00000000000E+00 0.  1.
          3   -1    0    0  502    0 -0.00000000000E+00 -0.00000000000E+00 -0.17482233485E+03  0.17482233485E+03  0.00000000000E+00 0. -1.
         23    2    1    2    0    0  0.21934497987E+02 -0.75910783618E+02 -0.11995035962E+03  0.17027029372E+03  0.91434757508E+02 0.  0.
        -24    2    1    2    0    0 -0.27729686454E+02  0.37391341144E+02  0.23429306676E+03  0.25181700629E+03  0.79696396519E+02 0.  0.
         13    1    4    4    0    0 -0.58084797714E+01 -0.22346960689E+02  0.30084054664E+02  0.37923283539E+02  0.00000000000E+00 0. -1.
        -14    1    4    4    0    0 -0.21921206682E+02  0.59738301833E+02  0.20420901210E+03  0.21389372275E+03  0.00000000000E+00 0.  1.
        -11    1    3    3    0    0  0.40822227169E+02 -0.42742504576E+01 -0.69242456901E+02  0.80493734450E+02  0.00000000000E+00 0.  1.
         11    1    3    3    0    0 -0.18887729183E+02 -0.71636533160E+02 -0.50707902720E+02  0.89776559274E+02  0.00000000000E+00 0. -1.
          4    1    1    2  501    0  0.57951884667E+01  0.38519442474E+02 -0.28434885942E+01  0.39056588244E+02  0.00000000000E+00 0. -1.
<scales pt_clust_5="13000.00000" pt_clust_6="13000.00000" pt_clust_7="13000.00000" pt_clust_8="13000.00000" pt_clust_9="38.95296"></scales>
<clustering>
<clus scale="   38.953">  1  9  2 -1</clus>
<clus scale="   79.696">  5  6 -1 -1</clus>
<clus scale="   91.435">  7  8 -1 -1</clus>
<clus scale="  109.926">  1  5  2 -1</clus>
<clus scale="   38.953">  1  5  2 -1</clus>
</clustering>
</event>
<event>
 9    1  0.6345107E-005  0.1167902E+03  0.7546771E-02  0.1249593E+00
         21   -1    0    0  501  502  0.00000000000E+00  0.00000000000E+00  0.27225167994E+03  0.27225167994E+03  0.00000000000E+00 0. -1.
          1   -1    0    0  502    0 -0.00000000000E+00 -0.00000000000E+00 -0.60201663240E+03  0.60201663240E+03  0.00000000000E+00 0. -1.
         23    2    1    2    0    0 -0.29113941954E+02 -0.72592398246E+02 -0.53578656587E+03  0.54899503368E+03  0.90614705978E+02 0.  0.
        -24    2    1    2    0    0  0.91675513583E+01  0.44849453367E+02 -0.16672173262E+02  0.99973362731E+02  0.87299452628E+02 0.  0.
         11    1    4    4    0    0 -0.10000001058E+02  0.61069191816E+02  0.10730997961E+02  0.62806054864E+02  0.00000000000E+00 0. -1.
        -12    1    4    4    0    0  0.19167552416E+02 -0.16219738450E+02 -0.27403171223E+02  0.37167307867E+02  0.00000000000E+00 0.  1.
        -11    1    3    3    0    0 -0.52922395901E+02 -0.78175440772E+02 -0.39696365646E+03  0.40803470941E+03  0.00000000000E+00 0. -1.
         11    1    3    3    0    0  0.23808453947E+02  0.55830425255E+01 -0.13882290941E+03  0.14096032428E+03  0.00000000000E+00 0.  1.
          2    1    1    2  501    0  0.19946390596E+02  0.27742944879E+02  0.22269378668E+03  0.22529991592E+03  0.00000000000E+00 0. -1.
<scales pt_clust_5="13000.00000" pt_clust_6="13000.00000" pt_clust_7="13000.00000" pt_clust_8="13000.00000" pt_clust_9="34.16913"></scales>
<clustering>
<clus scale="   34.169">  1  9  2 -1</clus>
<clus scale="   87.299">  5  6 -1 -1</clus>
<clus scale="   90.615">  7  8 -1 -1</clus>
<clus scale="  114.237">  1  5  2 -1</clus>
<clus scale="   34.169">  1  5  2 -1</clus>
</clustering>
</event>
<event>
 9    1  0.6345107E-005  0.1220527E+03  0.7546771E-02  0.1240804E+00
          1   -1    0    0  502    0 -0.00000000000E+00  0.00000000000E+00  0.56748472504E+03  0.56748472504E+03  0.00000000000E+00 0. -1.
         21   -1    0    0  501  502  0.00000000000E+00 -0.00000000000E+00 -0.72251291918E+02  0.72251291918E+02  0.00000000000E+00 0. -1.
         23    2    1    2    0    0  0.43467500422E+02  0.86861657039E+02  0.43543377201E+03  0.45514078722E+03  0.90089929126E+02 0.  0.
        -24    2    1    2    0    0 -0.16279075003E+02 -0.21507107114E+02  0.59022127440E+02  0.11380658495E+03  0.93492049457E+02 0.  0.
         13    1    4    4    0    0  0.31339798865E+02  0.13522223526E+02  0.37965791174E+02  0.51053254759E+02  0.00000000000E+00 0. -1.
        -14    1    4    4    0    0 -0.47618873868E+02 -0.35029330640E+02  0.21056336266E+02  0.62753330194E+02  0.00000000000E+00 0.  1.
        -11    1    3    3    0    0  0.59457627797E+02  0.18831231475E+02  0.19212834837E+03  0.20199783917E+03  0.00000000000E+00 0.  1.
         11    1    3    3    0    0 -0.15990127374E+02  0.68030425564E+02  0.24330542363E+03  0.25314294805E+03  0.00000000000E+00 0. -1.
          2    1    1    2  501    0 -0.27188425420E+02 -0.65354549924E+02  0.77753367941E+00  0.70788644790E+02  0.00000000000E+00 0. -1.
<scales pt_clust_5="13000.00000" pt_clust_6="13000.00000" pt_clust_7="13000.00000" pt_clust_8="13000.00000" pt_clust_9="70.78437"></scales>
<clustering>
<clus scale="   70.784">  2  9  1 -1</clus>
<clus scale="   90.090">  7  8 -1 -1</clus>
<clus scale="   93.492">  5  6 -1 -1</clus>
<clus scale="  119.467">  1  7  2 -1</clus>
<clus scale="   70.784">  2  5  1 -1</clus>
</clustering>
</event>
