<event>
 9    1  0.3288491E-005  0.2089928E+03  0.7546771E-02  0.1143598E+00
         21   -1    0    0  501  502  0.00000000000E+00  0.00000000000E+00  0.15699314759E+03  0.15699314759E+03  0.00000000000E+00 0. -1.
          2   -1    0    0  502    0 -0.00000000000E+00 -0.00000000000E+00 -0.71319393641E+03  0.71319393641E+03  0.00000000000E+00 0. -1.
         23    2    1    2    0    0  0.38407299397E+02 -0.16849918709E+03 -0.42685829456E+03  0.47101259563E+03  0.98882581414E+02 0.  0.
         23    2    1    2    0    0 -0.13965977386E+03  0.20786495849E+03 -0.63200983972E+02  0.27198790524E+03  0.85266422600E+02 0.  0.
        -11    1    3    3    0    0 -0.16724675348E+02 -0.12945052513E+03 -0.25794837156E+03  0.28909257274E+03  0.00000000000E+00 0. -1.
         11    1    3    3    0    0  0.55131974745E+02 -0.39048661966E+02 -0.16890992300E+03  0.18192002289E+03  0.00000000000E+00 0.  1.
        -11    1    4    4    0    0 -0.11265645033E+03  0.20039263719E+03 -0.74673044491E+02  0.24171211888E+03  0.00000000000E+00 0. -1.
         11    1    4    4    0    0 -0.27003323537E+02  0.74723212987E+01  0.11472060519E+02  0.30275786367E+02  0.00000000000E+00 0.  1.
          2    1    1    2  501    0  0.10125247447E+03 -0.39365771391E+02 -0.66141510286E+02  0.12718658312E+03  0.00000000000E+00 0. -1.
<scales pt_clust_5="13000.00000" pt_clust_6="13000.00000" pt_clust_7="13000.00000" pt_clust_8="13000.00000" pt_clust_9="108.63576"></scales>
<clustering>
<clus scale="   85.266">  7  8 -1 -1</clus>
<clus scale="   98.883">  5  6 -1 -1</clus>
<clus scale="  108.636">  1  9  2 -1</clus>
<clus scale="  202.905">  1  7  2 -1</clus>
<clus scale="  108.636">  1  5  2 -1</clus>
</clustering>
</event>
<event>
 9    1  0.3288491E-005  0.1081702E+03  0.7546771E-02  0.1264423E+00
         21   -1    0    0  501  502  0.00000000000E+00  0.00000000000E+00  0.26661207997E+03  0.26661207997E+03  0.00000000000E+00 0.  1.
          2   -1    0    0  502    0 -0.00000000000E+00 -0.00000000000E+00 -0.34805506814E+03  0.34805506814E+03  0.00000000000E+00 0. -1.
         23    2    1    2    0    0  0.57113262298E+02 -0.12516478903E+02 -0.31495304915E+03  0.33330900667E+03  0.92091713979E+02 0.  0.
         23    2    1    2    0    0 -0.12965834511E+02  0.43860204923E+02  0.16664910723E+03  0.19532435927E+03  0.91037629252E+02 0.  0.
        -11    1    4    4    0    0  0.32457562999E+02  0.45820088417E+02  0.85057847736E+02  0.10192061303E+03  0.00000000000E+00 0. -1.
         11    1    4    4    0    0 -0.45423397510E+02 -0.19598834943E+01  0.81591259499E+02  0.93403746238E+02  0.00000000000E+00 0.  1.
        -11    1    3    3    0    0  0.36007342853E+02  0.27226950045E+02 -0.25149837166E+03  0.25551764419E+03  0.00000000000E+00 0. -1.
         11    1    3    3    0    0  0.21105919445E+02 -0.39743428948E+02 -0.63454677493E+02  0.77791362476E+02  0.00000000000E+00 0.  1.
          2    1    1    2  501    0 -0.44147427787E+02 -0.31343726020E+02  0.66860953741E+02  0.86033782180E+02  0.00000000000E+00 0. -1.
<scales pt_clust_5="13000.00000" pt_clust_6="13000.00000" pt_clust_7="13000.00000" pt_clust_8="13000.00000" pt_clust_9="54.14263"></scales>
<clustering>
<clus scale="   54.143">  1  9  2 -1</clus>
<clus scale="   91.038">  5  6 -1 -1</clus>
<clus scale="   92.092">  7  8 -1 -1</clus>
<clus scale="  107.274">  1  5  2 -1</clus>
<clus scale="   54.143">  1  5  2 -1</clus>
</clustering>
</event>
<event>
 9    1  0.3288491E-005  0.1247436E+03  0.7546771E-02  0.1235734E+00
         -2   -1    0    0    0  501 -0.00000000000E+00  0.00000000000E+00  0.56670586789E+03  0.56670586789E+03  0.00000000000E+00 0.  1.
         21   -1    0    0  501  502  0.00000000000E+00 -0.00000000000E+00 -0.73786273986E+02  0.73786273986E+02  0.00000000000E+00 0.  1.
         23    2    1    2    0    0 -0.26921963953E+02  0.89261701250E+02  0.29319940550E+03  0.32093926469E+03  0.91343728745E+02 0.  0.
         23    2    1    2    0    0  0.10201098896E+03 -0.23489651651E+02  0.16155425694E+03  0.21268397381E+03  0.90425047288E+02 0.  0.
        -11    1    3    3    0    0 -0.59835469091E+02  0.42828462861E+02  0.16834131036E+03  0.18372086807E+03  0.00000000000E+00 0.  1.
         11    1    3    3    0    0  0.32913505138E+02  0.46433238389E+02  0.12485809514E+03  0.13721839662E+03  0.00000000000E+00 0. -1.
        -13    1    4    4    0    0  0.80060544926E+02 -0.23088653354E+01  0.16355694296E+03  0.18211506062E+03  0.00000000000E+00 0.  1.
         13    1    4    4    0    0  0.21950444031E+02 -0.21180786316E+02 -0.20026860263E+01  0.30568913187E+02  0.00000000000E+00 0. -1.
         -2    1    1    2    0  502 -0.75089025004E+02 -0.65772049599E+02  0.38165931463E+02  0.10686890338E+03  0.00000000000E+00 0.  1.
<scales pt_clust_5="13000.00000" pt_clust_6="13000.00000" pt_clust_7="13000.00000" pt_clust_8="13000.00000" pt_clust_9="99.82146"></scales>
<clustering>
<clus scale="   90.425">  7  8 -1 -1</clus>
<clus scale="   91.344">  5  6 -1 -1</clus>
<clus scale="   99.821">  2  9  1 -1</clus>
<clus scale="  124.072">  2  7  1 -1</clus>
<clus scale="   99.821">  2  5  1 -1</clus>
</clustering>
</event>
<event>
 9    1  0.3288491E-005  0.1343231E+03  0.7546771E-02  0.1222609E+00
          2   -1    0    0  502    0 -0.00000000000E+00  0.00000000000E+00  0.37796297147E+03  0.37796297147E+03  0.00000000000E+00 0. -1.
         21   -1    0    0  501  502  0.00000000000E+00 -0.00000000000E+00 -0.57960498343E+02  0.57960498343E+02  0.00000000000E+00 0.  1.
         23    2    1    2    0    0 -0.48988354574E+02 -0.70893411203E+02  0.13807765798E+03  0.18430305694E+03  0.86466424296E+02 0.  0.
         23    2    1    2    0    0  0.58656557759E+02  0.93483158503E+02  0.17402752934E+03  0.22581076431E+03  0.92332159163E+02 0.  0.
        -11    1    3    3    0    0 -0.59841011260E+02 -0.35095490632E+02  0.41750103694E+02  0.80967346812E+02  0.00000000000E+00 0. -1.
         11    1    3    3    0    0  0.10852656686E+02 -0.35797920571E+02  0.96327554283E+02  0.10333571013E+03  0.00000000000E+00 0.  1.
        -11    1    4    4    0    0  0.47401890858E+02  0.75873254810E+02  0.55119747885E+02  0.10508033431E+03  0.00000000000E+00 0.  1.
         11    1    4    4    0    0  0.11254666901E+02  0.17609903692E+02  0.11890778146E+03  0.12073042999E+03  0.00000000000E+00 0. -1.
          2    1    1    2  501    0 -0.96682031846E+01 -0.22589747299E+02  0.78972858080E+01  0.25809648564E+02  0.00000000000E+00 0. -1.
<scales pt_clust_5="13000.00000" pt_clust_6="13000.00000" pt_clust_7="13000.00000" pt_clust_8="13000.00000" pt_clust_9="24.57175"></scales>
<clustering>
<clus scale="   24.572">  2  9  1 -1</clus>
<clus scale="   86.466">  5  6 -1 -1</clus>
<clus scale="   92.332">  7  8 -1 -1</clus>
<clus scale="  130.361">  1  5  2 -1</clus>
<clus scale="   24.572">  2  5  1 -1</clus>
</clustering>
</event>
<event>
 9    1  0.3288491E-005  0.9867442E+02  0.7546771E-02  0.1285066E+00
         21   -1    0    0  501  502  0.00000000000E+00  0.00000000000E+00  0.64458514315E+03  0.64458514315E+03  0.00000000000E+00 0. -1.
          1   -1    0    0  502    0 -0.00000000000E+00 -0.00000000000E+00 -0.32094612679E+02  0.32094612679E+02  0.00000000000E+00 0. -1.
         23    2    1    2    0    0 -0.93079453360E+01 -0.37524156231E+02  0.99418654331E+02  0.14237920537E+03  0.94303070716E+02 0.  0.
         23    2    1    2    0    0 -0.21658931634E+02  0.12193246810E+02  0.23018361651E+03  0.24859726053E+03  0.90544552809E+02 0.  0.
        -11    1    3    3    0    0 -0.37473694670E+02 -0.79550700871E+01  0.39115895690E+01  0.38507940288E+02  0.00000000000E+00 0.  1.
         11    1    3    3    0    0  0.28165749334E+02 -0.29569086143E+02  0.95507064762E+02  0.10387126509E+03  0.00000000000E+00 0. -1.
        -13    1    4    4    0    0  0.33284244357E+02 -0.88905804001E+01  0.71902337744E+02  0.79729727927E+02  0.00000000000E+00 0.  1.
         13    1    4    4    0    0 -0.54943175991E+02  0.21083827210E+02  0.15828127877E+03  0.16886753260E+03  0.00000000000E+00 0. -1.
          1    1    1    2  501    0  0.30966876970E+02  0.25330909421E+02  0.28288825962E+03  0.28570328993E+03  0.00000000000E+00 0. -1.
<scales pt_clust_5="13000.00000" pt_clust_6="13000.00000" pt_clust_7="13000.00000" pt_clust_8="13000.00000" pt_clust_9="40.00753"></scales>
<clustering>
<clus scale="   40.008">  1  9  2 -1</clus>
<clus scale="   90.545">  7  8 -1 -1</clus>
<clus scale="   94.303">  5  6 -1 -1</clus>
<clus scale="   95.089">  1  7  2 -1</clus>
<clus scale="   40.008">  1  5  2 -1</clus>
</clustering>
</event>
<event>
 9    1  0.3288491E-005  0.1030445E+03  0.7546771E-02  0.1280078E+00
         21   -1    0    0  501  502  0.00000000000E+00  0.00000000000E+00  0.13014587878E+03  0.13014587878E+03  0.00000000000E+00 0.  1.
         -3   -1    0    0    0  501 -0.00000000000E+00 -0.00000000000E+00 -0.48698209380E+03  0.48698209380E+03  0.00000000000E+00 0.  1.
         23    2    1    2    0    0 -0.22038704836E+02 -0.41840118207E+02 -0.36168801502E+03  0.37324992697E+03  0.79126403773E+02 0.  0.
         23    2    1    2    0    0  0.44256387417E+02  0.23698756898E+02 -0.94117626993E+02  0.14083590914E+03  0.91958505252E+02 0.  0.
        -11    1    3    3    0    0  0.23534931392E+02 -0.16719714057E+02 -0.54389716813E+02  0.61576644345E+02  0.00000000000E+00 0.  1.
         11    1    3    3    0    0 -0.45573636228E+02 -0.25120404151E+02 -0.30729829820E+03  0.31167328262E+03  0.00000000000E+00 0. -1.
        -13    1    4    4    0    0  0.42953408174E+02  0.56666628321E+02 -0.71471885944E+02  0.10081831441E+03  0.00000000000E+00 0. -1.
         13    1    4    4    0    0  0.13029792436E+01 -0.32967871424E+02 -0.22645741048E+02  0.40017594740E+02  0.00000000000E+00 0.  1.
         -3    1    1    2    0  502 -0.22217682581E+02  0.18141361310E+02  0.98969426988E+02  0.10304213647E+03  0.00000000000E+00 0.  1.
<scales pt_clust_5="13000.00000" pt_clust_6="13000.00000" pt_clust_7="13000.00000" pt_clust_8="13000.00000" pt_clust_9="28.68335"></scales>
<clustering>
<clus scale="   28.683">  1  9  2 -1</clus>
<clus scale="   79.126">  5  6 -1 -1</clus>
<clus scale="   91.776">  2  5  1 -1</clus>
<clus scale="   91.959">  7  8 -1 -1</clus>
<clus scale="   28.683">  1  5  2 -1</clus>
</clustering>
</event>
<event>
 9    1  0.3288491E-005  0.1404288E+03  0.7546771E-02  0.1213821E+00
         21   -1    0    0  501  502  0.00000000000E+00  0.00000000000E+00  0.73962491855E+03  0.73962491855E+03  0.00000000000E+00 0. -1.
         -3   -1    0    0    0  501 -0.00000000000E+00 -0.00000000000E+00 -0.37662514413E+02  0.37662514413E+02  0.00000000000E+00 0.  1.
         23    2    1    2    0    0  0.80037799953E+02  0.71823279360E+02  0.21962104336E+03  0.26160532910E+03  0.92947902860E+02 0.  0.
         23    2    1    2    0    0 -0.38417446127E+02 -0.88742828618E+02  0.35471211956E+03  0.38037597609E+03  0.97539764338E+02 0.  0.
        -11    1    4    4    0    0 -0.49924670792E+02 -0.44749254379E+02  0.92454183576E+02  0.11420483607E+03  0.00000000000E+00 0.  1.
         11    1    4    4    0    0  0.11507224664E+02 -0.43993574238E+02  0.26225793598E+03  0.26617114002E+03  0.00000000000E+00 0. -1.
        -11    1    3    3    0    0  0.15199382619E+02  0.65283627923E+02  0.63089557774E+02  0.92050342785E+02  0.00000000000E+00 0.  1.
         11    1    3    3    0    0  0.64838417334E+02  0.65396514371E+01  0.15653148559E+03  0.16955498631E+03  0.00000000000E+00 0. -1.
         -3    1    1    2    0  502 -0.41620353826E+02  0.16919549257E+02  0.12762924121E+03  0.13530612777E+03  0.00000000000E+00 0.  1.
<scales pt_clust_5="13000.00000" pt_clust_6="13000.00000" pt_clust_7="13000.00000" pt_clust_8="13000.00000" pt_clust_9="44.92800"></scales>
<clustering>
<clus scale="   44.928">  1  9  2 -1</clus>
<clus scale="   92.948">  7  8 -1 -1</clus>
<clus scale="   97.540">  5  6 -1 -1</clus>
<clus scale="  137.279">  2  7  1 -1</clus>
<clus scale="   44.928">  1  5  2 -1</clus>
</clustering>
</event>
<event>
 9    1  0.3288491E-005  0.1106742E+03  0.7546771E-02  0.1269000E+00
          1   -1    0    0  502    0 -0.00000000000E+00  0.00000000000E+00  0.57083661731E+03  0.57083661731E+03  0.00000000000E+00 0. -1.
         21   -1    0    0  501  502  0.00000000000E+00 -0.00000000000E+00 -0.37774882697E+02  0.37774882697E+02  0.00000000000E+00 0.  1.
         23    2    1    2    0    0 -0.47435537718E+02 -0.41338888273E+02  0.46917577718E+03  0.48246495217E+03  0.93206685685E+02 0.  0.
         23    2    1    2    0    0  0.24493070099E+02  0.43022777263E+02  0.45670948006E+02  0.96804106377E+02  0.69529343973E+02 0.  0.
        -11    1    4    4    0    0 -0.17466169924E+02  0.33007713331E+02  0.37454642084E+02  0.52890702820E+02  0.00000000000E+00 0. -1.
         11    1    4    4    0    0  0.41959240023E+02  0.10015063932E+02  0.82163059221E+01  0.43913403556E+02  0.00000000000E+00 0.  1.
        -13    1    3    3    0    0 -0.52904482052E+02 -0.67472979803E+02  0.36116653147E+03  0.37120445940E+03  0.00000000000E+00 0. -1.
         13    1    3    3    0    0  0.54689443336E+01  0.26134091529E+02  0.10800924571E+03  0.11126049277E+03  0.00000000000E+00 0.  1.
          1    1    1    2  501    0  0.22942467619E+02 -0.16838889895E+01  0.18215009431E+02  0.29342441466E+02  0.00000000000E+00 0. -1.
<scales pt_clust_5="13000.00000" pt_clust_6="13000.00000" pt_clust_7="13000.00000" pt_clust_8="13000.00000" pt_clust_9="23.00418"></scales>
<clustering>
<clus scale="   23.004">  2  9  1 -1</clus>
<clus scale="   69.529">  5  6 -1 -1</clus>
<clus scale="   91.628">  2  5  1 -1</clus>
<clus scale="   93.207">  7  8 -1 -1</clus>
<clus scale="   23.004">  2  5  1 -1</clus>
</clustering>
</event>
<event>
 9    1  0.3288491E-005  0.9315810E+02  0.7546771E-02  0.1295572E+00
          3   -1    0    0  502    0 -0.00000000000E+00  0.00000000000E+00  0.13882808367E+03  0.13882808367E+03  0.00000000000E+00 0. -1.
         21   -1    0    0  501  502  0.00000000000E+00 -0.00000000000E+00 -0.14878168677E+03  0.14878168677E+03  0.00000000000E+00 0. -1.
         23    2    1    2    0    0  0.15388548973E+01 -0.19490329675E+02  0.32056107355E+02  0.98199240744E+02  0.90737290232E+02 0.  0.
         23    2    1    2    0    0 -0.38454651735E+02 -0.11070895706E+02  0.29107931162E+02  0.10365224437E+03  0.91077939887E+02 0.  0.
        -13    1    4    4    0    0 -0.46817369669E+02 -0.42974736664E+02  0.69746163957E+01  0.63932303008E+02  0.00000000000E+00 0. -1.
         13    1    4    4    0    0  0.83627179336E+01  0.31903840958E+02  0.22133314766E+02  0.39719941360E+02  0.00000000000E+00 0.  1.
        -13    1    3    3    0    0 -0.25027739390E+02 -0.47532242783E+02  0.23504415637E+02  0.58635820088E+02  0.00000000000E+00 0. -1.
         13    1    3    3    0    0  0.26566594287E+02  0.28041913108E+02  0.85516917181E+01  0.39563420656E+02  0.00000000000E+00 0.  1.
          3    1    1    2  501    0  0.36915796838E+02  0.30561225381E+02 -0.71117641618E+02  0.85758285327E+02  0.00000000000E+00 0. -1.
<scales pt_clust_5="13000.00000" pt_clust_6="13000.00000" pt_clust_7="13000.00000" pt_clust_8="13000.00000" pt_clust_9="47.92457"></scales>
<clustering>
<clus scale="   47.925">  2  9  1 -1</clus>
<clus scale="   90.737">  7  8 -1 -1</clus>
<clus scale="   91.078">  5  6 -1 -1</clus>
<clus scale="   92.825">  1  7  2 -1</clus>
<clus scale="   47.925">  2  5  1 -1</clus>
</clustering>
</event>
<event>
 9    1  0.3288491E-005  0.1046291E+03  0.7546771E-02  0.1272230E+00
         -1   -1    0    0    0  501 -0.00000000000E+00  0.00000000000E+00  0.34842066803E+03  0.34842066803E+03  0.00000000000E+00 0.  1.
         21   -1    0    0  501  502  0.00000000000E+00 -0.00000000000E+00 -0.39821073072E+02  0.39821073072E+02  0.00000000000E+00 0. -1.
         23    2    1    2    0    0 -0.19149216573E+02  0.49215075078E+02  0.18919107786E+03  0.21690417057E+03  0.92007277753E+02 0.  0.
         23    2    1    2    0    0  0.14691168201E+02 -0.26632676942E+02  0.99257217868E+02  0.14074486288E+03  0.95036788786E+02 0.  0.
        -11    1    4    4    0    0  0.69186175217E+01 -0.60658964563E+02  0.43499118422E+02  0.74963661555E+02  0.00000000000E+00 0. -1.
         11    1    4    4    0    0  0.77725506791E+01  0.34026287621E+02  0.55758099446E+02  0.65781201321E+02  0.00000000000E+00 0.  1.
        -11    1    3    3    0    0  0.28605737733E+02  0.64768473692E+01  0.11586376962E+03  0.11951841236E+03  0.00000000000E+00 0. -1.
         11    1    3    3    0    0 -0.47754954305E+02  0.42738227709E+02  0.73327308239E+02  0.97385758209E+02  0.00000000000E+00 0.  1.
         -1    1    1    2    0  502  0.44580483720E+01 -0.22582398136E+02  0.20151299228E+02  0.30592707651E+02  0.00000000000E+00 0.  1.
<scales pt_clust_5="13000.00000" pt_clust_6="13000.00000" pt_clust_7="13000.00000" pt_clust_8="13000.00000" pt_clust_9="23.01823"></scales>
<clustering>
<clus scale="   23.018">  2  9  1 -1</clus>
<clus scale="   92.007">  7  8 -1 -1</clus>
<clus scale="   95.037">  5  6 -1 -1</clus>
<clus scale="  101.885">  1  7  2 -1</clus>
<clus scale="   23.018">  2  5  1 -1</clus>
</clustering>
</event>
<event>
 9    1  0.3288491E-005  0.1906447E+03  0.7546771E-02  0.1159360E+00
         21   -1    0    0  501  502  0.00000000000E+00  0.00000000000E+00  0.65713284538E+02  0.65713284538E+02  0.00000000000E+00 0.  1.
          2   -1    0    0  502    0 -0.00000000000E+00 -0.00000000000E+00 -0.73395593860E+03  0.73395593860E+03  0.00000000000E+00 0. -1.
         23    2    1    2    0    0 -0.14067835611E+03  0.85654183197E+02 -0.47304827834E+03  0.50939479375E+03  0.92635540035E+02 0.  0.
         23    2    1    2    0    0  0.15624942938E+03 -0.70869172700E+02 -0.19086243319E+03  0.26836962206E+03  0.78469496109E+02 0.  0.
        -11    1    4    4    0    0  0.13069233024E+03 -0.48613015571E+02 -0.10056357565E+03  0.17192074690E+03  0.00000000000E+00 0.  1.
         11    1    4    4    0    0  0.25557099142E+02 -0.22256157129E+02 -0.90298857544E+02  0.96448875164E+02  0.00000000000E+00 0. -1.
        -13    1    3    3    0    0 -0.85450503537E+01  0.51834915178E+02 -0.12691974533E+03  0.13736265167E+03  0.00000000000E+00 0.  1.
         13    1    3    3    0    0 -0.13213330576E+03  0.33819268019E+02 -0.34612853301E+03  0.37203214208E+03  0.00000000000E+00 0. -1.
          2    1    1    2  501    0 -0.15571073269E+02 -0.14785010498E+02 -0.43319425269E+01  0.21904807331E+02  0.00000000000E+00 0. -1.
<scales pt_clust_5="13000.00000" pt_clust_6="13000.00000" pt_clust_7="13000.00000" pt_clust_8="13000.00000" pt_clust_9="21.47219"></scales>
<clustering>
<clus scale="   21.472">  1  9  2 -1</clus>
<clus scale="   78.469">  5  6 -1 -1</clus>
<clus scale="   92.636">  7  8 -1 -1</clus>
<clus scale="  184.178">  1  5  2 -1</clus>
<clus scale="   21.472">  1  5  2 -1</clus>
</clustering>
</event>
<event>
 9    1  0.3288491E-005  0.1321408E+03  0.7546771E-02  0.1226009E+00
         21   -1    0    0  501  502  0.00000000000E+00  0.00000000000E+00  0.14598789800E+03  0.14598789800E+03  0.00000000000E+00 0. -1.
         -3   -1    0    0    0  501 -0.00000000000E+00 -0.00000000000E+00 -0.36641564720E+03  0.36641564720E+03  0.00000000000E+00 0.  1.
         23    2    1    2    0    0 -0.54227408293E+02  0.56569283253E+02 -0.23106368188E+03  0.26079931707E+03  0.92114944940E+02 0.  0.
         23    2    1    2    0    0  0.66925506888E+02 -0.11700327989E+03 -0.40174914145E+02  0.17163390981E+03  0.98363531316E+02 0.  0.
        -11    1    3    3    0    0 -0.62902039693E+02  0.63660261095E+01 -0.16938836849E+03  0.18080268877E+03  0.00000000000E+00 0.  1.
         11    1    3    3    0    0  0.86746313998E+01  0.50203257144E+02 -0.61675313393E+02  0.79996628303E+02  0.00000000000E+00 0. -1.
        -13    1    4    4    0    0  0.21956723784E+02  0.11329203721E+02  0.10048540149E+02  0.26672490237E+02  0.00000000000E+00 0.  1.
         13    1    4    4    0    0  0.44968783103E+02 -0.12833248361E+03 -0.50223454294E+02  0.14496141957E+03  0.00000000000E+00 0. -1.
         -3    1    1    2    0  502 -0.12698098595E+02  0.60433996633E+02  0.50810846828E+02  0.79970318321E+02  0.00000000000E+00 0.  1.
<scales pt_clust_5="13000.00000" pt_clust_6="13000.00000" pt_clust_7="13000.00000" pt_clust_8="13000.00000" pt_clust_9="61.75362"></scales>
<clustering>
<clus scale="   61.754">  1  9  2 -1</clus>
<clus scale="   92.115">  5  6 -1 -1</clus>
<clus scale="   98.364">  7  8 -1 -1</clus>
<clus scale="  127.558">  2  5  1 -1</clus>
<clus scale="   61.754">  1  5  2 -1</clus>
</clustering>
</event>
<event>
 9    1  0.3288491E-005  0.1232046E+03  0.7546771E-02  0.1240206E+00
         21   -1    0    0  501  502  0.00000000000E+00  0.00000000000E+00  0.44647298375E+03  0.44647298375E+03  0.00000000000E+00 0.  1.
         -4   -1    0    0    0  501 -0.00000000000E+00 -0.00000000000E+00 -0.79059500951E+02  0.79059500951E+02  0.00000000000E+00 0.  1.
         23    2    1    2    0    0  0.80949455471E+02 -0.21179397885E+02  0.93310841257E+01  0.12926180608E+03  0.98082435459E+02 0.  0.
         23    2    1    2    0    0 -0.49293929266E+02  0.23785865837E+02  0.13884778419E+03  0.17474713088E+03  0.90896609948E+02 0.  0.
        -11    1    4    4    0    0 -0.27631147384E+02  0.51615958205E+02  0.43069125176E+02  0.72681751428E+02  0.00000000000E+00 0.  1.
         11    1    4    4    0    0 -0.21662781882E+02 -0.27830092368E+02  0.95778659018E+02  0.10206537946E+03  0.00000000000E+00 0. -1.
        -13    1    3    3    0    0  0.48998397529E+02  0.36990678881E+02  0.13145126171E+02  0.62784931524E+02  0.00000000000E+00 0. -1.
         13    1    3    3    0    0  0.31951057943E+02 -0.58170076766E+02 -0.38140420454E+01  0.66476874561E+02  0.00000000000E+00 0.  1.
         -4    1    1    2    0  502 -0.31655526206E+02 -0.26064679511E+01  0.21923461448E+03  0.22152354774E+03  0.00000000000E+00 0.  1.
<scales pt_clust_5="13000.00000" pt_clust_6="13000.00000" pt_clust_7="13000.00000" pt_clust_8="13000.00000" pt_clust_9="31.76265"></scales>
<clustering>
<clus scale="   31.763">  1  9  2 -1</clus>
<clus scale="   90.897">  5  6 -1 -1</clus>
<clus scale="   98.082">  7  8 -1 -1</clus>
<clus scale="  117.564">  1  5  2 -1</clus>
<clus scale="   31.763">  1  5  2 -1</clus>
</clustering>
</event>
<event>
 9    1  0.3288491E-005  0.9420481E+02  0.7546771E-02  0.1293144E+00
          2   -1    0    0  502    0 -0.00000000000E+00  0.00000000000E+00  0.16356381179E+03  0.16356381179E+03  0.00000000000E+00 0. -1.
         21   -1    0    0  501  502  0.00000000000E+00 -0.00000000000E+00 -0.20123853817E+03  0.20123853817E+03  0.00000000000E+00 0. -1.
         23    2    1    2    0    0 -0.25243252226E+00  0.19367552845E+02  0.93457972454E+02  0.13370742517E+03  0.93638224593E+02 0.  0.
         23    2    1    2    0    0 -0.36093798981E+02  0.37937903563E+02 -0.33411085960E+02  0.11212233341E+03  0.93343827503E+02 0.  0.
        -13    1    4    4    0    0 -0.47153630271E+02  0.62661810170E+02 -0.32870689504E+02  0.85032050016E+02  0.00000000000E+00 0. -1.
         13    1    4    4    0    0  0.11059831290E+02 -0.24723906607E+02 -0.54039645597E+00  0.27090283395E+02  0.00000000000E+00 0.  1.
        -13    1    3    3    0    0 -0.39606428617E+02 -0.15759551104E+02  0.37057453448E+02  0.56482630028E+02  0.00000000000E+00 0.  1.
         13    1    3    3    0    0  0.39353996095E+02  0.35127103949E+02  0.56400519006E+02  0.77224795142E+02  0.00000000000E+00 0. -1.
          2    1    1    2  501    0  0.36346231503E+02 -0.57305456408E+02 -0.97721612872E+02  0.11897259139E+03  0.00000000000E+00 0. -1.
<scales pt_clust_5="13000.00000" pt_clust_6="13000.00000" pt_clust_7="13000.00000" pt_clust_8="13000.00000" pt_clust_9="67.85988"></scales>
<clustering>
<clus scale="   67.860">  2  9  1 -1</clus>
<clus scale="   93.344">  5  6 -1 -1</clus>
<clus scale="   93.638">  7  8 -1 -1</clus>
<clus scale="   93.912">  2  5  1 -1</clus>
<clus scale="   67.860">  2  5  1 -1</clus>
</clustering>
</event>
<event>
 9    1  0.3288491E-005  0.9395833E+02  0.7546771E-02  0.1297281E+00
          1   -1    0    0  502    0 -0.00000000000E+00  0.00000000000E+00  0.28205479701E+03  0.28205479701E+03  0.00000000000E+00 0. -1.
         21   -1    0    0  501  502  0.00000000000E+00 -0.00000000000E+00 -0.43092910146E+02  0.43092910146E+02  0.00000000000E+00 0.  1.
         23    2    1    2    0    0  0.47013596058E+01  0.32803002627E+01  0.12116891154E+03  0.14906688786E+03  0.86638148524E+02 0.  0.
         23    2    1    2    0    0  0.16821189910E+02 -0.26092042287E+02  0.99857672977E+02  0.13995228788E+03  0.93012584796E+02 0.  0.
        -11    1    4    4    0    0  0.23845041694E+02  0.99391265261E+01 -0.71650959259E+01  0.26808783060E+02  0.00000000000E+00 0.  1.
         11    1    4    4    0    0 -0.70238517848E+01 -0.36031168813E+02  0.10702276890E+03  0.11314350482E+03  0.00000000000E+00 0. -1.
        -13    1    3    3    0    0  0.16624029927E+02  0.27453604841E+02  0.11757255470E+03  0.12187437962E+03  0.00000000000E+00 0.  1.
         13    1    3    3    0    0 -0.11922670321E+02 -0.24173304578E+02  0.35963568465E+01  0.27192508240E+02  0.00000000000E+00 0. -1.
          1    1    1    2  501    0 -0.21522549515E+02  0.22811742024E+02  0.17935302339E+02  0.36128531410E+02  0.00000000000E+00 0. -1.
<scales pt_clust_5="13000.00000" pt_clust_6="13000.00000" pt_clust_7="13000.00000" pt_clust_8="13000.00000" pt_clust_9="31.36233"></scales>
<clustering>
<clus scale="   31.362">  2  9  1 -1</clus>
<clus scale="   86.638">  7  8 -1 -1</clus>
<clus scale="   87.653">  1  7  2 -1</clus>
<clus scale="   93.013">  5  6 -1 -1</clus>
<clus scale="   31.362">  2  5  1 -1</clus>
</clustering>
</event>
<event>
 9    1  0.3288491E-005  0.2089299E+03  0.7546771E-02  0.1143144E+00
         -1   -1    0    0    0  501 -0.00000000000E+00  0.00000000000E+00  0.22739826508E+03  0.22739826508E+03  0.00000000000E+00 0.  1.
         21   -1    0    0  501  502  0.00000000000E+00 -0.00000000000E+00 -0.21783110553E+03  0.21783110553E+03  0.00000000000E+00 0. -1.
         23    2    1    2    0    0  0.14560702898E+03  0.11908516299E+03  0.33123291605E+02  0.21120889585E+03  0.90162976385E+02 0.  0.
         23    2    1    2    0    0 -0.12751281848E+03 -0.12800521845E+03 -0.35901775685E+01  0.20563725469E+03  0.98127143608E+02 0.  0.
        -11    1    4    4    0    0 -0.27850314192E+02  0.95374900000E+01 -0.19075466629E+02  0.35078157637E+02  0.00000000000E+00 0.  1.
         11    1    4    4    0    0 -0.99662504291E+02 -0.13754270845E+03  0.15485289060E+02  0.17055909705E+03  0.00000000000E+00 0. -1.
        -13    1    3    3    0    0  0.86645967983E+02  0.12089995976E+03  0.14990946713E+02  0.14949599500E+03  0.00000000000E+00 0.  1.
         13    1    3    3    0    0  0.58961060992E+02 -0.18147967726E+01  0.18132344892E+02  0.61712900855E+02  0.00000000000E+00 0. -1.
         -1    1    1    2    0  502 -0.18094210493E+02  0.89200554682E+01 -0.19965954490E+02  0.28383220071E+02  0.00000000000E+00 0.  1.
<scales pt_clust_5="13000.00000" pt_clust_6="13000.00000" pt_clust_7="13000.00000" pt_clust_8="13000.00000" pt_clust_9="20.17344"></scales>
<clustering>
<clus scale="   20.173">  2  9  1 -1</clus>
<clus scale="   90.163">  7  8 -1 -1</clus>
<clus scale="   98.127">  5  6 -1 -1</clus>
<clus scale="  205.310">  1  7  2 -1</clus>
<clus scale="   20.173">  2  5  1 -1</clus>
</clustering>
</event>
<event>
 9    1  0.3288491E-005  0.2942183E+03  0.7546771E-02  0.1123196E+00
         21   -1    0    0  501  502  0.00000000000E+00  0.00000000000E+00  0.21664796685E+03  0.21664796685E+03  0.00000000000E+00 0. -1.
          2   -1    0    0  502    0 -0.00000000000E+00 -0.00000000000E+00 -0.65221042291E+03  0.65221042291E+03  0.00000000000E+00 0. -1.
         23    2    1    2    0    0  0.76101214497E+02 -0.15507948812E+02 -0.21048102341E+03  0.24211993768E+03  0.91037968363E+02 0.  0.
         23    2    1    2    0    0 -0.15742244545E+03 -0.24395022199E+03 -0.65006744443E+02  0.31121414112E+03  0.91295277381E+02 0.  0.
        -11    1    3    3    0    0  0.84213972993E+02 -0.37976303878E+02 -0.18725024193E+03  0.20879857760E+03  0.00000000000E+00 0. -1.
         11    1    3    3    0    0 -0.81127584961E+01  0.22468355067E+02 -0.23230781478E+02  0.33321360085E+02  0.00000000000E+00 0.  1.
        -13    1    4    4    0    0 -0.12594334922E+03 -0.23925242530E+03 -0.69252318047E+02  0.27910452125E+03  0.00000000000E+00 0. -1.
         13    1    4    4    0    0 -0.31479096234E+02 -0.46977966854E+01  0.42455736042E+01  0.32109619877E+02  0.00000000000E+00 0.  1.
          2    1    1    2  501    0  0.81321230955E+02  0.25945817080E+03 -0.16007468820E+03  0.31552431095E+03  0.00000000000E+00 0. -1.
<scales pt_clust_5="13000.00000" pt_clust_6="13000.00000" pt_clust_7="13000.00000" pt_clust_8="13000.00000" pt_clust_9="279.69569"></scales>
<clustering>
<clus scale="   91.038">  5  6 -1 -1</clus>
<clus scale="   91.295">  7  8 -1 -1</clus>
<clus scale="  119.665">  2  5  1 -1</clus>
<clus scale="  279.696">  1  9  2 -1</clus>
<clus scale="  279.696">  1  5  2 -1</clus>
</clustering>
</event>
<event>
 9    1  0.3288491E-005  0.9633567E+02  0.7546771E-02  0.1289466E+00
          2   -1    0    0  502    0 -0.00000000000E+00  0.00000000000E+00  0.45747987220E+03  0.45747987220E+03  0.00000000000E+00 0. -1.
         21   -1    0    0  501  502  0.00000000000E+00 -0.00000000000E+00 -0.41992160655E+02  0.41992160655E+02  0.00000000000E+00 0.  1.
         23    2    1    2    0    0 -0.17999749766E+02 -0.84711692749E+00  0.21340765884E+03  0.23386066041E+03  0.93932268358E+02 0.  0.
         23    2    1    2    0    0 -0.31109234242E+02  0.47069960024E+01  0.65861522706E+02  0.12075945187E+03  0.96203766959E+02 0.  0.
        -13    1    4    4    0    0 -0.43430879060E+02 -0.11237169664E+02  0.82972830905E+02  0.94323941322E+02  0.00000000000E+00 0. -1.
         13    1    4    4    0    0  0.12321644818E+02  0.15944165667E+02 -0.17111308199E+02  0.26435510552E+02  0.00000000000E+00 0.  1.
        -13    1    3    3    0    0  0.33459676627E+02 -0.56189565444E+01  0.37739723788E+02  0.50748491448E+02  0.00000000000E+00 0. -1.
         13    1    3    3    0    0 -0.51459426393E+02  0.47718396169E+01  0.17566793505E+03  0.18311216897E+03  0.00000000000E+00 0.  1.
          2    1    1    2  501    0  0.49108984009E+02 -0.38598790749E+01  0.13621853000E+03  0.14485192057E+03  0.00000000000E+00 0. -1.
<scales pt_clust_5="13000.00000" pt_clust_6="13000.00000" pt_clust_7="13000.00000" pt_clust_8="13000.00000" pt_clust_9="49.26046"></scales>
<clustering>
<clus scale="   49.260">  2  9  1 -1</clus>
<clus scale="   93.932">  7  8 -1 -1</clus>
<clus scale="   94.067">  1  7  2 -1</clus>
<clus scale="   96.204">  5  6 -1 -1</clus>
<clus scale="   49.260">  2  5  1 -1</clus>
</clustering>
</event>
<event>
 9    1  0.3288491E-005  0.1047733E+03  0.7546771E-02  0.1271187E+00
          2   -1    0    0  502    0 -0.00000000000E+00  0.00000000000E+00  0.20935416051E+03  0.20935416051E+03  0.00000000000E+00 0. -1.
         21   -1    0    0  501  502  0.00000000000E+00 -0.00000000000E+00 -0.98522082559E+02  0.98522082559E+02  0.00000000000E+00 0.  1.
         23    2    1    2    0    0  0.21936173265E+02  0.41957154033E+02  0.13464497993E+03  0.17009995810E+03  0.92537163620E+02 0.  0.
         23    2    1    2    0    0 -0.44876144078E+02 -0.39191582968E+02 -0.31646942148E+02  0.11337827626E+03  0.91122204190E+02 0.  0.
        -13    1    3    3    0    0  0.48577061558E+02  0.46042624914E+02  0.12440751221E+03  0.14126883348E+03  0.00000000000E+00 0. -1.
         13    1    3    3    0    0 -0.26640888292E+02 -0.40854708808E+01  0.10237467727E+02  0.28831124618E+02  0.00000000000E+00 0.  1.
        -13    1    4    4    0    0 -0.26449585196E+02 -0.54575826845E+02 -0.53532975337E+02  0.80894257406E+02  0.00000000000E+00 0.  1.
         13    1    4    4    0    0 -0.18426558882E+02  0.15384243877E+02  0.21886033188E+02  0.32484018849E+02  0.00000000000E+00 0. -1.
          2    1    1    2  501    0  0.22939970812E+02 -0.27655710655E+01  0.78340401684E+01  0.24398008721E+02  0.00000000000E+00 0. -1.
<scales pt_clust_5="13000.00000" pt_clust_6="13000.00000" pt_clust_7="13000.00000" pt_clust_8="13000.00000" pt_clust_9="23.10607"></scales>
<clustering>
<clus scale="   23.106">  2  9  1 -1</clus>
<clus scale="   91.122">  7  8 -1 -1</clus>
<clus scale="   92.537">  5  6 -1 -1</clus>
<clus scale="  103.526">  2  7  1 -1</clus>
<clus scale="   23.106">  2  5  1 -1</clus>
</clustering>
</event>
<event>
 9    1  0.3288491E-005  0.1124703E+03  0.7546771E-02  0.1257315E+00
         21   -1    0    0  501  502  0.00000000000E+00  0.00000000000E+00  0.11547604640E+03  0.11547604640E+03  0.00000000000E+00 0. -1.
          1   -1    0    0  502    0 -0.00000000000E+00 -0.00000000000E+00 -0.66823404500E+03  0.66823404500E+03  0.00000000000E+00 0. -1.
         23    2    1    2    0    0  0.52552114350E+02  0.49643153973E+02 -0.50385186868E+03  0.51644433225E+03  0.87303352069E+02 0.  0.
         23    2    1    2    0    0 -0.29705297542E+02 -0.41658958523E+02 -0.13915726347E+03  0.17382598431E+03  0.90735083171E+02 0.  0.
        -11    1    3    3    0    0  0.17549578272E+02 -0.25155992331E+02 -0.14592715679E+03  0.14911588358E+03  0.00000000000E+00 0.  1.
         11    1    3    3    0    0  0.35002536078E+02  0.74799146304E+02 -0.35792471189E+03  0.36732844867E+03  0.00000000000E+00 0. -1.
        -11    1    4    4    0    0 -0.53927246802E+02 -0.52537711812E+02 -0.85264676378E+02  0.11374719402E+03  0.00000000000E+00 0.  1.
         11    1    4    4    0    0  0.24221949260E+02  0.10878753289E+02 -0.53892587091E+02  0.60078790288E+02  0.00000000000E+00 0. -1.
          1    1    1    2  501    0 -0.22846816808E+02 -0.79841954501E+01  0.90251133549E+02  0.93439774840E+02  0.00000000000E+00 0. -1.
<scales pt_clust_5="13000.00000" pt_clust_6="13000.00000" pt_clust_7="13000.00000" pt_clust_8="13000.00000" pt_clust_9="24.20174"></scales>
<clustering>
<clus scale="   24.202">  1  9  2 -1</clus>
<clus scale="   87.303">  5  6 -1 -1</clus>
<clus scale="   90.735">  7  8 -1 -1</clus>
<clus scale="  109.721">  2  5  1 -1</clus>
<clus scale="   24.202">  1  5  2 -1</clus>
</clustering>
</event>
<event>
 9    1  0.3288491E-005  0.9618722E+02  0.7546771E-02  0.1290028E+00
         -3   -1    0    0    0  501 -0.00000000000E+00  0.00000000000E+00  0.36501513099E+02  0.36501513099E+02  0.00000000000E+00 0.  1.
         21   -1    0    0  501  502  0.00000000000E+00 -0.00000000000E+00 -0.82081142649E+03  0.82081142649E+03  0.00000000000E+00 0.  1.
         23    2    1    2    0    0 -0.39882598362E+02  0.64140822208E+01 -0.83676128110E+02  0.13158858002E+03  0.93177775643E+02 0.  0.
         23    2    1    2    0    0 -0.43225762550E+02 -0.26062248117E+02 -0.36614240506E+03  0.38050336728E+03  0.90414846128E+02 0.  0.
        -13    1    4    4    0    0  0.96337498349E+00 -0.51263897542E+02 -0.15252434127E+03  0.16091174588E+03  0.00000000000E+00 0. -1.
         13    1    4    4    0    0 -0.44189137534E+02  0.25201649425E+02 -0.21361806379E+03  0.21959162139E+03  0.00000000000E+00 0.  1.
        -13    1    3    3    0    0 -0.61615453238E+02 -0.16801934944E+02 -0.33328114294E+02  0.72038408492E+02  0.00000000000E+00 0.  1.
         13    1    3    3    0    0  0.21732854877E+02  0.23216017165E+02 -0.50348013816E+02  0.59550171530E+02  0.00000000000E+00 0. -1.
         -3    1    1    2    0  502  0.83108360912E+02  0.19648165896E+02 -0.33449138022E+03  0.34522099229E+03  0.00000000000E+00 0.  1.
<scales pt_clust_5="13000.00000" pt_clust_6="13000.00000" pt_clust_7="13000.00000" pt_clust_8="13000.00000" pt_clust_9="85.39936"></scales>
<clustering>
<clus scale="   85.399">  2  9  1 -1</clus>
<clus scale="   90.415">  5  6 -1 -1</clus>
<clus scale="   93.178">  7  8 -1 -1</clus>
<clus scale="   93.513">  2  5  1 -1</clus>
<clus scale="   85.399">  2  5  1 -1</clus>
</clustering>
</event>
<event>
 9    1  0.3288491E-005  0.1342449E+03  0.7546771E-02  0.1221626E+00
         21   -1    0    0  501  502  0.00000000000E+00  0.00000000000E+00  0.16443556336E+03  0.16443556336E+03  0.00000000000E+00 0. -1.
          3   -1    0    0  502    0 -0.00000000000E+00 -0.00000000000E+00 -0.42628463305E+03  0.42628463305E+03  0.00000000000E+00 0. -1.
         23    2    1    2    0    0 -0.53787096047E+02  0.77074483664E+02 -0.20723750334E+03  0.24551630760E+03  0.92181054312E+02 0.  0.
         23    2    1    2    0    0  0.35207220838E+02 -0.97910843964E+02 -0.17425758140E+03  0.22234407199E+03  0.90802532509E+02 0.  0.
        -13    1    3    3    0    0  0.19120153782E+02  0.45865991831E+02 -0.56904024762E+02  0.75546922647E+02  0.00000000000E+00 0.  1.
         13    1    3    3    0    0 -0.72907249830E+02  0.31208491833E+02 -0.15033347857E+03  0.16996938495E+03  0.00000000000E+00 0. -1.
        -13    1    4    4    0    0  0.41833679193E+02 -0.33706966604E+01 -0.39776043982E+02  0.57823455325E+02  0.00000000000E+00 0. -1.
         13    1    4    4    0    0 -0.66264583557E+01 -0.94540147304E+02 -0.13448153742E+03  0.16452061667E+03  0.00000000000E+00 0.  1.
          3    1    1    2  501    0  0.18579875210E+02  0.20836360300E+02  0.11964601504E+03  0.12285981682E+03  0.00000000000E+00 0. -1.
<scales pt_clust_5="13000.00000" pt_clust_6="13000.00000" pt_clust_7="13000.00000" pt_clust_8="13000.00000" pt_clust_9="27.91712"></scales>
<clustering>
<clus scale="   27.917">  1  9  2 -1</clus>
<clus scale="   90.803">  7  8 -1 -1</clus>
<clus scale="   92.181">  5  6 -1 -1</clus>
<clus scale="  133.302">  1  7  2 -1</clus>
<clus scale="   27.917">  1  5  2 -1</clus>
</clustering>
</event>
<event>
 9    1  0.3288491E-005  0.1068794E+03  0.7546771E-02  0.1267265E+00
         21   -1    0    0  501  502  0.00000000000E+00  0.00000000000E+00  0.25908890213E+02  0.25908890213E+02  0.00000000000E+00 0.  1.
          1   -1    0    0  502    0 -0.00000000000E+00 -0.00000000000E+00 -0.59486109627E+03  0.59486109627E+03  0.00000000000E+00 0. -1.
         23    2    1    2    0    0 -0.33429491548E+02  0.23460652304E+02 -0.28865453548E+03  0.30591723394E+03  0.92714508317E+02 0.  0.
         23    2    1    2    0    0  0.41327594017E+02 -0.50714859392E+02 -0.22275603273E+03  0.25069504130E+03  0.94592740870E+02 0.  0.
        -11    1    3    3    0    0  0.19830423169E+02  0.32403719213E+02 -0.60347250834E+02  0.71309448078E+02  0.00000000000E+00 0. -1.
         11    1    3    3    0    0 -0.53259914717E+02 -0.89430669099E+01 -0.22830728465E+03  0.23460778586E+03  0.00000000000E+00 0.  1.
        -13    1    4    4    0    0  0.61224280093E+02 -0.53115175729E+02 -0.21398017730E+03  0.22881684956E+03  0.00000000000E+00 0. -1.
         13    1    4    4    0    0 -0.19896686076E+02  0.24003163377E+01 -0.87758554297E+01  0.21878191741E+02  0.00000000000E+00 0.  1.
          1    1    1    2  501    0 -0.78981024698E+01  0.27254207088E+02 -0.57541637848E+02  0.64157711250E+02  0.00000000000E+00 0. -1.
<scales pt_clust_5="13000.00000" pt_clust_6="13000.00000" pt_clust_7="13000.00000" pt_clust_8="13000.00000" pt_clust_9="28.37555"></scales>
<clustering>
<clus scale="   28.376">  1  9  2 -1</clus>
<clus scale="   92.715">  5  6 -1 -1</clus>
<clus scale="   94.593">  7  8 -1 -1</clus>
<clus scale="  105.221">  2  5  1 -1</clus>
<clus scale="   28.376">  1  5  2 -1</clus>
</clustering>
</event>
<event>
 9    1  0.3288491E-005  0.1770429E+03  0.7546771E-02  0.1171358E+00
          2   -1    0    0  502    0 -0.00000000000E+00  0.00000000000E+00  0.23908507701E+03  0.23908507701E+03  0.00000000000E+00 0. -1.
         21   -1    0    0  501  502  0.00000000000E+00 -0.00000000000E+00 -0.28232296189E+03  0.28232296189E+03  0.00000000000E+00 0.  1.
         23    2    1    2    0    0 -0.96226847529E+02  0.11963459309E+03  0.60897054367E+02  0.18988677322E+03  0.93682940617E+02 0.  0.
         23    2    1    2    0    0  0.11696333635E+03 -0.91939250404E+02  0.44619994485E+02  0.17879581174E+03  0.88564951147E+02 0.  0.
        -11    1    3    3    0    0 -0.74359242808E+02  0.10885740639E+03  0.83985351430E+02  0.15630985628E+03  0.00000000000E+00 0. -1.
         11    1    3    3    0    0 -0.21867604720E+02  0.10777186705E+02 -0.23088297064E+02  0.33576916934E+02  0.00000000000E+00 0.  1.
        -11    1    4    4    0    0  0.12368643399E+03 -0.58864387462E+02  0.47354989349E+02  0.14493393350E+03  0.00000000000E+00 0.  1.
         11    1    4    4    0    0 -0.67230976408E+01 -0.33074862943E+02 -0.27349948641E+01  0.33861878233E+02  0.00000000000E+00 0. -1.
          2    1    1    2  501    0 -0.20736488821E+02 -0.27695342688E+02 -0.14875493372E+03  0.15272545394E+03  0.00000000000E+00 0. -1.
<scales pt_clust_5="13000.00000" pt_clust_6="13000.00000" pt_clust_7="13000.00000" pt_clust_8="13000.00000" pt_clust_9="34.59818"></scales>
<clustering>
<clus scale="   34.598">  2  9  1 -1</clus>
<clus scale="   88.565">  7  8 -1 -1</clus>
<clus scale="   93.683">  5  6 -1 -1</clus>
<clus scale="  174.389">  2  7  1 -1</clus>
<clus scale="   34.598">  2  5  1 -1</clus>
</clustering>
</event>
<event>
 9    1  0.3288491E-005  0.9349621E+02  0.7546771E-02  0.1295148E+00
          2   -1    0    0  502    0 -0.00000000000E+00  0.00000000000E+00  0.28536897812E+03  0.28536897812E+03  0.00000000000E+00 0. -1.
         21   -1    0    0  501  502  0.00000000000E+00 -0.00000000000E+00 -0.64773371694E+02  0.64773371694E+02  0.00000000000E+00 0.  1.
         23    2    1    2    0    0  0.13436787515E+02 -0.66422379960E+01  0.87224407875E+02  0.12788764639E+03  0.92317312487E+02 0.  0.
         23    2    1    2    0    0  0.12928707448E+02 -0.27041679663E+02  0.18526047908E+02  0.99702044298E+02  0.93267782598E+02 0.  0.
        -11    1    4    4    0    0 -0.20497401041E+02 -0.89514170666E+01  0.47107144487E+02  0.52147429262E+02  0.00000000000E+00 0. -1.
         11    1    4    4    0    0  0.33426108488E+02 -0.18090262596E+02 -0.28581096579E+02  0.47554615035E+02  0.00000000000E+00 0.  1.
        -13    1    3    3    0    0 -0.29591065854E+02  0.25408195077E+02  0.28246655016E+02  0.48156838300E+02  0.00000000000E+00 0. -1.
         13    1    3    3    0    0  0.43027853370E+02 -0.32050433073E+02  0.58977752859E+02  0.79730808087E+02  0.00000000000E+00 0.  1.
          2    1    1    2  501    0 -0.26365494963E+02  0.33683917659E+02  0.11484515064E+03  0.12255265913E+03  0.00000000000E+00 0. -1.
<scales pt_clust_5="13000.00000" pt_clust_6="13000.00000" pt_clust_7="13000.00000" pt_clust_8="13000.00000" pt_clust_9="42.77555"></scales>
<clustering>
<clus scale="   42.776">  2  9  1 -1</clus>
<clus scale="   92.317">  7  8 -1 -1</clus>
<clus scale="   92.548">  1  7  2 -1</clus>
<clus scale="   93.268">  5  6 -1 -1</clus>
<clus scale="   42.776">  2  5  1 -1</clus>
</clustering>
</event>
<event>
 9    1  0.3288491E-005  0.1124306E+03  0.7546771E-02  0.1257185E+00
         -1   -1    0    0    0  501 -0.00000000000E+00  0.00000000000E+00  0.14976460438E+03  0.14976460438E+03  0.00000000000E+00 0.  1.
         21   -1    0    0  501  502  0.00000000000E+00 -0.00000000000E+00 -0.25989693671E+03  0.25989693671E+03  0.00000000000E+00 0.  1.
         23    2    1    2    0    0  0.44214696437E+02  0.55529988328E+02  0.75491493033E+02  0.13804472296E+03  0.91207790406E+02 0.  0.
         23    2    1    2    0    0 -0.47852882028E+02 -0.30814981227E+02 -0.23637014962E+02  0.10771503439E+03  0.88342281904E+02 0.  0.
        -13    1    3    3    0    0  0.84976123615E+01  0.72337499007E+02  0.63930531146E+02  0.96912517205E+02  0.00000000000E+00 0.  1.
         13    1    3    3    0    0  0.35717084076E+02 -0.16807510679E+02  0.11560961887E+02  0.41132205750E+02  0.00000000000E+00 0. -1.
        -13    1    4    4    0    0 -0.11337447641E+02  0.31157760949E+02 -0.78182990784E+01  0.34065665806E+02  0.00000000000E+00 0.  1.
         13    1    4    4    0    0 -0.36515434387E+02 -0.61972742176E+02 -0.15818715883E+02  0.73649368588E+02  0.00000000000E+00 0. -1.
         -1    1    1    2    0  502  0.36381855908E+01 -0.24715007101E+02 -0.16198681040E+03  0.16390178374E+03  0.00000000000E+00 0.  1.
<scales pt_clust_5="13000.00000" pt_clust_6="13000.00000" pt_clust_7="13000.00000" pt_clust_8="13000.00000" pt_clust_9="24.98135"></scales>
<clustering>
<clus scale="   24.981">  2  9  1 -1</clus>
<clus scale="   88.342">  7  8 -1 -1</clus>
<clus scale="   91.208">  5  6 -1 -1</clus>
<clus scale="  110.119">  2  7  1 -1</clus>
<clus scale="   24.981">  2  5  1 -1</clus>
</clustering>
</event>
<event>
 9    1  0.3288491E-005  0.9207162E+02  0.7546771E-02  0.1298696E+00
          2   -1    0    0  502    0 -0.00000000000E+00  0.00000000000E+00  0.35428811890E+03  0.35428811890E+03  0.00000000000E+00 0. -1.
         21   -1    0    0  501  502  0.00000000000E+00 -0.00000000000E+00 -0.80063537681E+02  0.80063537681E+02  0.00000000000E+00 0. -1.
         23    2    1    2    0    0  0.69188355635E+01  0.78653465498E+01  0.18497860557E+03  0.20594110001E+03  0.89916173150E+02 0.  0.
         23    2    1    2    0    0 -0.11404392005E+02  0.33612989747E+02  0.13481993918E+03  0.16662416041E+03  0.91254049748E+02 0.  0.
        -13    1    3    3    0    0  0.35031507013E+02  0.62182131309E+01  0.24954494476E+02  0.43458019429E+02  0.00000000000E+00 0. -1.
         13    1    3    3    0    0 -0.28112671450E+02  0.16471334189E+01  0.16002411109E+03  0.16248308058E+03  0.00000000000E+00 0.  1.
        -13    1    4    4    0    0  0.10955320801E+02 -0.25282942644E+02  0.15298357112E+02  0.31516439724E+02  0.00000000000E+00 0.  1.
         13    1    4    4    0    0 -0.22359712806E+02  0.58895932391E+02  0.11952158207E+03  0.13510772069E+03  0.00000000000E+00 0. -1.
          2    1    1    2  501    0  0.44855564412E+01 -0.41478336297E+02 -0.45573963529E+02  0.61786396159E+02  0.00000000000E+00 0. -1.
<scales pt_clust_5="13000.00000" pt_clust_6="13000.00000" pt_clust_7="13000.00000" pt_clust_8="13000.00000" pt_clust_9="41.72017"></scales>
<clustering>
<clus scale="   41.720">  2  9  1 -1</clus>
<clus scale="   89.916">  5  6 -1 -1</clus>
<clus scale="   90.746">  1  5  2 -1</clus>
<clus scale="   91.254">  7  8 -1 -1</clus>
<clus scale="   41.720">  2  5  1 -1</clus>
</clustering>
</event>
<event>
 9    1  0.3288491E-005  0.1774069E+03  0.7546771E-02  0.1170915E+00
         -3   -1    0    0    0  501 -0.00000000000E+00  0.00000000000E+00  0.20680576107E+03  0.20680576107E+03  0.00000000000E+00 0.  1.
         21   -1    0    0  501  502  0.00000000000E+00 -0.00000000000E+00 -0.39207606798E+03  0.39207606798E+03  0.00000000000E+00 0.  1.
         23    2    1    2    0    0 -0.82857927444E+02  0.13174102432E+03  0.12796585926E+03  0.22274421787E+03  0.94966266798E+02 0.  0.
         23    2    1    2    0    0  0.95208389050E+02 -0.78293170647E+02 -0.24094927196E+03  0.28539290313E+03  0.90543357475E+02 0.  0.
        -11    1    3    3    0    0 -0.28934712134E+02  0.10912616983E+03  0.45657711240E+02  0.12177998646E+03  0.00000000000E+00 0. -1.
         11    1    3    3    0    0 -0.53923215310E+02  0.22614854494E+02  0.82308148021E+02  0.10096423141E+03  0.00000000000E+00 0.  1.
        -11    1    4    4    0    0  0.49981323119E+02 -0.70960946702E+02 -0.21695451236E+03  0.23367252524E+03  0.00000000000E+00 0. -1.
         11    1    4    4    0    0  0.45227065931E+02 -0.73322239447E+01 -0.23994759594E+02  0.51720377886E+02  0.00000000000E+00 0.  1.
         -3    1    1    2    0  502 -0.12350461606E+02 -0.53447853676E+02 -0.72286894217E+02  0.90744708055E+02  0.00000000000E+00 0.  1.
<scales pt_clust_5="13000.00000" pt_clust_6="13000.00000" pt_clust_7="13000.00000" pt_clust_8="13000.00000" pt_clust_9="54.85624"></scales>
<clustering>
<clus scale="   54.856">  2  9  1 -1</clus>
<clus scale="   90.543">  7  8 -1 -1</clus>
<clus scale="   94.966">  5  6 -1 -1</clus>
<clus scale="  175.079">  2  7  1 -1</clus>
<clus scale="   54.856">  2  5  1 -1</clus>
</clustering>
</event>
<event>
 9    1  0.3288491E-005  0.1076060E+03  0.7546771E-02  0.1266278E+00
         21   -1    0    0  501  502  0.00000000000E+00  0.00000000000E+00  0.31107893931E+03  0.31107893931E+03  0.00000000000E+00 0. -1.
          1   -1    0    0  502    0 -0.00000000000E+00 -0.00000000000E+00 -0.11640241110E+03  0.11640241110E+03  0.00000000000E+00 0. -1.
         23    2    1    2    0    0 -0.16523061582E+02  0.50229120622E+02 -0.44379945569E+02  0.11262027286E+03  0.88981853022E+02 0.  0.
         23    2    1    2    0    0  0.81895631814E+02 -0.36630194002E+02  0.10817860412E+03  0.16793415521E+03  0.91927169406E+02 0.  0.
        -11    1    3    3    0    0 -0.21007676404E+02 -0.22012663451E+02 -0.19225435593E+02  0.35993015903E+02  0.00000000000E+00 0.  1.
         11    1    3    3    0    0  0.44846148218E+01  0.72241784073E+02 -0.25154509976E+02  0.76627256954E+02  0.00000000000E+00 0. -1.
        -11    1    4    4    0    0  0.38683101320E+02  0.19292015727E+02  0.81762360296E+02  0.92485932766E+02  0.00000000000E+00 0.  1.
         11    1    4    4    0    0  0.43212530495E+02 -0.55922209729E+02  0.26416243825E+02  0.75448222448E+02  0.00000000000E+00 0. -1.
          1    1    1    2  501    0 -0.65372570232E+02 -0.13598926620E+02  0.13087786965E+03  0.14692692234E+03  0.00000000000E+00 0. -1.
<scales pt_clust_5="13000.00000" pt_clust_6="13000.00000" pt_clust_7="13000.00000" pt_clust_8="13000.00000" pt_clust_9="66.77203"></scales>
<clustering>
<clus scale="   66.772">  1  9  2 -1</clus>
<clus scale="   88.982">  5  6 -1 -1</clus>
<clus scale="   91.927">  7  8 -1 -1</clus>
<clus scale="  105.101">  2  5  1 -1</clus>
<clus scale="   66.772">  1  5  2 -1</clus>
</clustering>
</event>
<event>
 9    1  0.3288491E-005  0.1108147E+03  0.7546771E-02  0.1262627E+00
         21   -1    0    0  501  502  0.00000000000E+00  0.00000000000E+00  0.54265242022E+02  0.54265242022E+02  0.00000000000E+00 0.  1.
          1   -1    0    0  502    0 -0.00000000000E+00 -0.00000000000E+00 -0.39536158839E+03  0.39536158839E+03  0.00000000000E+00 0. -1.
         23    2    1    2    0    0 -0.63375399075E+02 -0.16464661170E+02 -0.24323366743E+03  0.26524933213E+03  0.83108753771E+02 0.  0.
         23    2    1    2    0    0  0.55651053969E+02 -0.60454787594E+01 -0.11294692835E+03  0.15620115204E+03  0.92239924410E+02 0.  0.
        -11    1    4    4    0    0 -0.97206436673E+01  0.24536290358E+02 -0.58112132604E+01  0.27023890493E+02  0.00000000000E+00 0. -1.
         11    1    4    4    0    0  0.65371697637E+02 -0.30581769117E+02 -0.10713571509E+03  0.12917726155E+03  0.00000000000E+00 0.  1.
        -13    1    3    3    0    0 -0.15177831518E+02 -0.46210019285E+02 -0.12566811540E+03  0.13475239397E+03  0.00000000000E+00 0.  1.
         13    1    3    3    0    0 -0.48197567557E+02  0.29745358116E+02 -0.11756555202E+03  0.13049693816E+03  0.00000000000E+00 0. -1.
          1    1    1    2  501    0  0.77243451056E+01  0.22510139929E+02  0.15084249406E+02  0.28176346234E+02  0.00000000000E+00 0. -1.
<scales pt_clust_5="13000.00000" pt_clust_6="13000.00000" pt_clust_7="13000.00000" pt_clust_8="13000.00000" pt_clust_9="23.79857"></scales>
<clustering>
<clus scale="   23.799">  1  9  2 -1</clus>
<clus scale="   83.109">  7  8 -1 -1</clus>
<clus scale="   92.240">  5  6 -1 -1</clus>
<clus scale="  103.338">  2  7  1 -1</clus>
<clus scale="   23.799">  1  5  2 -1</clus>
</clustering>
</event>
<event>
 9    1  0.3288491E-005  0.1093217E+03  0.7546771E-02  0.1266983E+00
         -2   -1    0    0    0  501 -0.00000000000E+00  0.00000000000E+00  0.32548436890E+03  0.32548436890E+03  0.00000000000E+00 0.  1.
         21   -1    0    0  501  502  0.00000000000E+00 -0.00000000000E+00 -0.16753701035E+03  0.16753701035E+03  0.00000000000E+00 0.  1.
         23    2    1    2    0    0 -0.13564751149E+01 -0.31610321190E+02  0.27797655701E+03  0.29896825658E+03  0.10540398362E+03 0.  0.
         23    2    1    2    0    0 -0.11802195925E+01 -0.61086760839E+01 -0.12400362190E+03  0.15604057715E+03  0.94514838156E+02 0.  0.
        -11    1    4    4    0    0  0.27479419324E+02  0.17772659475E+02 -0.11225627678E+03  0.11692928456E+03  0.00000000000E+00 0.  1.
         11    1    4    4    0    0 -0.28659638916E+02 -0.23881335558E+02 -0.11747345120E+02  0.39111292592E+02  0.00000000000E+00 0. -1.
        -11    1    3    3    0    0 -0.17321917452E+02  0.13683611554E+02  0.61269983917E+01  0.22909171933E+02  0.00000000000E+00 0. -1.
         11    1    3    3    0    0  0.15965442337E+02 -0.45293932743E+02  0.27184955862E+03  0.27605908465E+03  0.00000000000E+00 0.  1.
         -2    1    1    2    0  502  0.25366947074E+01  0.37718997274E+02  0.39744234404E+01  0.38012545522E+02  0.00000000000E+00 0.  1.
<scales pt_clust_5="13000.00000" pt_clust_6="13000.00000" pt_clust_7="13000.00000" pt_clust_8="13000.00000" pt_clust_9="37.80420"></scales>
<clustering>
<clus scale="   37.804">  2  9  1 -1</clus>
<clus scale="   94.515">  5  6 -1 -1</clus>
<clus scale="   98.865">  2  5  1 -1</clus>
<clus scale="  105.404">  7  8 -1 -1</clus>
<clus scale="   37.804">  2  5  1 -1</clus>
</clustering>
</event>
<event>
 9    1  0.3288491E-005  0.1159660E+03  0.7546771E-02  0.1251239E+00
         21   -1    0    0  501  502  0.00000000000E+00  0.00000000000E+00  0.19164714122E+02  0.19164714122E+02  0.00000000000E+00 0.  1.
         -1   -1    0    0    0  501 -0.00000000000E+00 -0.00000000000E+00 -0.10277757034E+04  0.10277757034E+04  0.00000000000E+00 0.  1.
         23    2    1    2    0    0 -0.76051952870E+02  0.95132691749E+01 -0.56901021655E+03  0.58106982164E+03  0.89415374876E+02 0.  0.
         23    2    1    2    0    0  0.49069834755E+02 -0.40549831214E+02 -0.33266668580E+03  0.35130095842E+03  0.93236806294E+02 0.  0.
        -13    1    3    3    0    0  0.11723310039E+02 -0.20395235385E+02 -0.81898695644E+02  0.85210316118E+02  0.00000000000E+00 0. -1.
         13    1    3    3    0    0 -0.87775262909E+02  0.29908504560E+02 -0.48711152090E+03  0.49585950552E+03  0.00000000000E+00 0.  1.
        -13    1    4    4    0    0 -0.18493677115E+02 -0.40795618891E+02 -0.14973544232E+03  0.15629139867E+03  0.00000000000E+00 0.  1.
         13    1    4    4    0    0  0.67563511871E+02  0.24578767679E+00 -0.18293124349E+03  0.19500955974E+03  0.00000000000E+00 0. -1.
         -1    1    1    2    0  502  0.26982118115E+02  0.31036562039E+02 -0.10693408696E+03  0.11456963749E+03  0.00000000000E+00 0.  1.
<scales pt_clust_5="13000.00000" pt_clust_6="13000.00000" pt_clust_7="13000.00000" pt_clust_8="13000.00000" pt_clust_9="41.12545"></scales>
<clustering>
<clus scale="   41.125">  1  9  2 -1</clus>
<clus scale="   89.415">  5  6 -1 -1</clus>
<clus scale="   93.237">  7  8 -1 -1</clus>
<clus scale="  112.916">  2  5  1 -1</clus>
<clus scale="   41.125">  1  5  2 -1</clus>
</clustering>
</event>
<event>
 9    1  0.3288491E-005  0.2038317E+03  0.7546771E-02  0.1146549E+00
          1   -1    0    0  502    0 -0.00000000000E+00  0.00000000000E+00  0.57137296286E+03  0.57137296286E+03  0.00000000000E+00 0. -1.
         21   -1    0    0  501  502  0.00000000000E+00 -0.00000000000E+00 -0.13293327946E+03  0.13293327946E+03  0.00000000000E+00 0.  1.
         23    2    1    2    0    0  0.10414578471E+03  0.12174343236E+03  0.23811162274E+03  0.30200366554E+03  0.94027981584E+02 0.  0.
         23    2    1    2    0    0 -0.87131768791E+02 -0.20496469680E+03  0.20536027303E+03  0.31721098640E+03  0.94061129516E+02 0.  0.
        -11    1    4    4    0    0 -0.62664427716E+02 -0.10304916796E+03  0.16614205442E+03  0.20530256639E+03  0.00000000000E+00 0. -1.
         11    1    4    4    0    0 -0.24467341075E+02 -0.10191552884E+03  0.39218218607E+02  0.11190842001E+03  0.00000000000E+00 0.  1.
        -13    1    3    3    0    0  0.61881470916E+02  0.66972395547E+01  0.95093243155E+02  0.11365251583E+03  0.00000000000E+00 0.  1.
         13    1    3    3    0    0  0.42264313796E+02  0.11504619280E+03  0.14301837959E+03  0.18835114971E+03  0.00000000000E+00 0. -1.
          1    1    1    2  501    0 -0.17014015921E+02  0.83221264444E+02 -0.50322123660E+01  0.85091590388E+02  0.00000000000E+00 0. -1.
<scales pt_clust_5="13000.00000" pt_clust_6="13000.00000" pt_clust_7="13000.00000" pt_clust_8="13000.00000" pt_clust_9="84.94266"></scales>
<clustering>
<clus scale="   84.943">  2  9  1 -1</clus>
<clus scale="   94.028">  7  8 -1 -1</clus>
<clus scale="   94.061">  5  6 -1 -1</clus>
<clus scale="  203.816">  1  7  2 -1</clus>
<clus scale="   84.943">  2  5  1 -1</clus>
</clustering>
</event>
<event>
 9    1  0.3288491E-005  0.9370391E+02  0.7546771E-02  0.1295705E+00
         21   -1    0    0  501  502  0.00000000000E+00  0.00000000000E+00  0.13226513904E+03  0.13226513904E+03  0.00000000000E+00 0.  1.
         -3   -1    0    0    0  501 -0.00000000000E+00 -0.00000000000E+00 -0.13274646970E+03  0.13274646970E+03  0.00000000000E+00 0.  1.
         23    2    1    2    0    0  0.21931019783E+01  0.99112030874E+01 -0.68255939384E+02  0.11316545485E+03  0.89691166052E+02 0.  0.
         23    2    1    2    0    0  0.20170100702E+02 -0.29830234528E+02  0.30013507031E+02  0.10365091087E+03  0.92444712481E+02 0.  0.
        -11    1    4    4    0    0  0.37800396914E+02 -0.50366775870E+02  0.40222921241E+02  0.74723259508E+02  0.00000000000E+00 0.  1.
         11    1    4    4    0    0 -0.17630296212E+02  0.20536541342E+02 -0.10209414210E+02  0.28927651362E+02  0.00000000000E+00 0. -1.
        -11    1    3    3    0    0 -0.43719410713E+02  0.62735145869E+01 -0.35100923279E+02  0.56416475195E+02  0.00000000000E+00 0. -1.
         11    1    3    3    0    0  0.45912512691E+02  0.36376885005E+01 -0.33155016105E+02  0.56748979657E+02  0.00000000000E+00 0.  1.
         -3    1    1    2    0  502 -0.22363202681E+02  0.19919031440E+02  0.37761101700E+02  0.48195243014E+02  0.00000000000E+00 0.  1.
<scales pt_clust_5="13000.00000" pt_clust_6="13000.00000" pt_clust_7="13000.00000" pt_clust_8="13000.00000" pt_clust_9="29.94797"></scales>
<clustering>
<clus scale="   29.948">  1  9  2 -1</clus>
<clus scale="   89.691">  7  8 -1 -1</clus>
<clus scale="   90.988">  2  7  1 -1</clus>
<clus scale="   92.445">  5  6 -1 -1</clus>
<clus scale="   29.948">  1  5  2 -1</clus>
</clustering>
</event>
<event>
 9    1  0.3288491E-005  0.1352664E+03  0.7546771E-02  0.1220594E+00
         21   -1    0    0  501  502  0.00000000000E+00  0.00000000000E+00  0.27412918248E+03  0.27412918248E+03  0.00000000000E+00 0. -1.
         -1   -1    0    0    0  501 -0.00000000000E+00 -0.00000000000E+00 -0.88901630748E+02  0.88901630748E+02  0.00000000000E+00 0.  1.
         23    2    1    2    0    0 -0.70529420048E+02 -0.78881885660E+02  0.55557093141E+02  0.15167383240E+03  0.93389559684E+02 0.  0.
         23    2    1    2    0    0  0.71932781230E+02  0.55066760055E+02  0.67205767398E+02  0.14449168882E+03  0.90302601776E+02 0.  0.
        -11    1    4    4    0    0  0.67500187469E+02  0.77876877016E+01  0.77327956529E+01  0.68386544851E+02  0.00000000000E+00 0.  1.
         11    1    4    4    0    0  0.44325937616E+01  0.47279072353E+02  0.59472971745E+02  0.76105143967E+02  0.00000000000E+00 0. -1.
        -11    1    3    3    0    0 -0.60415519679E+02 -0.96967953422E+02  0.61981453491E+02  0.12997891977E+03  0.00000000000E+00 0. -1.
         11    1    3    3    0    0 -0.10113900369E+02  0.18086067762E+02 -0.64243603508E+01  0.21694912622E+02  0.00000000000E+00 0.  1.
         -1    1    1    2    0  502 -0.14033611825E+01  0.23815125605E+02  0.62464691189E+02  0.66865292009E+02  0.00000000000E+00 0.  1.
<scales pt_clust_5="13000.00000" pt_clust_6="13000.00000" pt_clust_7="13000.00000" pt_clust_8="13000.00000" pt_clust_9="23.85644"></scales>
<clustering>
<clus scale="   23.856">  1  9  2 -1</clus>
<clus scale="   90.303">  5  6 -1 -1</clus>
<clus scale="   93.390">  7  8 -1 -1</clus>
<clus scale="  133.154">  1  5  2 -1</clus>
<clus scale="   23.856">  1  5  2 -1</clus>
</clustering>
</event>
<event>
 9    1  0.3394958E-005  0.2524589E+03  0.7546771E-02  0.1111823E+00
         21   -1    0    0  501  502  0.00000000000E+00  0.00000000000E+00  0.18555243073E+03  0.18555243073E+03  0.00000000000E+00 0. -1.
          1   -1    0    0  502    0 -0.00000000000E+00 -0.00000000000E+00 -0.10588541955E+04  0.10588541955E+04  0.00000000000E+00 0. -1.
         23    2    1    2    0    0 -0.13953279963E+03 -0.18588878038E+03 -0.90279148493E+03  0.93682929121E+03  0.92696357916E+02 0.  0.
         23    2    1    2    0    0  0.13430495651E+03  0.21892371311E+03  0.24875896590E+02  0.27381456713E+03  0.91597999093E+02 0.  0.
        -11    1    4    4    0    0  0.74586920918E+02  0.13017674118E+03  0.59475659423E+02  0.16138942586E+03  0.00000000000E+00 0.  1.
         11    1    4    4    0    0  0.59718035589E+02  0.88746971932E+02 -0.34599762833E+02  0.11242514127E+03  0.00000000000E+00 0. -1.
        -13    1    3    3    0    0 -0.55111628094E+02 -0.64193316946E+02 -0.17832023284E+03  0.19737319710E+03  0.00000000000E+00 0.  1.
         13    1    3    3    0    0 -0.84421171534E+02 -0.12169546343E+03 -0.72447125209E+03  0.73945609412E+03  0.00000000000E+00 0. -1.
          1    1    1    2  501    0  0.52278431218E+01 -0.33034932735E+02  0.46138236039E+01  0.33762767848E+02  0.00000000000E+00 0. -1.
<scales pt_clust_5="13000.00000" pt_clust_6="13000.00000" pt_clust_7="13000.00000" pt_clust_8="13000.00000" pt_clust_9="33.44603"></scales>
<clustering>
<clus scale="   33.446">  1  9  2 -1</clus>
<clus scale="   91.598">  5  6 -1 -1</clus>
<clus scale="   92.696">  7  8 -1 -1</clus>
<clus scale="  252.058">  1  5  2 -1</clus>
<clus scale="   33.446">  1  5  2 -1</clus>
</clustering>
</event>
<event>
 9    1  0.3288491E-005  0.1191716E+03  0.7546771E-02  0.1245571E+00
          2   -1    0    0  502    0 -0.00000000000E+00  0.00000000000E+00  0.24506351333E+03  0.24506351333E+03  0.00000000000E+00 0. -1.
         21   -1    0    0  501  502  0.00000000000E+00 -0.00000000000E+00 -0.45126318004E+03  0.45126318004E+03  0.00000000000E+00 0. -1.
         23    2    1    2    0    0  0.20374495626E+01  0.58396010162E+02  0.71417199927E+02  0.12854450178E+03  0.89493168957E+02 0.  0.
         23    2    1    2    0    0 -0.48836676629E+02 -0.84138239604E+02  0.11169155345E+03  0.17482688119E+03  0.92871798335E+02 0.  0.
        -11    1    4    4    0    0 -0.18828919532E+02 -0.98280815150E+02  0.93699324924E+02  0.13708833039E+03  0.00000000000E+00 0. -1.
         11    1    4    4    0    0 -0.30007757097E+02  0.14142575547E+02  0.17992228523E+02  0.37738550798E+02  0.00000000000E+00 0.  1.
        -13    1    3    3    0    0 -0.11405217934E+02  0.79200084712E+02  0.64641498089E+02  0.10286523071E+03  0.00000000000E+00 0.  1.
         13    1    3    3    0    0  0.13442667497E+02 -0.20804074550E+02  0.67757018377E+01  0.25679271070E+02  0.00000000000E+00 0. -1.
          2    1    1    2  501    0  0.46799227067E+02  0.25742229442E+02 -0.38930842008E+03  0.39295531041E+03  0.00000000000E+00 0. -1.
<scales pt_clust_5="13000.00000" pt_clust_6="13000.00000" pt_clust_7="13000.00000" pt_clust_8="13000.00000" pt_clust_9="53.41189"></scales>
<clustering>
<clus scale="   53.412">  2  9  1 -1</clus>
<clus scale="   89.493">  7  8 -1 -1</clus>
<clus scale="   92.872">  5  6 -1 -1</clus>
<clus scale="  116.558">  1  7  2 -1</clus>
<clus scale="   53.412">  2  5  1 -1</clus>
</clustering>
</event>
<event>
 9    1  0.3288491E-005  0.1143555E+03  0.7546771E-02  0.1252820E+00
          4   -1    0    0  502    0 -0.00000000000E+00  0.00000000000E+00  0.23710281391E+03  0.23710281391E+03  0.00000000000E+00 0. -1.
         21   -1    0    0  501  502  0.00000000000E+00 -0.00000000000E+00 -0.95002698828E+02  0.95002698828E+02  0.00000000000E+00 0.  1.
         23    2    1    2    0    0 -0.40845278671E+02 -0.38647009593E+02  0.10720420494E+03  0.15239188026E+03  0.92566816264E+02 0.  0.
         23    2    1    2    0    0  0.46327449549E+02  0.81726045565E+02  0.35167329382E+02  0.13628632303E+03  0.92259642765E+02 0.  0.
        -11    1    3    3    0    0 -0.49605563255E+02  0.51046949892E+01  0.18667495171E+02  0.53247020506E+02  0.00000000000E+00 0.  1.
         11    1    3    3    0    0  0.87602845839E+01 -0.43751704583E+02  0.88536709764E+02  0.99144859755E+02  0.00000000000E+00 0. -1.
        -13    1    4    4    0    0  0.49753615736E+01  0.88676853521E+02  0.31324725246E+02  0.94178431633E+02  0.00000000000E+00 0.  1.
         13    1    4    4    0    0  0.41352087975E+02 -0.69508079558E+01  0.38426041359E+01  0.42107891394E+02  0.00000000000E+00 0. -1.
          4    1    1    2  501    0 -0.54821708775E+01 -0.43079035971E+02 -0.27141923406E+00  0.43427309451E+02  0.00000000000E+00 0. -1.
<scales pt_clust_5="13000.00000" pt_clust_6="13000.00000" pt_clust_7="13000.00000" pt_clust_8="13000.00000" pt_clust_9="43.42646"></scales>
<clustering>
<clus scale="   43.426">  2  9  1 -1</clus>
<clus scale="   92.260">  7  8 -1 -1</clus>
<clus scale="   92.567">  5  6 -1 -1</clus>
<clus scale="  114.107">  2  7  1 -1</clus>
<clus scale="   43.426">  2  5  1 -1</clus>
</clustering>
</event>
<event>
 9    1  0.3288491E-005  0.1430573E+03  0.7546771E-02  0.1209507E+00
         21   -1    0    0  501  502  0.00000000000E+00  0.00000000000E+00  0.22816966209E+03  0.22816966209E+03  0.00000000000E+00 0. -1.
          1   -1    0    0  502    0 -0.00000000000E+00 -0.00000000000E+00 -0.18182202401E+03  0.18182202401E+03  0.00000000000E+00 0. -1.
         23    2    1    2    0    0  0.28113441323E+02 -0.11251900795E+03 -0.41459716029E+02  0.15294885120E+03  0.90683792917E+02 0.  0.
         23    2    1    2    0    0 -0.41911404265E+02  0.95240769275E+02 -0.25942420005E+02  0.14116387898E+03  0.91797939163E+02 0.  0.
        -11    1    3    3    0    0  0.33885407613E+02 -0.40810928752E+01  0.56218604510E+01  0.34590193452E+02  0.00000000000E+00 0. -1.
         11    1    3    3    0    0 -0.57719662902E+01 -0.10843791507E+03 -0.47081576480E+02  0.11835865775E+03  0.00000000000E+00 0.  1.
        -13    1    4    4    0    0 -0.69609391000E+02  0.74176226335E+02 -0.80648308679E+01  0.10204225284E+03  0.00000000000E+00 0. -1.
         13    1    4    4    0    0  0.27697986735E+02  0.21064542941E+02 -0.17877589137E+02  0.39121626140E+02  0.00000000000E+00 0.  1.
          1    1    1    2  501    0  0.13797962942E+02  0.17278238672E+02  0.11374977412E+03  0.11587895592E+03  0.00000000000E+00 0. -1.
<scales pt_clust_5="13000.00000" pt_clust_6="13000.00000" pt_clust_7="13000.00000" pt_clust_8="13000.00000" pt_clust_9="22.11157"></scales>
<clustering>
<clus scale="   22.112">  1  9  2 -1</clus>
<clus scale="   90.684">  5  6 -1 -1</clus>
<clus scale="   91.798">  7  8 -1 -1</clus>
<clus scale="  142.345">  2  5  1 -1</clus>
<clus scale="   22.112">  1  5  2 -1</clus>
</clustering>
</event>
<event>
 9    1  0.3288491E-005  0.1057748E+03  0.7546771E-02  0.1268782E+00
          2   -1    0    0  502    0 -0.00000000000E+00  0.00000000000E+00  0.12039198975E+03  0.12039198975E+03  0.00000000000E+00 0. -1.
         21   -1    0    0  501  502  0.00000000000E+00 -0.00000000000E+00 -0.23963692156E+03  0.23963692156E+03  0.00000000000E+00 0.  1.
         23    2    1    2    0    0 -0.56965317422E+02 -0.10536463153E+02  0.62117778954E+02  0.12420604473E+03  0.90622616605E+02 0.  0.
         23    2    1    2    0    0  0.36118494008E+02  0.24800647440E+02 -0.73265544356E+02  0.12481361297E+03  0.91054820136E+02 0.  0.
        -11    1    4    4    0    0  0.65111369050E+02  0.28240500169E+02 -0.44165723714E+02  0.83592029408E+02  0.00000000000E+00 0. -1.
         11    1    4    4    0    0 -0.28992875042E+02 -0.34398527287E+01 -0.29099820642E+02  0.41221583562E+02  0.00000000000E+00 0.  1.
        -11    1    3    3    0    0 -0.11612566035E+02 -0.40394741543E+02  0.55330862061E+02  0.69484466830E+02  0.00000000000E+00 0.  1.
         11    1    3    3    0    0 -0.45352751387E+02  0.29858278390E+02  0.67869168928E+01  0.54721577899E+02  0.00000000000E+00 0. -1.
          2    1    1    2  501    0  0.20846823414E+02 -0.14264184287E+02 -0.10809716641E+03  0.11100925360E+03  0.00000000000E+00 0. -1.
<scales pt_clust_5="13000.00000" pt_clust_6="13000.00000" pt_clust_7="13000.00000" pt_clust_8="13000.00000" pt_clust_9="25.25979"></scales>
<clustering>
<clus scale="   25.260">  2  9  1 -1</clus>
<clus scale="   90.623">  7  8 -1 -1</clus>
<clus scale="   91.055">  5  6 -1 -1</clus>
<clus scale="  105.403">  1  7  2 -1</clus>
<clus scale="   25.260">  2  5  1 -1</clus>
</clustering>
</event>
<event>
 9    1  0.3288491E-005  0.1203717E+03  0.7546771E-02  0.1243023E+00
          4   -1    0    0  502    0 -0.00000000000E+00  0.00000000000E+00  0.41525225574E+02  0.41525225574E+02  0.00000000000E+00 0. -1.
         21   -1    0    0  501  502  0.00000000000E+00 -0.00000000000E+00 -0.80876247378E+03  0.80876247378E+03  0.00000000000E+00 0. -1.
         23    2    1    2    0    0 -0.60099635555E+02 -0.53073396502E+02 -0.76277607188E+02  0.14370928088E+03  0.91680600150E+02 0.  0.
         23    2    1    2    0    0  0.68120838178E+02  0.22208779183E+02 -0.56987585467E+03  0.58136560918E+03  0.89965567502E+02 0.  0.
        -13    1    3    3    0    0 -0.29722898398E+02 -0.76747918845E+02 -0.60229679020E+02  0.10198680293E+03  0.00000000000E+00 0.  1.
         13    1    3    3    0    0 -0.30376737157E+02  0.23674522344E+02 -0.16047928168E+02  0.41722477958E+02  0.00000000000E+00 0. -1.
        -13    1    4    4    0    0 -0.58746258989E+01 -0.24082180861E+02 -0.79243304422E+02  0.83029897990E+02  0.00000000000E+00 0.  1.
         13    1    4    4    0    0  0.73995464077E+02  0.46290960044E+02 -0.49063255025E+03  0.49833571119E+03  0.00000000000E+00 0. -1.
          4    1    1    2  501    0 -0.80212026229E+01  0.30864617319E+02 -0.12108378634E+03  0.12521280928E+03  0.00000000000E+00 0. -1.
<scales pt_clust_5="13000.00000" pt_clust_6="13000.00000" pt_clust_7="13000.00000" pt_clust_8="13000.00000" pt_clust_9="31.88988"></scales>
<clustering>
<clus scale="   31.890">  2  9  1 -1</clus>
<clus scale="   89.966">  7  8 -1 -1</clus>
<clus scale="   91.681">  5  6 -1 -1</clus>
<clus scale="  119.071">  2  7  1 -1</clus>
<clus scale="   31.890">  2  5  1 -1</clus>
</clustering>
</event>
<event>
 9    1  0.3288491E-005  0.2035391E+03  0.7546771E-02  0.1146927E+00
          1   -1    0    0  502    0 -0.00000000000E+00  0.00000000000E+00  0.43157555565E+03  0.43157555565E+03  0.00000000000E+00 0. -1.
         21   -1    0    0  501  502  0.00000000000E+00 -0.00000000000E+00 -0.18188494826E+03  0.18188494826E+03  0.00000000000E+00 0. -1.
         23    2    1    2    0    0  0.14920727335E+03 -0.11884207204E+03  0.24207520695E+03  0.32161426888E+03  0.91918896951E+02 0.  0.
         23    2    1    2    0    0 -0.10715149616E+03  0.13109636489E+03  0.79428154533E+02  0.20772770118E+03  0.90411647967E+02 0.  0.
        -13    1    4    4    0    0 -0.42118729186E+02  0.85245084179E+01 -0.80198471163E+01  0.43714671905E+02  0.00000000000E+00 0.  1.
         13    1    4    4    0    0 -0.65032766970E+02  0.12257185647E+03  0.87448001649E+02  0.16401302927E+03  0.00000000000E+00 0. -1.
        -13    1    3    3    0    0 -0.11416896546E+02 -0.20322608263E+02  0.26144635958E+02  0.35027074139E+02  0.00000000000E+00 0.  1.
         13    1    3    3    0    0  0.16062416989E+03 -0.98519463780E+02  0.21593057099E+03  0.28658719474E+03  0.00000000000E+00 0. -1.
          1    1    1    2  501    0 -0.42055777192E+02 -0.12254292845E+02 -0.71812754091E+02  0.84118533859E+02  0.00000000000E+00 0. -1.
<scales pt_clust_5="13000.00000" pt_clust_6="13000.00000" pt_clust_7="13000.00000" pt_clust_8="13000.00000" pt_clust_9="43.80475"></scales>
<clustering>
<clus scale="   43.805">  2  9  1 -1</clus>
<clus scale="   90.412">  5  6 -1 -1</clus>
<clus scale="   91.919">  7  8 -1 -1</clus>
<clus scale="  202.863">  2  5  1 -1</clus>
<clus scale="   43.805">  2  5  1 -1</clus>
</clustering>
</event>
<event>
 9    1  0.3288491E-005  0.1020438E+03  0.7546771E-02  0.1276936E+00
          1   -1    0    0  502    0 -0.00000000000E+00  0.00000000000E+00  0.43910232832E+03  0.43910232832E+03  0.00000000000E+00 0. -1.
         21   -1    0    0  501  502  0.00000000000E+00 -0.00000000000E+00 -0.77883161344E+02  0.77883161344E+02  0.00000000000E+00 0. -1.
         23    2    1    2    0    0 -0.36764077523E+02  0.33110824897E+02  0.29353830889E+03  0.31162555757E+03  0.92183649424E+02 0.  0.
         23    2    1    2    0    0  0.31331355993E+02 -0.13556453899E+02  0.11720442074E+03  0.15183917773E+03  0.90293013811E+02 0.  0.
        -13    1    3    3    0    0  0.11864177752E+02 -0.22761846733E+02  0.40328476109E+02  0.47804250498E+02  0.00000000000E+00 0.  1.
         13    1    3    3    0    0 -0.48628255274E+02  0.55872671630E+02  0.25320983278E+03  0.26382130707E+03  0.00000000000E+00 0. -1.
        -13    1    4    4    0    0 -0.23553575968E+01 -0.27656946669E+02 -0.13478380535E+01  0.27789765668E+02  0.00000000000E+00 0.  1.
         13    1    4    4    0    0  0.33686713590E+02  0.14100492769E+02  0.11855225879E+03  0.12404941207E+03  0.00000000000E+00 0. -1.
          1    1    1    2  501    0  0.54327215293E+01 -0.19554370998E+02 -0.49523562661E+02  0.53520754357E+02  0.00000000000E+00 0. -1.
<scales pt_clust_5="13000.00000" pt_clust_6="13000.00000" pt_clust_7="13000.00000" pt_clust_8="13000.00000" pt_clust_9="20.29502"></scales>
<clustering>
<clus scale="   20.295">  2  9  1 -1</clus>
<clus scale="   90.293">  7  8 -1 -1</clus>
<clus scale="   92.184">  5  6 -1 -1</clus>
<clus scale="  100.339">  2  7  1 -1</clus>
<clus scale="   20.295">  2  5  1 -1</clus>
</clustering>
</event>
<event>
 9    1  0.3288491E-005  0.9187822E+02  0.7546771E-02  0.1302103E+00
          1   -1    0    0  502    0 -0.00000000000E+00  0.00000000000E+00  0.42588241694E+03  0.42588241694E+03  0.00000000000E+00 0. -1.
         21   -1    0    0  501  502  0.00000000000E+00 -0.00000000000E+00 -0.62551638706E+02  0.62551638706E+02  0.00000000000E+00 0. -1.
         23    2    1    2    0    0  0.66631011842E+01  0.29215659526E+02  0.27095787183E+03  0.28512503134E+03  0.83547372865E+02 0.  0.
         23    2    1    2    0    0  0.91491747402E+00  0.17768570381E+01  0.12742617627E+03  0.15590971863E+03  0.89813226575E+02 0.  0.
        -11    1    3    3    0    0  0.68961959573E+00 -0.23163999115E+02  0.27210194300E+02  0.35741308091E+02  0.00000000000E+00 0.  1.
         11    1    3    3    0    0  0.59734815885E+01  0.52379658641E+02  0.24374767753E+03  0.24938372325E+03  0.00000000000E+00 0. -1.
        -11    1    4    4    0    0 -0.41612503950E+02 -0.10029470359E+02  0.82429178945E+02  0.92880354771E+02  0.00000000000E+00 0.  1.
         11    1    4    4    0    0  0.42527421424E+02  0.11806327397E+02  0.44996997327E+02  0.63029363856E+02  0.00000000000E+00 0. -1.
          1    1    1    2  501    0 -0.75780186583E+01 -0.30992516564E+02 -0.35053269871E+02  0.47399305674E+02  0.00000000000E+00 0. -1.
<scales pt_clust_5="13000.00000" pt_clust_6="13000.00000" pt_clust_7="13000.00000" pt_clust_8="13000.00000" pt_clust_9="31.90552"></scales>
<clustering>
<clus scale="   31.906">  2  9  1 -1</clus>
<clus scale="   83.547">  5  6 -1 -1</clus>
<clus scale="   85.763">  1  5  2 -1</clus>
<clus scale="   89.813">  7  8 -1 -1</clus>
<clus scale="   31.906">  2  5  1 -1</clus>
</clustering>
</event>
<event>
 9    1  0.3288491E-005  0.1149410E+03  0.7546771E-02  0.1257627E+00
         -1   -1    0    0    0  501 -0.00000000000E+00  0.00000000000E+00  0.11601341906E+03  0.11601341906E+03  0.00000000000E+00 0.  1.
         21   -1    0    0  501  502  0.00000000000E+00 -0.00000000000E+00 -0.45730520087E+03  0.45730520087E+03  0.00000000000E+00 0.  1.
         23    2    1    2    0    0 -0.25974810296E+02  0.29116862492E+02  0.63412573529E+02  0.12150667757E+03  0.96022058723E+02 0.  0.
         23    2    1    2    0    0 -0.18136816415E+02 -0.30449311852E+02 -0.13022076535E+03  0.17380321551E+03  0.10951714610E+03 0.  0.
        -11    1    3    3    0    0  0.16293934204E+01  0.34252060466E+02 -0.15586005134E+02  0.37666724375E+02  0.00000000000E+00 0.  1.
         11    1    3    3    0    0 -0.27604203716E+02 -0.51351979740E+01  0.78998578664E+02  0.83839953196E+02  0.00000000000E+00 0. -1.
        -13    1    4    4    0    0  0.15644640293E+02  0.36379091467E+02 -0.53886950283E+02  0.66872987645E+02  0.00000000000E+00 0.  1.
         13    1    4    4    0    0 -0.33781456708E+02 -0.66828403318E+02 -0.76333815070E+02  0.10693022786E+03  0.00000000000E+00 0. -1.
         -1    1    1    2    0  502  0.44111626710E+02  0.13324493597E+01 -0.27448358999E+03  0.27800872685E+03  0.00000000000E+00 0.  1.
<scales pt_clust_5="13000.00000" pt_clust_6="13000.00000" pt_clust_7="13000.00000" pt_clust_8="13000.00000" pt_clust_9="44.13175"></scales>
<clustering>
<clus scale="   44.132">  2  9  1 -1</clus>
<clus scale="   96.022">  5  6 -1 -1</clus>
<clus scale="  102.165">  1  5  2 -1</clus>
<clus scale="  109.517">  7  8 -1 -1</clus>
<clus scale="   44.132">  2  5  1 -1</clus>
</clustering>
</event>
<event>
 9    1  0.3288491E-005  0.1918098E+03  0.7546771E-02  0.1169920E+00
          1   -1    0    0  502    0 -0.00000000000E+00  0.00000000000E+00  0.54128861100E+03  0.54128861100E+03  0.00000000000E+00 0. -1.
         21   -1    0    0  501  502  0.00000000000E+00 -0.00000000000E+00 -0.16115715396E+03  0.16115715396E+03  0.00000000000E+00 0. -1.
         23    2    1    2    0    0 -0.63136747101E+02 -0.87050227159E+02  0.31484916939E+02  0.14516575388E+03  0.92291956434E+02 0.  0.
         23    2    1    2    0    0  0.21465134546E+03  0.65463879958E+02  0.31753580404E+03  0.40110535949E+03  0.98467268058E+02 0.  0.
        -11    1    4    4    0    0  0.41939123259E+02  0.32467683811E+02  0.22430416275E+02  0.57586145261E+02  0.00000000000E+00 0.  1.
         11    1    4    4    0    0  0.17271222220E+03  0.32996196147E+02  0.29510538776E+03  0.34351921423E+03  0.00000000000E+00 0. -1.
        -13    1    3    3    0    0  0.25172887842E+01 -0.49145061400E+02 -0.20431340925E+02  0.53282393854E+02  0.00000000000E+00 0. -1.
         13    1    3    3    0    0 -0.65654035885E+02 -0.37905165759E+02  0.51916257865E+02  0.91883360027E+02  0.00000000000E+00 0.  1.
          1    1    1    2  501    0 -0.15151459836E+03  0.21586347201E+02  0.31110736055E+02  0.15617465159E+03  0.00000000000E+00 0. -1.
<scales pt_clust_5="13000.00000" pt_clust_6="13000.00000" pt_clust_7="13000.00000" pt_clust_8="13000.00000" pt_clust_9="164.60624"></scales>
<clustering>
<clus scale="   92.292">  7  8 -1 -1</clus>
<clus scale="   98.467">  5  6 -1 -1</clus>
<clus scale="  141.710">  1  7  2 -1</clus>
<clus scale="  164.606">  2  9  1 -1</clus>
<clus scale="  164.606">  2  5  1 -1</clus>
</clustering>
</event>
<event>
 9    1  0.3288491E-005  0.1449462E+03  0.7546771E-02  0.1207116E+00
         -1   -1    0    0    0  501 -0.00000000000E+00  0.00000000000E+00  0.37869849391E+03  0.37869849391E+03  0.00000000000E+00 0.  1.
         21   -1    0    0  501  502  0.00000000000E+00 -0.00000000000E+00 -0.10522931067E+03  0.10522931067E+03  0.00000000000E+00 0.  1.
         23    2    1    2    0    0  0.36281380830E+02 -0.11687792824E+03  0.23947508300E+03  0.28463595817E+03  0.93233709563E+02 0.  0.
         23    2    1    2    0    0 -0.68707177383E+02  0.60338342714E+02  0.10508735813E+02  0.13001183951E+03  0.91821855019E+02 0.  0.
        -13    1    3    3    0    0 -0.22291033557E+02 -0.74625146272E+02  0.92855522905E+02  0.12119385614E+03  0.00000000000E+00 0.  1.
         13    1    3    3    0    0  0.58572414387E+02 -0.42252781972E+02  0.14661956010E+03  0.16344210203E+03  0.00000000000E+00 0. -1.
        -13    1    4    4    0    0 -0.46538163058E+02 -0.12053150997E+01 -0.27782879658E+02  0.54213852541E+02  0.00000000000E+00 0.  1.
         13    1    4    4    0    0 -0.22169014325E+02  0.61543657814E+02  0.38291615471E+02  0.75797986970E+02  0.00000000000E+00 0. -1.
         -1    1    1    2    0  502  0.32425796553E+02  0.56539585530E+02  0.23485364419E+02  0.69280006899E+02  0.00000000000E+00 0.  1.
<scales pt_clust_5="13000.00000" pt_clust_6="13000.00000" pt_clust_7="13000.00000" pt_clust_8="13000.00000" pt_clust_9="65.17789"></scales>
<clustering>
<clus scale="   65.178">  2  9  1 -1</clus>
<clus scale="   91.822">  7  8 -1 -1</clus>
<clus scale="   93.234">  5  6 -1 -1</clus>
<clus scale="  144.042">  2  7  1 -1</clus>
<clus scale="   65.178">  2  5  1 -1</clus>
</clustering>
</event>
<event>
 9    1  0.3288491E-005  0.1122162E+03  0.7546771E-02  0.1264282E+00
          1   -1    0    0  502    0 -0.00000000000E+00  0.00000000000E+00  0.33136251855E+03  0.33136251855E+03  0.00000000000E+00 0. -1.
         21   -1    0    0  501  502  0.00000000000E+00 -0.00000000000E+00 -0.60778317311E+02  0.60778317311E+02  0.00000000000E+00 0. -1.
         23    2    1    2    0    0  0.51300203990E+01 -0.63907338071E+01  0.13708189159E+03  0.17459503339E+03  0.10781846825E+03 0.  0.
         23    2    1    2    0    0  0.11083357877E+02  0.61355919374E+02  0.10910166211E+03  0.15526067695E+03  0.91188351607E+02 0.  0.
        -11    1    3    3    0    0  0.44711647339E+02  0.31291753982E+01  0.17231631799E+02  0.48019290717E+02  0.00000000000E+00 0.  1.
         11    1    3    3    0    0 -0.39581626940E+02 -0.95199092053E+01  0.11985025979E+03  0.12657574268E+03  0.00000000000E+00 0. -1.
        -13    1    4    4    0    0  0.12564836774E+02  0.18803295946E+02  0.11037027487E+03  0.11266337753E+03  0.00000000000E+00 0.  1.
         13    1    4    4    0    0 -0.14814788975E+01  0.42552623427E+02 -0.12686127543E+01  0.42597299428E+02  0.00000000000E+00 0. -1.
          1    1    1    2  501    0 -0.16213378276E+02 -0.54965185566E+02  0.24400647534E+02  0.62285125508E+02  0.00000000000E+00 0. -1.
<scales pt_clust_5="13000.00000" pt_clust_6="13000.00000" pt_clust_7="13000.00000" pt_clust_8="13000.00000" pt_clust_9="57.30659"></scales>
<clustering>
<clus scale="   57.307">  2  9  1 -1</clus>
<clus scale="   91.188">  7  8 -1 -1</clus>
<clus scale="   96.348">  2  7  1 -1</clus>
<clus scale="  107.818">  5  6 -1 -1</clus>
<clus scale="   57.307">  2  5  1 -1</clus>
</clustering>
</event>
<event>
 9    1  0.3288491E-005  0.1274818E+03  0.7546771E-02  0.1231594E+00
         21   -1    0    0  501  502  0.00000000000E+00  0.00000000000E+00  0.72837153943E+02  0.72837153943E+02  0.00000000000E+00 0.  1.
          2   -1    0    0  502    0 -0.00000000000E+00 -0.00000000000E+00 -0.75689643261E+03  0.75689643261E+03  0.00000000000E+00 0. -1.
         23    2    1    2    0    0 -0.24272943382E+02 -0.81066434818E+02 -0.61846500349E+03  0.63101545966E+03  0.92307134960E+02 0.  0.
         23    2    1    2    0    0  0.56561468638E+02  0.10060309523E+03 -0.65634929933E+02  0.16097913358E+03  0.91028319317E+02 0.  0.
        -13    1    3    3    0    0 -0.35729100474E+02 -0.97807417268E+02 -0.54156824467E+03  0.55148800815E+03  0.00000000000E+00 0. -1.
         13    1    3    3    0    0  0.11456157092E+02  0.16740982451E+02 -0.76896758812E+02  0.79527451515E+02  0.00000000000E+00 0.  1.
        -13    1    4    4    0    0  0.66489374900E+02  0.34662671222E+02 -0.13168770924E+02  0.76129851429E+02  0.00000000000E+00 0. -1.
         13    1    4    4    0    0 -0.99279062626E+01  0.65940424007E+02 -0.52466159009E+02  0.84849282154E+02  0.00000000000E+00 0.  1.
          2    1    1    2  501    0 -0.32288525256E+02 -0.19536660411E+02  0.40654747157E-01  0.37738993310E+02  0.00000000000E+00 0. -1.
<scales pt_clust_5="13000.00000" pt_clust_6="13000.00000" pt_clust_7="13000.00000" pt_clust_8="13000.00000" pt_clust_9="37.73897"></scales>
<clustering>
<clus scale="   37.739">  1  9  2 -1</clus>
<clus scale="   91.028">  7  8 -1 -1</clus>
<clus scale="   92.307">  5  6 -1 -1</clus>
<clus scale="  126.559">  1  7  2 -1</clus>
<clus scale="   37.739">  1  5  2 -1</clus>
</clustering>
</event>
<event>
 9    1  0.3288491E-005  0.9217147E+02  0.7546771E-02  0.1297937E+00
          2   -1    0    0  502    0 -0.00000000000E+00  0.00000000000E+00  0.32008020098E+03  0.32008020098E+03  0.00000000000E+00 0. -1.
         21   -1    0    0  501  502  0.00000000000E+00 -0.00000000000E+00 -0.43030435517E+02  0.43030435517E+02  0.00000000000E+00 0.  1.
         23    2    1    2    0    0 -0.42704095548E+01  0.27723474152E+01  0.17382465075E+03  0.19650651229E+03  0.91508894971E+02 0.  0.
         23    2    1    2    0    0 -0.28022914372E+02  0.86568563390E+01  0.76318125009E+02  0.12304414758E+03  0.91952059010E+02 0.  0.
        -11    1    4    4    0    0 -0.61917169536E+02  0.43896511555E+01  0.53660120419E+02  0.82051285451E+02  0.00000000000E+00 0.  1.
         11    1    4    4    0    0  0.33894255165E+02  0.42672051835E+01  0.22658004589E+02  0.40992862125E+02  0.00000000000E+00 0. -1.
        -13    1    3    3    0    0 -0.24002575459E+02 -0.23606298779E+02  0.19923838220E+02  0.39119564160E+02  0.00000000000E+00 0.  1.
         13    1    3    3    0    0  0.19732165904E+02  0.26378646194E+02  0.15390081253E+03  0.15738694813E+03  0.00000000000E+00 0. -1.
          2    1    1    2  501    0  0.32293323926E+02 -0.11429203754E+02  0.26906989709E+02  0.43559976629E+02  0.00000000000E+00 0. -1.
<scales pt_clust_5="13000.00000" pt_clust_6="13000.00000" pt_clust_7="13000.00000" pt_clust_8="13000.00000" pt_clust_9="34.25617"></scales>
<clustering>
<clus scale="   34.256">  2  9  1 -1</clus>
<clus scale="   91.509">  7  8 -1 -1</clus>
<clus scale="   91.729">  1  7  2 -1</clus>
<clus scale="   91.952">  5  6 -1 -1</clus>
<clus scale="   34.256">  2  5  1 -1</clus>
</clustering>
</event>
<event>
 9    1  0.3288491E-005  0.1049028E+03  0.7546771E-02  0.1273432E+00
          1   -1    0    0  502    0 -0.00000000000E+00  0.00000000000E+00  0.22940284972E+03  0.22940284972E+03  0.00000000000E+00 0. -1.
         21   -1    0    0  501  502  0.00000000000E+00 -0.00000000000E+00 -0.12161315070E+03  0.12161315070E+03  0.00000000000E+00 0. -1.
         23    2    1    2    0    0 -0.26648858652E+02  0.18557114224E+02  0.74269378595E+02  0.11682428796E+03  0.84127554971E+02 0.  0.
         23    2    1    2    0    0  0.84415658692E+02 -0.78478611023E+02  0.83657848693E+01  0.14724149898E+03  0.91242407057E+02 0.  0.
        -11    1    3    3    0    0 -0.50991545750E+02 -0.87996123573E+01  0.31749081930E+02  0.60708937720E+02  0.00000000000E+00 0.  1.
         11    1    3    3    0    0  0.24342687098E+02  0.27356726581E+02  0.42520296665E+02  0.56115350243E+02  0.00000000000E+00 0. -1.
        -13    1    4    4    0    0  0.96412419475E+02 -0.38766861335E+02  0.15761783549E+02  0.10510308267E+03  0.00000000000E+00 0. -1.
         13    1    4    4    0    0 -0.11996760783E+02 -0.39711749688E+02 -0.73959986800E+01  0.42138416309E+02  0.00000000000E+00 0.  1.
          1    1    1    2  501    0 -0.57766800040E+02  0.59921496800E+02  0.25154535555E+02  0.86950213482E+02  0.00000000000E+00 0. -1.
<scales pt_clust_5="13000.00000" pt_clust_6="13000.00000" pt_clust_7="13000.00000" pt_clust_8="13000.00000" pt_clust_9="83.23214"></scales>
<clustering>
<clus scale="   83.232">  2  9  1 -1</clus>
<clus scale="   84.128">  5  6 -1 -1</clus>
<clus scale="   91.242">  7  8 -1 -1</clus>
<clus scale="   98.777">  1  5  2 -1</clus>
<clus scale="   83.232">  2  5  1 -1</clus>
</clustering>
</event>
<event>
 9    1  0.3288491E-005  0.1083324E+03  0.7546771E-02  0.1264496E+00
         21   -1    0    0  501  502  0.00000000000E+00  0.00000000000E+00  0.16509404193E+03  0.16509404193E+03  0.00000000000E+00 0. -1.
         -2   -1    0    0    0  501 -0.00000000000E+00 -0.00000000000E+00 -0.12960306879E+03  0.12960306879E+03  0.00000000000E+00 0.  1.
         23    2    1    2    0    0 -0.30044435565E+02 -0.51245354245E+02 -0.40308864618E+02  0.11732476405E+03  0.92798390353E+02 0.  0.
         23    2    1    2    0    0 -0.13882290252E+02  0.58944180097E+02  0.29463544278E+02  0.11306152912E+03  0.90816708680E+02 0.  0.
        -11    1    3    3    0    0 -0.48294264398E+02  0.17218467570E+01 -0.37611840611E+02  0.61236845804E+02  0.00000000000E+00 0. -1.
         11    1    3    3    0    0  0.18249828833E+02 -0.52967201002E+02 -0.26970240072E+01  0.56087918244E+02  0.00000000000E+00 0.  1.
        -11    1    4    4    0    0  0.32359751853E+02  0.28760582635E+02  0.37477900622E+02  0.57261834484E+02  0.00000000000E+00 0.  1.
         11    1    4    4    0    0 -0.46242042104E+02  0.30183597463E+02 -0.80143563442E+01  0.55799694635E+02  0.00000000000E+00 0. -1.
         -2    1    1    2    0  502  0.43926725816E+02 -0.76988258520E+01  0.46336293483E+02  0.64310817551E+02  0.00000000000E+00 0.  1.
<scales pt_clust_5="13000.00000" pt_clust_6="13000.00000" pt_clust_7="13000.00000" pt_clust_8="13000.00000" pt_clust_9="44.59629"></scales>
<clustering>
<clus scale="   44.596">  1  9  2 -1</clus>
<clus scale="   90.817">  7  8 -1 -1</clus>
<clus scale="   92.798">  5  6 -1 -1</clus>
<clus scale="  106.640">  1  7  2 -1</clus>
<clus scale="   44.596">  1  5  2 -1</clus>
</clustering>
</event>
<event>
 9    1  0.3288491E-005  0.1095583E+03  0.7546771E-02  0.1262601E+00
         21   -1    0    0  501  502  0.00000000000E+00  0.00000000000E+00  0.43835774555E+02  0.43835774555E+02  0.00000000000E+00 0.  1.
          1   -1    0    0  502    0 -0.00000000000E+00 -0.00000000000E+00 -0.45568559025E+03  0.45568559025E+03  0.00000000000E+00 0. -1.
         23    2    1    2    0    0  0.37238512055E+02  0.44742466926E+02 -0.26676129087E+03  0.28786931784E+03  0.91206155066E+02 0.  0.
         23    2    1    2    0    0 -0.68508580113E+02 -0.23918103180E+02 -0.12413858310E+03  0.16863610411E+03  0.88103612777E+02 0.  0.
        -11    1    3    3    0    0  0.22018592406E+02 -0.21824474934E+02 -0.14490996728E+03  0.14818915188E+03  0.00000000000E+00 0.  1.
         11    1    3    3    0    0  0.15219919649E+02  0.66566941860E+02 -0.12185132358E+03  0.13968016595E+03  0.00000000000E+00 0. -1.
        -13    1    4    4    0    0 -0.46429942974E+02  0.29127712650E+02 -0.75856809311E+02  0.93586424056E+02  0.00000000000E+00 0. -1.
         13    1    4    4    0    0 -0.22078637138E+02 -0.53045815831E+02 -0.48281773793E+02  0.75049680050E+02  0.00000000000E+00 0.  1.
          1    1    1    2  501    0  0.31270068058E+02 -0.20824363745E+02 -0.20949941724E+02  0.43015942859E+02  0.00000000000E+00 0. -1.
<scales pt_clust_5="13000.00000" pt_clust_6="13000.00000" pt_clust_7="13000.00000" pt_clust_8="13000.00000" pt_clust_9="37.56955"></scales>
<clustering>
<clus scale="   37.570">  1  9  2 -1</clus>
<clus scale="   88.104">  7  8 -1 -1</clus>
<clus scale="   91.206">  5  6 -1 -1</clus>
<clus scale="  106.989">  1  7  2 -1</clus>
<clus scale="   37.570">  1  5  2 -1</clus>
</clustering>
</event>
<event>
 9    1  0.3288491E-005  0.9960774E+02  0.7546771E-02  0.1282812E+00
         21   -1    0    0  501  502  0.00000000000E+00  0.00000000000E+00  0.16497075119E+03  0.16497075119E+03  0.00000000000E+00 0.  1.
          1   -1    0    0  502    0 -0.00000000000E+00 -0.00000000000E+00 -0.26229673644E+03  0.26229673644E+03  0.00000000000E+00 0. -1.
         23    2    1    2    0    0 -0.30631408276E+02 -0.68237843033E+01 -0.20839709703E+03  0.22990580924E+03  0.91882990086E+02 0.  0.
         23    2    1    2    0    0  0.21319578085E+02 -0.29035298256E+02  0.26691425572E+02  0.10520683354E+03  0.95176008900E+02 0.  0.
        -13    1    3    3    0    0  0.13126722525E+02 -0.34499535969E+02 -0.43392650545E+02  0.56968859455E+02  0.00000000000E+00 0.  1.
         13    1    3    3    0    0 -0.43758130801E+02  0.27675751666E+02 -0.16500444648E+03  0.17293694978E+03  0.00000000000E+00 0. -1.
        -13    1    4    4    0    0  0.58830697288E+02 -0.99205806398E+01  0.16034443651E+02  0.61778412466E+02  0.00000000000E+00 0.  1.
         13    1    4    4    0    0 -0.37511119203E+02 -0.19114717616E+02  0.10656981921E+02  0.43428421075E+02  0.00000000000E+00 0. -1.
          1    1    1    2  501    0  0.93118301909E+01  0.35859082559E+02  0.84379686207E+02  0.92154844842E+02  0.00000000000E+00 0. -1.
<scales pt_clust_5="13000.00000" pt_clust_6="13000.00000" pt_clust_7="13000.00000" pt_clust_8="13000.00000" pt_clust_9="37.04840"></scales>
<clustering>
<clus scale="   37.048">  1  9  2 -1</clus>
<clus scale="   91.883">  5  6 -1 -1</clus>
<clus scale="   95.176">  7  8 -1 -1</clus>
<clus scale="   96.466">  2  5  1 -1</clus>
<clus scale="   37.048">  1  5  2 -1</clus>
</clustering>
</event>
<event>
 9    1  0.3288491E-005  0.1403240E+03  0.7546771E-02  0.1213399E+00
          2   -1    0    0  502    0 -0.00000000000E+00  0.00000000000E+00  0.26198214436E+03  0.26198214436E+03  0.00000000000E+00 0. -1.
         21   -1    0    0  501  502  0.00000000000E+00 -0.00000000000E+00 -0.96562815857E+02  0.96562815857E+02  0.00000000000E+00 0. -1.
         23    2    1    2    0    0  0.11501834753E+03  0.15064906749E+02  0.13014426150E+03  0.19578283747E+03  0.89091071158E+02 0.  0.
         23    2    1    2    0    0 -0.92873177009E+02 -0.24247924306E+01  0.40998103553E+02  0.13662911269E+03  0.91407676451E+02 0.  0.
        -11    1    4    4    0    0 -0.66596727875E+02  0.41960569348E+02  0.23125083561E+02  0.82040130628E+02  0.00000000000E+00 0.  1.
         11    1    4    4    0    0 -0.26276449134E+02 -0.44385361778E+02  0.17873019991E+02  0.54588982065E+02  0.00000000000E+00 0. -1.
        -11    1    3    3    0    0  0.12354930154E+03 -0.40870270143E+01  0.99670846118E+02  0.15879361217E+03  0.00000000000E+00 0. -1.
         11    1    3    3    0    0 -0.85309540017E+01  0.19151933763E+02  0.30473415382E+02  0.36989225297E+02  0.00000000000E+00 0.  1.
          2    1    1    2  501    0 -0.22145170525E+02 -0.12640114318E+02 -0.57230365465E+01  0.26133010061E+02  0.00000000000E+00 0. -1.
<scales pt_clust_5="13000.00000" pt_clust_6="13000.00000" pt_clust_7="13000.00000" pt_clust_8="13000.00000" pt_clust_9="25.49865"></scales>
<clustering>
<clus scale="   25.499">  2  9  1 -1</clus>
<clus scale="   89.091">  7  8 -1 -1</clus>
<clus scale="   91.408">  5  6 -1 -1</clus>
<clus scale="  138.826">  1  7  2 -1</clus>
<clus scale="   25.499">  2  5  1 -1</clus>
</clustering>
</event>
<event>
 9    1  0.3288491E-005  0.9367164E+02  0.7546771E-02  0.1294970E+00
         -1   -1    0    0    0  501 -0.00000000000E+00  0.00000000000E+00  0.14625414833E+03  0.14625414833E+03  0.00000000000E+00 0.  1.
         21   -1    0    0  501  502  0.00000000000E+00 -0.00000000000E+00 -0.12203339473E+03  0.12203339473E+03  0.00000000000E+00 0. -1.
         23    2    1    2    0    0  0.94775359314E+01 -0.70938328510E+01  0.76805848155E+02  0.11929020239E+03  0.90503413883E+02 0.  0.
         23    2    1    2    0    0 -0.32941629170E+02  0.12496151506E+02 -0.84907812689E+01  0.98757344816E+02  0.91867377528E+02 0.  0.
        -11    1    3    3    0    0 -0.17719535862E+02  0.10900018018E+02 -0.12463119956E+02  0.24251220650E+02  0.00000000000E+00 0. -1.
         11    1    3    3    0    0  0.27197071794E+02 -0.17993850869E+02  0.89268968111E+02  0.95038981744E+02  0.00000000000E+00 0.  1.
        -11    1    4    4    0    0 -0.24678421135E+02  0.49418807827E+02 -0.20716660511E+02  0.58995110472E+02  0.00000000000E+00 0.  1.
         11    1    4    4    0    0 -0.82632080343E+01 -0.36922656322E+02  0.12225879242E+02  0.39762234345E+02  0.00000000000E+00 0. -1.
         -1    1    1    2    0  502  0.23464093238E+02 -0.54023186549E+01 -0.44094313289E+02  0.50239995848E+02  0.00000000000E+00 0.  1.
<scales pt_clust_5="13000.00000" pt_clust_6="13000.00000" pt_clust_7="13000.00000" pt_clust_8="13000.00000" pt_clust_9="24.07797"></scales>
<clustering>
<clus scale="   24.078">  2  9  1 -1</clus>
<clus scale="   90.503">  5  6 -1 -1</clus>
<clus scale="   91.867">  7  8 -1 -1</clus>
<clus scale="   92.334">  1  5  2 -1</clus>
<clus scale="   24.078">  2  5  1 -1</clus>
</clustering>
</event>
<event>
 9    1  0.3288491E-005  0.1305833E+03  0.7546771E-02  0.1228556E+00
          2   -1    0    0  502    0 -0.00000000000E+00  0.00000000000E+00  0.86923688833E+02  0.86923688833E+02  0.00000000000E+00 0. -1.
         21   -1    0    0  501  502  0.00000000000E+00 -0.00000000000E+00 -0.33688164621E+03  0.33688164621E+03  0.00000000000E+00 0.  1.
         23    2    1    2    0    0 -0.33736595256E+02 -0.93664339392E+02 -0.37928152136E+02  0.14521683490E+03  0.98682410193E+02 0.  0.
         23    2    1    2    0    0  0.16981567266E+02  0.67541964603E+02 -0.73424439346E+02  0.13655133288E+03  0.91677846884E+02 0.  0.
        -11    1    3    3    0    0 -0.56005288749E+02 -0.84034724976E+02 -0.55525413173E+02  0.11524538549E+03  0.00000000000E+00 0.  1.
         11    1    3    3    0    0  0.22268693493E+02 -0.96296144168E+01  0.17597261037E+02  0.29971449409E+02  0.00000000000E+00 0. -1.
        -13    1    4    4    0    0 -0.79534545830E+01  0.83953941805E+02 -0.46231376139E+02  0.96171003551E+02  0.00000000000E+00 0.  1.
         13    1    4    4    0    0  0.24935021849E+02 -0.16411977201E+02 -0.27193063207E+02  0.40380329330E+02  0.00000000000E+00 0. -1.
          2    1    1    2  501    0  0.16755027990E+02  0.26122374789E+02 -0.13860536589E+03  0.14203716725E+03  0.00000000000E+00 0. -1.
<scales pt_clust_5="13000.00000" pt_clust_6="13000.00000" pt_clust_7="13000.00000" pt_clust_8="13000.00000" pt_clust_9="31.03400"></scales>
<clustering>
<clus scale="   31.034">  2  9  1 -1</clus>
<clus scale="   91.678">  7  8 -1 -1</clus>
<clus scale="   98.682">  5  6 -1 -1</clus>
<clus scale="  125.374">  2  7  1 -1</clus>
<clus scale="   31.034">  2  5  1 -1</clus>
</clustering>
</event>
<event>
 9    1  0.3288491E-005  0.1405324E+03  0.7546771E-02  0.1233464E+00
         -1   -1    0    0    0  501 -0.00000000000E+00  0.00000000000E+00  0.33579709141E+03  0.33579709141E+03  0.00000000000E+00 0.  1.
         21   -1    0    0  501  502  0.00000000000E+00 -0.00000000000E+00 -0.11035605114E+03  0.11035605114E+03  0.00000000000E+00 0.  1.
         23    2    1    2    0    0 -0.81380395704E-01  0.44098352453E+01  0.15864004502E+03  0.18284120011E+03  0.90800811159E+02 0.  0.
         23    2    1    2    0    0  0.91766534006E+02 -0.53527232207E+02  0.30325985049E+01  0.14130745686E+03  0.93125395885E+02 0.  0.
        -11    1    3    3    0    0  0.51342647135E+01 -0.38655916591E+02  0.37230368216E+02  0.53914199235E+02  0.00000000000E+00 0.  1.
         11    1    3    3    0    0 -0.52156451092E+01  0.43065751837E+02  0.12140967680E+03  0.12892700088E+03  0.00000000000E+00 0. -1.
        -13    1    4    4    0    0  0.48309667561E+02  0.22291652244E+02 -0.55681872746E+01  0.53495293710E+02  0.00000000000E+00 0.  1.
         13    1    4    4    0    0  0.43456866445E+02 -0.75818884451E+02  0.86007857795E+01  0.87812163148E+02  0.00000000000E+00 0. -1.
         -1    1    1    2    0  502 -0.91685153610E+02  0.49117396961E+02  0.63768396749E+02  0.12200448558E+03  0.00000000000E+00 0.  1.
<scales pt_clust_5="13000.00000" pt_clust_6="13000.00000" pt_clust_7="13000.00000" pt_clust_8="13000.00000" pt_clust_9="105.24752"></scales>
<clustering>
<clus scale="   90.801">  5  6 -1 -1</clus>
<clus scale="   90.908">  1  5  2 -1</clus>
<clus scale="   93.125">  7  8 -1 -1</clus>
<clus scale="  105.248">  2  9  1 -1</clus>
<clus scale="  105.248">  2  5  1 -1</clus>
</clustering>
</event>
<event>
 9    1  0.3288491E-005  0.1050371E+03  0.7546771E-02  0.1270513E+00
          2   -1    0    0  502    0 -0.00000000000E+00  0.00000000000E+00  0.59453020707E+03  0.59453020707E+03  0.00000000000E+00 0. -1.
         21   -1    0    0  501  502  0.00000000000E+00 -0.00000000000E+00 -0.63224490163E+02  0.63224490163E+02  0.00000000000E+00 0.  1.
         23    2    1    2    0    0  0.29925678615E+01  0.69767704586E+02  0.40145120418E+03  0.41776948639E+03  0.92150889093E+02 0.  0.
         23    2    1    2    0    0 -0.35094911726E+02  0.25225117743E+02  0.54852500003E+02  0.11476740584E+03  0.91075799712E+02 0.  0.
        -13    1    4    4    0    0 -0.51022565236E+02 -0.12075889345E+02  0.84015416467E+01  0.53100990281E+02  0.00000000000E+00 0.  1.
         13    1    4    4    0    0  0.15927653510E+02  0.37301007088E+02  0.46450958356E+02  0.61666415562E+02  0.00000000000E+00 0. -1.
        -13    1    3    3    0    0 -0.13232345069E+02  0.88699644219E+02  0.33494173518E+03  0.34674008682E+03  0.00000000000E+00 0. -1.
         13    1    3    3    0    0  0.16224912930E+02 -0.18931939634E+02  0.66509468996E+02  0.71029399575E+02  0.00000000000E+00 0.  1.
          2    1    1    2  501    0  0.32102343864E+02 -0.94992822328E+02  0.75002012734E+02  0.12521780500E+03  0.00000000000E+00 0. -1.
<scales pt_clust_5="13000.00000" pt_clust_6="13000.00000" pt_clust_7="13000.00000" pt_clust_8="13000.00000" pt_clust_9="100.27062"></scales>
<clustering>
<clus scale="   91.076">  5  6 -1 -1</clus>
<clus scale="   92.151">  7  8 -1 -1</clus>
<clus scale="  100.271">  2  9  1 -1</clus>
<clus scale="  104.095">  2  5  1 -1</clus>
<clus scale="  100.271">  2  5  1 -1</clus>
</clustering>
</event>
<event>
 9    1  0.3288491E-005  0.1344473E+03  0.7546771E-02  0.1222061E+00
         21   -1    0    0  501  502  0.00000000000E+00  0.00000000000E+00  0.20559609216E+03  0.20559609216E+03  0.00000000000E+00 0.  1.
         -1   -1    0    0    0  501 -0.00000000000E+00 -0.00000000000E+00 -0.20278744733E+03  0.20278744733E+03  0.00000000000E+00 0.  1.
         23    2    1    2    0    0  0.45755814309E+02  0.78647834175E+02 -0.10508713770E+03  0.16655224532E+03  0.91745667734E+02 0.  0.
         23    2    1    2    0    0 -0.30073503176E+02 -0.12055299126E+03  0.34320548468E+02  0.15571920362E+03  0.87367791739E+02 0.  0.
        -11    1    4    4    0    0  0.69313159651E+01 -0.43581170248E+02 -0.25945969419E+02  0.51191355426E+02  0.00000000000E+00 0.  1.
         11    1    4    4    0    0 -0.37004819141E+02 -0.76971821010E+02  0.60266517887E+02  0.10452784819E+03  0.00000000000E+00 0. -1.
        -11    1    3    3    0    0 -0.11421572498E+02  0.27126251433E+02 -0.80567205458E+02  0.85775057159E+02  0.00000000000E+00 0.  1.
         11    1    3    3    0    0  0.57177386808E+02  0.51521582742E+02 -0.24519932243E+02  0.80777188163E+02  0.00000000000E+00 0. -1.
         -1    1    1    2    0  502 -0.15682311133E+02  0.41905157083E+02  0.73575234056E+02  0.86112090551E+02  0.00000000000E+00 0.  1.
<scales pt_clust_5="13000.00000" pt_clust_6="13000.00000" pt_clust_7="13000.00000" pt_clust_8="13000.00000" pt_clust_9="44.74346"></scales>
<clustering>
<clus scale="   44.743">  1  9  2 -1</clus>
<clus scale="   87.368">  5  6 -1 -1</clus>
<clus scale="   91.746">  7  8 -1 -1</clus>
<clus scale="  131.499">  1  5  2 -1</clus>
<clus scale="   44.743">  1  5  2 -1</clus>
</clustering>
</event>
<event>
 9    1  0.3288491E-005  0.9595238E+02  0.7546771E-02  0.1290420E+00
         21   -1    0    0  501  502  0.00000000000E+00  0.00000000000E+00  0.50162477477E+03  0.50162477477E+03  0.00000000000E+00 0.  1.
         -2   -1    0    0    0  501 -0.00000000000E+00 -0.00000000000E+00 -0.55920231446E+02  0.55920231446E+02  0.00000000000E+00 0.  1.
         23    2    1    2    0    0 -0.25938776647E+02 -0.35700531172E+02  0.35233992153E+02  0.10596843284E+03  0.89668982904E+02 0.  0.
         23    2    1    2    0    0 -0.54063495919E+01  0.16417078576E+01  0.94213174560E+02  0.13194984007E+03  0.92210163287E+02 0.  0.
        -11    1    4    4    0    0 -0.83731716910E+01  0.46414807806E+02  0.53988938562E+02  0.71688561674E+02  0.00000000000E+00 0. -1.
         11    1    4    4    0    0  0.29668220992E+01 -0.44773099948E+02  0.40224235998E+02  0.60261278397E+02  0.00000000000E+00 0.  1.
        -13    1    3    3    0    0 -0.31532877640E+02 -0.59627967179E+02  0.59111924879E+01  0.67710848753E+02  0.00000000000E+00 0.  1.
         13    1    3    3    0    0  0.55941009927E+01  0.23927436008E+02  0.29322799665E+02  0.38257584085E+02  0.00000000000E+00 0. -1.
         -2    1    1    2    0  502  0.31345126239E+02  0.34058823314E+02  0.31625737661E+03  0.31962673331E+03  0.00000000000E+00 0.  1.
<scales pt_clust_5="13000.00000" pt_clust_6="13000.00000" pt_clust_7="13000.00000" pt_clust_8="13000.00000" pt_clust_9="46.28737"></scales>
<clustering>
<clus scale="   46.287">  1  9  2 -1</clus>
<clus scale="   89.669">  7  8 -1 -1</clus>
<clus scale="   92.210">  5  6 -1 -1</clus>
<clus scale="   93.513">  2  7  1 -1</clus>
<clus scale="   46.287">  1  5  2 -1</clus>
</clustering>
</event>
<event>
 9    1  0.3288491E-005  0.1015709E+03  0.7546771E-02  0.1277587E+00
         21   -1    0    0  501  502  0.00000000000E+00  0.00000000000E+00  0.65430128362E+02  0.65430128362E+02  0.00000000000E+00 0. -1.
          4   -1    0    0  502    0 -0.00000000000E+00 -0.00000000000E+00 -0.43684290750E+03  0.43684290750E+03  0.00000000000E+00 0. -1.
         23    2    1    2    0    0  0.16308668906E+01  0.37344950839E+02 -0.20042863930E+03  0.22396391381E+03  0.92687054960E+02 0.  0.
         23    2    1    2    0    0  0.35552303687E+02 -0.39358033996E+02 -0.20319656974E+03  0.22907213068E+03  0.91499584482E+02 0.  0.
        -11    1    3    3    0    0 -0.28164823387E+02 -0.17928045871E+02 -0.42750791874E+02  0.54242993198E+02  0.00000000000E+00 0.  1.
         11    1    3    3    0    0  0.29795690277E+02  0.55272996710E+02 -0.15767784743E+03  0.16972092061E+03  0.00000000000E+00 0. -1.
        -11    1    4    4    0    0  0.64009122313E+01 -0.53393740596E+02 -0.53268550846E+02  0.75692811557E+02  0.00000000000E+00 0.  1.
         11    1    4    4    0    0  0.29151391455E+02  0.14035706599E+02 -0.14992801890E+03  0.15337931912E+03  0.00000000000E+00 0. -1.
          4    1    1    2  501    0 -0.37183170577E+02  0.20130831574E+01  0.32212429913E+02  0.49236991367E+02  0.00000000000E+00 0. -1.
<scales pt_clust_5="13000.00000" pt_clust_6="13000.00000" pt_clust_7="13000.00000" pt_clust_8="13000.00000" pt_clust_9="37.23762"></scales>
<clustering>
<clus scale="   37.238">  1  9  2 -1</clus>
<clus scale="   91.500">  7  8 -1 -1</clus>
<clus scale="   92.687">  5  6 -1 -1</clus>
<clus scale="  100.488">  1  7  2 -1</clus>
<clus scale="   37.238">  1  5  2 -1</clus>
</clustering>
</event>
<event>
 9    1  0.3288491E-005  0.1046768E+03  0.7546771E-02  0.1270765E+00
         21   -1    0    0  501  502  0.00000000000E+00  0.00000000000E+00  0.14109836706E+03  0.14109836706E+03  0.00000000000E+00 0.  1.
          3   -1    0    0  502    0 -0.00000000000E+00 -0.00000000000E+00 -0.13968675389E+03  0.13968675389E+03  0.00000000000E+00 0. -1.
         23    2    1    2    0    0 -0.33585891265E+02 -0.41906375766E+02 -0.81586285066E+02  0.13378265641E+03  0.91418383403E+02 0.  0.
         23    2    1    2    0    0  0.37199782673E+02  0.22184654117E+02  0.66937543625E+02  0.12131313784E+03  0.91434457170E+02 0.  0.
        -11    1    3    3    0    0 -0.63343488528E+02 -0.15540285425E+02 -0.59592589765E+02  0.88346900143E+02  0.00000000000E+00 0. -1.
         11    1    3    3    0    0  0.29757597263E+02 -0.26366090342E+02 -0.21993695301E+02  0.45435756270E+02  0.00000000000E+00 0.  1.
        -13    1    4    4    0    0  0.28351014308E+02  0.56410020589E+02  0.55774537059E+02  0.84241732054E+02  0.00000000000E+00 0.  1.
         13    1    4    4    0    0  0.88487683648E+01 -0.34225366473E+02  0.11163006566E+02  0.37071405791E+02  0.00000000000E+00 0. -1.
          3    1    1    2  501    0 -0.36138914079E+01  0.19721721650E+02  0.16060354614E+02  0.25689326699E+02  0.00000000000E+00 0. -1.
<scales pt_clust_5="13000.00000" pt_clust_6="13000.00000" pt_clust_7="13000.00000" pt_clust_8="13000.00000" pt_clust_9="20.05010"></scales>
<clustering>
<clus scale="   20.050">  1  9  2 -1</clus>
<clus scale="   91.418">  5  6 -1 -1</clus>
<clus scale="   91.434">  7  8 -1 -1</clus>
<clus scale="  104.663">  2  5  1 -1</clus>
<clus scale="   20.050">  1  5  2 -1</clus>
</clustering>
</event>
<event>
 9    1  0.3288491E-005  0.9202973E+02  0.7546771E-02  0.1298424E+00
          2   -1    0    0  502    0 -0.00000000000E+00  0.00000000000E+00  0.62157618135E+03  0.62157618135E+03  0.00000000000E+00 0. -1.
         21   -1    0    0  501  502  0.00000000000E+00 -0.00000000000E+00 -0.49072668574E+02  0.49072668574E+02  0.00000000000E+00 0. -1.
         23    2    1    2    0    0  0.32882667829E+02  0.12415769729E+01  0.33963772513E+03  0.35307514327E+03  0.90694327872E+02 0.  0.
         23    2    1    2    0    0  0.43885871995E+02  0.43867782867E+02  0.18896312995E+03  0.21829779615E+03  0.89980615650E+02 0.  0.
        -11    1    4    4    0    0  0.68640421194E+02  0.24308950325E+02  0.15857082683E+03  0.17449108748E+03  0.00000000000E+00 0. -1.
         11    1    4    4    0    0 -0.24754549199E+02  0.19558832542E+02  0.30392303117E+02  0.43806708678E+02  0.00000000000E+00 0.  1.
        -11    1    3    3    0    0  0.21434667185E+02 -0.42851922636E+02  0.13009953645E+03  0.13864206294E+03  0.00000000000E+00 0. -1.
         11    1    3    3    0    0  0.11448000644E+02  0.44093499609E+02  0.20953818868E+03  0.21443308034E+03  0.00000000000E+00 0.  1.
          2    1    1    2  501    0 -0.76768539824E+02 -0.45109359840E+02  0.43902657701E+02  0.99275910497E+02  0.00000000000E+00 0. -1.
<scales pt_clust_5="13000.00000" pt_clust_6="13000.00000" pt_clust_7="13000.00000" pt_clust_8="13000.00000" pt_clust_9="89.04079"></scales>
<clustering>
<clus scale="   89.041">  2  9  1 -1</clus>
<clus scale="   89.981">  5  6 -1 -1</clus>
<clus scale="   90.694">  7  8 -1 -1</clus>
<clus scale="   91.326">  2  5  1 -1</clus>
<clus scale="   89.041">  2  5  1 -1</clus>
</clustering>
</event>
<event>
 9    1  0.3288491E-005  0.9100806E+02  0.7546771E-02  0.1301171E+00
         21   -1    0    0  501  502  0.00000000000E+00  0.00000000000E+00  0.99180536497E+02  0.99180536497E+02  0.00000000000E+00 0.  1.
          1   -1    0    0  502    0 -0.00000000000E+00 -0.00000000000E+00 -0.16794928149E+03  0.16794928149E+03  0.00000000000E+00 0. -1.
         23    2    1    2    0    0  0.66029601371E+01  0.73450211838E+01 -0.63958674451E+02  0.10993587574E+03  0.88868646431E+02 0.  0.
         23    2    1    2    0    0  0.34210085483E+02 -0.35202863555E+02 -0.25528293409E+02  0.10361214652E+03  0.87602577534E+02 0.  0.
        -11    1    3    3    0    0  0.27323689708E+02  0.37140325344E+02 -0.14000864034E+02  0.48187259515E+02  0.00000000000E+00 0.  1.
         11    1    3    3    0    0 -0.20720729571E+02 -0.29795304160E+02 -0.49957810417E+02  0.61748616224E+02  0.00000000000E+00 0. -1.
        -13    1    4    4    0    0  0.45464537424E+02  0.14002184902E+02 -0.23588908760E+02  0.53099171008E+02  0.00000000000E+00 0.  1.
         13    1    4    4    0    0 -0.11254451941E+02 -0.49205048457E+02 -0.19393846494E+01  0.50512975511E+02  0.00000000000E+00 0. -1.
          1    1    1    2  501    0 -0.40813045621E+02  0.27857842371E+02  0.20718222870E+02  0.53581795727E+02  0.00000000000E+00 0. -1.
<scales pt_clust_5="13000.00000" pt_clust_6="13000.00000" pt_clust_7="13000.00000" pt_clust_8="13000.00000" pt_clust_9="49.41421"></scales>
<clustering>
<clus scale="   49.414">  1  9  2 -1</clus>
<clus scale="   87.603">  7  8 -1 -1</clus>
<clus scale="   88.869">  5  6 -1 -1</clus>
<clus scale="   89.772">  1  7  2 -1</clus>
<clus scale="   49.414">  1  5  2 -1</clus>
</clustering>
</event>
<event>
 9    1  0.3288491E-005  0.9241865E+02  0.7546771E-02  0.1297775E+00
         21   -1    0    0  501  502  0.00000000000E+00  0.00000000000E+00  0.30333064298E+03  0.30333064298E+03  0.00000000000E+00 0. -1.
          1   -1    0    0  502    0 -0.00000000000E+00 -0.00000000000E+00 -0.52793064069E+02  0.52793064069E+02  0.00000000000E+00 0. -1.
         23    2    1    2    0    0  0.62101810902E+01  0.11283313343E+02  0.39622214300E+02  0.98454691161E+02  0.89204970918E+02 0.  0.
         23    2    1    2    0    0  0.18925736243E+02 -0.31521846800E+02  0.90772776526E+02  0.13326783403E+03  0.90381459987E+02 0.  0.
        -11    1    3    3    0    0  0.34303772607E+02  0.34730762783E+02  0.67784147054E+01  0.49284090785E+02  0.00000000000E+00 0. -1.
         11    1    3    3    0    0 -0.28093591517E+02 -0.23447449440E+02  0.32843799594E+02  0.49170600376E+02  0.00000000000E+00 0.  1.
        -11    1    4    4    0    0  0.40155901628E+02  0.17712238511E+02  0.43349922376E+02  0.61688212802E+02  0.00000000000E+00 0. -1.
         11    1    4    4    0    0 -0.21230165385E+02 -0.49234085312E+02  0.47422854150E+02  0.71579621223E+02  0.00000000000E+00 0.  1.
          1    1    1    2  501    0 -0.25135917334E+02  0.20238533457E+02  0.12014258808E+03  0.12440118186E+03  0.00000000000E+00 0. -1.
<scales pt_clust_5="13000.00000" pt_clust_6="13000.00000" pt_clust_7="13000.00000" pt_clust_8="13000.00000" pt_clust_9="32.27092"></scales>
<clustering>
<clus scale="   32.271">  1  9  2 -1</clus>
<clus scale="   89.205">  5  6 -1 -1</clus>
<clus scale="   90.381">  7  8 -1 -1</clus>
<clus scale="   91.268">  2  5  1 -1</clus>
<clus scale="   32.271">  1  5  2 -1</clus>
</clustering>
</event>
<event>
 9    1  0.3288491E-005  0.1053799E+03  0.7546771E-02  0.1269654E+00
         21   -1    0    0  501  502  0.00000000000E+00  0.00000000000E+00  0.14163872108E+03  0.14163872108E+03  0.00000000000E+00 0. -1.
          1   -1    0    0  502    0 -0.00000000000E+00 -0.00000000000E+00 -0.46904492184E+03  0.46904492184E+03  0.00000000000E+00 0. -1.
         23    2    1    2    0    0  0.42520102578E+02  0.13116885073E+02 -0.25438074498E+03  0.27443416507E+03  0.92868378600E+02 0.  0.
         23    2    1    2    0    0 -0.33582973778E+02 -0.59964456281E+02 -0.18313481263E+03  0.21625515437E+03  0.92219195649E+02 0.  0.
        -13    1    4    4    0    0 -0.52626505570E+02 -0.71296601318E+02 -0.11879460190E+03  0.14820564054E+03  0.00000000000E+00 0.  1.
         13    1    4    4    0    0  0.19043531792E+02  0.11332145037E+02 -0.64340210734E+02  0.68049513823E+02  0.00000000000E+00 0. -1.
        -13    1    3    3    0    0  0.49260366363E+02 -0.28088867844E+02 -0.18462471273E+03  0.19313687567E+03  0.00000000000E+00 0. -1.
         13    1    3    3    0    0 -0.67402637844E+01  0.41205752917E+02 -0.69756032252E+02  0.81297289407E+02  0.00000000000E+00 0.  1.
          1    1    1    2  501    0 -0.89371288001E+01  0.46847571207E+02  0.11010935686E+03  0.11999432348E+03  0.00000000000E+00 0. -1.
<scales pt_clust_5="13000.00000" pt_clust_6="13000.00000" pt_clust_7="13000.00000" pt_clust_8="13000.00000" pt_clust_9="47.69242"></scales>
<clustering>
<clus scale="   47.692">  1  9  2 -1</clus>
<clus scale="   92.219">  5  6 -1 -1</clus>
<clus scale="   92.868">  7  8 -1 -1</clus>
<clus scale="  104.808">  1  5  2 -1</clus>
<clus scale="   47.692">  1  5  2 -1</clus>
</clustering>
</event>
<event>
 9    1  0.3288491E-005  0.9195923E+02  0.7546771E-02  0.1307238E+00
          2   -1    0    0  502    0 -0.00000000000E+00  0.00000000000E+00  0.37248747808E+03  0.37248747808E+03  0.00000000000E+00 0. -1.
         21   -1    0    0  501  502  0.00000000000E+00 -0.00000000000E+00 -0.47318036842E+02  0.47318036842E+02  0.00000000000E+00 0. -1.
         23    2    1    2    0    0  0.12656242149E+02  0.24322952015E+00  0.11541713527E+03  0.13953091079E+03  0.77379069031E+02 0.  0.
         23    2    1    2    0    0  0.30232416631E+02  0.31465843935E+02  0.52451065023E+02  0.11417649219E+03  0.91548122845E+02 0.  0.
        -11    1    4    4    0    0  0.51234387081E+02  0.51252333008E+02  0.35297633795E+02  0.80608231651E+02  0.00000000000E+00 0. -1.
         11    1    4    4    0    0 -0.21001970450E+02 -0.19786489073E+02  0.17153431227E+02  0.33568260537E+02  0.00000000000E+00 0.  1.
        -13    1    3    3    0    0  0.16336919153E+02  0.34807471699E+02  0.85194777546E+02  0.93469808679E+02  0.00000000000E+00 0.  1.
         13    1    3    3    0    0 -0.36806770047E+01 -0.34564242179E+02  0.30222357727E+02  0.46061102106E+02  0.00000000000E+00 0. -1.
          2    1    1    2  501    0 -0.42888658780E+02 -0.31709073455E+02  0.15730124095E+03  0.16609811195E+03  0.00000000000E+00 0. -1.
<scales pt_clust_5="13000.00000" pt_clust_6="13000.00000" pt_clust_7="13000.00000" pt_clust_8="13000.00000" pt_clust_9="53.33765"></scales>
<clustering>
<clus scale="   53.338">  2  9  1 -1</clus>
<clus scale="   77.379">  7  8 -1 -1</clus>
<clus scale="   77.865">  1  7  2 -1</clus>
<clus scale="   91.548">  5  6 -1 -1</clus>
<clus scale="   53.338">  2  5  1 -1</clus>
</clustering>
</event>
<event>
 9    1  0.3288491E-005  0.1076028E+03  0.7546771E-02  0.1266681E+00
          1   -1    0    0  502    0 -0.00000000000E+00  0.00000000000E+00  0.27182038227E+03  0.27182038227E+03  0.00000000000E+00 0. -1.
         21   -1    0    0  501  502  0.00000000000E+00 -0.00000000000E+00 -0.61496324712E+02  0.61496324712E+02  0.00000000000E+00 0.  1.
         23    2    1    2    0    0  0.13587056557E+02  0.37952394260E+02  0.12265843152E+03  0.15995112544E+03  0.94415461499E+02 0.  0.
         23    2    1    2    0    0 -0.20544201930E+02 -0.64966605369E+02  0.90849853120E+02  0.14528874454E+03  0.90622289935E+02 0.  0.
        -11    1    3    3    0    0 -0.27648100214E+02  0.20167720494E+01  0.94399897836E+02  0.98386104336E+02  0.00000000000E+00 0. -1.
         11    1    3    3    0    0  0.41235156771E+02  0.35935622211E+02  0.28258533689E+02  0.61565021107E+02  0.00000000000E+00 0.  1.
        -13    1    4    4    0    0  0.25810471400E+02 -0.26897790321E+02  0.10438987742E+01  0.37292911963E+02  0.00000000000E+00 0.  1.
         13    1    4    4    0    0 -0.46354673330E+02 -0.38068815049E+02  0.89805954346E+02  0.10799583258E+03  0.00000000000E+00 0. -1.
          1    1    1    2  501    0  0.69571453723E+01  0.27014211109E+02 -0.31842270858E+01  0.28076836996E+02  0.00000000000E+00 0. -1.
<scales pt_clust_5="13000.00000" pt_clust_6="13000.00000" pt_clust_7="13000.00000" pt_clust_8="13000.00000" pt_clust_9="27.89569"></scales>
<clustering>
<clus scale="   27.896">  2  9  1 -1</clus>
<clus scale="   90.622">  7  8 -1 -1</clus>
<clus scale="   94.415">  5  6 -1 -1</clus>
<clus scale="  104.290">  2  7  1 -1</clus>
<clus scale="   27.896">  2  5  1 -1</clus>
</clustering>
</event>
<event>
 9    1  0.3288491E-005  0.1595201E+03  0.7546771E-02  0.1190003E+00
         -1   -1    0    0    0  501 -0.00000000000E+00  0.00000000000E+00  0.31986443244E+03  0.31986443244E+03  0.00000000000E+00 0.  1.
         21   -1    0    0  501  502  0.00000000000E+00 -0.00000000000E+00 -0.10758770447E+03  0.10758770447E+03  0.00000000000E+00 0. -1.
         23    2    1    2    0    0  0.12179741702E+03 -0.86704302810E+01  0.15796386451E+03  0.21860195811E+03  0.89019359932E+02 0.  0.
         23    2    1    2    0    0 -0.14537187863E+03 -0.69934133407E+01  0.42685876278E+02  0.17825119078E+03  0.93645672901E+02 0.  0.
        -11    1    4    4    0    0 -0.12584487439E+03  0.27452755663E+02  0.14436430617E+02  0.12961094372E+03  0.00000000000E+00 0. -1.
         11    1    4    4    0    0 -0.19527004244E+02 -0.34446169003E+02  0.28249445660E+02  0.48640247058E+02  0.00000000000E+00 0.  1.
        -13    1    3    3    0    0  0.81247908453E+02 -0.29597977594E+02  0.14873799314E+03  0.17204724208E+03  0.00000000000E+00 0.  1.
         13    1    3    3    0    0  0.40549508569E+02  0.20927547313E+02  0.92258713767E+01  0.46554716027E+02  0.00000000000E+00 0. -1.
         -1    1    1    2    0  502  0.23574461609E+02  0.15663843622E+02  0.11626987184E+02  0.30598988025E+02  0.00000000000E+00 0.  1.
<scales pt_clust_5="13000.00000" pt_clust_6="13000.00000" pt_clust_7="13000.00000" pt_clust_8="13000.00000" pt_clust_9="28.30391"></scales>
<clustering>
<clus scale="   28.304">  2  9  1 -1</clus>
<clus scale="   89.019">  7  8 -1 -1</clus>
<clus scale="   93.646">  5  6 -1 -1</clus>
<clus scale="  156.849">  1  7  2 -1</clus>
<clus scale="   28.304">  2  5  1 -1</clus>
</clustering>
</event>
<event>
 9    1  0.3288491E-005  0.1045862E+03  0.7546771E-02  0.1271325E+00
          1   -1    0    0  502    0 -0.00000000000E+00  0.00000000000E+00  0.17272536727E+03  0.17272536727E+03  0.00000000000E+00 0. -1.
         21   -1    0    0  501  502  0.00000000000E+00 -0.00000000000E+00 -0.24699204522E+03  0.24699204522E+03  0.00000000000E+00 0. -1.
         23    2    1    2    0    0  0.71133280087E+00  0.24541432348E+02  0.46614934616E+02  0.10496753963E+03  0.90787908620E+02 0.  0.
         23    2    1    2    0    0 -0.46983482589E+02 -0.88264912176E+02  0.35004121726E+02  0.14010120872E+03  0.91678338719E+02 0.  0.
        -11    1    4    4    0    0 -0.22262599860E+02 -0.10362104627E+03  0.22093611943E+02  0.10826390105E+03  0.00000000000E+00 0. -1.
         11    1    4    4    0    0 -0.24720882729E+02  0.15356134089E+02  0.12910509783E+02  0.31837307674E+02  0.00000000000E+00 0.  1.
        -11    1    3    3    0    0 -0.86414640645E+01 -0.25572877038E+02 -0.99965245193E+01  0.28785021168E+02  0.00000000000E+00 0. -1.
         11    1    3    3    0    0  0.93527968654E+01  0.50114309386E+02  0.56611459136E+02  0.76182518466E+02  0.00000000000E+00 0.  1.
          1    1    1    2  501    0  0.46272149788E+02  0.63723479828E+02 -0.15588573429E+03  0.17464866413E+03  0.00000000000E+00 0. -1.
<scales pt_clust_5="13000.00000" pt_clust_6="13000.00000" pt_clust_7="13000.00000" pt_clust_8="13000.00000" pt_clust_9="78.75147"></scales>
<clustering>
<clus scale="   78.751">  2  9  1 -1</clus>
<clus scale="   90.788">  7  8 -1 -1</clus>
<clus scale="   91.678">  5  6 -1 -1</clus>
<clus scale="  103.807">  1  7  2 -1</clus>
<clus scale="   78.751">  2  5  1 -1</clus>
</clustering>
</event>
<event>
 9    1  0.3288491E-005  0.1254965E+03  0.7546771E-02  0.1236539E+00
          1   -1    0    0  502    0 -0.00000000000E+00  0.00000000000E+00  0.69087868591E+03  0.69087868591E+03  0.00000000000E+00 0. -1.
         21   -1    0    0  501  502  0.00000000000E+00 -0.00000000000E+00 -0.32742923996E+02  0.32742923996E+02  0.00000000000E+00 0. -1.
         23    2    1    2    0    0 -0.33691649884E+01 -0.87979778793E+02  0.42478989977E+03  0.44326529174E+03  0.91026738715E+02 0.  0.
         23    2    1    2    0    0  0.12703288056E+02  0.61512060290E+02  0.22055445905E+03  0.24951339403E+03  0.98323737244E+02 0.  0.
        -11    1    3    3    0    0  0.38018601025E+02 -0.40151177144E+02  0.12209085767E+03  0.13402876026E+03  0.00000000000E+00 0.  1.
         11    1    3    3    0    0 -0.41387766013E+02 -0.47828601650E+02  0.30269904210E+03  0.30923653148E+03  0.00000000000E+00 0. -1.
        -13    1    4    4    0    0  0.39087367038E+02  0.73534457821E+02  0.12960222682E+03  0.15405153665E+03  0.00000000000E+00 0.  1.
         13    1    4    4    0    0 -0.26384078982E+02 -0.12022397531E+02  0.90952232229E+02  0.95461857376E+02  0.00000000000E+00 0. -1.
          1    1    1    2  501    0 -0.93341230675E+01  0.26467718503E+02  0.12791403091E+02  0.30842924136E+02  0.00000000000E+00 0. -1.
<scales pt_clust_5="13000.00000" pt_clust_6="13000.00000" pt_clust_7="13000.00000" pt_clust_8="13000.00000" pt_clust_9="28.06539"></scales>
<clustering>
<clus scale="   28.065">  2  9  1 -1</clus>
<clus scale="   91.027">  5  6 -1 -1</clus>
<clus scale="   98.324">  7  8 -1 -1</clus>
<clus scale="  119.865">  1  5  2 -1</clus>
<clus scale="   28.065">  2  5  1 -1</clus>
</clustering>
</event>
<event>
 9    1  0.3288491E-005  0.1102257E+03  0.7546771E-02  0.1262570E+00
         -3   -1    0    0    0  501 -0.00000000000E+00  0.00000000000E+00  0.14140648288E+03  0.14140648288E+03  0.00000000000E+00 0.  1.
         21   -1    0    0  501  502  0.00000000000E+00 -0.00000000000E+00 -0.39480080886E+03  0.39480080886E+03  0.00000000000E+00 0.  1.
         23    2    1    2    0    0 -0.78523331602E+02 -0.25294879699E+02  0.37778137291E+02  0.12923457344E+03  0.92025228983E+02 0.  0.
         23    2    1    2    0    0  0.41203548011E+02 -0.37136609265E+02  0.46751497842E+01  0.10231509536E+03  0.85846733175E+02 0.  0.
        -11    1    3    3    0    0 -0.76378511692E+02 -0.48188144416E+02  0.66758785764E+01  0.90555737893E+02  0.00000000000E+00 0.  1.
         11    1    3    3    0    0 -0.21448199103E+01  0.22893264717E+02  0.31102258715E+02  0.38678835544E+02  0.00000000000E+00 0. -1.
        -13    1    4    4    0    0  0.49994902281E+02  0.12648692994E+02  0.44160511902E+01  0.51758875535E+02  0.00000000000E+00 0. -1.
         13    1    4    4    0    0 -0.87913542705E+01 -0.49785302259E+02  0.25909859401E+00  0.50556219826E+02  0.00000000000E+00 0.  1.
         -3    1    1    2    0  502  0.37319783592E+02  0.62431488964E+02 -0.29584761306E+03  0.30465762294E+03  0.00000000000E+00 0.  1.
<scales pt_clust_5="13000.00000" pt_clust_6="13000.00000" pt_clust_7="13000.00000" pt_clust_8="13000.00000" pt_clust_9="72.73553"></scales>
<clustering>
<clus scale="   72.736">  2  9  1 -1</clus>
<clus scale="   85.847">  7  8 -1 -1</clus>
<clus scale="   92.025">  5  6 -1 -1</clus>
<clus scale="  105.122">  2  7  1 -1</clus>
<clus scale="   72.736">  2  5  1 -1</clus>
</clustering>
</event>
<event>
 9    1  0.3288491E-005  0.1121011E+03  0.7546771E-02  0.1260036E+00
         21   -1    0    0  501  502  0.00000000000E+00  0.00000000000E+00  0.10136761766E+03  0.10136761766E+03  0.00000000000E+00 0. -1.
         -4   -1    0    0    0  501 -0.00000000000E+00 -0.00000000000E+00 -0.14788270738E+03  0.14788270738E+03  0.00000000000E+00 0.  1.
         23    2    1    2    0    0 -0.57792513001E+02 -0.30699389951E+02 -0.50121743226E+02  0.12292514321E+03  0.91191965584E+02 0.  0.
         23    2    1    2    0    0  0.46730715375E+02  0.47561711122E+02  0.71974529315E+00  0.10595276221E+03  0.82338287944E+02 0.  0.
        -13    1    4    4    0    0 -0.12823441111E+02  0.38341799947E+02 -0.15893392785E+02  0.43441157895E+02  0.00000000000E+00 0. -1.
         13    1    4    4    0    0  0.59554156485E+02  0.92199111752E+01  0.16613138078E+02  0.62511604311E+02  0.00000000000E+00 0.  1.
        -13    1    3    3    0    0  0.30459575657E+01 -0.48114453826E+02 -0.14689759478E+02  0.50399082908E+02  0.00000000000E+00 0.  1.
         13    1    3    3    0    0 -0.60838470566E+02  0.17415063875E+02 -0.35431983748E+02  0.72526060302E+02  0.00000000000E+00 0. -1.
         -4    1    1    2    0  502  0.11061797626E+02 -0.16862321171E+02  0.28869082123E+01  0.20372419616E+02  0.00000000000E+00 0.  1.
<scales pt_clust_5="13000.00000" pt_clust_6="13000.00000" pt_clust_7="13000.00000" pt_clust_8="13000.00000" pt_clust_9="20.16684"></scales>
<clustering>
<clus scale="   20.167">  1  9  2 -1</clus>
<clus scale="   82.338">  5  6 -1 -1</clus>
<clus scale="   91.192">  7  8 -1 -1</clus>
<clus scale="  105.025">  1  5  2 -1</clus>
<clus scale="   20.167">  1  5  2 -1</clus>
</clustering>
</event>
<event>
 9    1  0.3288491E-005  0.9277167E+02  0.7546771E-02  0.1300280E+00
          3   -1    0    0  502    0 -0.00000000000E+00  0.00000000000E+00  0.10839249617E+03  0.10839249617E+03  0.00000000000E+00 0. -1.
         21   -1    0    0  501  502  0.00000000000E+00 -0.00000000000E+00 -0.18277239475E+03  0.18277239475E+03  0.00000000000E+00 0. -1.
         23    2    1    2    0    0 -0.18059477289E+00 -0.44179788515E+01  0.42976625254E+02  0.10207380051E+03  0.92479831749E+02 0.  0.
         23    2    1    2    0    0  0.47075465355E+01 -0.33699182588E+02 -0.35947081560E+02  0.99086042896E+02  0.85837377188E+02 0.  0.
        -13    1    4    4    0    0  0.44893985516E+02 -0.15104090013E+02 -0.24606412258E+02  0.53376764559E+02  0.00000000000E+00 0.  1.
         13    1    4    4    0    0 -0.40186438980E+02 -0.18595092576E+02 -0.11340669302E+02  0.45709278337E+02  0.00000000000E+00 0. -1.
        -13    1    3    3    0    0  0.43939090022E+00  0.43272858083E+02  0.29962111895E+02  0.52635173224E+02  0.00000000000E+00 0.  1.
         13    1    3    3    0    0 -0.61998567311E+00 -0.47690836935E+02  0.13014513358E+02  0.49438627284E+02  0.00000000000E+00 0. -1.
          3    1    1    2  501    0 -0.45269517626E+01  0.38117161440E+02 -0.81409442271E+02  0.90005047521E+02  0.00000000000E+00 0. -1.
<scales pt_clust_5="13000.00000" pt_clust_6="13000.00000" pt_clust_7="13000.00000" pt_clust_8="13000.00000" pt_clust_9="38.38504"></scales>
<clustering>
<clus scale="   38.385">  2  9  1 -1</clus>
<clus scale="   85.837">  5  6 -1 -1</clus>
<clus scale="   86.152">  2  5  1 -1</clus>
<clus scale="   92.480">  7  8 -1 -1</clus>
<clus scale="   38.385">  2  5  1 -1</clus>
</clustering>
</event>
<event>
 9    1  0.3288491E-005  0.1004675E+03  0.7546771E-02  0.1279448E+00
         21   -1    0    0  501  502  0.00000000000E+00  0.00000000000E+00  0.11138325905E+03  0.11138325905E+03  0.00000000000E+00 0. -1.
         -1   -1    0    0    0  501 -0.00000000000E+00 -0.00000000000E+00 -0.13478098841E+03  0.13478098841E+03  0.00000000000E+00 0.  1.
         23    2    1    2    0    0 -0.40283163349E+02  0.27981777917E+02 -0.48514079615E+02  0.11475377719E+03  0.91701146742E+02 0.  0.
         23    2    1    2    0    0  0.29917502594E+02  0.86753096924E+00  0.29086703785E+02  0.10049941637E+03  0.91423666420E+02 0.  0.
        -13    1    3    3    0    0 -0.65605381947E+02  0.32861998410E+02 -0.50209501278E+02  0.88909904389E+02  0.00000000000E+00 0.  1.
         13    1    3    3    0    0  0.25322218597E+02 -0.48802204931E+01  0.16954216637E+01  0.25843872801E+02  0.00000000000E+00 0. -1.
        -13    1    4    4    0    0  0.45068269319E+02 -0.12450526542E+02  0.52028161130E+02  0.69950654472E+02  0.00000000000E+00 0. -1.
         13    1    4    4    0    0 -0.15150766725E+02  0.13318057511E+02 -0.22941457345E+02  0.30548761895E+02  0.00000000000E+00 0.  1.
         -1    1    1    2    0  502  0.10365660755E+02 -0.28849308886E+02 -0.39703535374E+01  0.30911053901E+02  0.00000000000E+00 0.  1.
<scales pt_clust_5="13000.00000" pt_clust_6="13000.00000" pt_clust_7="13000.00000" pt_clust_8="13000.00000" pt_clust_9="30.65502"></scales>
<clustering>
<clus scale="   30.655">  1  9  2 -1</clus>
<clus scale="   91.424">  7  8 -1 -1</clus>
<clus scale="   91.701">  5  6 -1 -1</clus>
<clus scale="  100.214">  1  7  2 -1</clus>
<clus scale="   30.655">  1  5  2 -1</clus>
</clustering>
</event>
<event>
 9    1  0.3288491E-005  0.1069716E+03  0.7546771E-02  0.1271845E+00
         21   -1    0    0  501  502  0.00000000000E+00  0.00000000000E+00  0.25740034588E+03  0.25740034588E+03  0.00000000000E+00 0. -1.
          2   -1    0    0  502    0 -0.00000000000E+00 -0.00000000000E+00 -0.22663322479E+03  0.22663322479E+03  0.00000000000E+00 0. -1.
         23    2    1    2    0    0  0.34573849933E+02 -0.28074278507E+02 -0.13958724867E+03  0.17119407723E+03  0.88539798242E+02 0.  0.
         23    2    1    2    0    0 -0.22619963246E+02  0.26327399139E+01 -0.32650328911E+02  0.10789785546E+03  0.10028613652E+03 0.  0.
        -11    1    3    3    0    0 -0.29573217089E+02 -0.31270564484E+01 -0.34183312437E+02  0.45308415335E+02  0.00000000000E+00 0.  1.
         11    1    3    3    0    0  0.64147067022E+02 -0.24947222059E+02 -0.10540393624E+03  0.12588566189E+03  0.00000000000E+00 0. -1.
        -11    1    4    4    0    0 -0.32240501049E+02  0.29325037182E+02  0.20105453964E+02  0.47996218525E+02  0.00000000000E+00 0.  1.
         11    1    4    4    0    0  0.96205378035E+01 -0.26692297268E+02 -0.52755782874E+02  0.59901636937E+02  0.00000000000E+00 0. -1.
          2    1    1    2  501    0 -0.11953886688E+02  0.25441538593E+02  0.20300469868E+03  0.20494163798E+03  0.00000000000E+00 0. -1.
<scales pt_clust_5="13000.00000" pt_clust_6="13000.00000" pt_clust_7="13000.00000" pt_clust_8="13000.00000" pt_clust_9="28.10991"></scales>
<clustering>
<clus scale="   28.110">  1  9  2 -1</clus>
<clus scale="   88.540">  5  6 -1 -1</clus>
<clus scale="   96.046">  2  5  1 -1</clus>
<clus scale="  100.286">  7  8 -1 -1</clus>
<clus scale="   28.110">  1  5  2 -1</clus>
</clustering>
</event>
<event>
 9    1  0.3288491E-005  0.1308342E+03  0.7546771E-02  0.1226514E+00
         21   -1    0    0  501  502  0.00000000000E+00  0.00000000000E+00  0.23190446209E+03  0.23190446209E+03  0.00000000000E+00 0. -1.
         -3   -1    0    0    0  501 -0.00000000000E+00 -0.00000000000E+00 -0.12917750128E+03  0.12917750128E+03  0.00000000000E+00 0.  1.
         23    2    1    2    0    0  0.37846748855E+02 -0.84691043228E+02 -0.39713583525E+02  0.13677048986E+03  0.92325776347E+02 0.  0.
         23    2    1    2    0    0 -0.69576515736E+02  0.68166724060E+02  0.90464490630E+02  0.16121360200E+03  0.91205304644E+02 0.  0.
        -11    1    4    4    0    0 -0.59338341659E+02 -0.12880145347E+01  0.60896814583E+02  0.85035991196E+02  0.00000000000E+00 0. -1.
         11    1    4    4    0    0 -0.10238174076E+02  0.69454738594E+02  0.29567676047E+02  0.76177610808E+02  0.00000000000E+00 0.  1.
        -13    1    3    3    0    0  0.27065511569E+02  0.11722769113E+02  0.50536407710E+01  0.29924981490E+02  0.00000000000E+00 0.  1.
         13    1    3    3    0    0  0.10781237286E+02 -0.96413812341E+02 -0.44767224296E+02  0.10684550837E+03  0.00000000000E+00 0. -1.
         -3    1    1    2    0  502  0.31729766881E+02  0.16524319169E+02  0.51976053705E+02  0.63097871509E+02  0.00000000000E+00 0.  1.
<scales pt_clust_5="13000.00000" pt_clust_6="13000.00000" pt_clust_7="13000.00000" pt_clust_8="13000.00000" pt_clust_9="35.77473"></scales>
<clustering>
<clus scale="   35.775">  1  9  2 -1</clus>
<clus scale="   91.205">  5  6 -1 -1</clus>
<clus scale="   92.326">  7  8 -1 -1</clus>
<clus scale="  130.046">  1  5  2 -1</clus>
<clus scale="   35.775">  1  5  2 -1</clus>
</clustering>
</event>
<event>
 9    1  0.3288491E-005  0.1305229E+03  0.7546771E-02  0.1232966E+00
          1   -1    0    0  502    0 -0.00000000000E+00  0.00000000000E+00  0.83720523209E+03  0.83720523209E+03  0.00000000000E+00 0. -1.
         21   -1    0    0  501  502  0.00000000000E+00 -0.00000000000E+00 -0.26011340770E+02  0.26011340770E+02  0.00000000000E+00 0.  1.
         23    2    1    2    0    0 -0.48469692395E+02 -0.36370802326E+02  0.51721869485E+03  0.53247503156E+03  0.11109606018E+03 0.  0.
         23    2    1    2    0    0  0.62036469410E+02  0.54144134216E+02  0.27499361390E+03  0.30141153547E+03  0.91909277133E+02 0.  0.
        -11    1    3    3    0    0  0.18637345710E+02 -0.50103302233E+02  0.15841430922E+03  0.16719086373E+03  0.00000000000E+00 0. -1.
         11    1    3    3    0    0 -0.67107038106E+02  0.13732499907E+02  0.35880438564E+03  0.36528416783E+03  0.00000000000E+00 0.  1.
        -13    1    4    4    0    0 -0.12656305154E+02  0.40968001843E+02  0.62559047879E+02  0.75843217934E+02  0.00000000000E+00 0.  1.
         13    1    4    4    0    0  0.74692774564E+02  0.13176132374E+02  0.21243456602E+03  0.22556831754E+03  0.00000000000E+00 0. -1.
          1    1    1    2  501    0 -0.13566777014E+02 -0.17773331891E+02  0.18981582568E+02  0.29330005828E+02  0.00000000000E+00 0. -1.
<scales pt_clust_5="13000.00000" pt_clust_6="13000.00000" pt_clust_7="13000.00000" pt_clust_8="13000.00000" pt_clust_9="22.35953"></scales>
<clustering>
<clus scale="   22.360">  2  9  1 -1</clus>
<clus scale="   91.909">  7  8 -1 -1</clus>
<clus scale="  111.096">  5  6 -1 -1</clus>
<clus scale="  114.635">  2  7  1 -1</clus>
<clus scale="   22.360">  2  5  1 -1</clus>
</clustering>
</event>
<event>
 9    1  0.3288491E-005  0.9517218E+02  0.7546771E-02  0.1292772E+00
         21   -1    0    0  501  502  0.00000000000E+00  0.00000000000E+00  0.30307314492E+03  0.30307314492E+03  0.00000000000E+00 0. -1.
         -1   -1    0    0    0  501 -0.00000000000E+00 -0.00000000000E+00 -0.79512428590E+02  0.79512428590E+02  0.00000000000E+00 0.  1.
         23    2    1    2    0    0 -0.15880179314E+01 -0.26239939549E+02 -0.60897374867E+01  0.97854836729E+02  0.94060767274E+02 0.  0.
         23    2    1    2    0    0  0.24142142609E+02 -0.19859309739E+02  0.74640563957E+02  0.12144603058E+03  0.90557657450E+02 0.  0.
        -11    1    3    3    0    0 -0.39620692489E+02 -0.88933930428E+01 -0.29269967772E+02  0.50056195685E+02  0.00000000000E+00 0.  1.
         11    1    3    3    0    0  0.38032674557E+02 -0.17346546506E+02  0.23180230285E+02  0.47798641045E+02  0.00000000000E+00 0. -1.
        -11    1    4    4    0    0  0.22907840336E+02  0.32813253218E+02  0.47722585352E+02  0.62281007444E+02  0.00000000000E+00 0.  1.
         11    1    4    4    0    0  0.12343022732E+01 -0.52672562957E+02  0.26917978606E+02  0.59165023137E+02  0.00000000000E+00 0. -1.
         -1    1    1    2    0  502 -0.22554124677E+02  0.46099249288E+02  0.15500988986E+03  0.16328470620E+03  0.00000000000E+00 0.  1.
<scales pt_clust_5="13000.00000" pt_clust_6="13000.00000" pt_clust_7="13000.00000" pt_clust_8="13000.00000" pt_clust_9="51.32085"></scales>
<clustering>
<clus scale="   51.321">  1  9  2 -1</clus>
<clus scale="   90.558">  7  8 -1 -1</clus>
<clus scale="   91.712">  1  7  2 -1</clus>
<clus scale="   94.061">  5  6 -1 -1</clus>
<clus scale="   51.321">  1  5  2 -1</clus>
</clustering>
</event>
<event>
 9    1  0.3288491E-005  0.1896587E+03  0.7546771E-02  0.1161334E+00
          2   -1    0    0  502    0 -0.00000000000E+00  0.00000000000E+00  0.33834655515E+03  0.33834655515E+03  0.00000000000E+00 0. -1.
         21   -1    0    0  501  502  0.00000000000E+00 -0.00000000000E+00 -0.14846792176E+03  0.14846792176E+03  0.00000000000E+00 0.  1.
         23    2    1    2    0    0  0.33957261984E+01  0.14852663854E+03  0.11914476992E+03  0.20271848939E+03  0.69481050851E+02 0.  0.
         23    2    1    2    0    0 -0.33884637299E+02 -0.19213388775E+03  0.78263925260E+02  0.23035710296E+03  0.94210155618E+02 0.  0.
        -11    1    4    4    0    0 -0.41440779982E+02 -0.14283791093E+03  0.14538792486E+02  0.14943688812E+03  0.00000000000E+00 0.  1.
         11    1    4    4    0    0  0.75561426833E+01 -0.49295976817E+02  0.63725132774E+02  0.80920214839E+02  0.00000000000E+00 0. -1.
        -13    1    3    3    0    0  0.17372567966E+02  0.10526397309E+03  0.45097850139E+02  0.11582800282E+03  0.00000000000E+00 0. -1.
         13    1    3    3    0    0 -0.13976841768E+02  0.43262665448E+02  0.74046919783E+02  0.86890486573E+02  0.00000000000E+00 0.  1.
          2    1    1    2  501    0  0.30488911101E+02  0.43607249206E+02 -0.75300617884E+01  0.53738884561E+02  0.00000000000E+00 0. -1.
<scales pt_clust_5="13000.00000" pt_clust_6="13000.00000" pt_clust_7="13000.00000" pt_clust_8="13000.00000" pt_clust_9="53.20870"></scales>
<clustering>
<clus scale="   53.209">  2  9  1 -1</clus>
<clus scale="   69.481">  7  8 -1 -1</clus>
<clus scale="   94.210">  5  6 -1 -1</clus>
<clus scale="  178.669">  1  7  2 -1</clus>
<clus scale="   53.209">  2  5  1 -1</clus>
</clustering>
</event>
<event>
 9    1  0.3288491E-005  0.1222963E+03  0.7546771E-02  0.1242962E+00
          1   -1    0    0  502    0 -0.00000000000E+00  0.00000000000E+00  0.49814435250E+03  0.49814435250E+03  0.00000000000E+00 0. -1.
         21   -1    0    0  501  502  0.00000000000E+00 -0.00000000000E+00 -0.59906703676E+02  0.59906703676E+02  0.00000000000E+00 0. -1.
         23    2    1    2    0    0  0.10329537056E+03 -0.40336319533E+02  0.32024342678E+03  0.35124182955E+03  0.92293110151E+02 0.  0.
         23    2    1    2    0    0 -0.28767779026E+02  0.55481291093E+01  0.44711209587E+02  0.96650341338E+02  0.80522229051E+02 0.  0.
        -11    1    3    3    0    0  0.39427199937E+02 -0.62743373032E+02  0.13469034090E+03  0.15372938198E+03  0.00000000000E+00 0.  1.
         11    1    3    3    0    0  0.63868170618E+02  0.22407053498E+02  0.18555308588E+03  0.19751244757E+03  0.00000000000E+00 0. -1.
        -11    1    4    4    0    0  0.14603106559E+02  0.29525636458E+02  0.53672753316E+01  0.33373965511E+02  0.00000000000E+00 0.  1.
         11    1    4    4    0    0 -0.43370885585E+02 -0.23977507349E+02  0.39343934255E+02  0.63276375827E+02  0.00000000000E+00 0. -1.
          1    1    1    2  501    0 -0.74527591529E+02  0.34788190424E+02  0.73283012459E+02  0.11015888528E+03  0.00000000000E+00 0. -1.
<scales pt_clust_5="13000.00000" pt_clust_6="13000.00000" pt_clust_7="13000.00000" pt_clust_8="13000.00000" pt_clust_9="82.24707"></scales>
<clustering>
<clus scale="   80.522">  7  8 -1 -1</clus>
<clus scale="   82.247">  2  9  1 -1</clus>
<clus scale="   92.293">  5  6 -1 -1</clus>
<clus scale="  113.676">  2  7  1 -1</clus>
<clus scale="   82.247">  2  5  1 -1</clus>
</clustering>
</event>
<event>
 9    1  0.3288491E-005  0.3600139E+03  0.7546771E-02  0.1079919E+00
          1   -1    0    0  502    0 -0.00000000000E+00  0.00000000000E+00  0.29391904004E+03  0.29391904004E+03  0.00000000000E+00 0. -1.
         21   -1    0    0  501  502  0.00000000000E+00 -0.00000000000E+00 -0.92725981398E+03  0.92725981398E+03  0.00000000000E+00 0. -1.
         23    2    1    2    0    0  0.69233311245E+02 -0.16141046333E+03  0.29908420978E+02  0.20242906941E+03  0.96106323622E+02 0.  0.
         23    2    1    2    0    0  0.25190688993E+03  0.26843344402E+03 -0.53750709645E+03  0.65764589024E+03  0.89836758366E+02 0.  0.
        -13    1    3    3    0    0  0.52276176440E+02 -0.11683044907E+03  0.64676611716E+02  0.14340577588E+03  0.00000000000E+00 0. -1.
         13    1    3    3    0    0  0.16957134805E+02 -0.44580014260E+02 -0.34768190738E+02  0.59023293533E+02  0.00000000000E+00 0.  1.
        -13    1    4    4    0    0  0.31039173555E+02  0.17376211236E+01 -0.29587088610E+02  0.42916726746E+02  0.00000000000E+00 0.  1.
         13    1    4    4    0    0  0.22086771637E+03  0.26669582290E+03 -0.50792000784E+03  0.61472916349E+03  0.00000000000E+00 0. -1.
          1    1    1    2  501    0 -0.32114020117E+03 -0.10702298069E+03 -0.12574209847E+03  0.36110389437E+03  0.00000000000E+00 0. -1.
<scales pt_clust_5="13000.00000" pt_clust_6="13000.00000" pt_clust_7="13000.00000" pt_clust_8="13000.00000" pt_clust_9="348.62516"></scales>
<clustering>
<clus scale="   89.837">  7  8 -1 -1</clus>
<clus scale="   96.106">  5  6 -1 -1</clus>
<clus scale="  200.207">  1  5  2 -1</clus>
<clus scale="  348.625">  2  9  1 -1</clus>
<clus scale="  348.625">  2  5  1 -1</clus>
</clustering>
</event>
<event>
 9    1  0.3288491E-005  0.1186122E+03  0.7546771E-02  0.1246036E+00
          2   -1    0    0  502    0 -0.00000000000E+00  0.00000000000E+00  0.65877571954E+03  0.65877571954E+03  0.00000000000E+00 0. -1.
         21   -1    0    0  501  502  0.00000000000E+00 -0.00000000000E+00 -0.38134064849E+02  0.38134064849E+02  0.00000000000E+00 0.  1.
         23    2    1    2    0    0 -0.54111044181E+02 -0.40502956178E+02  0.34108663834E+03  0.35960407168E+03  0.91686961747E+02 0.  0.
         23    2    1    2    0    0  0.83170363880E+02  0.30190398344E+02  0.27935962005E+03  0.30647016357E+03  0.89740705750E+02 0.  0.
        -11    1    4    4    0    0  0.47653715158E+02  0.96429084648E+01  0.25316123376E+03  0.25778765007E+03  0.00000000000E+00 0. -1.
         11    1    4    4    0    0  0.35516648722E+02  0.20547489879E+02  0.26198386289E+02  0.48682513502E+02  0.00000000000E+00 0.  1.
        -11    1    3    3    0    0 -0.64908319952E+02 -0.61876102881E+02  0.27911497622E+03  0.29316703781E+03  0.00000000000E+00 0. -1.
         11    1    3    3    0    0  0.10797275771E+02  0.21373146703E+02  0.61971662125E+02  0.66437033878E+02  0.00000000000E+00 0.  1.
          2    1    1    2  501    0 -0.29059319699E+02  0.10312557835E+02  0.19539630150E+00  0.30835549130E+02  0.00000000000E+00 0. -1.
<scales pt_clust_5="13000.00000" pt_clust_6="13000.00000" pt_clust_7="13000.00000" pt_clust_8="13000.00000" pt_clust_9="30.83493"></scales>
<clustering>
<clus scale="   30.835">  2  9  1 -1</clus>
<clus scale="   89.741">  5  6 -1 -1</clus>
<clus scale="   91.687">  7  8 -1 -1</clus>
<clus scale="  117.114">  2  5  1 -1</clus>
<clus scale="   30.835">  2  5  1 -1</clus>
</clustering>
</event>
<event>
 9    1  0.3288491E-005  0.1418573E+03  0.7546771E-02  0.1212031E+00
         21   -1    0    0  501  502  0.00000000000E+00  0.00000000000E+00  0.34879179052E+03  0.34879179052E+03  0.00000000000E+00 0. -1.
          1   -1    0    0  502    0 -0.00000000000E+00 -0.00000000000E+00 -0.74371550823E+03  0.74371550823E+03  0.00000000000E+00 0. -1.
         23    2    1    2    0    0 -0.10546075659E+03 -0.40208976357E+01 -0.56375070883E+03  0.58000633465E+03  0.86338564545E+02 0.  0.
         23    2    1    2    0    0  0.11952043171E+03 -0.67444028891E+02 -0.12668624729E+03  0.20814429132E+03  0.91873881634E+02 0.  0.
        -11    1    3    3    0    0  0.69958767926E+01 -0.19202191039E+02 -0.53051262833E+02  0.56851586794E+02  0.00000000000E+00 0.  1.
         11    1    3    3    0    0 -0.11245663338E+03  0.15181293404E+02 -0.51069944600E+03  0.52315474786E+03  0.00000000000E+00 0. -1.
        -13    1    4    4    0    0  0.77217107597E+02  0.90368914351E+01 -0.60481944732E+02  0.98499810919E+02  0.00000000000E+00 0.  1.
         13    1    4    4    0    0  0.42303324117E+02 -0.76480920326E+02 -0.66204302561E+02  0.10964448040E+03  0.00000000000E+00 0. -1.
          1    1    1    2  501    0 -0.14059675127E+02  0.71464926527E+02  0.29551323841E+03  0.30435667278E+03  0.00000000000E+00 0. -1.
<scales pt_clust_5="13000.00000" pt_clust_6="13000.00000" pt_clust_7="13000.00000" pt_clust_8="13000.00000" pt_clust_9="72.83481"></scales>
<clustering>
<clus scale="   72.835">  1  9  2 -1</clus>
<clus scale="   86.339">  5  6 -1 -1</clus>
<clus scale="   91.874">  7  8 -1 -1</clus>
<clus scale="  138.337">  2  5  1 -1</clus>
<clus scale="   72.835">  1  5  2 -1</clus>
</clustering>
</event>
<event>
 9    1  0.3288491E-005  0.1371944E+03  0.7546771E-02  0.1217986E+00
          1   -1    0    0  502    0 -0.00000000000E+00  0.00000000000E+00  0.43115238379E+03  0.43115238379E+03  0.00000000000E+00 0. -1.
         21   -1    0    0  501  502  0.00000000000E+00 -0.00000000000E+00 -0.16669669330E+03  0.16669669330E+03  0.00000000000E+00 0. -1.
         23    2    1    2    0    0  0.10103142594E+03  0.34244987954E+02  0.27961040758E+03  0.31257961908E+03  0.90243947210E+02 0.  0.
         23    2    1    2    0    0 -0.97963256467E+02 -0.10165507383E+02  0.10168255493E+03  0.16593721936E+03  0.86577604678E+02 0.  0.
        -13    1    3    3    0    0  0.55350317295E+02  0.36038861027E+02  0.63276017864E+02  0.91467543782E+02  0.00000000000E+00 0.  1.
         13    1    3    3    0    0  0.45681108645E+02 -0.17938730728E+01  0.21633438972E+03  0.22111207530E+03  0.00000000000E+00 0. -1.
        -13    1    4    4    0    0 -0.10073642318E+03  0.16066881272E+02  0.93344899821E+02  0.13827234703E+03  0.00000000000E+00 0.  1.
         13    1    4    4    0    0  0.27731667179E+01 -0.26232388655E+02  0.83376551139E+01  0.27664872329E+02  0.00000000000E+00 0. -1.
          1    1    1    2  501    0 -0.30681694735E+01 -0.24079480571E+02 -0.11683727202E+03  0.11933223865E+03  0.00000000000E+00 0. -1.
<scales pt_clust_5="13000.00000" pt_clust_6="13000.00000" pt_clust_7="13000.00000" pt_clust_8="13000.00000" pt_clust_9="24.27416"></scales>
<clustering>
<clus scale="   24.274">  2  9  1 -1</clus>
<clus scale="   86.578">  7  8 -1 -1</clus>
<clus scale="   90.244">  5  6 -1 -1</clus>
<clus scale="  134.811">  2  7  1 -1</clus>
<clus scale="   24.274">  2  5  1 -1</clus>
</clustering>
</event>
<event>
 9    1  0.3288491E-005  0.9096470E+02  0.7546771E-02  0.1300696E+00
         21   -1    0    0  501  502  0.00000000000E+00  0.00000000000E+00  0.53228108696E+02  0.53228108696E+02  0.00000000000E+00 0. -1.
         -1   -1    0    0    0  501 -0.00000000000E+00 -0.00000000000E+00 -0.26818447002E+03  0.26818447002E+03  0.00000000000E+00 0.  1.
         23    2    1    2    0    0 -0.29073004283E+01 -0.52423443429E+01 -0.14823694599E+03  0.17399876899E+03  0.90914492163E+02 0.  0.
         23    2    1    2    0    0 -0.74377717970E+01 -0.25017156407E+02 -0.30578975530E+02  0.99156278762E+02  0.90640583127E+02 0.  0.
        -13    1    3    3    0    0 -0.53579962206E+01  0.35278291332E+02 -0.23260841091E+02  0.42594984342E+02  0.00000000000E+00 0.  1.
         13    1    3    3    0    0  0.24506957923E+01 -0.40520635675E+02 -0.12497610490E+03  0.13140378465E+03  0.00000000000E+00 0. -1.
        -13    1    4    4    0    0 -0.99248098944E+01 -0.45451505841E+02 -0.51777327152E+02  0.69607706769E+02  0.00000000000E+00 0. -1.
         13    1    4    4    0    0  0.24870380973E+01  0.20434349435E+02  0.21198351622E+02  0.29548571993E+02  0.00000000000E+00 0.  1.
         -1    1    1    2    0  502  0.10345072225E+02  0.30259500749E+02 -0.36140439803E+02  0.48257530957E+02  0.00000000000E+00 0.  1.
<scales pt_clust_5="13000.00000" pt_clust_6="13000.00000" pt_clust_7="13000.00000" pt_clust_8="13000.00000" pt_clust_9="31.97904"></scales>
<clustering>
<clus scale="   31.979">  1  9  2 -1</clus>
<clus scale="   90.641">  7  8 -1 -1</clus>
<clus scale="   90.691">  1  7  2 -1</clus>
<clus scale="   90.914">  5  6 -1 -1</clus>
<clus scale="   31.979">  1  5  2 -1</clus>
</clustering>
</event>
<event>
 9    1  0.3288491E-005  0.9745071E+02  0.7546771E-02  0.1286963E+00
         21   -1    0    0  501  502  0.00000000000E+00  0.00000000000E+00  0.89154074356E+02  0.89154074356E+02  0.00000000000E+00 0. -1.
          1   -1    0    0  502    0 -0.00000000000E+00 -0.00000000000E+00 -0.25809972027E+03  0.25809972027E+03  0.00000000000E+00 0. -1.
         23    2    1    2    0    0  0.14533924315E+02  0.44162147900E+02 -0.13054453093E+03  0.16610480913E+03  0.91582764735E+02 0.  0.
         23    2    1    2    0    0  0.13511424224E+02 -0.20540655346E+02 -0.82364963410E+02  0.12390095973E+03  0.89235550756E+02 0.  0.
        -11    1    3    3    0    0  0.28953323348E+02  0.62616009806E+02 -0.12381731926E+03  0.14173844985E+03  0.00000000000E+00 0.  1.
         11    1    3    3    0    0 -0.14419399033E+02 -0.18453861906E+02 -0.67272116715E+01  0.24366359280E+02  0.00000000000E+00 0. -1.
        -11    1    4    4    0    0 -0.21569287209E+02  0.91713318482E+01 -0.73414842364E+02  0.77065469296E+02  0.00000000000E+00 0.  1.
         11    1    4    4    0    0  0.35080711433E+02 -0.29711987195E+02 -0.89501210464E+01  0.46835490437E+02  0.00000000000E+00 0. -1.
          1    1    1    2  501    0 -0.28045348539E+02 -0.23621492554E+02  0.43963848427E+02  0.57248025762E+02  0.00000000000E+00 0. -1.
<scales pt_clust_5="13000.00000" pt_clust_6="13000.00000" pt_clust_7="13000.00000" pt_clust_8="13000.00000" pt_clust_9="36.66765"></scales>
<clustering>
<clus scale="   36.668">  1  9  2 -1</clus>
<clus scale="   89.236">  7  8 -1 -1</clus>
<clus scale="   91.583">  5  6 -1 -1</clus>
<clus scale="   95.248">  1  7  2 -1</clus>
<clus scale="   36.668">  1  5  2 -1</clus>
</clustering>
</event>
<event>
 9    1  0.3288491E-005  0.1193412E+03  0.7546771E-02  0.1244289E+00
         21   -1    0    0  501  502  0.00000000000E+00  0.00000000000E+00  0.32034695595E+03  0.32034695595E+03  0.00000000000E+00 0. -1.
          2   -1    0    0  502    0 -0.00000000000E+00 -0.00000000000E+00 -0.16520727450E+03  0.16520727450E+03  0.00000000000E+00 0. -1.
         23    2    1    2    0    0 -0.21407341678E+02  0.76263020348E+02 -0.27068004666E+02  0.12407640596E+03  0.91585779947E+02 0.  0.
         23    2    1    2    0    0 -0.50571439389E+02 -0.73995476238E+02 -0.35020764419E+02  0.13262353373E+03  0.91267446396E+02 0.  0.
        -11    1    4    4    0    0 -0.60300163694E+02 -0.15342746316E+02  0.25839335998E+01  0.62275085860E+02  0.00000000000E+00 0. -1.
         11    1    4    4    0    0  0.97287243049E+01 -0.58652729923E+02 -0.37604698019E+02  0.70348447866E+02  0.00000000000E+00 0.  1.
        -13    1    3    3    0    0  0.25320873808E+02  0.68100132845E+02 -0.85596004245E+01  0.73157648290E+02  0.00000000000E+00 0.  1.
         13    1    3    3    0    0 -0.46728215486E+02  0.81628875032E+01 -0.18508404241E+02  0.50918757668E+02  0.00000000000E+00 0. -1.
          2    1    1    2  501    0  0.71978781066E+02 -0.22675441100E+01  0.21722845054E+03  0.22885429077E+03  0.00000000000E+00 0. -1.
<scales pt_clust_5="13000.00000" pt_clust_6="13000.00000" pt_clust_7="13000.00000" pt_clust_8="13000.00000" pt_clust_9="72.01449"></scales>
<clustering>
<clus scale="   72.014">  1  9  2 -1</clus>
<clus scale="   91.267">  5  6 -1 -1</clus>
<clus scale="   91.586">  7  8 -1 -1</clus>
<clus scale="  119.097">  1  5  2 -1</clus>
<clus scale="   72.014">  1  5  2 -1</clus>
</clustering>
</event>
<event>
 9    1  0.3288491E-005  0.2182862E+03  0.7546771E-02  0.1135340E+00
          2   -1    0    0  502    0 -0.00000000000E+00  0.00000000000E+00  0.41973976532E+03  0.41973976532E+03  0.00000000000E+00 0. -1.
         21   -1    0    0  501  502  0.00000000000E+00 -0.00000000000E+00 -0.16388963217E+03  0.16388963217E+03  0.00000000000E+00 0. -1.
         23    2    1    2    0    0  0.13373637015E+03 -0.14036908272E+03  0.15552930123E+03  0.26440398128E+03  0.90173198295E+02 0.  0.
         23    2    1    2    0    0 -0.12330435443E+03  0.16085487882E+03  0.14722529381E+03  0.26699014710E+03  0.92359058275E+02 0.  0.
        -13    1    3    3    0    0  0.91903221562E+02 -0.10993259384E+03  0.15712033738E+03  0.21264566241E+03  0.00000000000E+00 0. -1.
         13    1    3    3    0    0  0.41833148587E+02 -0.30436488886E+02 -0.15910361557E+01  0.51758318872E+02  0.00000000000E+00 0.  1.
        -13    1    4    4    0    0 -0.12880575830E+03  0.13124908964E+03  0.14920744119E+03  0.23681238863E+03  0.00000000000E+00 0. -1.
         13    1    4    4    0    0  0.55014038697E+01  0.29605789184E+02 -0.19821473786E+01  0.30177758465E+02  0.00000000000E+00 0.  1.
          2    1    1    2  501    0 -0.10432015722E+02 -0.20485796103E+02 -0.46904461894E+02  0.52235269116E+02  0.00000000000E+00 0. -1.
<scales pt_clust_5="13000.00000" pt_clust_6="13000.00000" pt_clust_7="13000.00000" pt_clust_8="13000.00000" pt_clust_9="22.98901"></scales>
<clustering>
<clus scale="   22.989">  2  9  1 -1</clus>
<clus scale="   90.173">  5  6 -1 -1</clus>
<clus scale="   92.359">  7  8 -1 -1</clus>
<clus scale="  217.370">  1  5  2 -1</clus>
<clus scale="   22.989">  2  5  1 -1</clus>
</clustering>
</event>
<event>
 9    1  0.3288491E-005  0.9538734E+02  0.7546771E-02  0.1290600E+00
         21   -1    0    0  501  502  0.00000000000E+00  0.00000000000E+00  0.17848452965E+03  0.17848452965E+03  0.00000000000E+00 0.  1.
         -2   -1    0    0    0  501 -0.00000000000E+00 -0.00000000000E+00 -0.83709916209E+02  0.83709916209E+02  0.00000000000E+00 0.  1.
         23    2    1    2    0    0  0.24329529145E+02  0.32976276854E+02  0.33546982090E+02  0.10527743096E+03  0.90986683858E+02 0.  0.
         23    2    1    2    0    0  0.22098964504E+02 -0.20222657777E+02  0.42110563413E+02  0.10511236154E+03  0.91531354620E+02 0.  0.
        -13    1    4    4    0    0  0.33000520729E+01  0.36153066174E+02  0.21609321704E+02  0.42248045185E+02  0.00000000000E+00 0.  1.
         13    1    4    4    0    0  0.18798912431E+02 -0.56375723951E+02  0.20501241709E+02  0.62864316358E+02  0.00000000000E+00 0. -1.
        -13    1    3    3    0    0  0.45331133251E+02 -0.37467175990E+01  0.42257482522E+02  0.62085782299E+02  0.00000000000E+00 0.  1.
         13    1    3    3    0    0 -0.21001604106E+02  0.36722994453E+02 -0.87105004317E+01  0.43191648665E+02  0.00000000000E+00 0. -1.
         -2    1    1    2    0  502 -0.46428493649E+02 -0.12753619077E+02  0.19117067933E+02  0.51804653348E+02  0.00000000000E+00 0.  1.
<scales pt_clust_5="13000.00000" pt_clust_6="13000.00000" pt_clust_7="13000.00000" pt_clust_8="13000.00000" pt_clust_9="48.14831"></scales>
<clustering>
<clus scale="   48.148">  1  9  2 -1</clus>
<clus scale="   90.987">  7  8 -1 -1</clus>
<clus scale="   91.531">  5  6 -1 -1</clus>
<clus scale="   94.865">  2  7  1 -1</clus>
<clus scale="   48.148">  1  5  2 -1</clus>
</clustering>
</event>
<event>
 9    1  0.3978224E-005  0.1219290E+03  0.7546771E-02  0.1240078E+00
         21   -1    0    0  501  502  0.00000000000E+00  0.00000000000E+00  0.21594298933E+03  0.21594298933E+03  0.00000000000E+00 0.  1.
          1   -1    0    0  502    0 -0.00000000000E+00 -0.00000000000E+00 -0.29358154148E+03  0.29358154148E+03  0.00000000000E+00 0. -1.
         23    2    1    2    0    0 -0.23859204941E+02  0.76201846846E+02 -0.24879186211E+03  0.27666361463E+03  0.90936141811E+02 0.  0.
         23    2    1    2    0    0  0.41886471257E+02 -0.90288813701E+02  0.15237601547E+03  0.20326342044E+03  0.90504263116E+02 0.  0.
        -11    1    3    3    0    0  0.16042070868E+02  0.69143174573E+02 -0.10120116762E+03  0.12361150009E+03  0.00000000000E+00 0. -1.
         11    1    3    3    0    0 -0.39901275809E+02  0.70586722726E+01 -0.14759069449E+03  0.15305211454E+03  0.00000000000E+00 0.  1.
        -13    1    4    4    0    0  0.31210213750E+02 -0.48084537293E+02  0.14894376050E+03  0.15959462385E+03  0.00000000000E+00 0.  1.
         13    1    4    4    0    0  0.10676257508E+02 -0.42204276407E+02  0.34322549745E+01  0.43668796591E+02  0.00000000000E+00 0. -1.
          1    1    1    2  501    0 -0.18027266316E+02  0.14086966855E+02  0.18777294485E+02  0.29597495742E+02  0.00000000000E+00 0. -1.
<scales pt_clust_5="13000.00000" pt_clust_6="13000.00000" pt_clust_7="13000.00000" pt_clust_8="13000.00000" pt_clust_9="22.87848"></scales>
<clustering>
<clus scale="   22.878">  1  9  2 -1</clus>
<clus scale="   90.504">  7  8 -1 -1</clus>
<clus scale="   90.936">  5  6 -1 -1</clus>
<clus scale="  121.607">  1  7  2 -1</clus>
<clus scale="   22.878">  1  5  2 -1</clus>
</clustering>
</event>
<event>
 9    1  0.3288491E-005  0.1579942E+03  0.7546771E-02  0.1194485E+00
          2   -1    0    0  502    0 -0.00000000000E+00  0.00000000000E+00  0.31029727196E+03  0.31029727196E+03  0.00000000000E+00 0. -1.
         21   -1    0    0  501  502  0.00000000000E+00 -0.00000000000E+00 -0.14169333494E+03  0.14169333494E+03  0.00000000000E+00 0.  1.
         23    2    1    2    0    0 -0.92616977843E+02 -0.34858341741E+02  0.41185413917E+02  0.14082189765E+03  0.91332140915E+02 0.  0.
         23    2    1    2    0    0  0.10791468510E+03  0.13118234276E+03  0.10417011787E+03  0.21090495028E+03  0.69102085934E+02 0.  0.
        -11    1    3    3    0    0 -0.77749282452E+02 -0.57042210868E+02  0.54729169295E+02  0.11087852233E+03  0.00000000000E+00 0. -1.
         11    1    3    3    0    0 -0.14867695392E+02  0.22183869127E+02 -0.13543755378E+02  0.29943375318E+02  0.00000000000E+00 0.  1.
        -13    1    4    4    0    0  0.75860994272E+02  0.12701816245E+03  0.69350848787E+02  0.16339536184E+03  0.00000000000E+00 0.  1.
         13    1    4    4    0    0  0.32053690830E+02  0.41641803109E+01  0.34819269086E+02  0.47509588434E+02  0.00000000000E+00 0. -1.
          2    1    1    2  501    0 -0.15297707259E+02 -0.96324001019E+02  0.23248405231E+02  0.10026375898E+03  0.00000000000E+00 0. -1.
<scales pt_clust_5="13000.00000" pt_clust_6="13000.00000" pt_clust_7="13000.00000" pt_clust_8="13000.00000" pt_clust_9="97.53119"></scales>
<clustering>
<clus scale="   69.102">  7  8 -1 -1</clus>
<clus scale="   91.332">  5  6 -1 -1</clus>
<clus scale="   97.531">  2  9  1 -1</clus>
<clus scale="  146.273">  2  7  1 -1</clus>
<clus scale="   97.531">  2  5  1 -1</clus>
</clustering>
</event>
<event>
 9    1  0.3288491E-005  0.1090045E+03  0.7546771E-02  0.1270386E+00
         21   -1    0    0  501  502  0.00000000000E+00  0.00000000000E+00  0.46058539322E+02  0.46058539322E+02  0.00000000000E+00 0. -1.
          4   -1    0    0  502    0 -0.00000000000E+00 -0.00000000000E+00 -0.42090627848E+03  0.42090627848E+03  0.00000000000E+00 0. -1.
         23    2    1    2    0    0 -0.14246657262E+01  0.63077548151E+01 -0.17939076051E+03  0.20177135675E+03  0.92134781749E+02 0.  0.
         23    2    1    2    0    0 -0.22478681069E+02 -0.19274588660E+02 -0.20725309395E+03  0.23555131025E+03  0.10795264673E+03 0.  0.
        -11    1    4    4    0    0 -0.49317825750E+02 -0.11301008683E+02 -0.20045161009E+03  0.20673850324E+03  0.00000000000E+00 0. -1.
         11    1    4    4    0    0  0.26839144681E+02 -0.79735799766E+01 -0.68014838613E+01  0.28812807006E+02  0.00000000000E+00 0.  1.
        -13    1    3    3    0    0  0.43349634997E+02  0.85824112498E+01 -0.11597322756E+03  0.12410736541E+03  0.00000000000E+00 0.  1.
         13    1    3    3    0    0 -0.44774300723E+02 -0.22746564347E+01 -0.63417532947E+02  0.77663991348E+02  0.00000000000E+00 0. -1.
          4    1    1    2  501    0  0.23903346796E+02  0.12966833845E+02  0.11796115301E+02  0.29642150802E+02  0.00000000000E+00 0. -1.
<scales pt_clust_5="13000.00000" pt_clust_6="13000.00000" pt_clust_7="13000.00000" pt_clust_8="13000.00000" pt_clust_9="27.19391"></scales>
<clustering>
<clus scale="   27.194">  1  9  2 -1</clus>
<clus scale="   92.135">  7  8 -1 -1</clus>
<clus scale="   93.365">  2  7  1 -1</clus>
<clus scale="  107.953">  5  6 -1 -1</clus>
<clus scale="   27.194">  1  5  2 -1</clus>
</clustering>
</event>
<event>
 9    1  0.3288491E-005  0.1112014E+03  0.7546771E-02  0.1260380E+00
          1   -1    0    0  502    0 -0.00000000000E+00  0.00000000000E+00  0.95545395406E+02  0.95545395406E+02  0.00000000000E+00 0. -1.
         21   -1    0    0  501  502  0.00000000000E+00 -0.00000000000E+00 -0.43430569239E+03  0.43430569239E+03  0.00000000000E+00 0. -1.
         23    2    1    2    0    0  0.68138591300E+02 -0.16674865694E+01  0.28817414517E+02  0.11704257131E+03  0.90680052840E+02 0.  0.
         23    2    1    2    0    0 -0.25188518179E+02 -0.10203006394E+02 -0.98369061254E+02  0.13993690794E+03  0.95746034926E+02 0.  0.
        -11    1    3    3    0    0  0.84981828164E+02  0.16443711444E+02  0.31617271196E+02  0.92151823650E+02  0.00000000000E+00 0. -1.
         11    1    3    3    0    0 -0.16843236864E+02 -0.18111198013E+02 -0.27998566792E+01  0.24890747658E+02  0.00000000000E+00 0.  1.
        -13    1    4    4    0    0 -0.16344069495E+02 -0.30679800436E+02 -0.10958800456E+03  0.11496916764E+03  0.00000000000E+00 0.  1.
         13    1    4    4    0    0 -0.88444486843E+01  0.20476794043E+02  0.11218943311E+02  0.24967740303E+02  0.00000000000E+00 0. -1.
          1    1    1    2  501    0 -0.42950073120E+02  0.11870492963E+02 -0.26920865025E+03  0.27287160855E+03  0.00000000000E+00 0. -1.
<scales pt_clust_5="13000.00000" pt_clust_6="13000.00000" pt_clust_7="13000.00000" pt_clust_8="13000.00000" pt_clust_9="44.56027"></scales>
<clustering>
<clus scale="   44.560">  2  9  1 -1</clus>
<clus scale="   90.680">  5  6 -1 -1</clus>
<clus scale="   95.746">  7  8 -1 -1</clus>
<clus scale="  106.871">  1  5  2 -1</clus>
<clus scale="   44.560">  2  5  1 -1</clus>
</clustering>
</event>
<event>
 9    1  0.3288491E-005  0.1279625E+03  0.7546771E-02  0.1232133E+00
         21   -1    0    0  501  502  0.00000000000E+00  0.00000000000E+00  0.94917231803E+02  0.94917231803E+02  0.00000000000E+00 0.  1.
         -3   -1    0    0    0  501 -0.00000000000E+00 -0.00000000000E+00 -0.10755388499E+04  0.10755388499E+04  0.00000000000E+00 0.  1.
         23    2    1    2    0    0  0.92703850857E+02  0.17636967765E+02 -0.58618733600E+03  0.60065608340E+03  0.90923435058E+02 0.  0.
         23    2    1    2    0    0 -0.72897442048E+02 -0.63633785303E+01 -0.47285665123E+03  0.48813326316E+03  0.96571943924E+02 0.  0.
        -13    1    4    4    0    0 -0.22666560541E+02 -0.49383419890E+02 -0.18761845744E+03  0.19532839195E+03  0.00000000000E+00 0. -1.
         13    1    4    4    0    0 -0.50230881507E+02  0.43020041360E+02 -0.28523819379E+03  0.29280487122E+03  0.00000000000E+00 0.  1.
        -13    1    3    3    0    0  0.95045684003E+02 -0.96660103486E+01 -0.52487213437E+03  0.53349589618E+03  0.00000000000E+00 0.  1.
         13    1    3    3    0    0 -0.23418331456E+01  0.27302978114E+02 -0.61315201630E+02  0.67160187219E+02  0.00000000000E+00 0. -1.
         -3    1    1    2    0  502 -0.19806408809E+02 -0.11273589235E+02  0.78422369143E+02  0.81666735126E+02  0.00000000000E+00 0.  1.
<scales pt_clust_5="13000.00000" pt_clust_6="13000.00000" pt_clust_7="13000.00000" pt_clust_8="13000.00000" pt_clust_9="22.79008"></scales>
<clustering>
<clus scale="   22.790">  1  9  2 -1</clus>
<clus scale="   90.923">  7  8 -1 -1</clus>
<clus scale="   96.572">  5  6 -1 -1</clus>
<clus scale="  123.755">  2  7  1 -1</clus>
<clus scale="   22.790">  1  5  2 -1</clus>
</clustering>
</event>
<event>
 9    1  0.3288491E-005  0.1257491E+03  0.7546771E-02  0.1234839E+00
         21   -1    0    0  501  502  0.00000000000E+00  0.00000000000E+00  0.41329841138E+02  0.41329841138E+02  0.00000000000E+00 0.  1.
          1   -1    0    0  502    0 -0.00000000000E+00 -0.00000000000E+00 -0.52972951206E+03  0.52972951206E+03  0.00000000000E+00 0. -1.
         23    2    1    2    0    0  0.54334167598E+02 -0.54645049677E+02 -0.24883332550E+03  0.27618919826E+03  0.91783256291E+02 0.  0.
         23    2    1    2    0    0 -0.84885723148E+02  0.38405338263E+02 -0.21346611395E+03  0.25153024427E+03  0.94969079065E+02 0.  0.
        -11    1    4    4    0    0 -0.21247359078E+02  0.58499030451E+02 -0.72395524786E+02  0.95470931914E+02  0.00000000000E+00 0.  1.
         11    1    4    4    0    0 -0.63638364070E+02 -0.20093692189E+02 -0.14107058916E+03  0.15605931236E+03  0.00000000000E+00 0. -1.
        -13    1    3    3    0    0 -0.24352059133E+02 -0.18261969229E+02 -0.41537251119E+02  0.51496267192E+02  0.00000000000E+00 0.  1.
         13    1    3    3    0    0  0.78686226731E+02 -0.36383080447E+02 -0.20729607438E+03  0.22469293107E+03  0.00000000000E+00 0. -1.
          1    1    1    2  501    0  0.30551555550E+02  0.16239711414E+02 -0.26100231478E+02  0.43339910666E+02  0.00000000000E+00 0. -1.
<scales pt_clust_5="13000.00000" pt_clust_6="13000.00000" pt_clust_7="13000.00000" pt_clust_8="13000.00000" pt_clust_9="34.59951"></scales>
<clustering>
<clus scale="   34.600">  1  9  2 -1</clus>
<clus scale="   91.783">  7  8 -1 -1</clus>
<clus scale="   94.969">  5  6 -1 -1</clus>
<clus scale="  123.361">  2  7  1 -1</clus>
<clus scale="   34.600">  1  5  2 -1</clus>
</clustering>
</event>
<event>
 9    1  0.3288491E-005  0.1554204E+03  0.7546771E-02  0.1194177E+00
         21   -1    0    0  501  502  0.00000000000E+00  0.00000000000E+00  0.56753337732E+03  0.56753337732E+03  0.00000000000E+00 0.  1.
         -2   -1    0    0    0  501 -0.00000000000E+00 -0.00000000000E+00 -0.48384651870E+03  0.48384651870E+03  0.00000000000E+00 0.  1.
         23    2    1    2    0    0  0.57150050909E+02  0.11161793531E+03 -0.42680268364E+03  0.45415467522E+03  0.91494516024E+02 0.  0.
         23    2    1    2    0    0  0.18371731929E+02 -0.12180071999E+03  0.49632316187E+03  0.51971447884E+03  0.92701254505E+02 0.  0.
        -11    1    3    3    0    0  0.37919901830E+02  0.55108897489E+02 -0.90190175219E+02  0.11229059285E+03  0.00000000000E+00 0.  1.
         11    1    3    3    0    0  0.19230149079E+02  0.56509037822E+02 -0.33661250842E+03  0.34186408237E+03  0.00000000000E+00 0. -1.
        -13    1    4    4    0    0  0.41326109776E+02 -0.95816172219E+02  0.44949474590E+03  0.46144784408E+03  0.00000000000E+00 0.  1.
         13    1    4    4    0    0 -0.22954377847E+02 -0.25984547770E+02  0.46828415967E+02  0.58266634768E+02  0.00000000000E+00 0. -1.
         -2    1    1    2    0  502 -0.75521782838E+02  0.10182784677E+02  0.14166380387E+02  0.77510741966E+02  0.00000000000E+00 0.  1.
<scales pt_clust_5="13000.00000" pt_clust_6="13000.00000" pt_clust_7="13000.00000" pt_clust_8="13000.00000" pt_clust_9="76.20518"></scales>
<clustering>
<clus scale="   76.205">  1  9  2 -1</clus>
<clus scale="   91.495">  5  6 -1 -1</clus>
<clus scale="   92.701">  7  8 -1 -1</clus>
<clus scale="  154.704">  2  5  1 -1</clus>
<clus scale="   76.205">  1  5  2 -1</clus>
</clustering>
</event>
<event>
 9    1  0.3288491E-005  0.1296765E+03  0.7546771E-02  0.1228228E+00
         -4   -1    0    0    0  501 -0.00000000000E+00  0.00000000000E+00  0.59218329611E+02  0.59218329611E+02  0.00000000000E+00 0.  1.
         21   -1    0    0  501  502  0.00000000000E+00 -0.00000000000E+00 -0.62562472110E+03  0.62562472110E+03  0.00000000000E+00 0.  1.
         23    2    1    2    0    0  0.48826456173E+02 -0.27270074692E+02 -0.14139828566E+03  0.17820061627E+03  0.92920959193E+02 0.  0.
         23    2    1    2    0    0 -0.89484244047E+02  0.10806564344E+03 -0.18261795971E+03  0.24792644617E+03  0.91829136331E+02 0.  0.
        -13    1    3    3    0    0  0.29944229596E+02  0.17985182624E+02 -0.11949310383E+03  0.12449387754E+03  0.00000000000E+00 0. -1.
         13    1    3    3    0    0  0.18882226577E+02 -0.45255257315E+02 -0.21905181824E+02  0.53706738738E+02  0.00000000000E+00 0.  1.
        -13    1    4    4    0    0 -0.13905953845E+02  0.79931464263E+02 -0.58950260394E+02  0.10028732588E+03  0.00000000000E+00 0. -1.
         13    1    4    4    0    0 -0.75578290202E+02  0.28134179181E+02 -0.12366769931E+03  0.14763912029E+03  0.00000000000E+00 0.  1.
         -4    1    1    2    0  502  0.40657787874E+02 -0.80795568752E+02 -0.24239014613E+03  0.25871598827E+03  0.00000000000E+00 0.  1.
<scales pt_clust_5="13000.00000" pt_clust_6="13000.00000" pt_clust_7="13000.00000" pt_clust_8="13000.00000" pt_clust_9="90.44877"></scales>
<clustering>
<clus scale="   90.449">  2  9  1 -1</clus>
<clus scale="   91.829">  7  8 -1 -1</clus>
<clus scale="   92.921">  5  6 -1 -1</clus>
<clus scale="  128.896">  2  7  1 -1</clus>
<clus scale="   90.449">  2  5  1 -1</clus>
</clustering>
</event>
<event>
 9    1  0.3288491E-005  0.9424522E+02  0.7546771E-02  0.1292952E+00
         -2   -1    0    0    0  501 -0.00000000000E+00  0.00000000000E+00  0.44592421917E+03  0.44592421917E+03  0.00000000000E+00 0.  1.
         21   -1    0    0  501  502  0.00000000000E+00 -0.00000000000E+00 -0.93793105975E+02  0.93793105975E+02  0.00000000000E+00 0.  1.
         23    2    1    2    0    0 -0.18139391662E+02 -0.18262836780E+02  0.37221585975E+03  0.38409354548E+03  0.91217524022E+02 0.  0.
         23    2    1    2    0    0  0.27349299852E+02 -0.25061461758E+02  0.14214478898E+02  0.99603657210E+02  0.91338798172E+02 0.  0.
        -11    1    3    3    0    0  0.34193936864E+02 -0.14945723221E+02  0.21889569680E+03  0.22205388094E+03  0.00000000000E+00 0.  1.
         11    1    3    3    0    0 -0.52333328526E+02 -0.33171135590E+01  0.15332016295E+03  0.16203966454E+03  0.00000000000E+00 0. -1.
        -13    1    4    4    0    0 -0.28482946125E+02 -0.29183028618E+02 -0.33825535906E+01  0.40919054829E+02  0.00000000000E+00 0.  1.
         13    1    4    4    0    0  0.55832245977E+02  0.41215668600E+01  0.17597032489E+02  0.58684602381E+02  0.00000000000E+00 0. -1.
         -2    1    1    2    0  502 -0.92099081894E+01  0.43324298538E+02 -0.34299225460E+02  0.56020122454E+02  0.00000000000E+00 0.  1.
<scales pt_clust_5="13000.00000" pt_clust_6="13000.00000" pt_clust_7="13000.00000" pt_clust_8="13000.00000" pt_clust_9="44.29241"></scales>
<clustering>
<clus scale="   44.292">  2  9  1 -1</clus>
<clus scale="   91.218">  5  6 -1 -1</clus>
<clus scale="   91.339">  7  8 -1 -1</clus>
<clus scale="   94.128">  1  5  2 -1</clus>
<clus scale="   44.292">  2  5  1 -1</clus>
</clustering>
</event>
<event>
 9    1  0.3288491E-005  0.2363007E+03  0.7546771E-02  0.1122306E+00
         21   -1    0    0  501  502  0.00000000000E+00  0.00000000000E+00  0.13711852518E+03  0.13711852518E+03  0.00000000000E+00 0. -1.
          1   -1    0    0  502    0 -0.00000000000E+00 -0.00000000000E+00 -0.49518746417E+03  0.49518746417E+03  0.00000000000E+00 0. -1.
         23    2    1    2    0    0  0.13983773384E+03  0.19480042898E+03 -0.21644606996E+03  0.33532542409E+03  0.89957989658E+02 0.  0.
         23    2    1    2    0    0 -0.10519422661E+03 -0.16536174769E+03 -0.11981146091E+03  0.24655689944E+03  0.89583400182E+02 0.  0.
        -13    1    4    4    0    0 -0.19543304032E+02 -0.16906792836E+02  0.13748222336E+02  0.29271043607E+02  0.00000000000E+00 0.  1.
         13    1    4    4    0    0 -0.85650922579E+02 -0.14845495485E+03 -0.13355968324E+03  0.21728585584E+03  0.00000000000E+00 0. -1.
        -13    1    3    3    0    0  0.20650871677E+02  0.63249690433E+02 -0.17706748091E+02  0.68851367226E+02  0.00000000000E+00 0.  1.
         13    1    3    3    0    0  0.11918686217E+03  0.13155073855E+03 -0.19873932187E+03  0.26647405687E+03  0.00000000000E+00 0. -1.
          1    1    1    2  501    0 -0.34643507233E+02 -0.29438681296E+02 -0.21811408131E+02  0.50423665818E+02  0.00000000000E+00 0. -1.
<scales pt_clust_5="13000.00000" pt_clust_6="13000.00000" pt_clust_7="13000.00000" pt_clust_8="13000.00000" pt_clust_9="45.46217"></scales>
<clustering>
<clus scale="   45.462">  1  9  2 -1</clus>
<clus scale="   89.583">  5  6 -1 -1</clus>
<clus scale="   89.958">  7  8 -1 -1</clus>
<clus scale="  236.158">  1  5  2 -1</clus>
<clus scale="   45.462">  1  5  2 -1</clus>
</clustering>
</event>
<event>
 9    1  0.3288491E-005  0.1103082E+03  0.7546771E-02  0.1265803E+00
         21   -1    0    0  501  502  0.00000000000E+00  0.00000000000E+00  0.25799212447E+03  0.25799212447E+03  0.00000000000E+00 0.  1.
          1   -1    0    0  502    0 -0.00000000000E+00 -0.00000000000E+00 -0.86179845647E+02  0.86179845647E+02  0.00000000000E+00 0. -1.
         23    2    1    2    0    0  0.47587499545E+02 -0.59989323401E+01 -0.16410277079E+02  0.97281234747E+02  0.83028815105E+02 0.  0.
         23    2    1    2    0    0 -0.66893381104E+02  0.14976553136E+02  0.96979288495E+02  0.15319629271E+03  0.96773447413E+02 0.  0.
        -13    1    4    4    0    0 -0.36848308117E+02  0.37620430373E+02  0.10243699906E+03  0.11518000421E+03  0.00000000000E+00 0.  1.
         13    1    4    4    0    0 -0.30045072988E+02 -0.22643877236E+02 -0.54577105650E+01  0.38016288506E+02  0.00000000000E+00 0. -1.
        -13    1    3    3    0    0 -0.11863780067E+02  0.21610167545E+02  0.10010529680E+02  0.26607505018E+02  0.00000000000E+00 0.  1.
         13    1    3    3    0    0  0.59451279612E+02 -0.27609099885E+02 -0.26420806759E+02  0.70673729729E+02  0.00000000000E+00 0. -1.
          1    1    1    2  501    0  0.19305881559E+02 -0.89776207962E+01  0.91243267409E+02  0.93694442661E+02  0.00000000000E+00 0. -1.
<scales pt_clust_5="13000.00000" pt_clust_6="13000.00000" pt_clust_7="13000.00000" pt_clust_8="13000.00000" pt_clust_9="21.29119"></scales>
<clustering>
<clus scale="   21.291">  1  9  2 -1</clus>
<clus scale="   83.029">  7  8 -1 -1</clus>
<clus scale="   96.773">  5  6 -1 -1</clus>
<clus scale="   98.471">  2  7  1 -1</clus>
<clus scale="   21.291">  1  5  2 -1</clus>
</clustering>
</event>
<event>
 9    1  0.3288491E-005  0.1249493E+03  0.7546771E-02  0.1236625E+00
         21   -1    0    0  501  502  0.00000000000E+00  0.00000000000E+00  0.14367481009E+03  0.14367481009E+03  0.00000000000E+00 0.  1.
         -1   -1    0    0    0  501 -0.00000000000E+00 -0.00000000000E+00 -0.21871843940E+03  0.21871843940E+03  0.00000000000E+00 0.  1.
         23    2    1    2    0    0  0.87834096324E+02  0.24371465124E+02 -0.12579409805E+03  0.18064423433E+03  0.92192122789E+02 0.  0.
         23    2    1    2    0    0 -0.58044776194E+02 -0.47781216793E+02 -0.40542066850E+01  0.11512340060E+03  0.87090298261E+02 0.  0.
        -11    1    4    4    0    0 -0.52811988985E+02  0.10701190507E+02 -0.13750726744E+02  0.55612086320E+02  0.00000000000E+00 0. -1.
         11    1    4    4    0    0 -0.52327872089E+01 -0.58482407300E+02  0.96965200591E+01  0.59511314276E+02  0.00000000000E+00 0.  1.
        -11    1    3    3    0    0  0.57023018825E+02  0.32144217470E+02 -0.13284335148E+03  0.14809534573E+03  0.00000000000E+00 0.  1.
         11    1    3    3    0    0  0.30811077498E+02 -0.77727523461E+01  0.70492534318E+01  0.32548888607E+02  0.00000000000E+00 0. -1.
         -1    1    1    2    0  502 -0.29789320129E+02  0.23409751669E+02  0.54804675431E+02  0.66625614564E+02  0.00000000000E+00 0.  1.
<scales pt_clust_5="13000.00000" pt_clust_6="13000.00000" pt_clust_7="13000.00000" pt_clust_8="13000.00000" pt_clust_9="37.88694"></scales>
<clustering>
<clus scale="   37.887">  1  9  2 -1</clus>
<clus scale="   87.090">  5  6 -1 -1</clus>
<clus scale="   92.192">  7  8 -1 -1</clus>
<clus scale="  121.234">  1  5  2 -1</clus>
<clus scale="   37.887">  1  5  2 -1</clus>
</clustering>
</event>
<event>
 9    1  0.3288491E-005  0.9407696E+02  0.7546771E-02  0.1293709E+00
         21   -1    0    0  501  502  0.00000000000E+00  0.00000000000E+00  0.26640602682E+03  0.26640602682E+03  0.00000000000E+00 0.  1.
          1   -1    0    0  502    0 -0.00000000000E+00 -0.00000000000E+00 -0.48566961452E+02  0.48566961452E+02  0.00000000000E+00 0. -1.
         23    2    1    2    0    0 -0.14893230382E+02  0.22827373355E+02  0.70463202606E+02  0.11860579638E+03  0.91429616248E+02 0.  0.
         23    2    1    2    0    0 -0.89662338072E+01 -0.18848382377E+02  0.14472116515E+03  0.17203298100E+03  0.90639263249E+02 0.  0.
        -11    1    4    4    0    0 -0.35179092467E+02  0.11985425171E+02  0.22871984257E+02  0.43638820185E+02  0.00000000000E+00 0.  1.
         11    1    4    4    0    0  0.26212858659E+02 -0.30833807547E+02  0.12184918089E+03  0.12839416081E+03  0.00000000000E+00 0. -1.
        -13    1    3    3    0    0 -0.19395796219E+02  0.53430851892E+02  0.66399971003E+02  0.87407144983E+02  0.00000000000E+00 0.  1.
         13    1    3    3    0    0  0.45025658371E+01 -0.30603478538E+02  0.40632316030E+01  0.31198651394E+02  0.00000000000E+00 0. -1.
          1    1    1    2  501    0  0.23859464189E+02 -0.39789909778E+01  0.26546976147E+01  0.24334210898E+02  0.00000000000E+00 0. -1.
<scales pt_clust_5="13000.00000" pt_clust_6="13000.00000" pt_clust_7="13000.00000" pt_clust_8="13000.00000" pt_clust_9="24.18898"></scales>
<clustering>
<clus scale="   24.189">  1  9  2 -1</clus>
<clus scale="   90.639">  5  6 -1 -1</clus>
<clus scale="   91.430">  7  8 -1 -1</clus>
<clus scale="   93.309">  1  5  2 -1</clus>
<clus scale="   24.189">  1  5  2 -1</clus>
</clustering>
</event>
<event>
 9    1  0.3288491E-005  0.1194283E+03  0.7546771E-02  0.1244571E+00
         21   -1    0    0  501  502  0.00000000000E+00  0.00000000000E+00  0.57082592544E+03  0.57082592544E+03  0.00000000000E+00 0. -1.
         -3   -1    0    0    0  501 -0.00000000000E+00 -0.00000000000E+00 -0.89810365948E+02  0.89810365948E+02  0.00000000000E+00 0.  1.
         23    2    1    2    0    0 -0.25572250663E+02  0.75915303475E+02 -0.29898217559E+02  0.12447328696E+03  0.90457849010E+02 0.  0.
         23    2    1    2    0    0 -0.15959134931E+02 -0.58092599576E+02  0.27969423074E+03  0.30056804829E+03  0.92102360600E+02 0.  0.
        -11    1    3    3    0    0 -0.55123669632E+02  0.44104787047E+02 -0.38198563834E+02  0.80268184688E+02  0.00000000000E+00 0.  1.
         11    1    3    3    0    0  0.29551418969E+02  0.31810516428E+02  0.83003462752E+01  0.44205102271E+02  0.00000000000E+00 0. -1.
        -13    1    4    4    0    0 -0.34407332710E+02  0.10996825065E+01  0.17927864533E+03  0.18255384553E+03  0.00000000000E+00 0. -1.
         13    1    4    4    0    0  0.18448197780E+02 -0.59192282082E+02  0.10041558542E+03  0.11801420276E+03  0.00000000000E+00 0.  1.
         -3    1    1    2    0  502  0.41531385593E+02 -0.17822703899E+02  0.23121954631E+03  0.23559495614E+03  0.00000000000E+00 0.  1.
<scales pt_clust_5="13000.00000" pt_clust_6="13000.00000" pt_clust_7="13000.00000" pt_clust_8="13000.00000" pt_clust_9="45.19408"></scales>
<clustering>
<clus scale="   45.194">  1  9  2 -1</clus>
<clus scale="   90.458">  5  6 -1 -1</clus>
<clus scale="   92.102">  7  8 -1 -1</clus>
<clus scale="  118.165">  2  5  1 -1</clus>
<clus scale="   45.194">  1  5  2 -1</clus>
</clustering>
</event>
<event>
 9    1  0.3288491E-005  0.1226222E+03  0.7546771E-02  0.1245743E+00
         21   -1    0    0  501  502  0.00000000000E+00  0.00000000000E+00  0.58647608943E+02  0.58647608943E+02  0.00000000000E+00 0. -1.
          2   -1    0    0  502    0 -0.00000000000E+00 -0.00000000000E+00 -0.71494117994E+03  0.71494117994E+03  0.00000000000E+00 0. -1.
         23    2    1    2    0    0  0.14752557264E+02 -0.47822396770E+02 -0.38149394549E+03  0.40036228480E+03  0.11066936826E+03 0.  0.
         23    2    1    2    0    0  0.25221912660E+02  0.73887715331E+02 -0.31335481515E+02  0.12512944951E+03  0.92627897399E+02 0.  0.
        -13    1    4    4    0    0 -0.24880876777E+02  0.17820686185E+02 -0.38970177124E+02  0.49551080618E+02  0.00000000000E+00 0.  1.
         13    1    4    4    0    0  0.50102789437E+02  0.56067029146E+02  0.76346956087E+01  0.75578368887E+02  0.00000000000E+00 0. -1.
        -13    1    3    3    0    0  0.38345136129E+02 -0.73134694633E+02 -0.31182160461E+03  0.32257052891E+03  0.00000000000E+00 0. -1.
         13    1    3    3    0    0 -0.23592578865E+02  0.25312297864E+02 -0.69672340879E+02  0.77791755889E+02  0.00000000000E+00 0.  1.
          2    1    1    2  501    0 -0.39974469925E+02 -0.26065318562E+02 -0.24346414400E+03  0.24809705458E+03  0.00000000000E+00 0. -1.
<scales pt_clust_5="13000.00000" pt_clust_6="13000.00000" pt_clust_7="13000.00000" pt_clust_8="13000.00000" pt_clust_9="47.72171"></scales>
<clustering>
<clus scale="   47.722">  1  9  2 -1</clus>
<clus scale="   92.628">  5  6 -1 -1</clus>
<clus scale="  106.623">  1  5  2 -1</clus>
<clus scale="  110.669">  7  8 -1 -1</clus>
<clus scale="   47.722">  1  5  2 -1</clus>
</clustering>
</event>
<event>
 9    1  0.3288491E-005  0.9504810E+02  0.7546771E-02  0.1293680E+00
         21   -1    0    0  501  502  0.00000000000E+00  0.00000000000E+00  0.11821681707E+03  0.11821681707E+03  0.00000000000E+00 0.  1.
         -2   -1    0    0    0  501 -0.00000000000E+00 -0.00000000000E+00 -0.45165293820E+03  0.45165293820E+03  0.00000000000E+00 0.  1.
         23    2    1    2    0    0  0.27195182715E+02  0.66205919403E+00 -0.20796561608E+03  0.22982426964E+03  0.93965318902E+02 0.  0.
         23    2    1    2    0    0  0.26951735365E+02 -0.27542939142E+02 -0.21270024643E+03  0.23391585628E+03  0.89388049835E+02 0.  0.
        -11    1    4    4    0    0  0.80614883619E+01 -0.46840445338E+02 -0.19705675327E+03  0.20270761930E+03  0.00000000000E+00 0.  1.
         11    1    4    4    0    0  0.18890247003E+02  0.19297506197E+02 -0.15643493163E+02  0.31208236983E+02  0.00000000000E+00 0. -1.
        -13    1    3    3    0    0  0.61543642263E+02  0.56673242921E+01 -0.11439639999E+03  0.13002413160E+03  0.00000000000E+00 0.  1.
         13    1    3    3    0    0 -0.34348459549E+02 -0.50052650981E+01 -0.93569216091E+02  0.99800138036E+02  0.00000000000E+00 0. -1.
         -2    1    1    2    0  502 -0.54146918079E+02  0.26880879947E+02  0.87229741387E+02  0.10612962935E+03  0.00000000000E+00 0.  1.
<scales pt_clust_5="13000.00000" pt_clust_6="13000.00000" pt_clust_7="13000.00000" pt_clust_8="13000.00000" pt_clust_9="60.45222"></scales>
<clustering>
<clus scale="   60.452">  1  9  2 -1</clus>
<clus scale="   89.388">  5  6 -1 -1</clus>
<clus scale="   90.526">  1  5  2 -1</clus>
<clus scale="   93.965">  7  8 -1 -1</clus>
<clus scale="   60.452">  1  5  2 -1</clus>
</clustering>
</event>
<event>
 9    1  0.3288491E-005  0.1133823E+03  0.7546771E-02  0.1258556E+00
         21   -1    0    0  501  502  0.00000000000E+00  0.00000000000E+00  0.19394004884E+03  0.19394004884E+03  0.00000000000E+00 0. -1.
         -1   -1    0    0    0  501 -0.00000000000E+00 -0.00000000000E+00 -0.11558163916E+03  0.11558163916E+03  0.00000000000E+00 0.  1.
         23    2    1    2    0    0 -0.45551901006E+02  0.20264000964E+02 -0.25886043778E+02  0.10450155420E+03  0.88118568685E+02 0.  0.
         23    2    1    2    0    0  0.48665315554E+02 -0.67036148139E+02  0.85671043252E+02  0.15459892132E+03  0.98484215619E+02 0.  0.
        -11    1    4    4    0    0  0.18858348432E+02  0.23798751584E+02  0.79405240281E+01  0.31385821709E+02  0.00000000000E+00 0.  1.
         11    1    4    4    0    0  0.29806967122E+02 -0.90834899723E+02  0.77730519224E+02  0.12321309961E+03  0.00000000000E+00 0. -1.
        -11    1    3    3    0    0 -0.65590534855E+02  0.88813814325E+01 -0.40134666390E+02  0.77406644708E+02  0.00000000000E+00 0.  1.
         11    1    3    3    0    0  0.20038633849E+02  0.11382619531E+02  0.14248622613E+02  0.27094909490E+02  0.00000000000E+00 0. -1.
         -1    1    1    2    0  502 -0.31134145476E+01  0.46772147175E+02  0.18573410199E+02  0.50421212480E+02  0.00000000000E+00 0.  1.
<scales pt_clust_5="13000.00000" pt_clust_6="13000.00000" pt_clust_7="13000.00000" pt_clust_8="13000.00000" pt_clust_9="46.87566"></scales>
<clustering>
<clus scale="   46.876">  1  9  2 -1</clus>
<clus scale="   88.119">  7  8 -1 -1</clus>
<clus scale="   98.484">  5  6 -1 -1</clus>
<clus scale="  104.505">  2  7  1 -1</clus>
<clus scale="   46.876">  1  5  2 -1</clus>
</clustering>
</event>
<event>
 9    1  0.3288491E-005  0.9164841E+02  0.7546771E-02  0.1299597E+00
          1   -1    0    0  502    0 -0.00000000000E+00  0.00000000000E+00  0.24327473683E+03  0.24327473683E+03  0.00000000000E+00 0. -1.
         21   -1    0    0  501  502  0.00000000000E+00 -0.00000000000E+00 -0.12945594424E+03  0.12945594424E+03  0.00000000000E+00 0. -1.
         23    2    1    2    0    0  0.73940808983E+01  0.45287567428E+00  0.14541448735E+03  0.17101256944E+03  0.89694192923E+02 0.  0.
         23    2    1    2    0    0 -0.50858631463E+02  0.48299414933E+00 -0.83886433023E+02  0.13371543288E+03  0.90862806849E+02 0.  0.
        -11    1    4    4    0    0 -0.33098952618E+02  0.38953710665E+02 -0.15767729069E+02  0.53493490436E+02  0.00000000000E+00 0. -1.
         11    1    4    4    0    0 -0.17759678845E+02 -0.38470716516E+02 -0.68118703954E+02  0.80221942449E+02  0.00000000000E+00 0.  1.
        -11    1    3    3    0    0  0.23254229846E+02 -0.36306060879E+02  0.10770760768E+03  0.11601645580E+03  0.00000000000E+00 0.  1.
         11    1    3    3    0    0 -0.15860148948E+02  0.36758936553E+02  0.37706879669E+02  0.54996113640E+02  0.00000000000E+00 0. -1.
          1    1    1    2  501    0  0.43464550565E+02 -0.93586982360E+00  0.52290738260E+02  0.68002678740E+02  0.00000000000E+00 0. -1.
<scales pt_clust_5="13000.00000" pt_clust_6="13000.00000" pt_clust_7="13000.00000" pt_clust_8="13000.00000" pt_clust_9="43.47465"></scales>
<clustering>
<clus scale="   43.475">  2  9  1 -1</clus>
<clus scale="   89.694">  7  8 -1 -1</clus>
<clus scale="   90.490">  1  7  2 -1</clus>
<clus scale="   90.863">  5  6 -1 -1</clus>
<clus scale="   43.475">  2  5  1 -1</clus>
</clustering>
</event>
<event>
 9    1  0.3288491E-005  0.1145279E+03  0.7546771E-02  0.1252505E+00
         21   -1    0    0  501  502  0.00000000000E+00  0.00000000000E+00  0.11564489852E+03  0.11564489852E+03  0.00000000000E+00 0. -1.
          1   -1    0    0  502    0 -0.00000000000E+00 -0.00000000000E+00 -0.21469175250E+03  0.21469175250E+03  0.00000000000E+00 0. -1.
         23    2    1    2    0    0  0.19600856180E+02  0.77471762749E+02 -0.13935508081E+03  0.18378664619E+03  0.89283958159E+02 0.  0.
         23    2    1    2    0    0 -0.29357097495E+02 -0.42254330672E+02  0.19952815865E+02  0.10471945950E+03  0.88998779221E+02 0.  0.
        -13    1    4    4    0    0  0.23650510059E+00  0.22458250242E+02  0.24723060195E+02  0.33401476674E+02  0.00000000000E+00 0.  1.
         13    1    4    4    0    0 -0.29593602596E+02 -0.64712580915E+02 -0.47702443302E+01  0.71317982825E+02  0.00000000000E+00 0. -1.
        -13    1    3    3    0    0 -0.30722584914E+02  0.83890320450E+01 -0.22424674577E+02  0.38950213251E+02  0.00000000000E+00 0.  1.
         13    1    3    3    0    0  0.50323441094E+02  0.69082730704E+02 -0.11693040624E+03  0.14483643294E+03  0.00000000000E+00 0. -1.
          1    1    1    2  501    0  0.97562413147E+01 -0.35217432076E+02  0.20355410968E+02  0.41830545326E+02  0.00000000000E+00 0. -1.
<scales pt_clust_5="13000.00000" pt_clust_6="13000.00000" pt_clust_7="13000.00000" pt_clust_8="13000.00000" pt_clust_9="36.54383"></scales>
<clustering>
<clus scale="   36.544">  1  9  2 -1</clus>
<clus scale="   88.999">  5  6 -1 -1</clus>
<clus scale="   89.284">  7  8 -1 -1</clus>
<clus scale="  114.306">  1  5  2 -1</clus>
<clus scale="   36.544">  1  5  2 -1</clus>
</clustering>
</event>
<event>
 9    1  0.3288491E-005  0.2574987E+03  0.7546771E-02  0.1108690E+00
         21   -1    0    0  501  502  0.00000000000E+00  0.00000000000E+00  0.28269167556E+03  0.28269167556E+03  0.00000000000E+00 0.  1.
          2   -1    0    0  502    0 -0.00000000000E+00 -0.00000000000E+00 -0.35463653709E+03  0.35463653709E+03  0.00000000000E+00 0. -1.
         23    2    1    2    0    0 -0.94180139051E+02 -0.21733789440E+03 -0.16956941755E+03  0.30514150325E+03  0.90839918007E+02 0.  0.
         23    2    1    2    0    0  0.12667581639E+03  0.22072083844E+03  0.11693959424E+03  0.29423300000E+03  0.90187241926E+02 0.  0.
        -11    1    3    3    0    0 -0.59948565376E+02 -0.15987103755E+03 -0.68559448491E+02  0.18399178545E+03  0.00000000000E+00 0.  1.
         11    1    3    3    0    0 -0.34231573676E+02 -0.57466856855E+02 -0.10100996906E+03  0.12114971780E+03  0.00000000000E+00 0. -1.
        -13    1    4    4    0    0  0.10513644596E+03  0.20408013791E+03  0.70056305028E+02  0.24002137579E+03  0.00000000000E+00 0.  1.
         13    1    4    4    0    0  0.21539370423E+02  0.16640700530E+02  0.46883289209E+02  0.54211624210E+02  0.00000000000E+00 0. -1.
          2    1    1    2  501    0 -0.32495677336E+02 -0.33829440403E+01 -0.19315038213E+02  0.37953709398E+02  0.00000000000E+00 0. -1.
<scales pt_clust_5="13000.00000" pt_clust_6="13000.00000" pt_clust_7="13000.00000" pt_clust_8="13000.00000" pt_clust_9="32.67131"></scales>
<clustering>
<clus scale="   32.671">  1  9  2 -1</clus>
<clus scale="   90.187">  7  8 -1 -1</clus>
<clus scale="   90.840">  5  6 -1 -1</clus>
<clus scale="  257.269">  1  7  2 -1</clus>
<clus scale="   32.671">  1  5  2 -1</clus>
</clustering>
</event>
<event>
 9    1  0.3288491E-005  0.1043927E+03  0.7546771E-02  0.1271632E+00
          3   -1    0    0  502    0 -0.00000000000E+00  0.00000000000E+00  0.72220781479E+02  0.72220781479E+02  0.00000000000E+00 0. -1.
         21   -1    0    0  501  502  0.00000000000E+00 -0.00000000000E+00 -0.32503566209E+03  0.32503566209E+03  0.00000000000E+00 0. -1.
         23    2    1    2    0    0 -0.33001942593E+02  0.33729967797E+02 -0.61612550521E+02  0.12052967194E+03  0.92219610135E+02 0.  0.
         23    2    1    2    0    0 -0.35909851380E+02 -0.69428088104E+02 -0.96333505700E+02  0.15415726081E+03  0.91512512236E+02 0.  0.
        -11    1    4    4    0    0 -0.39801892267E+01 -0.74066512762E+02 -0.96723846349E+02  0.12189008439E+03  0.00000000000E+00 0. -1.
         11    1    4    4    0    0 -0.31929662153E+02  0.46384246582E+01  0.39034064901E+00  0.32267176423E+02  0.00000000000E+00 0.  1.
        -13    1    3    3    0    0 -0.57662429049E+02  0.44297801370E+02 -0.58876332739E+02  0.93561068222E+02  0.00000000000E+00 0. -1.
         13    1    3    3    0    0  0.24660486456E+02 -0.10567833573E+02 -0.27362177820E+01  0.26968603717E+02  0.00000000000E+00 0.  1.
          3    1    1    2  501    0  0.68911793972E+02  0.35698120307E+02 -0.94868824390E+02  0.12256951082E+03  0.00000000000E+00 0. -1.
<scales pt_clust_5="13000.00000" pt_clust_6="13000.00000" pt_clust_7="13000.00000" pt_clust_8="13000.00000" pt_clust_9="77.60922"></scales>
<clustering>
<clus scale="   77.609">  2  9  1 -1</clus>
<clus scale="   91.513">  5  6 -1 -1</clus>
<clus scale="   92.220">  7  8 -1 -1</clus>
<clus scale="  103.769">  2  5  1 -1</clus>
<clus scale="   77.609">  2  5  1 -1</clus>
</clustering>
</event>
<event>
 9    1  0.3288491E-005  0.1105521E+03  0.7546771E-02  0.1262927E+00
          1   -1    0    0  502    0 -0.00000000000E+00  0.00000000000E+00  0.49236308473E+03  0.49236308473E+03  0.00000000000E+00 0. -1.
         21   -1    0    0  501  502  0.00000000000E+00 -0.00000000000E+00 -0.57323039344E+02  0.57323039344E+02  0.00000000000E+00 0. -1.
         23    2    1    2    0    0  0.18846995105E+02  0.72055188876E+02  0.30483460810E+03  0.32893515015E+03  0.98625733153E+02 0.  0.
         23    2    1    2    0    0 -0.14546729765E+02 -0.16967409508E+02  0.13626663675E+03  0.16516416023E+03  0.90615137823E+02 0.  0.
        -13    1    3    3    0    0 -0.10194643511E+02  0.25474491907E+02  0.10267009118E+02  0.29296620461E+02  0.00000000000E+00 0.  1.
         13    1    3    3    0    0  0.29041638615E+02  0.46580696969E+02  0.29456759899E+03  0.29963852969E+03  0.00000000000E+00 0. -1.
        -13    1    4    4    0    0  0.12819678486E+02 -0.21847748045E+02 -0.76368164072E+00  0.25342680616E+02  0.00000000000E+00 0.  1.
         13    1    4    4    0    0 -0.27366408251E+02  0.48803385371E+01  0.13703031839E+03  0.13982147962E+03  0.00000000000E+00 0. -1.
          1    1    1    2  501    0 -0.43002653393E+01 -0.55087779368E+02 -0.60611994611E+01  0.55586813693E+02  0.00000000000E+00 0. -1.
<scales pt_clust_5="13000.00000" pt_clust_6="13000.00000" pt_clust_7="13000.00000" pt_clust_8="13000.00000" pt_clust_9="55.25537"></scales>
<clustering>
<clus scale="   55.255">  2  9  1 -1</clus>
<clus scale="   90.615">  7  8 -1 -1</clus>
<clus scale="   98.626">  5  6 -1 -1</clus>
<clus scale="  103.469">  2  7  1 -1</clus>
<clus scale="   55.255">  2  5  1 -1</clus>
</clustering>
</event>
<event>
 9    1  0.3288491E-005  0.9750677E+02  0.7546771E-02  0.1287027E+00
          4   -1    0    0  502    0 -0.00000000000E+00  0.00000000000E+00  0.22366732669E+02  0.22366732669E+02  0.00000000000E+00 0. -1.
         21   -1    0    0  501  502  0.00000000000E+00 -0.00000000000E+00 -0.10995529585E+04  0.10995529585E+04  0.00000000000E+00 0. -1.
         23    2    1    2    0    0  0.21726528825E+01  0.50891654188E+02 -0.16715913956E+03  0.19735911482E+03  0.91726557649E+02 0.  0.
         23    2    1    2    0    0 -0.16050153459E+02  0.18624557041E+02 -0.50448561727E+03  0.51287019302E+03  0.89025924898E+02 0.  0.
        -11    1    3    3    0    0 -0.11554716243E+02 -0.25101149072E+02 -0.41029472009E+02  0.49467127726E+02  0.00000000000E+00 0.  1.
         11    1    3    3    0    0  0.13727369126E+02  0.75992803260E+02 -0.12612966755E+03  0.14789198710E+03  0.00000000000E+00 0. -1.
        -13    1    4    4    0    0  0.12362226124E+02 -0.31991894888E+02 -0.19195370605E+03  0.19499366974E+03  0.00000000000E+00 0.  1.
         13    1    4    4    0    0 -0.28412379583E+02  0.50616451930E+02 -0.31253191122E+03  0.31787652328E+03  0.00000000000E+00 0. -1.
          4    1    1    2  501    0  0.13877500576E+02 -0.69516211230E+02 -0.40554146898E+03  0.41169038330E+03  0.00000000000E+00 0. -1.
<scales pt_clust_5="13000.00000" pt_clust_6="13000.00000" pt_clust_7="13000.00000" pt_clust_8="13000.00000" pt_clust_9="70.88786"></scales>
<clustering>
<clus scale="   70.888">  2  9  1 -1</clus>
<clus scale="   89.026">  7  8 -1 -1</clus>
<clus scale="   91.727">  5  6 -1 -1</clus>
<clus scale="   94.971">  2  7  1 -1</clus>
<clus scale="   70.888">  2  5  1 -1</clus>
</clustering>
</event>
<event>
 9    1  0.3288491E-005  0.1384937E+03  0.7546771E-02  0.1215639E+00
         21   -1    0    0  501  502  0.00000000000E+00  0.00000000000E+00  0.85788631537E+02  0.85788631537E+02  0.00000000000E+00 0.  1.
         -1   -1    0    0    0  501 -0.00000000000E+00 -0.00000000000E+00 -0.60563513306E+03  0.60563513306E+03  0.00000000000E+00 0.  1.
         23    2    1    2    0    0 -0.11638692172E+03  0.19650905588E+02 -0.33944638810E+03  0.37047596329E+03  0.89980638720E+02 0.  0.
         23    2    1    2    0    0  0.88412707459E+02  0.41199434298E+02 -0.20909371493E+03  0.24808736420E+03  0.91175426649E+02 0.  0.
        -11    1    4    4    0    0  0.61807440938E+02 -0.21286526577E+02 -0.95220558796E+02  0.11549991682E+03  0.00000000000E+00 0. -1.
         11    1    4    4    0    0  0.26605266522E+02  0.62485960875E+02 -0.11387315613E+03  0.13258744737E+03  0.00000000000E+00 0.  1.
        -13    1    3    3    0    0 -0.80897071874E+01 -0.19481801593E+02 -0.14152278137E+02  0.25402183610E+02  0.00000000000E+00 0. -1.
         13    1    3    3    0    0 -0.10829721453E+03  0.39132707181E+02 -0.32529410996E+03  0.34507377968E+03  0.00000000000E+00 0.  1.
         -1    1    1    2    0  502  0.27974214259E+02 -0.60850339886E+02  0.28693601509E+02  0.72860437106E+02  0.00000000000E+00 0.  1.
<scales pt_clust_5="13000.00000" pt_clust_6="13000.00000" pt_clust_7="13000.00000" pt_clust_8="13000.00000" pt_clust_9="66.97254"></scales>
<clustering>
<clus scale="   66.973">  1  9  2 -1</clus>
<clus scale="   89.981">  7  8 -1 -1</clus>
<clus scale="   91.175">  5  6 -1 -1</clus>
<clus scale="  137.710">  2  7  1 -1</clus>
<clus scale="   66.973">  1  5  2 -1</clus>
</clustering>
</event>
<event>
 9    1  0.3288491E-005  0.4135832E+03  0.7546771E-02  0.1039205E+00
          1   -1    0    0  502    0 -0.00000000000E+00  0.00000000000E+00  0.42898420794E+03  0.42898420794E+03  0.00000000000E+00 0. -1.
         21   -1    0    0  501  502  0.00000000000E+00 -0.00000000000E+00 -0.74962102873E+03  0.74962102873E+03  0.00000000000E+00 0. -1.
         23    2    1    2    0    0  0.38467067038E+03 -0.21477468918E+03  0.85104160485E+02  0.45777858718E+03  0.90657735426E+02 0.  0.
         23    2    1    2    0    0 -0.26389321272E+03  0.24727360416E+03 -0.93927404696E+02  0.38486373443E+03  0.92270654564E+02 0.  0.
        -13    1    3    3    0    0  0.22805002557E+03 -0.12488676389E+03  0.95268279503E+02  0.27691074923E+03  0.00000000000E+00 0. -1.
         13    1    3    3    0    0  0.15662064481E+03 -0.89887925283E+02 -0.10164119018E+02  0.18086783795E+03  0.00000000000E+00 0.  1.
        -13    1    4    4    0    0 -0.24696160011E+02  0.66400331545E+02 -0.35885252356E+02  0.79414455140E+02  0.00000000000E+00 0.  1.
         13    1    4    4    0    0 -0.23919705271E+03  0.18087327261E+03 -0.58042152340E+02  0.30544927929E+03  0.00000000000E+00 0. -1.
          1    1    1    2  501    0 -0.12077745766E+03 -0.32498914979E+02 -0.31181357658E+03  0.33596291506E+03  0.00000000000E+00 0. -1.
<scales pt_clust_5="13000.00000" pt_clust_6="13000.00000" pt_clust_7="13000.00000" pt_clust_8="13000.00000" pt_clust_9="125.07347"></scales>
<clustering>
<clus scale="   90.658">  5  6 -1 -1</clus>
<clus scale="   92.271">  7  8 -1 -1</clus>
<clus scale="  125.073">  2  9  1 -1</clus>
<clus scale="  413.226">  1  5  2 -1</clus>
<clus scale="  125.073">  2  5  1 -1</clus>
</clustering>
</event>
<event>
 9    1  0.3288491E-005  0.9541781E+02  0.7546771E-02  0.1296981E+00
          2   -1    0    0  502    0 -0.00000000000E+00  0.00000000000E+00  0.26920463804E+03  0.26920463804E+03  0.00000000000E+00 0. -1.
         21   -1    0    0  501  502  0.00000000000E+00 -0.00000000000E+00 -0.14712920686E+03  0.14712920686E+03  0.00000000000E+00 0.  1.
         23    2    1    2    0    0 -0.16658748272E+02 -0.16484987796E+01  0.14264312281E+03  0.16989138888E+03  0.90751264929E+02 0.  0.
         23    2    1    2    0    0  0.42184024973E+02 -0.34764120350E+02  0.87340673023E+02  0.12973070107E+03  0.78826553969E+02 0.  0.
        -11    1    3    3    0    0 -0.53093495925E+02 -0.39706914479E+01  0.64465315072E+02  0.83608986045E+02  0.00000000000E+00 0. -1.
         11    1    3    3    0    0  0.36434747652E+02  0.23221926683E+01  0.78177807741E+02  0.86282402832E+02  0.00000000000E+00 0.  1.
        -13    1    4    4    0    0  0.22329047001E+02 -0.11275990094E+02  0.94832089681E+02  0.98075784605E+02  0.00000000000E+00 0. -1.
         13    1    4    4    0    0  0.19854977971E+02 -0.23488130256E+02 -0.74914166585E+01  0.31654916470E+02  0.00000000000E+00 0.  1.
          2    1    1    2  501    0 -0.25525276700E+02  0.36412619130E+02 -0.10790836465E+03  0.11671175495E+03  0.00000000000E+00 0. -1.
<scales pt_clust_5="13000.00000" pt_clust_6="13000.00000" pt_clust_7="13000.00000" pt_clust_8="13000.00000" pt_clust_9="44.46817"></scales>
<clustering>
<clus scale="   44.468">  2  9  1 -1</clus>
<clus scale="   78.827">  7  8 -1 -1</clus>
<clus scale="   84.157">  2  7  1 -1</clus>
<clus scale="   90.751">  5  6 -1 -1</clus>
<clus scale="   44.468">  2  5  1 -1</clus>
</clustering>
</event>
<event>
 9    1  0.3288491E-005  0.1539007E+03  0.7546771E-02  0.1195843E+00
          1   -1    0    0  502    0 -0.00000000000E+00  0.00000000000E+00  0.56610040368E+02  0.56610040368E+02  0.00000000000E+00 0. -1.
         21   -1    0    0  501  502  0.00000000000E+00 -0.00000000000E+00 -0.51719070119E+03  0.51719070119E+03  0.00000000000E+00 0.  1.
         23    2    1    2    0    0 -0.10657510972E+03  0.36839829051E+02 -0.17859677966E+03  0.22979790821E+03  0.90525366049E+02 0.  0.
         23    2    1    2    0    0  0.12714473030E+03 -0.51561493516E+02 -0.20474429031E+03  0.26272681542E+03  0.90998819052E+02 0.  0.
        -11    1    4    4    0    0  0.13779638177E+03 -0.34011236070E+02 -0.16248810301E+03  0.21574751592E+03  0.00000000000E+00 0.  1.
         11    1    4    4    0    0 -0.10651651474E+02 -0.17550257445E+02 -0.42256187305E+02  0.46979299495E+02  0.00000000000E+00 0. -1.
        -13    1    3    3    0    0 -0.45021546843E+02 -0.21414568090E+02 -0.28495881535E+02  0.57424199351E+02  0.00000000000E+00 0.  1.
         13    1    3    3    0    0 -0.61553562874E+02  0.58254397142E+02 -0.15010089813E+03  0.17237370886E+03  0.00000000000E+00 0. -1.
          1    1    1    2  501    0 -0.20569620579E+02  0.14721664464E+02 -0.77239590848E+02  0.81276017925E+02  0.00000000000E+00 0. -1.
<scales pt_clust_5="13000.00000" pt_clust_6="13000.00000" pt_clust_7="13000.00000" pt_clust_8="13000.00000" pt_clust_9="25.29499"></scales>
<clustering>
<clus scale="   25.295">  2  9  1 -1</clus>
<clus scale="   90.525">  7  8 -1 -1</clus>
<clus scale="   90.999">  5  6 -1 -1</clus>
<clus scale="  153.621">  1  7  2 -1</clus>
<clus scale="   25.295">  2  5  1 -1</clus>
</clustering>
</event>
<event>
 9    1  0.3288491E-005  0.2315933E+03  0.7546771E-02  0.1125828E+00
          2   -1    0    0  502    0 -0.00000000000E+00  0.00000000000E+00  0.99505184361E+03  0.99505184361E+03  0.00000000000E+00 0.  1.
         21   -1    0    0  501  502  0.00000000000E+00 -0.00000000000E+00 -0.12641106582E+03  0.12641106582E+03  0.00000000000E+00 0.  1.
         23    2    1    2    0    0  0.16952423427E+02 -0.22722713683E+03  0.51396196572E+03  0.56954090550E+03  0.91106445744E+02 0.  0.
         23    2    1    2    0    0  0.48226701631E+02  0.19349075736E+03  0.40605905905E+03  0.46233187376E+03  0.95406048694E+02 0.  0.
        -11    1    3    3    0    0  0.21099381668E+02 -0.84525128982E+02  0.10533685098E+03  0.13669503835E+03  0.00000000000E+00 0. -1.
         11    1    3    3    0    0 -0.41469582408E+01 -0.14270200784E+03  0.40862511475E+03  0.43284586715E+03  0.00000000000E+00 0.  1.
        -11    1    4    4    0    0  0.69378925044E+02  0.12383182832E+03  0.21260882558E+03  0.25563698805E+03  0.00000000000E+00 0. -1.
         11    1    4    4    0    0 -0.21152223413E+02  0.69658929039E+02  0.19345023347E+03  0.20669488571E+03  0.00000000000E+00 0.  1.
          2    1    1    2  501    0 -0.65179125058E+02  0.33736379469E+02 -0.51380246983E+02  0.89590130165E+02  0.00000000000E+00 0.  1.
<scales pt_clust_5="13000.00000" pt_clust_6="13000.00000" pt_clust_7="13000.00000" pt_clust_8="13000.00000" pt_clust_9="73.39252"></scales>
<clustering>
<clus scale="   73.393">  2  9  1 -1</clus>
<clus scale="   91.106">  5  6 -1 -1</clus>
<clus scale="   95.406">  7  8 -1 -1</clus>
<clus scale="  229.855">  1  5  2 -1</clus>
<clus scale="   73.393">  2  5  1 -1</clus>
</clustering>
</event>
<event>
 9    1  0.3288491E-005  0.1917666E+03  0.7546771E-02  0.1157933E+00
         21   -1    0    0  501  502  0.00000000000E+00  0.00000000000E+00  0.47314684148E+03  0.47314684148E+03  0.00000000000E+00 0.  1.
          2   -1    0    0  502    0 -0.00000000000E+00 -0.00000000000E+00 -0.30921500773E+03  0.30921500773E+03  0.00000000000E+00 0. -1.
         23    2    1    2    0    0 -0.18530867225E+02  0.16482999281E+03 -0.23352208858E+03  0.29750857541E+03  0.80414345855E+02 0.  0.
         23    2    1    2    0    0 -0.12293639928E+02 -0.20631282729E+03  0.33163520906E+03  0.40116887374E+03  0.90765836541E+02 0.  0.
        -11    1    3    3    0    0 -0.43254477451E+01  0.98061821820E+02 -0.19697718477E+03  0.22007917147E+03  0.00000000000E+00 0. -1.
         11    1    3    3    0    0 -0.14205419480E+02  0.66768170986E+02 -0.36544903810E+02  0.77429403936E+02  0.00000000000E+00 0.  1.
        -11    1    4    4    0    0  0.39020957312E+02 -0.92287829374E+02  0.13443493255E+03  0.16766761658E+03  0.00000000000E+00 0.  1.
         11    1    4    4    0    0 -0.51314597240E+02 -0.11402499792E+03  0.19720027651E+03  0.23350125716E+03  0.00000000000E+00 0. -1.
          2    1    1    2  501    0  0.30824507153E+02  0.41482834486E+02  0.65818713256E+02  0.83684400056E+02  0.00000000000E+00 0. -1.
<scales pt_clust_5="13000.00000" pt_clust_6="13000.00000" pt_clust_7="13000.00000" pt_clust_8="13000.00000" pt_clust_9="51.68148"></scales>
<clustering>
<clus scale="   51.681">  1  9  2 -1</clus>
<clus scale="   80.414">  5  6 -1 -1</clus>
<clus scale="   90.766">  7  8 -1 -1</clus>
<clus scale="  187.089">  2  5  1 -1</clus>
<clus scale="   51.681">  1  5  2 -1</clus>
</clustering>
</event>
<event>
 9    1  0.3288491E-005  0.9588851E+02  0.7546771E-02  0.1289231E+00
         21   -1    0    0  501  502  0.00000000000E+00  0.00000000000E+00  0.79978348730E+02  0.79978348730E+02  0.00000000000E+00 0. -1.
          2   -1    0    0  502    0 -0.00000000000E+00 -0.00000000000E+00 -0.29837828767E+03  0.29837828767E+03  0.00000000000E+00 0. -1.
         23    2    1    2    0    0  0.76247084057E+01 -0.15185230756E+02 -0.84871629996E+02  0.12691340542E+03  0.92817517124E+02 0.  0.
         23    2    1    2    0    0  0.13327987220E+02 -0.67682218596E+02 -0.11667628762E+03  0.16432250877E+03  0.92897862396E+02 0.  0.
        -11    1    4    4    0    0  0.41127870348E+02 -0.22398011794E+01 -0.62849270869E+02  0.75143524521E+02  0.00000000000E+00 0.  1.
         11    1    4    4    0    0 -0.27799883128E+02 -0.65442417416E+02 -0.53827016756E+02  0.89178984251E+02  0.00000000000E+00 0. -1.
        -11    1    3    3    0    0  0.12488166109E+02 -0.53899075597E+02 -0.48653785295E+02  0.73676695546E+02  0.00000000000E+00 0. -1.
         11    1    3    3    0    0 -0.48634577036E+01  0.38713844841E+02 -0.36217844701E+02  0.53236709872E+02  0.00000000000E+00 0.  1.
          2    1    1    2  501    0 -0.20952695626E+02  0.82867449352E+02 -0.16852021319E+02  0.87120722211E+02  0.00000000000E+00 0. -1.
<scales pt_clust_5="13000.00000" pt_clust_6="13000.00000" pt_clust_7="13000.00000" pt_clust_8="13000.00000" pt_clust_9="85.47532"></scales>
<clustering>
<clus scale="   85.475">  1  9  2 -1</clus>
<clus scale="   92.818">  7  8 -1 -1</clus>
<clus scale="   92.898">  5  6 -1 -1</clus>
<clus scale="   95.811">  2  7  1 -1</clus>
<clus scale="   85.475">  1  5  2 -1</clus>
</clustering>
</event>
<event>
 9    1  0.3288491E-005  0.1069714E+03  0.7546771E-02  0.1266301E+00
          2   -1    0    0  502    0 -0.00000000000E+00  0.00000000000E+00  0.35637787913E+03  0.35637787913E+03  0.00000000000E+00 0. -1.
         21   -1    0    0  501  502  0.00000000000E+00 -0.00000000000E+00 -0.63091939895E+02  0.63091939895E+02  0.00000000000E+00 0.  1.
         23    2    1    2    0    0 -0.50124892933E+02 -0.14043046462E+02  0.24712441378E+03  0.26864236407E+03  0.91588928587E+02 0.  0.
         23    2    1    2    0    0  0.67910121760E+02 -0.54727096597E+00  0.54518390846E+02  0.12635238751E+03  0.91545544659E+02 0.  0.
        -13    1    4    4    0    0  0.34461245440E+00  0.34292292292E+02  0.32405254897E+02  0.47182418477E+02  0.00000000000E+00 0.  1.
         13    1    4    4    0    0  0.67565509306E+02 -0.34839563258E+02  0.22113135949E+02  0.79169969036E+02  0.00000000000E+00 0. -1.
        -13    1    3    3    0    0 -0.50824253227E+02  0.28643009751E+02  0.10352955233E+03  0.11883557939E+03  0.00000000000E+00 0.  1.
         13    1    3    3    0    0  0.69936029370E+00 -0.42686056213E+02  0.14359486145E+03  0.14980678467E+03  0.00000000000E+00 0. -1.
          2    1    1    2  501    0 -0.17785228827E+02  0.14590317428E+02 -0.83568653930E+01  0.24475067442E+02  0.00000000000E+00 0. -1.
<scales pt_clust_5="13000.00000" pt_clust_6="13000.00000" pt_clust_7="13000.00000" pt_clust_8="13000.00000" pt_clust_9="23.00417"></scales>
<clustering>
<clus scale="   23.004">  2  9  1 -1</clus>
<clus scale="   91.546">  5  6 -1 -1</clus>
<clus scale="   91.589">  7  8 -1 -1</clus>
<clus scale="  106.934">  2  5  1 -1</clus>
<clus scale="   23.004">  2  5  1 -1</clus>
</clustering>
</event>
<event>
 9    1  0.4040809E-005  0.1690769E+03  0.7546771E-02  0.1205705E+00
         21   -1    0    0  501  502  0.00000000000E+00  0.00000000000E+00  0.62366661087E+03  0.62366661087E+03  0.00000000000E+00 0. -1.
          2   -1    0    0  502    0 -0.00000000000E+00 -0.00000000000E+00 -0.20997927963E+03  0.20997927963E+03  0.00000000000E+00 0. -1.
         23    2    1    2    0    0 -0.39040573289E+01  0.17091197804E+02 -0.40659234601E+02  0.10199823991E+03  0.91886434692E+02 0.  0.
         23    2    1    2    0    0  0.10897260013E+03  0.22694842816E+02 -0.79382718728E+02  0.18622187478E+03  0.12643926267E+03 0.  0.
        -11    1    3    3    0    0  0.13177050942E+02 -0.32976505139E+02 -0.38977407153E+00  0.35513891458E+02  0.00000000000E+00 0. -1.
         11    1    3    3    0    0 -0.17081108271E+02  0.50067702942E+02 -0.40269460529E+02  0.66484348451E+02  0.00000000000E+00 0.  1.
        -13    1    4    4    0    0 -0.16665246127E+02 -0.23870006392E+02 -0.33988391492E+02  0.44751741752E+02  0.00000000000E+00 0.  1.
         13    1    4    4    0    0  0.12563784626E+03  0.46564849209E+02 -0.45394327236E+02  0.14147013303E+03  0.00000000000E+00 0. -1.
          2    1    1    2  501    0 -0.10506854280E+03 -0.39786040620E+02  0.53372928456E+03  0.54542577581E+03  0.00000000000E+00 0. -1.
<scales pt_clust_5="13000.00000" pt_clust_6="13000.00000" pt_clust_7="13000.00000" pt_clust_8="13000.00000" pt_clust_9="112.25023"></scales>
<clustering>
<clus scale="   91.886">  5  6 -1 -1</clus>
<clus scale="   93.544">  2  5  1 -1</clus>
<clus scale="  112.250">  1  9  2 -1</clus>
<clus scale="  126.439">  7  8 -1 -1</clus>
<clus scale="  112.250">  1  5  2 -1</clus>
</clustering>
</event>
<event>
 9    1  0.3288491E-005  0.9800303E+02  0.7546771E-02  0.1285184E+00
         -1   -1    0    0    0  501 -0.00000000000E+00  0.00000000000E+00  0.60572532205E+02  0.60572532205E+02  0.00000000000E+00 0.  1.
         21   -1    0    0  501  502  0.00000000000E+00 -0.00000000000E+00 -0.39931754795E+03  0.39931754795E+03  0.00000000000E+00 0.  1.
         23    2    1    2    0    0  0.19444656397E+00  0.51813317508E+02 -0.31809417437E+02  0.10737326491E+03  0.88501532745E+02 0.  0.
         23    2    1    2    0    0  0.12531044465E+02 -0.20528227442E+02 -0.78663487435E+02  0.12175968842E+03  0.89772168684E+02 0.  0.
        -11    1    4    4    0    0 -0.11028636800E+02  0.32715821247E+02 -0.25563281489E+02  0.42958551535E+02  0.00000000000E+00 0.  1.
         11    1    4    4    0    0  0.23559681265E+02 -0.53244048688E+02 -0.53100205946E+02  0.78801136880E+02  0.00000000000E+00 0. -1.
        -13    1    3    3    0    0  0.20131668595E+02 -0.17121212041E+02 -0.23075118215E+02  0.35083914588E+02  0.00000000000E+00 0. -1.
         13    1    3    3    0    0 -0.19937222031E+02  0.68934529549E+02 -0.87342992215E+01  0.72289350318E+02  0.00000000000E+00 0.  1.
         -1    1    1    2    0  502 -0.12725491029E+02 -0.31285090066E+02 -0.22827211087E+03  0.23075712683E+03  0.00000000000E+00 0.  1.
<scales pt_clust_5="13000.00000" pt_clust_6="13000.00000" pt_clust_7="13000.00000" pt_clust_8="13000.00000" pt_clust_9="33.77418"></scales>
<clustering>
<clus scale="   33.774">  2  9  1 -1</clus>
<clus scale="   88.502">  7  8 -1 -1</clus>
<clus scale="   89.772">  5  6 -1 -1</clus>
<clus scale="   96.840">  1  7  2 -1</clus>
<clus scale="   33.774">  2  5  1 -1</clus>
</clustering>
</event>
<event>
 9    1  0.3288491E-005  0.1034261E+03  0.7546771E-02  0.1274530E+00
         21   -1    0    0  501  502  0.00000000000E+00  0.00000000000E+00  0.30263656861E+02  0.30263656861E+02  0.00000000000E+00 0.  1.
          1   -1    0    0  502    0 -0.00000000000E+00 -0.00000000000E+00 -0.57291396620E+03  0.57291396620E+03  0.00000000000E+00 0. -1.
         23    2    1    2    0    0  0.51670334858E+02  0.11939857877E+02 -0.38640034819E+03  0.40120476867E+03  0.94061966870E+02 0.  0.
         23    2    1    2    0    0 -0.19118810707E+02 -0.13440565498E+02 -0.12728725724E+03  0.15837592715E+03  0.91294636856E+02 0.  0.
        -11    1    4    4    0    0 -0.47669594834E+02 -0.29881936612E+02 -0.10328245914E+03  0.11761201798E+03  0.00000000000E+00 0.  1.
         11    1    4    4    0    0  0.28550784128E+02  0.16441371114E+02 -0.24004798103E+02  0.40763909165E+02  0.00000000000E+00 0. -1.
        -11    1    3    3    0    0  0.15069495821E+02 -0.38469068440E+02 -0.10176118551E+03  0.10982849270E+03  0.00000000000E+00 0.  1.
         11    1    3    3    0    0  0.36600839038E+02  0.50408926317E+02 -0.28463916267E+03  0.29137627597E+03  0.00000000000E+00 0. -1.
          1    1    1    2  501    0 -0.32551524152E+02  0.15007076207E+01 -0.28962703912E+02  0.43596927252E+02  0.00000000000E+00 0. -1.
<scales pt_clust_5="13000.00000" pt_clust_6="13000.00000" pt_clust_7="13000.00000" pt_clust_8="13000.00000" pt_clust_9="32.58610"></scales>
<clustering>
<clus scale="   32.586">  1  9  2 -1</clus>
<clus scale="   91.295">  5  6 -1 -1</clus>
<clus scale="   94.062">  7  8 -1 -1</clus>
<clus scale="  100.916">  1  5  2 -1</clus>
<clus scale="   32.586">  1  5  2 -1</clus>
</clustering>
</event>
<event>
 9    1  0.3288491E-005  0.1059796E+03  0.7546771E-02  0.1269338E+00
         -1   -1    0    0    0  501 -0.00000000000E+00  0.00000000000E+00  0.20232694694E+03  0.20232694694E+03  0.00000000000E+00 0.  1.
         21   -1    0    0  501  502  0.00000000000E+00 -0.00000000000E+00 -0.13635355346E+03  0.13635355346E+03  0.00000000000E+00 0.  1.
         23    2    1    2    0    0 -0.59683903515E+02  0.26707295840E+02  0.10002338568E+03  0.14878450707E+03  0.88638049795E+02 0.  0.
         23    2    1    2    0    0  0.32170353689E+02 -0.21352602557E+02  0.42872895778E+02  0.10802537065E+03  0.91326503373E+02 0.  0.
        -13    1    4    4    0    0  0.31586297786E+02  0.32167996606E+02  0.13978415325E+02  0.47200321063E+02  0.00000000000E+00 0.  1.
         13    1    4    4    0    0  0.58405590326E+00 -0.53520599163E+02  0.28894480453E+02  0.60825049583E+02  0.00000000000E+00 0. -1.
        -13    1    3    3    0    0 -0.11353076710E+02  0.48269467672E+02  0.21396632275E+02  0.54006015710E+02  0.00000000000E+00 0.  1.
         13    1    3    3    0    0 -0.48330826805E+02 -0.21562171831E+02  0.78626753403E+02  0.94778491360E+02  0.00000000000E+00 0. -1.
         -1    1    1    2    0  502  0.27513549826E+02 -0.53546932831E+01 -0.76922887977E+02  0.81870622685E+02  0.00000000000E+00 0.  1.
<scales pt_clust_5="13000.00000" pt_clust_6="13000.00000" pt_clust_7="13000.00000" pt_clust_8="13000.00000" pt_clust_9="28.02977"></scales>
<clustering>
<clus scale="   28.030">  2  9  1 -1</clus>
<clus scale="   88.638">  7  8 -1 -1</clus>
<clus scale="   91.327">  5  6 -1 -1</clus>
<clus scale="  103.672">  1  7  2 -1</clus>
<clus scale="   28.030">  2  5  1 -1</clus>
</clustering>
</event>
<event>
 9    1  0.3288491E-005  0.1202453E+03  0.7546771E-02  0.1242959E+00
         21   -1    0    0  501  502  0.00000000000E+00  0.00000000000E+00  0.11700656969E+03  0.11700656969E+03  0.00000000000E+00 0.  1.
         -1   -1    0    0    0  501 -0.00000000000E+00 -0.00000000000E+00 -0.31125091272E+03  0.31125091272E+03  0.00000000000E+00 0.  1.
         23    2    1    2    0    0  0.84941121790E+02 -0.23641029157E+02 -0.23147924566E+03  0.26369625743E+03  0.90438833343E+02 0.  0.
         23    2    1    2    0    0 -0.31848183943E+02  0.15424042726E+02  0.51162390857E+02  0.10906028947E+03  0.89578728422E+02 0.  0.
        -11    1    3    3    0    0  0.71011135775E+02 -0.56369729108E+02 -0.16222731861E+03  0.18584356504E+03  0.00000000000E+00 0.  1.
         11    1    3    3    0    0  0.13929986014E+02  0.32728699950E+02 -0.69251927052E+02  0.77852692383E+02  0.00000000000E+00 0. -1.
        -13    1    4    4    0    0  0.39220687379E+01  0.20625044241E+02  0.66543941281E+02  0.69777297127E+02  0.00000000000E+00 0.  1.
         13    1    4    4    0    0 -0.35770252681E+02 -0.52010015156E+01 -0.15381550424E+02  0.39282992338E+02  0.00000000000E+00 0. -1.
         -1    1    1    2    0  502 -0.53092937847E+02  0.82169864319E+01 -0.13927488222E+02  0.55500935518E+02  0.00000000000E+00 0.  1.
<scales pt_clust_5="13000.00000" pt_clust_6="13000.00000" pt_clust_7="13000.00000" pt_clust_8="13000.00000" pt_clust_9="53.72503"></scales>
<clustering>
<clus scale="   53.725">  1  9  2 -1</clus>
<clus scale="   89.579">  7  8 -1 -1</clus>
<clus scale="   90.439">  5  6 -1 -1</clus>
<clus scale="  119.600">  1  7  2 -1</clus>
<clus scale="   53.725">  1  5  2 -1</clus>
</clustering>
</event>
<event>
 9    1  0.3288491E-005  0.1221809E+03  0.7546771E-02  0.1240787E+00
         -1   -1    0    0    0  501 -0.00000000000E+00  0.00000000000E+00  0.15448554964E+03  0.15448554964E+03  0.00000000000E+00 0.  1.
         21   -1    0    0  501  502  0.00000000000E+00 -0.00000000000E+00 -0.21118841514E+03  0.21118841514E+03  0.00000000000E+00 0.  1.
         23    2    1    2    0    0  0.69611784918E+02 -0.40021660270E+02  0.55019357908E+02  0.13089424391E+03  0.87513652950E+02 0.  0.
         23    2    1    2    0    0 -0.80308003848E+02  0.22267975197E+02 -0.27830966191E+01  0.12388636770E+03  0.91623404620E+02 0.  0.
        -13    1    3    3    0    0  0.31440077773E+02 -0.65582554142E+02  0.31085651981E+02  0.79094043121E+02  0.00000000000E+00 0.  1.
         13    1    3    3    0    0  0.38171707145E+02  0.25560893872E+02  0.23933705927E+02  0.51800200784E+02  0.00000000000E+00 0. -1.
        -13    1    4    4    0    0 -0.37509318640E+02  0.72441272078E+01 -0.46982304806E+02  0.60553805238E+02  0.00000000000E+00 0. -1.
         13    1    4    4    0    0 -0.42798685208E+02  0.15023847989E+02  0.44199208187E+02  0.63332562465E+02  0.00000000000E+00 0.  1.
         -1    1    1    2    0  502  0.10696218930E+02  0.17753685073E+02 -0.10893912678E+03  0.11089335317E+03  0.00000000000E+00 0.  1.
<scales pt_clust_5="13000.00000" pt_clust_6="13000.00000" pt_clust_7="13000.00000" pt_clust_8="13000.00000" pt_clust_9="20.72685"></scales>
<clustering>
<clus scale="   20.727">  2  9  1 -1</clus>
<clus scale="   87.514">  5  6 -1 -1</clus>
<clus scale="   91.623">  7  8 -1 -1</clus>
<clus scale="  119.130">  1  5  2 -1</clus>
<clus scale="   20.727">  2  5  1 -1</clus>
</clustering>
</event>
<event>
 9    1  0.3288491E-005  0.9624656E+02  0.7546771E-02  0.1288678E+00
          2   -1    0    0  502    0 -0.00000000000E+00  0.00000000000E+00  0.22414099055E+03  0.22414099055E+03  0.00000000000E+00 0. -1.
         21   -1    0    0  501  502  0.00000000000E+00 -0.00000000000E+00 -0.76790535681E+02  0.76790535681E+02  0.00000000000E+00 0. -1.
         23    2    1    2    0    0 -0.69263207335E+01  0.17804431307E+02  0.56886846849E+02  0.10937813259E+03  0.91446655765E+02 0.  0.
         23    2    1    2    0    0  0.57376135114E+02 -0.79479326016E+01  0.29389525030E+02  0.11172621813E+03  0.90905517559E+02 0.  0.
        -11    1    3    3    0    0 -0.17993775877E+02 -0.33062155455E+02  0.39330898557E+02  0.54440808911E+02  0.00000000000E+00 0.  1.
         11    1    3    3    0    0  0.11067455144E+02  0.50866586761E+02  0.17555948292E+02  0.54937323675E+02  0.00000000000E+00 0. -1.
        -11    1    4    4    0    0  0.42197582576E+01 -0.43135688857E+02  0.18181534482E+02  0.47000661794E+02  0.00000000000E+00 0.  1.
         11    1    4    4    0    0  0.53156376856E+02  0.35187756256E+02  0.11207990548E+02  0.64725556335E+02  0.00000000000E+00 0. -1.
          2    1    1    2  501    0 -0.50449814380E+02 -0.98564987053E+01  0.61074082988E+02  0.79827175514E+02  0.00000000000E+00 0. -1.
<scales pt_clust_5="13000.00000" pt_clust_6="13000.00000" pt_clust_7="13000.00000" pt_clust_8="13000.00000" pt_clust_9="51.40367"></scales>
<clustering>
<clus scale="   51.404">  2  9  1 -1</clus>
<clus scale="   90.906">  7  8 -1 -1</clus>
<clus scale="   91.447">  5  6 -1 -1</clus>
<clus scale="   95.733">  2  7  1 -1</clus>
<clus scale="   51.404">  2  5  1 -1</clus>
</clustering>
</event>
<event>
 9    1  0.3288491E-005  0.1000380E+03  0.7546771E-02  0.1280729E+00
          1   -1    0    0  502    0 -0.00000000000E+00  0.00000000000E+00  0.11825412427E+03  0.11825412427E+03  0.00000000000E+00 0. -1.
         21   -1    0    0  501  502  0.00000000000E+00 -0.00000000000E+00 -0.60556972153E+03  0.60556972153E+03  0.00000000000E+00 0. -1.
         23    2    1    2    0    0  0.57038067177E+01  0.32223651398E+02  0.58767790566E+02  0.11569966881E+03  0.94137468816E+02 0.  0.
         23    2    1    2    0    0 -0.69181785455E+02 -0.13954384729E+02 -0.90513471083E+02  0.14779041879E+03  0.93104646218E+02 0.  0.
        -13    1    4    4    0    0 -0.52814335678E+02 -0.44654457442E+02 -0.89336909075E+02  0.11297990063E+03  0.00000000000E+00 0. -1.
         13    1    4    4    0    0 -0.16367449777E+02  0.30700072713E+02 -0.11765620078E+01  0.34810518166E+02  0.00000000000E+00 0.  1.
        -13    1    3    3    0    0 -0.33042987628E+02  0.31620397502E+02  0.61740023131E+02  0.76834360970E+02  0.00000000000E+00 0. -1.
         13    1    3    3    0    0  0.38746794346E+02  0.60325389657E+00 -0.29722325648E+01  0.38865307843E+02  0.00000000000E+00 0.  1.
          1    1    1    2  501    0  0.63477978738E+02 -0.18269266669E+02 -0.45556991675E+03  0.46033375820E+03  0.00000000000E+00 0. -1.
<scales pt_clust_5="13000.00000" pt_clust_6="13000.00000" pt_clust_7="13000.00000" pt_clust_8="13000.00000" pt_clust_9="66.05467"></scales>
<clustering>
<clus scale="   66.055">  2  9  1 -1</clus>
<clus scale="   93.105">  5  6 -1 -1</clus>
<clus scale="   94.137">  7  8 -1 -1</clus>
<clus scale="   99.067">  2  5  1 -1</clus>
<clus scale="   66.055">  2  5  1 -1</clus>
</clustering>
</event>
<event>
 9    1  0.3288491E-005  0.1405880E+03  0.7546771E-02  0.1214461E+00
          2   -1    0    0  502    0 -0.00000000000E+00  0.00000000000E+00  0.36532805315E+03  0.36532805315E+03  0.00000000000E+00 0. -1.
         21   -1    0    0  501  502  0.00000000000E+00 -0.00000000000E+00 -0.73722296826E+02  0.73722296826E+02  0.00000000000E+00 0. -1.
         23    2    1    2    0    0  0.60995979899E+02  0.10902123894E+03  0.19271658332E+03  0.24823919806E+03  0.94217184555E+02 0.  0.
         23    2    1    2    0    0 -0.45056952507E+02 -0.67700369536E+02  0.80215549127E+02  0.14274691291E+03  0.85607697191E+02 0.  0.
        -11    1    4    4    0    0 -0.42037076185E+02 -0.10122678534E+00  0.57788255370E+02  0.71460537920E+02  0.00000000000E+00 0.  1.
         11    1    4    4    0    0 -0.30198763223E+01 -0.67599142750E+02  0.22427293756E+02  0.71286374987E+02  0.00000000000E+00 0. -1.
        -13    1    3    3    0    0  0.92283832645E+01  0.10201881478E+03  0.10915437977E+03  0.14969195119E+03  0.00000000000E+00 0.  1.
         13    1    3    3    0    0  0.51767596634E+02  0.70024241585E+01  0.83562203546E+02  0.98547246876E+02  0.00000000000E+00 0. -1.
          2    1    1    2  501    0 -0.15939027391E+02 -0.41320869400E+02  0.18673623872E+02  0.48064239000E+02  0.00000000000E+00 0. -1.
<scales pt_clust_5="13000.00000" pt_clust_6="13000.00000" pt_clust_7="13000.00000" pt_clust_8="13000.00000" pt_clust_9="44.28845"></scales>
<clustering>
<clus scale="   44.288">  2  9  1 -1</clus>
<clus scale="   85.608">  5  6 -1 -1</clus>
<clus scale="   94.217">  7  8 -1 -1</clus>
<clus scale="  134.970">  2  5  1 -1</clus>
<clus scale="   44.288">  2  5  1 -1</clus>
</clustering>
</event>
<event>
 9    1  0.3288491E-005  0.9666754E+02  0.7546771E-02  0.1287871E+00
         -3   -1    0    0    0  501 -0.00000000000E+00  0.00000000000E+00  0.26891356352E+02  0.26891356352E+02  0.00000000000E+00 0.  1.
         21   -1    0    0  501  502  0.00000000000E+00 -0.00000000000E+00 -0.55555084682E+03  0.55555084682E+03  0.00000000000E+00 0. -1.
         23    2    1    2    0    0  0.39485910624E+02  0.12035037772E+02 -0.14431588208E+03  0.17609548590E+03  0.92079134776E+02 0.  0.
         23    2    1    2    0    0 -0.13429897105E+02 -0.23950228442E+01 -0.20453732220E+03  0.22440676487E+03  0.91305978311E+02 0.  0.
        -11    1    3    3    0    0  0.45438617528E+02 -0.13653489159E+02 -0.24472332679E+02  0.53385211396E+02  0.00000000000E+00 0.  1.
         11    1    3    3    0    0 -0.59527069036E+01  0.25688526931E+02 -0.11984354940E+03  0.12271027450E+03  0.00000000000E+00 0. -1.
        -11    1    4    4    0    0  0.13188202381E+02  0.39844747766E+02 -0.10416685948E+03  0.11230435086E+03  0.00000000000E+00 0. -1.
         11    1    4    4    0    0 -0.26618099487E+02 -0.42239770610E+02 -0.10037046271E+03  0.11210241401E+03  0.00000000000E+00 0.  1.
         -3    1    1    2    0  502 -0.26056013519E+02 -0.96400149279E+01 -0.17980628620E+03  0.18193995242E+03  0.00000000000E+00 0.  1.
<scales pt_clust_5="13000.00000" pt_clust_6="13000.00000" pt_clust_7="13000.00000" pt_clust_8="13000.00000" pt_clust_9="27.78211"></scales>
<clustering>
<clus scale="   27.782">  2  9  1 -1</clus>
<clus scale="   91.306">  7  8 -1 -1</clus>
<clus scale="   92.079">  5  6 -1 -1</clus>
<clus scale="   95.931">  2  7  1 -1</clus>
<clus scale="   27.782">  2  5  1 -1</clus>
</clustering>
</event>
<event>
 9    1  0.3288491E-005  0.9754056E+02  0.7546771E-02  0.1288384E+00
          1   -1    0    0  502    0 -0.00000000000E+00  0.00000000000E+00  0.10097030883E+03  0.10097030883E+03  0.00000000000E+00 0. -1.
         21   -1    0    0  501  502  0.00000000000E+00 -0.00000000000E+00 -0.13005694818E+03  0.13005694818E+03  0.00000000000E+00 0.  1.
         23    2    1    2    0    0  0.40753818620E+02  0.24346547225E-01 -0.54459934685E+01  0.10197475558E+03  0.93318366921E+02 0.  0.
         23    2    1    2    0    0 -0.11598240393E+02 -0.18139322183E+02 -0.27034504335E+02  0.94560207239E+02  0.88018260486E+02 0.  0.
        -11    1    4    4    0    0  0.24668181034E+02 -0.16749410871E+02  0.19439225675E+02  0.35594176699E+02  0.00000000000E+00 0.  1.
         11    1    4    4    0    0 -0.36266421428E+02 -0.13899113119E+01 -0.46473730010E+02  0.58966030540E+02  0.00000000000E+00 0. -1.
        -13    1    3    3    0    0  0.24959817636E+02  0.39052766431E+02 -0.28062906409E+02  0.54181526173E+02  0.00000000000E+00 0.  1.
         13    1    3    3    0    0  0.15794000985E+02 -0.39028419884E+02  0.22616912941E+02  0.47793229402E+02  0.00000000000E+00 0. -1.
          1    1    1    2  501    0 -0.29155578227E+02  0.18114975635E+02  0.33938584579E+01  0.34492294201E+02  0.00000000000E+00 0. -1.
<scales pt_clust_5="13000.00000" pt_clust_6="13000.00000" pt_clust_7="13000.00000" pt_clust_8="13000.00000" pt_clust_9="34.32494"></scales>
<clustering>
<clus scale="   34.325">  2  9  1 -1</clus>
<clus scale="   88.018">  5  6 -1 -1</clus>
<clus scale="   92.483">  2  5  1 -1</clus>
<clus scale="   93.318">  7  8 -1 -1</clus>
<clus scale="   34.325">  2  5  1 -1</clus>
</clustering>
</event>
<event>
 9    1  0.3288491E-005  0.1815407E+03  0.7546771E-02  0.1166393E+00
         21   -1    0    0  501  502  0.00000000000E+00  0.00000000000E+00  0.29672991297E+03  0.29672991297E+03  0.00000000000E+00 0. -1.
          1   -1    0    0  502    0 -0.00000000000E+00 -0.00000000000E+00 -0.33436879249E+03  0.33436879249E+03  0.00000000000E+00 0. -1.
         23    2    1    2    0    0 -0.13111320071E+03 -0.79415941024E+02 -0.23993288913E+03  0.29892311193E+03  0.91047638464E+02 0.  0.
         23    2    1    2    0    0  0.13533477437E+03  0.11408022209E+03  0.97846486742E+02  0.22204512955E+03  0.91653185226E+02 0.  0.
        -11    1    4    4    0    0  0.42308013348E+02  0.16299393716E+02  0.71302114120E+02  0.84496329547E+02  0.00000000000E+00 0. -1.
         11    1    4    4    0    0  0.93026761024E+02  0.97780828372E+02  0.26544372622E+02  0.13754880000E+03  0.00000000000E+00 0.  1.
        -13    1    3    3    0    0 -0.37976712586E+02 -0.41768921834E+02 -0.25135722006E+02  0.61795453318E+02  0.00000000000E+00 0.  1.
         13    1    3    3    0    0 -0.93136488122E+02 -0.37647019190E+02 -0.21479716712E+03  0.23712765861E+03  0.00000000000E+00 0. -1.
          1    1    1    2  501    0 -0.42215736642E+01 -0.34664281064E+02  0.10444752287E+03  0.11013046399E+03  0.00000000000E+00 0. -1.
<scales pt_clust_5="13000.00000" pt_clust_6="13000.00000" pt_clust_7="13000.00000" pt_clust_8="13000.00000" pt_clust_9="34.92040"></scales>
<clustering>
<clus scale="   34.920">  1  9  2 -1</clus>
<clus scale="   91.048">  7  8 -1 -1</clus>
<clus scale="   91.653">  5  6 -1 -1</clus>
<clus scale="  181.236">  2  7  1 -1</clus>
<clus scale="   34.920">  1  5  2 -1</clus>
</clustering>
</event>
<event>
 9    1  0.3288491E-005  0.1165836E+03  0.7546771E-02  0.1249044E+00
          2   -1    0    0  502    0 -0.00000000000E+00  0.00000000000E+00  0.70002082198E+03  0.70002082198E+03  0.00000000000E+00 0. -1.
         21   -1    0    0  501  502  0.00000000000E+00 -0.00000000000E+00 -0.31864497259E+02  0.31864497259E+02  0.00000000000E+00 0. -1.
         23    2    1    2    0    0  0.74268189079E+02 -0.10224755092E+02  0.34620363933E+03  0.36595551888E+03  0.91903059756E+02 0.  0.
         23    2    1    2    0    0 -0.68790954348E+02 -0.19745071224E+02  0.31355407421E+03  0.33432715396E+03  0.91304026085E+02 0.  0.
        -11    1    3    3    0    0 -0.11750531979E+02  0.21207516764E+02  0.44728814978E+02  0.50877309859E+02  0.00000000000E+00 0.  1.
         11    1    3    3    0    0  0.86018721058E+02 -0.31432271856E+02  0.30147482435E+03  0.31507820903E+03  0.00000000000E+00 0. -1.
        -13    1    4    4    0    0 -0.26507098119E+02 -0.43201641902E+02  0.24649878560E+03  0.25165583525E+03  0.00000000000E+00 0. -1.
         13    1    4    4    0    0 -0.42283856229E+02  0.23456570677E+02  0.67055288614E+02  0.82671318706E+02  0.00000000000E+00 0.  1.
          2    1    1    2  501    0 -0.54772347301E+01  0.29969826317E+02  0.83986111825E+01  0.31602646401E+02  0.00000000000E+00 0. -1.
<scales pt_clust_5="13000.00000" pt_clust_6="13000.00000" pt_clust_7="13000.00000" pt_clust_8="13000.00000" pt_clust_9="30.46622"></scales>
<clustering>
<clus scale="   30.466">  2  9  1 -1</clus>
<clus scale="   91.304">  7  8 -1 -1</clus>
<clus scale="   91.903">  5  6 -1 -1</clus>
<clus scale="  116.112">  2  7  1 -1</clus>
<clus scale="   30.466">  2  5  1 -1</clus>
</clustering>
</event>
<event>
 9    1  0.3288491E-005  0.1063104E+03  0.7546771E-02  0.1268135E+00
         -3   -1    0    0    0  501 -0.00000000000E+00  0.00000000000E+00  0.68953980234E+02  0.68953980234E+02  0.00000000000E+00 0.  1.
         21   -1    0    0  501  502  0.00000000000E+00 -0.00000000000E+00 -0.21314626457E+03  0.21314626457E+03  0.00000000000E+00 0. -1.
         23    2    1    2    0    0 -0.56553760052E+02  0.11158995110E+02 -0.31224468329E+02  0.11127164748E+03  0.89908626742E+02 0.  0.
         23    2    1    2    0    0  0.51084719102E+02  0.10497388376E+02 -0.86123068167E+02  0.13590654353E+03  0.91288345451E+02 0.  0.
        -11    1    4    4    0    0 -0.21924908192E+02 -0.54938186615E+01 -0.99574466628E+00  0.22624658012E+02  0.00000000000E+00 0.  1.
         11    1    4    4    0    0  0.73009627293E+02  0.15991207037E+02 -0.85127323500E+02  0.11328188552E+03  0.00000000000E+00 0. -1.
        -11    1    3    3    0    0 -0.56623507701E+02  0.44714283433E+02 -0.13784377599E+02  0.73454733224E+02  0.00000000000E+00 0.  1.
         11    1    3    3    0    0  0.69747649329E-01 -0.33555288322E+02 -0.17440090730E+02  0.37816914256E+02  0.00000000000E+00 0. -1.
         -3    1    1    2    0  502  0.54690409500E+01 -0.21656383486E+02 -0.26844747840E+02  0.34922053794E+02  0.00000000000E+00 0.  1.
<scales pt_clust_5="13000.00000" pt_clust_6="13000.00000" pt_clust_7="13000.00000" pt_clust_8="13000.00000" pt_clust_9="22.33628"></scales>
<clustering>
<clus scale="   22.336">  2  9  1 -1</clus>
<clus scale="   89.909">  7  8 -1 -1</clus>
<clus scale="   91.288">  5  6 -1 -1</clus>
<clus scale="  105.128">  1  7  2 -1</clus>
<clus scale="   22.336">  2  5  1 -1</clus>
</clustering>
</event>
<event>
 9    1  0.3288491E-005  0.1159331E+03  0.7546771E-02  0.1254253E+00
         21   -1    0    0  501  502  0.00000000000E+00  0.00000000000E+00  0.34099049872E+03  0.34099049872E+03  0.00000000000E+00 0. -1.
          3   -1    0    0  502    0 -0.00000000000E+00 -0.00000000000E+00 -0.11740035652E+03  0.11740035652E+03  0.00000000000E+00 0. -1.
         23    2    1    2    0    0 -0.18780699585E+02  0.47567854672E+02 -0.56580138230E+02  0.12627590414E+03  0.10064231937E+03 0.  0.
         23    2    1    2    0    0  0.42098075501E+02 -0.86591215774E+02  0.18894596363E+03  0.23019145671E+03  0.89539058302E+02 0.  0.
        -13    1    4    4    0    0  0.69005163166E+02 -0.54725546107E+02  0.11007114135E+03  0.14096898275E+03  0.00000000000E+00 0. -1.
         13    1    4    4    0    0 -0.26907087665E+02 -0.31865669667E+02  0.78874822279E+02  0.89222473960E+02  0.00000000000E+00 0.  1.
        -13    1    3    3    0    0  0.13706410869E+02 -0.27702948634E+02 -0.15449785700E+02  0.34554521269E+02  0.00000000000E+00 0. -1.
         13    1    3    3    0    0 -0.32487110454E+02  0.75270803306E+02 -0.41130352530E+02  0.91721382868E+02  0.00000000000E+00 0.  1.
          3    1    1    2  501    0 -0.23317375916E+02  0.39023361103E+02  0.91224316806E+02  0.10192349439E+03  0.00000000000E+00 0. -1.
<scales pt_clust_5="13000.00000" pt_clust_6="13000.00000" pt_clust_7="13000.00000" pt_clust_8="13000.00000" pt_clust_9="45.45902"></scales>
<clustering>
<clus scale="   45.459">  1  9  2 -1</clus>
<clus scale="   89.539">  5  6 -1 -1</clus>
<clus scale="  100.642">  7  8 -1 -1</clus>
<clus scale="  106.437">  1  5  2 -1</clus>
<clus scale="   45.459">  1  5  2 -1</clus>
</clustering>
</event>
<event>
 9    1  0.3288491E-005  0.1157327E+03  0.7546771E-02  0.1251015E+00
         -3   -1    0    0    0  501 -0.00000000000E+00  0.00000000000E+00  0.12834125103E+03  0.12834125103E+03  0.00000000000E+00 0.  1.
         21   -1    0    0  501  502  0.00000000000E+00 -0.00000000000E+00 -0.14124173830E+03  0.14124173830E+03  0.00000000000E+00 0. -1.
         23    2    1    2    0    0 -0.34052885801E+02  0.72866741318E+02  0.23061852990E+02  0.12373645393E+03  0.91157555612E+02 0.  0.
         23    2    1    2    0    0  0.44148345689E+02 -0.43690948856E+02 -0.17872765354E+02  0.11006416689E+03  0.89088212758E+02 0.  0.
        -11    1    3    3    0    0  0.57017334327E+00 -0.21256916968E+02  0.47521539560E+01  0.21789093232E+02  0.00000000000E+00 0.  1.
         11    1    3    3    0    0 -0.34623059145E+02  0.94123658287E+02  0.18309699034E+02  0.10194736069E+03  0.00000000000E+00 0. -1.
        -11    1    4    4    0    0  0.12249342402E+02  0.27159151588E+02 -0.12076833423E+02  0.32148340700E+02  0.00000000000E+00 0. -1.
         11    1    4    4    0    0  0.31899003288E+02 -0.70850100444E+02 -0.57959319307E+01  0.77915826188E+02  0.00000000000E+00 0.  1.
         -3    1    1    2    0  502 -0.10095459888E+02 -0.29175792462E+02 -0.18089574909E+02  0.35782368515E+02  0.00000000000E+00 0.  1.
<scales pt_clust_5="13000.00000" pt_clust_6="13000.00000" pt_clust_7="13000.00000" pt_clust_8="13000.00000" pt_clust_9="30.87305"></scales>
<clustering>
<clus scale="   30.873">  2  9  1 -1</clus>
<clus scale="   89.088">  7  8 -1 -1</clus>
<clus scale="   91.158">  5  6 -1 -1</clus>
<clus scale="  114.110">  2  7  1 -1</clus>
<clus scale="   30.873">  2  5  1 -1</clus>
</clustering>
</event>
<event>
 9    1  0.3288491E-005  0.1397277E+03  0.7546771E-02  0.1214192E+00
          1   -1    0    0  502    0 -0.00000000000E+00  0.00000000000E+00  0.10443212318E+04  0.10443212318E+04  0.00000000000E+00 0. -1.
         21   -1    0    0  501  502  0.00000000000E+00 -0.00000000000E+00 -0.23766479622E+02  0.23766479622E+02  0.00000000000E+00 0. -1.
         23    2    1    2    0    0  0.83151691672E+02 -0.63527822189E+02  0.53116726920E+03  0.54909424226E+03  0.91737838416E+02 0.  0.
         23    2    1    2    0    0 -0.96605057460E+02  0.46889880078E+02  0.46918675336E+03  0.48956756823E+03  0.89492996146E+02 0.  0.
        -11    1    4    4    0    0 -0.84970637518E+02 -0.50762109845E+01  0.32132285991E+03  0.33240661465E+03  0.00000000000E+00 0. -1.
         11    1    4    4    0    0 -0.11634419941E+02  0.51966091062E+02  0.14786389344E+03  0.15716095359E+03  0.00000000000E+00 0.  1.
        -13    1    3    3    0    0  0.69585609857E+02 -0.21681582168E+01  0.19383170168E+03  0.20595530240E+03  0.00000000000E+00 0.  1.
         13    1    3    3    0    0  0.13566081815E+02 -0.61359663972E+02  0.33733556752E+03  0.34313893986E+03  0.00000000000E+00 0. -1.
          1    1    1    2  501    0  0.13453365787E+02  0.16637942111E+02  0.20200729658E+02  0.29425900962E+02  0.00000000000E+00 0. -1.
<scales pt_clust_5="13000.00000" pt_clust_6="13000.00000" pt_clust_7="13000.00000" pt_clust_8="13000.00000" pt_clust_9="21.39659"></scales>
<clustering>
<clus scale="   21.397">  2  9  1 -1</clus>
<clus scale="   89.493">  5  6 -1 -1</clus>
<clus scale="   91.738">  7  8 -1 -1</clus>
<clus scale="  138.264">  2  5  1 -1</clus>
<clus scale="   21.397">  2  5  1 -1</clus>
</clustering>
</event>
<event>
 9    1  0.3288491E-005  0.1392541E+03  0.7546771E-02  0.1232103E+00
         -1   -1    0    0    0  501 -0.00000000000E+00  0.00000000000E+00  0.34389612722E+03  0.34389612722E+03  0.00000000000E+00 0.  1.
         21   -1    0    0  501  502  0.00000000000E+00 -0.00000000000E+00 -0.57095156488E+03  0.57095156488E+03  0.00000000000E+00 0.  1.
         23    2    1    2    0    0 -0.26559069919E+02  0.15433296353E+02  0.16186925451E+03  0.18823991433E+03  0.91044159403E+02 0.  0.
         23    2    1    2    0    0 -0.17353155960E+02 -0.11093147667E+03  0.13160191062E+03  0.19557469948E+03  0.91233084235E+02 0.  0.
        -11    1    4    4    0    0 -0.54291239462E+02 -0.57414745150E+02  0.63079552528E+02  0.10110895900E+03  0.00000000000E+00 0. -1.
         11    1    4    4    0    0  0.36938083502E+02 -0.53516731517E+02  0.68522358096E+02  0.94465740478E+02  0.00000000000E+00 0.  1.
        -11    1    3    3    0    0 -0.12390662485E+02  0.36099051318E+02  0.15841363928E+03  0.16294646708E+03  0.00000000000E+00 0. -1.
         11    1    3    3    0    0 -0.14168407434E+02 -0.20665754965E+02  0.34556152285E+01  0.25293447256E+02  0.00000000000E+00 0.  1.
         -1    1    1    2    0  502  0.43912225879E+02  0.95498180313E+02 -0.52052660279E+03  0.53103307829E+03  0.00000000000E+00 0.  1.
<scales pt_clust_5="13000.00000" pt_clust_6="13000.00000" pt_clust_7="13000.00000" pt_clust_8="13000.00000" pt_clust_9="105.20570"></scales>
<clustering>
<clus scale="   91.044">  7  8 -1 -1</clus>
<clus scale="   91.233">  5  6 -1 -1</clus>
<clus scale="   96.086">  1  7  2 -1</clus>
<clus scale="  105.206">  2  9  1 -1</clus>
<clus scale="  105.206">  2  5  1 -1</clus>
</clustering>
</event>
<event>
 9    1  0.3288491E-005  0.9870396E+02  0.7546771E-02  0.1285643E+00
         21   -1    0    0  501  502  0.00000000000E+00  0.00000000000E+00  0.19096686786E+03  0.19096686786E+03  0.00000000000E+00 0. -1.
          3   -1    0    0  502    0 -0.00000000000E+00 -0.00000000000E+00 -0.99481126264E+02  0.99481126264E+02  0.00000000000E+00 0. -1.
         23    2    1    2    0    0 -0.44700675150E+01  0.50207555946E+01 -0.91723118868E+01  0.96253664980E+02  0.95579533513E+02 0.  0.
         23    2    1    2    0    0  0.40441172239E+02 -0.34812983823E+02  0.29857505464E+02  0.10937561165E+03  0.90686942480E+02 0.  0.
        -13    1    3    3    0    0 -0.49820225737E+02  0.26705110895E+01  0.16795734035E+00  0.49892030742E+02  0.00000000000E+00 0.  1.
         13    1    3    3    0    0  0.45350158222E+02  0.23502445052E+01 -0.93402692271E+01  0.46361634238E+02  0.00000000000E+00 0. -1.
        -13    1    4    4    0    0 -0.21977004531E+02 -0.47096942909E+01 -0.14821423567E+02  0.26922937155E+02  0.00000000000E+00 0.  1.
         13    1    4    4    0    0  0.62418176770E+02 -0.30103289532E+02  0.44678929031E+02  0.82452674494E+02  0.00000000000E+00 0. -1.
          3    1    1    2  501    0 -0.35971104724E+02  0.29792228228E+02  0.70800548019E+02  0.84818717496E+02  0.00000000000E+00 0. -1.
<scales pt_clust_5="13000.00000" pt_clust_6="13000.00000" pt_clust_7="13000.00000" pt_clust_8="13000.00000" pt_clust_9="46.70650"></scales>
<clustering>
<clus scale="   46.707">  1  9  2 -1</clus>
<clus scale="   90.687">  7  8 -1 -1</clus>
<clus scale="   93.974">  1  7  2 -1</clus>
<clus scale="   95.580">  5  6 -1 -1</clus>
<clus scale="   46.707">  1  5  2 -1</clus>
</clustering>
</event>
<event>
 9    1  0.3288491E-005  0.1798275E+03  0.7546771E-02  0.1193190E+00
          1   -1    0    0  502    0 -0.00000000000E+00  0.00000000000E+00  0.10005378879E+04  0.10005378879E+04  0.00000000000E+00 0. -1.
         21   -1    0    0  501  502  0.00000000000E+00 -0.00000000000E+00 -0.11762819367E+03  0.11762819367E+03  0.00000000000E+00 0. -1.
         23    2    1    2    0    0  0.43269084064E+02 -0.97216445721E+00  0.54745025900E+02  0.11581708115E+03  0.92430620936E+02 0.  0.
         23    2    1    2    0    0 -0.19025422776E+03  0.46139356674E+02  0.82092863787E+03  0.84841048065E+03  0.86896512012E+02 0.  0.
        -11    1    3    3    0    0 -0.27942230249E+02 -0.44058825446E+01  0.46116175460E+01  0.28660897556E+02  0.00000000000E+00 0. -1.
         11    1    3    3    0    0  0.71211314313E+02  0.34337180874E+01  0.50133408354E+02  0.87156183597E+02  0.00000000000E+00 0.  1.
        -13    1    4    4    0    0 -0.12480646201E+03  0.19407694389E+02  0.66926061963E+03  0.68107495076E+03  0.00000000000E+00 0. -1.
         13    1    4    4    0    0 -0.65447765750E+02  0.26731662285E+02  0.15166801824E+03  0.16733552990E+03  0.00000000000E+00 0.  1.
          1    1    1    2  501    0  0.14698514370E+03 -0.45167192217E+02  0.72360304410E+01  0.15393851973E+03  0.00000000000E+00 0. -1.
<scales pt_clust_5="13000.00000" pt_clust_6="13000.00000" pt_clust_7="13000.00000" pt_clust_8="13000.00000" pt_clust_9="157.43865"></scales>
<clustering>
<clus scale="   86.897">  7  8 -1 -1</clus>
<clus scale="   92.431">  5  6 -1 -1</clus>
<clus scale="  102.062">  1  5  2 -1</clus>
<clus scale="  157.439">  2  9  1 -1</clus>
<clus scale="  157.439">  2  5  1 -1</clus>
</clustering>
</event>
<event>
 9    1  0.3288491E-005  0.1197289E+03  0.7546771E-02  0.1255194E+00
          1   -1    0    0  502    0 -0.00000000000E+00  0.00000000000E+00  0.76551470880E+02  0.76551470880E+02  0.00000000000E+00 0. -1.
         21   -1    0    0  501  502  0.00000000000E+00 -0.00000000000E+00 -0.30691104405E+03  0.30691104405E+03  0.00000000000E+00 0.  1.
         23    2    1    2    0    0 -0.17301901258E+02 -0.21398372174E+01 -0.96025303074E+00  0.93345586870E+02  0.91698101463E+02 0.  0.
         23    2    1    2    0    0  0.57068645298E+02 -0.27638052171E+01 -0.20569518179E+03  0.24356238139E+03  0.11725040265E+03 0.  0.
        -11    1    3    3    0    0  0.37128709427E+02  0.76428284380E+01  0.20354164014E+01  0.37961780914E+02  0.00000000000E+00 0.  1.
         11    1    3    3    0    0 -0.54430610685E+02 -0.97826656554E+01 -0.29956694322E+01  0.55383805956E+02  0.00000000000E+00 0. -1.
        -11    1    4    4    0    0  0.57673388354E+02 -0.27823242195E+02 -0.20871260435E+03  0.21831468971E+03  0.00000000000E+00 0.  1.
         11    1    4    4    0    0 -0.60474305627E+00  0.25059436978E+02  0.30174225653E+01  0.25247691672E+02  0.00000000000E+00 0. -1.
          1    1    1    2  501    0 -0.39766744040E+02  0.49036424345E+01 -0.23704138352E+02  0.46554546670E+02  0.00000000000E+00 0. -1.
<scales pt_clust_5="13000.00000" pt_clust_6="13000.00000" pt_clust_7="13000.00000" pt_clust_8="13000.00000" pt_clust_9="40.06796"></scales>
<clustering>
<clus scale="   40.068">  2  9  1 -1</clus>
<clus scale="   91.698">  5  6 -1 -1</clus>
<clus scale="   94.847">  1  5  2 -1</clus>
<clus scale="  117.250">  7  8 -1 -1</clus>
<clus scale="   40.068">  2  5  1 -1</clus>
</clustering>
</event>
<event>
 9    1  0.3288491E-005  0.2099082E+03  0.7546771E-02  0.1141653E+00
         21   -1    0    0  501  502  0.00000000000E+00  0.00000000000E+00  0.14444120230E+03  0.14444120230E+03  0.00000000000E+00 0.  1.
         -4   -1    0    0    0  501 -0.00000000000E+00 -0.00000000000E+00 -0.14850457174E+04  0.14850457174E+04  0.00000000000E+00 0.  1.
         23    2    1    2    0    0  0.17733231335E+03  0.56232794242E+02 -0.11729584812E+04  0.11912525353E+04  0.92963045061E+02 0.  0.
         23    2    1    2    0    0 -0.19358224076E+03 -0.42721586536E+02 -0.26208010342E+03  0.34146452157E+03  0.92805285329E+02 0.  0.
        -13    1    3    3    0    0  0.85445810124E+01 -0.20725216968E+02 -0.11881675458E+03  0.12091304997E+03  0.00000000000E+00 0. -1.
         13    1    3    3    0    0  0.16878773234E+03  0.76958011210E+02 -0.10541417266E+04  0.10703394853E+04  0.00000000000E+00 0.  1.
        -13    1    4    4    0    0 -0.14495330224E+03 -0.19465568053E+02 -0.24424693578E+03  0.28468743178E+03  0.00000000000E+00 0.  1.
         13    1    4    4    0    0 -0.48628938518E+02 -0.23256018483E+02 -0.17833167635E+02  0.56777089790E+02  0.00000000000E+00 0. -1.
         -4    1    1    2    0  502  0.16249927411E+02 -0.13511207706E+02  0.94434069497E+02  0.96769862851E+02  0.00000000000E+00 0.  1.
<scales pt_clust_5="13000.00000" pt_clust_6="13000.00000" pt_clust_7="13000.00000" pt_clust_8="13000.00000" pt_clust_9="21.13322"></scales>
<clustering>
<clus scale="   21.133">  1  9  2 -1</clus>
<clus scale="   92.805">  7  8 -1 -1</clus>
<clus scale="   92.963">  5  6 -1 -1</clus>
<clus scale="  209.838">  1  7  2 -1</clus>
<clus scale="   21.133">  1  5  2 -1</clus>
</clustering>
</event>
<event>
 9    1  0.3288491E-005  0.1741260E+03  0.7546771E-02  0.1189642E+00
         21   -1    0    0  501  502  0.00000000000E+00  0.00000000000E+00  0.16341636137E+03  0.16341636137E+03  0.00000000000E+00 0. -1.
          1   -1    0    0  502    0 -0.00000000000E+00 -0.00000000000E+00 -0.42435519163E+03  0.42435519163E+03  0.00000000000E+00 0. -1.
         23    2    1    2    0    0 -0.40929817738E+02 -0.66154397774E+02 -0.44489981714E+02  0.12944866746E+03  0.93412765231E+02 0.  0.
         23    2    1    2    0    0 -0.99095723875E+02 -0.11149641280E+02 -0.25934807745E+03  0.29272273277E+03  0.92091780376E+02 0.  0.
        -13    1    3    3    0    0 -0.65526824812E+01 -0.82384473856E+02 -0.37674242280E+02  0.90826690524E+02  0.00000000000E+00 0. -1.
         13    1    3    3    0    0 -0.34377135256E+02  0.16230076082E+02 -0.68157394342E+01  0.38621976931E+02  0.00000000000E+00 0.  1.
        -13    1    4    4    0    0 -0.10503660540E+03  0.15666143389E+02 -0.22450526980E+03  0.24835606031E+03  0.00000000000E+00 0. -1.
         13    1    4    4    0    0  0.59408815234E+01 -0.26815784669E+02 -0.34842807646E+02  0.44366672462E+02  0.00000000000E+00 0.  1.
          1    1    1    2  501    0  0.14002554161E+03  0.77304039054E+02  0.42899228910E+02  0.16560015278E+03  0.00000000000E+00 0. -1.
<scales pt_clust_5="13000.00000" pt_clust_6="13000.00000" pt_clust_7="13000.00000" pt_clust_8="13000.00000" pt_clust_9="147.78013"></scales>
<clustering>
<clus scale="   92.092">  7  8 -1 -1</clus>
<clus scale="   93.413">  5  6 -1 -1</clus>
<clus scale="  121.563">  2  5  1 -1</clus>
<clus scale="  147.780">  1  9  2 -1</clus>
<clus scale="  147.780">  1  5  2 -1</clus>
</clustering>
</event>
<event>
 9    1  0.3288491E-005  0.1280500E+03  0.7546771E-02  0.1230520E+00
         21   -1    0    0  501  502  0.00000000000E+00  0.00000000000E+00  0.58061297893E+02  0.58061297893E+02  0.00000000000E+00 0.  1.
          1   -1    0    0  502    0 -0.00000000000E+00 -0.00000000000E+00 -0.62910094173E+03  0.62910094173E+03  0.00000000000E+00 0. -1.
         23    2    1    2    0    0 -0.99983166834E+02 -0.10105812817E+02 -0.48441397905E+03  0.50309224910E+03  0.91357248776E+02 0.  0.
         23    2    1    2    0    0  0.52598704626E+02  0.29477462628E+02 -0.72630516974E+02  0.13100010982E+03  0.90831119371E+02 0.  0.
        -11    1    3    3    0    0 -0.10682107986E+03 -0.32633523065E+02 -0.41633854972E+03  0.43106087495E+03  0.00000000000E+00 0. -1.
         11    1    3    3    0    0  0.68379130263E+01  0.22527710248E+02 -0.68075429327E+02  0.72031374148E+02  0.00000000000E+00 0.  1.
        -11    1    4    4    0    0  0.74584110339E+01  0.41088081015E+02  0.33166694132E+01  0.41891032366E+02  0.00000000000E+00 0.  1.
         11    1    4    4    0    0  0.45140293592E+02 -0.11610618388E+02 -0.75947186387E+02  0.89109077456E+02  0.00000000000E+00 0. -1.
          1    1    1    2  501    0  0.47384462208E+02 -0.19371649811E+02 -0.13995147812E+02  0.53069880700E+02  0.00000000000E+00 0. -1.
<scales pt_clust_5="13000.00000" pt_clust_6="13000.00000" pt_clust_7="13000.00000" pt_clust_8="13000.00000" pt_clust_9="51.19129"></scales>
<clustering>
<clus scale="   51.191">  1  9  2 -1</clus>
<clus scale="   90.831">  7  8 -1 -1</clus>
<clus scale="   91.357">  5  6 -1 -1</clus>
<clus scale="  127.675">  1  7  2 -1</clus>
<clus scale="   51.191">  1  5  2 -1</clus>
</clustering>
</event>
<event>
 9    1  0.3288491E-005  0.9943045E+02  0.7546771E-02  0.1282397E+00
         21   -1    0    0  501  502  0.00000000000E+00  0.00000000000E+00  0.20260465699E+03  0.20260465699E+03  0.00000000000E+00 0. -1.
          1   -1    0    0  502    0 -0.00000000000E+00 -0.00000000000E+00 -0.12188114939E+03  0.12188114939E+03  0.00000000000E+00 0. -1.
         23    2    1    2    0    0  0.71640974011E+01  0.13376719673E+01  0.76059453634E-01  0.91372682748E+02  0.91081544287E+02 0.  0.
         23    2    1    2    0    0 -0.52080284871E+02 -0.39316252939E+02 -0.21222364374E+02  0.11548109053E+03  0.92883635282E+02 0.  0.
        -11    1    3    3    0    0  0.36150319087E+02 -0.36530290857E+01  0.31675418781E+02  0.48202928817E+02  0.00000000000E+00 0.  1.
         11    1    3    3    0    0 -0.28986221686E+02  0.49907010531E+01 -0.31599359327E+02  0.43169753931E+02  0.00000000000E+00 0. -1.
        -11    1    4    4    0    0  0.25751478550E+02 -0.21784737850E+02 -0.66544349127E+01  0.34380153500E+02  0.00000000000E+00 0.  1.
         11    1    4    4    0    0 -0.77831763421E+02 -0.17531515090E+02 -0.14567929462E+02  0.81100937031E+02  0.00000000000E+00 0. -1.
          1    1    1    2  501    0  0.44916187470E+02  0.37978580972E+02  0.10186981252E+03  0.11763203311E+03  0.00000000000E+00 0. -1.
<scales pt_clust_5="13000.00000" pt_clust_6="13000.00000" pt_clust_7="13000.00000" pt_clust_8="13000.00000" pt_clust_9="58.82037"></scales>
<clustering>
<clus scale="   58.820">  1  9  2 -1</clus>
<clus scale="   91.082">  5  6 -1 -1</clus>
<clus scale="   92.884">  7  8 -1 -1</clus>
<clus scale="   97.749">  2  5  1 -1</clus>
<clus scale="   58.820">  1  5  2 -1</clus>
</clustering>
</event>
<event>
 9    1  0.3288491E-005  0.1182655E+03  0.7546771E-02  0.1246037E+00
          3   -1    0    0  502    0 -0.00000000000E+00  0.00000000000E+00  0.53349011053E+03  0.53349011053E+03  0.00000000000E+00 0. -1.
         21   -1    0    0  501  502  0.00000000000E+00 -0.00000000000E+00 -0.49312664080E+02  0.49312664080E+02  0.00000000000E+00 0.  1.
         23    2    1    2    0    0  0.51787127449E+02  0.56482164088E+02  0.30874701502E+03  0.33084056985E+03  0.90876960478E+02 0.  0.
         23    2    1    2    0    0 -0.73236963044E+02 -0.29458834015E+02  0.18070269252E+03  0.21706016253E+03  0.90720314240E+02 0.  0.
        -11    1    4    4    0    0 -0.35563330825E+02 -0.38613178529E+02  0.16838876279E+03  0.17638169828E+03  0.00000000000E+00 0. -1.
         11    1    4    4    0    0 -0.37673632219E+02  0.91543445134E+01  0.12313929730E+02  0.40678464246E+02  0.00000000000E+00 0.  1.
        -13    1    3    3    0    0  0.38354956574E+02 -0.17594847542E+02  0.87683355497E+02  0.97309055000E+02  0.00000000000E+00 0. -1.
         13    1    3    3    0    0  0.13432170875E+02  0.74077011631E+02  0.22106365952E+03  0.23353151485E+03  0.00000000000E+00 0.  1.
          3    1    1    2  501    0  0.21449835595E+02 -0.27023330073E+02 -0.52722610835E+01  0.34902042235E+02  0.00000000000E+00 0. -1.
<scales pt_clust_5="13000.00000" pt_clust_6="13000.00000" pt_clust_7="13000.00000" pt_clust_8="13000.00000" pt_clust_9="34.50153"></scales>
<clustering>
<clus scale="   34.502">  2  9  1 -1</clus>
<clus scale="   90.720">  5  6 -1 -1</clus>
<clus scale="   90.877">  7  8 -1 -1</clus>
<clus scale="  118.145">  2  5  1 -1</clus>
<clus scale="   34.502">  2  5  1 -1</clus>
</clustering>
</event>
<event>
 9    1  0.3288491E-005  0.1180885E+03  0.7546771E-02  0.1246386E+00
          1   -1    0    0  502    0 -0.00000000000E+00  0.00000000000E+00  0.22717731564E+03  0.22717731564E+03  0.00000000000E+00 0. -1.
         21   -1    0    0  501  502  0.00000000000E+00 -0.00000000000E+00 -0.85283101419E+02  0.85283101419E+02  0.00000000000E+00 0. -1.
         23    2    1    2    0    0 -0.28955524399E+02 -0.58983541042E+02  0.56689188554E+02  0.12544950862E+03  0.90589373584E+02 0.  0.
         23    2    1    2    0    0  0.13324079435E+02  0.89705288849E+02  0.48999084323E+02  0.13702052888E+03  0.90272615617E+02 0.  0.
        -13    1    4    4    0    0 -0.28006277443E+02  0.53576607329E+02  0.55087214349E+02  0.81788786602E+02  0.00000000000E+00 0. -1.
         13    1    4    4    0    0  0.41330356878E+02  0.36128681520E+02 -0.60881300264E+01  0.55231742280E+02  0.00000000000E+00 0.  1.
        -13    1    3    3    0    0 -0.56449488411E+02 -0.14686530289E+02  0.39927355969E+02  0.70685448775E+02  0.00000000000E+00 0.  1.
         13    1    3    3    0    0  0.27493964012E+02 -0.44297010754E+02  0.16761832585E+02  0.54764059842E+02  0.00000000000E+00 0. -1.
          1    1    1    2  501    0  0.15631444964E+02 -0.30721747806E+02  0.36205941348E+02  0.49990379563E+02  0.00000000000E+00 0. -1.
<scales pt_clust_5="13000.00000" pt_clust_6="13000.00000" pt_clust_7="13000.00000" pt_clust_8="13000.00000" pt_clust_9="34.46983"></scales>
<clustering>
<clus scale="   34.470">  2  9  1 -1</clus>
<clus scale="   90.273">  5  6 -1 -1</clus>
<clus scale="   90.589">  7  8 -1 -1</clus>
<clus scale="  117.846">  2  5  1 -1</clus>
<clus scale="   34.470">  2  5  1 -1</clus>
</clustering>
</event>
<event>
 9    1  0.3288491E-005  0.1607827E+03  0.7546771E-02  0.1188051E+00
          4   -1    0    0  502    0 -0.00000000000E+00  0.00000000000E+00  0.49740677088E+03  0.49740677088E+03  0.00000000000E+00 0. -1.
         21   -1    0    0  501  502  0.00000000000E+00 -0.00000000000E+00 -0.87038338288E+02  0.87038338288E+02  0.00000000000E+00 0. -1.
         23    2    1    2    0    0 -0.73948785442E+02 -0.10962389508E+03  0.33932947100E+03  0.37523156293E+03  0.90379282424E+02 0.  0.
         23    2    1    2    0    0  0.10046571327E+03  0.89151857413E+02  0.64738134405E+02  0.17512612611E+03  0.91851623700E+02 0.  0.
        -11    1    4    4    0    0  0.55503515555E+02 -0.74564579909E+01  0.26013808257E+02  0.61749147563E+02  0.00000000000E+00 0. -1.
         11    1    4    4    0    0  0.44962197719E+02  0.96608315404E+02  0.38724326147E+02  0.11337697855E+03  0.00000000000E+00 0.  1.
        -11    1    3    3    0    0 -0.92649051465E+02 -0.79756958023E+02  0.23159026280E+03  0.26187605639E+03  0.00000000000E+00 0. -1.
         11    1    3    3    0    0  0.18700266023E+02 -0.29866937055E+02  0.10773920820E+03  0.11335550654E+03  0.00000000000E+00 0.  1.
          4    1    1    2  501    0 -0.26516927832E+02  0.20472037666E+02  0.63008271935E+01  0.34087420131E+02  0.00000000000E+00 0. -1.
<scales pt_clust_5="13000.00000" pt_clust_6="13000.00000" pt_clust_7="13000.00000" pt_clust_8="13000.00000" pt_clust_9="33.50003"></scales>
<clustering>
<clus scale="   33.500">  2  9  1 -1</clus>
<clus scale="   90.379">  7  8 -1 -1</clus>
<clus scale="   91.852">  5  6 -1 -1</clus>
<clus scale="  159.946">  1  7  2 -1</clus>
<clus scale="   33.500">  2  5  1 -1</clus>
</clustering>
</event>
<event>
 9    1  0.3288491E-005  0.1281248E+03  0.7546771E-02  0.1232063E+00
         21   -1    0    0  501  502  0.00000000000E+00  0.00000000000E+00  0.15740629754E+03  0.15740629754E+03  0.00000000000E+00 0. -1.
          2   -1    0    0  502    0 -0.00000000000E+00 -0.00000000000E+00 -0.48135061193E+03  0.48135061193E+03  0.00000000000E+00 0. -1.
         23    2    1    2    0    0 -0.33889091327E+02  0.73722969688E+02 -0.37871431838E+03  0.39932836573E+03  0.97237142895E+02 0.  0.
         23    2    1    2    0    0  0.77438740155E+02 -0.67592265162E+02 -0.33050960673E+02  0.14121103367E+03  0.91009434914E+02 0.  0.
        -13    1    3    3    0    0 -0.48215381913E+02  0.10307661796E+02 -0.82899927654E+02  0.96453973219E+02  0.00000000000E+00 0.  1.
         13    1    3    3    0    0  0.14326290586E+02  0.63415307892E+02 -0.29581439072E+03  0.30287439251E+03  0.00000000000E+00 0. -1.
        -13    1    4    4    0    0  0.81947765300E+02 -0.37615353709E+02 -0.53311554099E+02  0.10474957218E+03  0.00000000000E+00 0. -1.
         13    1    4    4    0    0 -0.45090251450E+01 -0.29976911454E+02  0.20260593425E+02  0.36461461490E+02  0.00000000000E+00 0.  1.
          2    1    1    2  501    0 -0.43549648829E+02 -0.61307045255E+01  0.87820964663E+02  0.98217510075E+02  0.00000000000E+00 0. -1.
<scales pt_clust_5="13000.00000" pt_clust_6="13000.00000" pt_clust_7="13000.00000" pt_clust_8="13000.00000" pt_clust_9="43.97906"></scales>
<clustering>
<clus scale="   43.979">  1  9  2 -1</clus>
<clus scale="   91.009">  7  8 -1 -1</clus>
<clus scale="   97.237">  5  6 -1 -1</clus>
<clus scale="  123.465">  1  7  2 -1</clus>
<clus scale="   43.979">  1  5  2 -1</clus>
</clustering>
</event>
<event>
 9    1  0.3288491E-005  0.1254648E+03  0.7546771E-02  0.1235309E+00
         -1   -1    0    0    0  501 -0.00000000000E+00  0.00000000000E+00  0.26825860891E+03  0.26825860891E+03  0.00000000000E+00 0.  1.
         21   -1    0    0  501  502  0.00000000000E+00 -0.00000000000E+00 -0.13996615286E+03  0.13996615286E+03  0.00000000000E+00 0. -1.
         23    2    1    2    0    0  0.18988142978E+02 -0.79652743968E+02  0.18831834645E+03  0.22539359829E+03  0.92915904696E+02 0.  0.
         23    2    1    2    0    0 -0.41435062310E+02  0.86132316212E+02 -0.14671706253E+02  0.13181301902E+03  0.89575514148E+02 0.  0.
        -11    1    4    4    0    0 -0.69876554889E+01  0.43759810776E+02 -0.49970721550E+02  0.66789380747E+02  0.00000000000E+00 0. -1.
         11    1    4    4    0    0 -0.34447406821E+02  0.42372505435E+02  0.35299015297E+02  0.65023638275E+02  0.00000000000E+00 0.  1.
        -11    1    3    3    0    0  0.36806527044E+02 -0.21126534617E+02  0.21220760796E+02  0.47448620493E+02  0.00000000000E+00 0. -1.
         11    1    3    3    0    0 -0.17818384066E+02 -0.58526209351E+02  0.16709758566E+03  0.17794497780E+03  0.00000000000E+00 0.  1.
         -1    1    1    2    0  502  0.22446919332E+02 -0.64795722434E+01 -0.45354184144E+02  0.51018144452E+02  0.00000000000E+00 0.  1.
<scales pt_clust_5="13000.00000" pt_clust_6="13000.00000" pt_clust_7="13000.00000" pt_clust_8="13000.00000" pt_clust_9="23.36341"></scales>
<clustering>
<clus scale="   23.363">  2  9  1 -1</clus>
<clus scale="   89.576">  5  6 -1 -1</clus>
<clus scale="   92.916">  7  8 -1 -1</clus>
<clus scale="  123.011">  2  5  1 -1</clus>
<clus scale="   23.363">  2  5  1 -1</clus>
</clustering>
</event>
<event>
 9    1  0.3288491E-005  0.1069115E+03  0.7546771E-02  0.1266549E+00
          2   -1    0    0  502    0 -0.00000000000E+00  0.00000000000E+00  0.81579412201E+02  0.81579412201E+02  0.00000000000E+00 0. -1.
         21   -1    0    0  501  502  0.00000000000E+00 -0.00000000000E+00 -0.20349086944E+03  0.20349086944E+03  0.00000000000E+00 0.  1.
         23    2    1    2    0    0  0.40830822431E+02  0.29512810798E+02 -0.29571075715E+01  0.10528233084E+03  0.92398390896E+02 0.  0.
         23    2    1    2    0    0 -0.59759722409E+02 -0.19537549642E+02 -0.87299888583E+02  0.14158043850E+03  0.92037002078E+02 0.  0.
        -11    1    4    4    0    0 -0.56577617990E+02 -0.44504611441E+02 -0.28139270818E+02  0.77288458771E+02  0.00000000000E+00 0. -1.
         11    1    4    4    0    0 -0.31821044189E+01  0.24967061799E+02 -0.59160617765E+02  0.64291979731E+02  0.00000000000E+00 0.  1.
        -13    1    3    3    0    0  0.47865730274E+02  0.56470513143E+02 -0.13952256682E+02  0.75330687345E+02  0.00000000000E+00 0.  1.
         13    1    3    3    0    0 -0.70349078431E+01 -0.26957702345E+02  0.10995149111E+02  0.29951643495E+02  0.00000000000E+00 0. -1.
          2    1    1    2  501    0  0.18928899978E+02 -0.99752611561E+01 -0.31654461087E+02  0.38207512301E+02  0.00000000000E+00 0. -1.
<scales pt_clust_5="13000.00000" pt_clust_6="13000.00000" pt_clust_7="13000.00000" pt_clust_8="13000.00000" pt_clust_9="21.39647"></scales>
<clustering>
<clus scale="   21.396">  2  9  1 -1</clus>
<clus scale="   92.037">  5  6 -1 -1</clus>
<clus scale="   92.398">  7  8 -1 -1</clus>
<clus scale="  106.599">  2  5  1 -1</clus>
<clus scale="   21.396">  2  5  1 -1</clus>
</clustering>
</event>
<event>
 9    1  0.3288491E-005  0.1051111E+03  0.7546771E-02  0.1270983E+00
         -3   -1    0    0    0  501 -0.00000000000E+00  0.00000000000E+00  0.39659404152E+02  0.39659404152E+02  0.00000000000E+00 0.  1.
         21   -1    0    0  501  502  0.00000000000E+00 -0.00000000000E+00 -0.36428815798E+03  0.36428815798E+03  0.00000000000E+00 0. -1.
         23    2    1    2    0    0 -0.53469048198E+02 -0.33841283978E+02 -0.12525692064E+03  0.16796080728E+03  0.92289571437E+02 0.  0.
         23    2    1    2    0    0  0.33334445810E+02  0.16270562173E+02 -0.13537803237E+03  0.16663735672E+03  0.89804679927E+02 0.  0.
        -11    1    4    4    0    0  0.44317053301E+01 -0.33413116334E+02 -0.80048147677E+02  0.86854949783E+02  0.00000000000E+00 0. -1.
         11    1    4    4    0    0  0.28902740480E+02  0.49683678507E+02 -0.55329884693E+02  0.79782406942E+02  0.00000000000E+00 0.  1.
        -13    1    3    3    0    0 -0.60395037339E+01 -0.34410072979E+02 -0.11396868659E+03  0.11920314699E+03  0.00000000000E+00 0.  1.
         13    1    3    3    0    0 -0.47429544464E+02  0.56878900118E+00 -0.11288234048E+02  0.48757660290E+02  0.00000000000E+00 0. -1.
         -3    1    1    2    0  502  0.20134602388E+02  0.17570721805E+02 -0.63993800814E+02  0.69349398128E+02  0.00000000000E+00 0.  1.
<scales pt_clust_5="13000.00000" pt_clust_6="13000.00000" pt_clust_7="13000.00000" pt_clust_8="13000.00000" pt_clust_9="26.72326"></scales>
<clustering>
<clus scale="   26.723">  2  9  1 -1</clus>
<clus scale="   89.805">  5  6 -1 -1</clus>
<clus scale="   92.290">  7  8 -1 -1</clus>
<clus scale="  102.936">  2  5  1 -1</clus>
<clus scale="   26.723">  2  5  1 -1</clus>
</clustering>
</event>
<event>
 9    1  0.3288491E-005  0.1173658E+03  0.7546771E-02  0.1257247E+00
          1   -1    0    0  502    0 -0.00000000000E+00  0.00000000000E+00  0.26750783400E+03  0.26750783400E+03  0.00000000000E+00 0. -1.
         21   -1    0    0  501  502  0.00000000000E+00 -0.00000000000E+00 -0.20272086234E+03  0.20272086234E+03  0.00000000000E+00 0. -1.
         23    2    1    2    0    0 -0.24597569517E+02 -0.18757917452E+02  0.20826559225E+03  0.22961627955E+03  0.91608837031E+02 0.  0.
         23    2    1    2    0    0  0.36793421286E+02  0.10112588810E+01 -0.26889881636E+02  0.12205181313E+03  0.11322014334E+03 0.  0.
        -11    1    4    4    0    0  0.67550293822E+02 -0.35205979069E+01 -0.49322403558E+02  0.83714612212E+02  0.00000000000E+00 0.  1.
         11    1    4    4    0    0 -0.30756872536E+02  0.45318567879E+01  0.22432521921E+02  0.38337200914E+02  0.00000000000E+00 0. -1.
        -13    1    3    3    0    0 -0.49879123952E+02  0.17166146627E+02  0.11183550603E+03  0.12365186616E+03  0.00000000000E+00 0.  1.
         13    1    3    3    0    0  0.25281554435E+02 -0.35924064079E+02  0.96430086220E+02  0.10596441338E+03  0.00000000000E+00 0. -1.
          1    1    1    2  501    0 -0.12195851769E+02  0.17746658571E+02 -0.11658873895E+03  0.11856060367E+03  0.00000000000E+00 0. -1.
<scales pt_clust_5="13000.00000" pt_clust_6="13000.00000" pt_clust_7="13000.00000" pt_clust_8="13000.00000" pt_clust_9="21.53329"></scales>
<clustering>
<clus scale="   21.533">  2  9  1 -1</clus>
<clus scale="   91.609">  7  8 -1 -1</clus>
<clus scale="   96.686">  1  7  2 -1</clus>
<clus scale="  113.220">  5  6 -1 -1</clus>
<clus scale="   21.533">  2  5  1 -1</clus>
</clustering>
</event>
<event>
 9    1  0.3288491E-005  0.9522617E+02  0.7546771E-02  0.1292856E+00
          2   -1    0    0  502    0 -0.00000000000E+00  0.00000000000E+00  0.73046976334E+03  0.73046976334E+03  0.00000000000E+00 0. -1.
         21   -1    0    0  501  502  0.00000000000E+00 -0.00000000000E+00 -0.20665280294E+02  0.20665280294E+02  0.00000000000E+00 0.  1.
         23    2    1    2    0    0  0.32628959148E+02  0.20801231235E+02  0.39966999519E+03  0.41105300984E+03  0.87926853959E+02 0.  0.
         23    2    1    2    0    0 -0.61876636474E+01  0.15672594720E+02  0.18863920792E+03  0.21050354355E+03  0.91886199590E+02 0.  0.
        -13    1    4    4    0    0 -0.35538404042E+02  0.41262740008E+02  0.11219118671E+03  0.12470947939E+03  0.00000000000E+00 0. -1.
         13    1    4    4    0    0  0.29350740394E+02 -0.25590145289E+02  0.76448021210E+02  0.85794064156E+02  0.00000000000E+00 0.  1.
        -13    1    3    3    0    0  0.62190972125E+02  0.23013119103E+02  0.26702059260E+03  0.27513145502E+03  0.00000000000E+00 0.  1.
         13    1    3    3    0    0 -0.29562012977E+02 -0.22118878676E+01  0.13264940258E+03  0.13592155482E+03  0.00000000000E+00 0. -1.
          2    1    1    2  501    0 -0.26441295501E+02 -0.36473825955E+02  0.12149527994E+03  0.12957849025E+03  0.00000000000E+00 0. -1.
<scales pt_clust_5="13000.00000" pt_clust_6="13000.00000" pt_clust_7="13000.00000" pt_clust_8="13000.00000" pt_clust_9="45.04977"></scales>
<clustering>
<clus scale="   45.050">  2  9  1 -1</clus>
<clus scale="   87.927">  7  8 -1 -1</clus>
<clus scale="   91.412">  1  7  2 -1</clus>
<clus scale="   91.886">  5  6 -1 -1</clus>
<clus scale="   45.050">  2  5  1 -1</clus>
</clustering>
</event>
<event>
 9    1  0.3288491E-005  0.1436261E+03  0.7546771E-02  0.1209534E+00
         21   -1    0    0  501  502  0.00000000000E+00  0.00000000000E+00  0.56892408022E+02  0.56892408022E+02  0.00000000000E+00 0.  1.
         -1   -1    0    0    0  501 -0.00000000000E+00 -0.00000000000E+00 -0.70111230708E+03  0.70111230708E+03  0.00000000000E+00 0.  1.
         23    2    1    2    0    0  0.50111865703E+02  0.11521764509E+03 -0.48286020870E+03  0.50703254591E+03  0.90231461469E+02 0.  0.
         23    2    1    2    0    0  0.36186553832E+01 -0.91215975544E+02 -0.14173263044E+03  0.18893773909E+03  0.85298779947E+02 0.  0.
        -11    1    4    4    0    0  0.35495232949E+02 -0.38713984983E+02 -0.10491229379E+03  0.11732550270E+03  0.00000000000E+00 0.  1.
         11    1    4    4    0    0 -0.31876577565E+02 -0.52501990562E+02 -0.36820336650E+02  0.71612236393E+02  0.00000000000E+00 0. -1.
        -13    1    3    3    0    0  0.71422693911E+02  0.53059050256E+02 -0.27645070071E+03  0.29041600153E+03  0.00000000000E+00 0.  1.
         13    1    3    3    0    0 -0.21310828208E+02  0.62158594836E+02 -0.20640950799E+03  0.21661654438E+03  0.00000000000E+00 0. -1.
         -1    1    1    2    0  502 -0.53730521086E+02 -0.24001669548E+02 -0.19627059921E+02  0.62034430105E+02  0.00000000000E+00 0.  1.
<scales pt_clust_5="13000.00000" pt_clust_6="13000.00000" pt_clust_7="13000.00000" pt_clust_8="13000.00000" pt_clust_9="58.84768"></scales>
<clustering>
<clus scale="   58.848">  1  9  2 -1</clus>
<clus scale="   85.299">  5  6 -1 -1</clus>
<clus scale="   90.231">  7  8 -1 -1</clus>
<clus scale="  140.580">  1  5  2 -1</clus>
<clus scale="   58.848">  1  5  2 -1</clus>
</clustering>
</event>
<event>
 9    1  0.3288491E-005  0.9697701E+02  0.7546771E-02  0.1290597E+00
          3   -1    0    0  502    0 -0.00000000000E+00  0.00000000000E+00  0.19577417506E+03  0.19577417506E+03  0.00000000000E+00 0. -1.
         21   -1    0    0  501  502  0.00000000000E+00 -0.00000000000E+00 -0.59795381741E+02  0.59795381741E+02  0.00000000000E+00 0.  1.
         23    2    1    2    0    0 -0.10839572787E+02  0.39871667828E+02  0.90935454398E+02  0.13492383384E+03  0.90707981115E+02 0.  0.
         23    2    1    2    0    0  0.18905418945E+02 -0.18634638648E+02  0.27179311600E+02  0.91746021321E+02  0.83510195941E+02 0.  0.
        -13    1    3    3    0    0 -0.25001171844E+02  0.13921575509E+01 -0.92332563280E+01  0.26688007019E+02  0.00000000000E+00 0.  1.
         13    1    3    3    0    0  0.14161599057E+02  0.38479510277E+02  0.10016871073E+03  0.10823582682E+03  0.00000000000E+00 0. -1.
        -13    1    4    4    0    0  0.38730993053E+02  0.15248127650E+02  0.31572988591E+02  0.52244127213E+02  0.00000000000E+00 0. -1.
         13    1    4    4    0    0 -0.19825574108E+02 -0.33882766297E+02 -0.43936769904E+01  0.39501894108E+02  0.00000000000E+00 0.  1.
          3    1    1    2  501    0 -0.80658461578E+01 -0.21237029180E+02  0.17864027316E+02  0.28899701635E+02  0.00000000000E+00 0. -1.
<scales pt_clust_5="13000.00000" pt_clust_6="13000.00000" pt_clust_7="13000.00000" pt_clust_8="13000.00000" pt_clust_9="22.71717"></scales>
<clustering>
<clus scale="   22.717">  2  9  1 -1</clus>
<clus scale="   83.510">  7  8 -1 -1</clus>
<clus scale="   90.280">  2  7  1 -1</clus>
<clus scale="   90.708">  5  6 -1 -1</clus>
<clus scale="   22.717">  2  5  1 -1</clus>
</clustering>
</event>
<event>
 9    1  0.3288491E-005  0.1724014E+03  0.7546771E-02  0.1175853E+00
         21   -1    0    0  501  502  0.00000000000E+00  0.00000000000E+00  0.11464598132E+03  0.11464598132E+03  0.00000000000E+00 0. -1.
          1   -1    0    0  502    0 -0.00000000000E+00 -0.00000000000E+00 -0.72471787225E+03  0.72471787225E+03  0.00000000000E+00 0. -1.
         23    2    1    2    0    0 -0.10855942229E+03  0.10314030111E+03 -0.55350638996E+03  0.58063420024E+03  0.91343751226E+02 0.  0.
         23    2    1    2    0    0  0.10761485337E+03 -0.82930487403E+02 -0.11398060830E+03  0.19785417937E+03  0.87728415118E+02 0.  0.
        -13    1    3    3    0    0 -0.99932214300E+02  0.36218686494E+02 -0.29885133912E+03  0.31719136747E+03  0.00000000000E+00 0. -1.
         13    1    3    3    0    0 -0.86272079878E+01  0.66921614615E+02 -0.25465505084E+03  0.26344283277E+03  0.00000000000E+00 0.  1.
        -13    1    4    4    0    0  0.79281407676E+02 -0.97599074772E+02 -0.71247926484E+02  0.14452469695E+03  0.00000000000E+00 0.  1.
         13    1    4    4    0    0  0.28333445694E+02  0.14668587369E+02 -0.42732681816E+02  0.53329482423E+02  0.00000000000E+00 0. -1.
          1    1    1    2  501    0  0.94456891704E+00 -0.20209813706E+02  0.57415107322E+02  0.60875473955E+02  0.00000000000E+00 0. -1.
<scales pt_clust_5="13000.00000" pt_clust_6="13000.00000" pt_clust_7="13000.00000" pt_clust_8="13000.00000" pt_clust_9="20.23188"></scales>
<clustering>
<clus scale="   20.232">  1  9  2 -1</clus>
<clus scale="   87.728">  7  8 -1 -1</clus>
<clus scale="   91.344">  5  6 -1 -1</clus>
<clus scale="  170.513">  1  7  2 -1</clus>
<clus scale="   20.232">  1  5  2 -1</clus>
</clustering>
</event>
<event>
 9    1  0.3288491E-005  0.1070201E+03  0.7546771E-02  0.1267316E+00
          2   -1    0    0  502    0 -0.00000000000E+00  0.00000000000E+00  0.48063063674E+03  0.48063063674E+03  0.00000000000E+00 0. -1.
         21   -1    0    0  501  502  0.00000000000E+00 -0.00000000000E+00 -0.10213503228E+03  0.10213503228E+03  0.00000000000E+00 0. -1.
         23    2    1    2    0    0  0.55427936031E+02  0.28876243475E+01  0.41934120772E+03  0.43242307024E+03  0.89789023386E+02 0.  0.
         23    2    1    2    0    0 -0.39168447314E+02 -0.22860060999E+02 -0.11310177843E+01  0.10300849375E+03  0.92480921976E+02 0.  0.
        -11    1    3    3    0    0 -0.18359827731E+02 -0.20997809686E+02  0.11978870340E+03  0.12299318984E+03  0.00000000000E+00 0.  1.
         11    1    3    3    0    0  0.73787763762E+02  0.23885434033E+02  0.29955250432E+03  0.30942988040E+03  0.00000000000E+00 0. -1.
        -11    1    4    4    0    0  0.19447517967E+02  0.21169643750E+02 -0.65992147502E+01  0.29494226671E+02  0.00000000000E+00 0.  1.
         11    1    4    4    0    0 -0.58615965281E+02 -0.44029704750E+02  0.54681969659E+01  0.73514267079E+02  0.00000000000E+00 0. -1.
          2    1    1    2  501    0 -0.16259488717E+02  0.19972436652E+02 -0.39714585476E+02  0.47334105026E+02  0.00000000000E+00 0. -1.
<scales pt_clust_5="13000.00000" pt_clust_6="13000.00000" pt_clust_7="13000.00000" pt_clust_8="13000.00000" pt_clust_9="25.75401"></scales>
<clustering>
<clus scale="   25.754">  2  9  1 -1</clus>
<clus scale="   89.789">  5  6 -1 -1</clus>
<clus scale="   92.481">  7  8 -1 -1</clus>
<clus scale="  104.703">  1  5  2 -1</clus>
<clus scale="   25.754">  2  5  1 -1</clus>
</clustering>
</event>
<event>
 9    1  0.3288491E-005  0.9721336E+02  0.7546771E-02  0.1287077E+00
         21   -1    0    0  501  502  0.00000000000E+00  0.00000000000E+00  0.17906476598E+03  0.17906476598E+03  0.00000000000E+00 0.  1.
          1   -1    0    0  502    0 -0.00000000000E+00 -0.00000000000E+00 -0.19954816377E+03  0.19954816377E+03  0.00000000000E+00 0. -1.
         23    2    1    2    0    0  0.38766985321E+02 -0.28449295863E+01 -0.16143261114E+03  0.18903908663E+03  0.90356602203E+02 0.  0.
         23    2    1    2    0    0 -0.62016243684E+01 -0.37220760799E+01  0.12285859114E+03  0.15174661868E+03  0.88772117623E+02 0.  0.
        -13    1    3    3    0    0 -0.28778696307E+01 -0.21622282243E+02 -0.57503431063E+00  0.21820538203E+02  0.00000000000E+00 0.  1.
         13    1    3    3    0    0  0.41644854951E+02  0.18777352657E+02 -0.16085757683E+03  0.16721854843E+03  0.00000000000E+00 0. -1.
        -13    1    4    4    0    0 -0.69153426221E+01  0.21883044435E+02 -0.31463914985E+01  0.23164398908E+02  0.00000000000E+00 0. -1.
         13    1    4    4    0    0  0.71371825372E+00 -0.25605120515E+02  0.12600498264E+03  0.12858221977E+03  0.00000000000E+00 0.  1.
          1    1    1    2  501    0 -0.32565360952E+02  0.65670056662E+01  0.18090622207E+02  0.37827224445E+02  0.00000000000E+00 0. -1.
<scales pt_clust_5="13000.00000" pt_clust_6="13000.00000" pt_clust_7="13000.00000" pt_clust_8="13000.00000" pt_clust_9="33.22090"></scales>
<clustering>
<clus scale="   33.221">  1  9  2 -1</clus>
<clus scale="   88.772">  7  8 -1 -1</clus>
<clus scale="   90.357">  5  6 -1 -1</clus>
<clus scale="   95.742">  1  7  2 -1</clus>
<clus scale="   33.221">  1  5  2 -1</clus>
</clustering>
</event>
<event>
 9    1  0.3288491E-005  0.1106648E+03  0.7546771E-02  0.1261845E+00
         21   -1    0    0  501  502  0.00000000000E+00  0.00000000000E+00  0.24855042358E+03  0.24855042358E+03  0.00000000000E+00 0. -1.
          1   -1    0    0  502    0 -0.00000000000E+00 -0.00000000000E+00 -0.36943804635E+03  0.36943804635E+03  0.00000000000E+00 0. -1.
         23    2    1    2    0    0 -0.32942525275E+02 -0.21834747997E+02 -0.19568206009E+03  0.21951164025E+03  0.91279380863E+02 0.  0.
         23    2    1    2    0    0  0.22959195497E+02  0.10199226177E+03 -0.12065773265E+03  0.18699055439E+03  0.97353134830E+02 0.  0.
        -11    1    3    3    0    0 -0.27569129227E+02 -0.55174766463E+02 -0.94542369850E+02  0.11288299889E+03  0.00000000000E+00 0. -1.
         11    1    3    3    0    0 -0.53733960476E+01  0.33340018466E+02 -0.10113969024E+03  0.10662864136E+03  0.00000000000E+00 0.  1.
        -13    1    4    4    0    0  0.19352572530E+02  0.81969775088E+02 -0.23099517861E+02  0.87333577832E+02  0.00000000000E+00 0.  1.
         13    1    4    4    0    0  0.36066229677E+01  0.20022486683E+02 -0.97558214793E+02  0.99656976554E+02  0.00000000000E+00 0. -1.
          1    1    1    2  501    0  0.99833297776E+01 -0.80157513775E+02  0.19545216997E+03  0.21148627529E+03  0.00000000000E+00 0. -1.
<scales pt_clust_5="13000.00000" pt_clust_6="13000.00000" pt_clust_7="13000.00000" pt_clust_8="13000.00000" pt_clust_9="80.77682"></scales>
<clustering>
<clus scale="   80.777">  1  9  2 -1</clus>
<clus scale="   91.279">  5  6 -1 -1</clus>
<clus scale="   97.353">  7  8 -1 -1</clus>
<clus scale="  105.361">  2  5  1 -1</clus>
<clus scale="   80.777">  1  5  2 -1</clus>
</clustering>
</event>
<event>
 9    1  0.3288491E-005  0.9899879E+02  0.7546771E-02  0.1283174E+00
          1   -1    0    0  502    0 -0.00000000000E+00  0.00000000000E+00  0.78155794581E+03  0.78155794581E+03  0.00000000000E+00 0. -1.
         21   -1    0    0  501  502  0.00000000000E+00 -0.00000000000E+00 -0.51482918048E+02  0.51482918048E+02  0.00000000000E+00 0. -1.
         23    2    1    2    0    0 -0.41559529607E+02  0.22262377161E+02  0.49082735659E+03  0.50171724649E+03  0.92660096640E+02 0.  0.
         23    2    1    2    0    0  0.18325096515E+02 -0.19670704424E+01  0.27132470771E+03  0.28681884652E+03  0.91149740395E+02 0.  0.
        -11    1    4    4    0    0  0.50263709002E+02  0.35586018702E+01  0.94968237037E+02  0.10750846541E+03  0.00000000000E+00 0.  1.
         11    1    4    4    0    0 -0.31938612488E+02 -0.55256723125E+01  0.17635647068E+03  0.17931038110E+03  0.00000000000E+00 0. -1.
        -13    1    3    3    0    0 -0.25886860544E+02  0.58616304759E+02  0.28459741708E+03  0.29172194045E+03  0.00000000000E+00 0.  1.
         13    1    3    3    0    0 -0.15672669063E+02 -0.36353927598E+02  0.20622993951E+03  0.20999530604E+03  0.00000000000E+00 0. -1.
          1    1    1    2  501    0  0.23234433092E+02 -0.20295306719E+02 -0.32077036536E+02  0.44504770855E+02  0.00000000000E+00 0. -1.
<scales pt_clust_5="13000.00000" pt_clust_6="13000.00000" pt_clust_7="13000.00000" pt_clust_8="13000.00000" pt_clust_9="30.85026"></scales>
<clustering>
<clus scale="   30.850">  2  9  1 -1</clus>
<clus scale="   91.150">  5  6 -1 -1</clus>
<clus scale="   92.660">  7  8 -1 -1</clus>
<clus scale="   97.587">  2  5  1 -1</clus>
<clus scale="   30.850">  2  5  1 -1</clus>
</clustering>
</event>
<event>
 9    1  0.3288491E-005  0.1199959E+03  0.7546771E-02  0.1243514E+00
         21   -1    0    0  501  502  0.00000000000E+00  0.00000000000E+00  0.22346213703E+03  0.22346213703E+03  0.00000000000E+00 0. -1.
          3   -1    0    0  502    0 -0.00000000000E+00 -0.00000000000E+00 -0.12549845484E+03  0.12549845484E+03  0.00000000000E+00 0. -1.
         23    2    1    2    0    0  0.66820456112E+02  0.77994923709E+01 -0.37206597989E+02  0.12141761753E+03  0.93979260886E+02 0.  0.
         23    2    1    2    0    0 -0.94606454263E+02 -0.41015051262E+02  0.11308214633E+03  0.17893000588E+03  0.92713319256E+02 0.  0.
        -11    1    3    3    0    0  0.28442203986E+02  0.30264171991E+02  0.22292570459E+02  0.47136374188E+02  0.00000000000E+00 0.  1.
         11    1    3    3    0    0  0.38378252125E+02 -0.22464679620E+02 -0.59499168447E+02  0.74281243343E+02  0.00000000000E+00 0. -1.
        -13    1    4    4    0    0  0.30592471191E+00 -0.40795743697E+02  0.18026234092E+02  0.44601921587E+02  0.00000000000E+00 0.  1.
         13    1    4    4    0    0 -0.94912378975E+02 -0.21930756535E+00  0.95055912242E+02  0.13432808430E+03  0.00000000000E+00 0. -1.
          3    1    1    2  501    0  0.27785998151E+02  0.33215558891E+02  0.22088133837E+02  0.48612968456E+02  0.00000000000E+00 0. -1.
<scales pt_clust_5="13000.00000" pt_clust_6="13000.00000" pt_clust_7="13000.00000" pt_clust_8="13000.00000" pt_clust_9="43.30514"></scales>
<clustering>
<clus scale="   43.305">  1  9  2 -1</clus>
<clus scale="   92.713">  7  8 -1 -1</clus>
<clus scale="   93.979">  5  6 -1 -1</clus>
<clus scale="  119.007">  1  7  2 -1</clus>
<clus scale="   43.305">  1  5  2 -1</clus>
</clustering>
</event>
<event>
 9    1  0.3288491E-005  0.9526585E+02  0.7546771E-02  0.1293196E+00
         21   -1    0    0  501  502  0.00000000000E+00  0.00000000000E+00  0.19539449667E+03  0.19539449667E+03  0.00000000000E+00 0.  1.
         -1   -1    0    0    0  501 -0.00000000000E+00 -0.00000000000E+00 -0.10376838019E+03  0.10376838019E+03  0.00000000000E+00 0.  1.
         23    2    1    2    0    0 -0.18768861262E+02 -0.24645837021E+02 -0.54048249356E+02  0.11045445658E+03  0.91210121614E+02 0.  0.
         23    2    1    2    0    0 -0.11144146434E+02  0.21861279881E+02  0.10683615340E+03  0.13960700957E+03  0.86452564383E+02 0.  0.
        -11    1    3    3    0    0 -0.48472931451E+02 -0.39984746708E+02 -0.37130027365E+02  0.72986601406E+02  0.00000000000E+00 0.  1.
         11    1    3    3    0    0  0.29704070189E+02  0.15338909687E+02 -0.16918221992E+02  0.37467855176E+02  0.00000000000E+00 0. -1.
        -13    1    4    4    0    0 -0.29562976434E+02 -0.11550585788E+02  0.66860930870E+01  0.32435928358E+02  0.00000000000E+00 0.  1.
         13    1    4    4    0    0  0.18418830000E+02  0.33411865669E+02  0.10015006032E+03  0.10717108121E+03  0.00000000000E+00 0. -1.
         -1    1    1    2    0  502  0.29913007697E+02  0.27845571406E+01  0.38838212437E+02  0.49101410705E+02  0.00000000000E+00 0.  1.
<scales pt_clust_5="13000.00000" pt_clust_6="13000.00000" pt_clust_7="13000.00000" pt_clust_8="13000.00000" pt_clust_9="30.04233"></scales>
<clustering>
<clus scale="   30.042">  1  9  2 -1</clus>
<clus scale="   86.453">  7  8 -1 -1</clus>
<clus scale="   90.721">  1  7  2 -1</clus>
<clus scale="   91.210">  5  6 -1 -1</clus>
<clus scale="   30.042">  1  5  2 -1</clus>
</clustering>
</event>
<event>
 9    1  0.3288491E-005  0.1057403E+03  0.7546771E-02  0.1269934E+00
         21   -1    0    0  501  502  0.00000000000E+00  0.00000000000E+00  0.39613017151E+03  0.39613017151E+03  0.00000000000E+00 0.  1.
         -2   -1    0    0    0  501 -0.00000000000E+00 -0.00000000000E+00 -0.47682395341E+02  0.47682395341E+02  0.00000000000E+00 0.  1.
         23    2    1    2    0    0  0.36658317958E+02 -0.20141513122E+02  0.89639779022E+02  0.13482920285E+03  0.91619381858E+02 0.  0.
         23    2    1    2    0    0 -0.43649343708E+02  0.51826662520E+02  0.11002399934E+03  0.15670236999E+03  0.88651475879E+02 0.  0.
        -13    1    4    4    0    0 -0.12489416821E+02  0.72894401980E+02  0.71895619397E+02  0.10314339272E+03  0.00000000000E+00 0.  1.
         13    1    4    4    0    0 -0.31159926887E+02 -0.21067739459E+02  0.38128379942E+02  0.53558977273E+02  0.00000000000E+00 0. -1.
        -13    1    3    3    0    0  0.58515494928E+02 -0.67087373162E+01  0.22665478711E+02  0.63109383045E+02  0.00000000000E+00 0.  1.
         13    1    3    3    0    0 -0.21857176970E+02 -0.13432775806E+02  0.66974300311E+02  0.71719819806E+02  0.00000000000E+00 0. -1.
         -2    1    1    2    0  502  0.69910257497E+01 -0.31685149398E+02  0.14878399780E+03  0.15228099401E+03  0.00000000000E+00 0.  1.
<scales pt_clust_5="13000.00000" pt_clust_6="13000.00000" pt_clust_7="13000.00000" pt_clust_8="13000.00000" pt_clust_9="32.44724"></scales>
<clustering>
<clus scale="   32.447">  1  9  2 -1</clus>
<clus scale="   88.651">  5  6 -1 -1</clus>
<clus scale="   91.619">  7  8 -1 -1</clus>
<clus scale="  103.179">  1  5  2 -1</clus>
<clus scale="   32.447">  1  5  2 -1</clus>
</clustering>
</event>
<event>
 9    1  0.3288491E-005  0.9221471E+02  0.7546771E-02  0.1299975E+00
          2   -1    0    0  502    0 -0.00000000000E+00  0.00000000000E+00  0.47183952135E+03  0.47183952135E+03  0.00000000000E+00 0. -1.
         21   -1    0    0  501  502  0.00000000000E+00 -0.00000000000E+00 -0.31001933232E+02  0.31001933232E+02  0.00000000000E+00 0.  1.
         23    2    1    2    0    0  0.18263973134E+01 -0.27039143850E+02  0.30741582955E+03  0.32163179094E+03  0.90598375569E+02 0.  0.
         23    2    1    2    0    0 -0.12433984664E+01 -0.20502839445E+01  0.12278943266E+03  0.15023255837E+03  0.86526453270E+02 0.  0.
        -11    1    4    4    0    0 -0.43707255672E+02 -0.18645262496E+01  0.55568846395E+02  0.70722679151E+02  0.00000000000E+00 0.  1.
         11    1    4    4    0    0  0.42463857206E+02 -0.18575769489E+00  0.67220586269E+02  0.79509879216E+02  0.00000000000E+00 0. -1.
        -13    1    3    3    0    0 -0.31438364058E+02  0.19750903799E+02  0.12454737238E+03  0.12996352143E+03  0.00000000000E+00 0.  1.
         13    1    3    3    0    0  0.33264761371E+02 -0.46790047649E+02  0.18286845717E+03  0.19166826951E+03  0.00000000000E+00 0. -1.
          2    1    1    2  501    0 -0.58299884696E+00  0.29089427794E+02  0.10632325896E+02  0.30977105271E+02  0.00000000000E+00 0. -1.
<scales pt_clust_5="13000.00000" pt_clust_6="13000.00000" pt_clust_7="13000.00000" pt_clust_8="13000.00000" pt_clust_9="29.09527"></scales>
<clustering>
<clus scale="   29.095">  2  9  1 -1</clus>
<clus scale="   86.526">  5  6 -1 -1</clus>
<clus scale="   88.217">  2  5  1 -1</clus>
<clus scale="   90.598">  7  8 -1 -1</clus>
<clus scale="   29.095">  2  5  1 -1</clus>
</clustering>
</event>
<event>
 9    1  0.3288491E-005  0.9842477E+02  0.7546771E-02  0.1286238E+00
         21   -1    0    0  501  502  0.00000000000E+00  0.00000000000E+00  0.59830847424E+03  0.59830847424E+03  0.00000000000E+00 0.  1.
          2   -1    0    0  502    0 -0.00000000000E+00 -0.00000000000E+00 -0.31039472574E+02  0.31039472574E+02  0.00000000000E+00 0. -1.
         23    2    1    2    0    0  0.23776790809E+02  0.13290303483E+02  0.68949979263E+02  0.11583548060E+03  0.89004443588E+02 0.  0.
         23    2    1    2    0    0 -0.24792433904E+02 -0.34095668023E+02  0.42456497321E+03  0.43687334763E+03  0.93945335355E+02 0.  0.
        -11    1    4    4    0    0 -0.58976774062E+02 -0.73805155486E+01  0.23374281966E+03  0.24118133765E+03  0.00000000000E+00 0.  1.
         11    1    4    4    0    0  0.34184340158E+02 -0.26715152475E+02  0.19082215355E+03  0.19569200998E+03  0.00000000000E+00 0. -1.
        -11    1    3    3    0    0 -0.14897764484E+02  0.39647124764E+02  0.16276867472E+02  0.45373718201E+02  0.00000000000E+00 0. -1.
         11    1    3    3    0    0  0.38674555293E+02 -0.26356821281E+02  0.52673111791E+02  0.70461762403E+02  0.00000000000E+00 0.  1.
          2    1    1    2  501    0  0.10156430952E+01  0.20805364540E+02  0.73754049186E+02  0.76639118575E+02  0.00000000000E+00 0. -1.
<scales pt_clust_5="13000.00000" pt_clust_6="13000.00000" pt_clust_7="13000.00000" pt_clust_8="13000.00000" pt_clust_9="20.83014"></scales>
<clustering>
<clus scale="   20.830">  1  9  2 -1</clus>
<clus scale="   89.004">  7  8 -1 -1</clus>
<clus scale="   93.720">  2  7  1 -1</clus>
<clus scale="   93.945">  5  6 -1 -1</clus>
<clus scale="   20.830">  1  5  2 -1</clus>
</clustering>
</event>
<event>
 9    1  0.3288491E-005  0.9863526E+02  0.7546771E-02  0.1283461E+00
         21   -1    0    0  501  502  0.00000000000E+00  0.00000000000E+00  0.56139899818E+02  0.56139899818E+02  0.00000000000E+00 0.  1.
         -1   -1    0    0    0  501 -0.00000000000E+00 -0.00000000000E+00 -0.60806883297E+03  0.60806883297E+03  0.00000000000E+00 0.  1.
         23    2    1    2    0    0  0.25319644163E+02  0.10548192219E+02 -0.42619963911E+03  0.43683745558E+03  0.91806761635E+02 0.  0.
         23    2    1    2    0    0 -0.75601751489E+02 -0.47697284333E+01 -0.13072266391E+03  0.17651250507E+03  0.91268145860E+02 0.  0.
        -11    1    3    3    0    0 -0.96974281180E+01 -0.35806962614E+02 -0.14240226575E+03  0.14715496585E+03  0.00000000000E+00 0.  1.
         11    1    3    3    0    0  0.35017072281E+02  0.46355154833E+02 -0.28379737336E+03  0.28968248973E+03  0.00000000000E+00 0. -1.
        -13    1    4    4    0    0 -0.61310430444E+02 -0.38803944644E+02 -0.11589097515E+03  0.13673124413E+03  0.00000000000E+00 0.  1.
         13    1    4    4    0    0 -0.14291321045E+02  0.34034216211E+02 -0.14831688762E+02  0.39781260938E+02  0.00000000000E+00 0. -1.
         -1    1    1    2    0  502  0.50282107327E+02 -0.57784637858E+01  0.49933698652E+01  0.50858772139E+02  0.00000000000E+00 0.  1.
<scales pt_clust_5="13000.00000" pt_clust_6="13000.00000" pt_clust_7="13000.00000" pt_clust_8="13000.00000" pt_clust_9="50.61305"></scales>
<clustering>
<clus scale="   50.613">  1  9  2 -1</clus>
<clus scale="   91.268">  7  8 -1 -1</clus>
<clus scale="   91.807">  5  6 -1 -1</clus>
<clus scale="   98.134">  1  7  2 -1</clus>
<clus scale="   50.613">  1  5  2 -1</clus>
</clustering>
</event>
<event>
 9    1  0.3288491E-005  0.9634246E+02  0.7546771E-02  0.1288591E+00
         21   -1    0    0  501  502  0.00000000000E+00  0.00000000000E+00  0.27957443163E+03  0.27957443163E+03  0.00000000000E+00 0. -1.
          4   -1    0    0  502    0 -0.00000000000E+00 -0.00000000000E+00 -0.92228696753E+02  0.92228696753E+02  0.00000000000E+00 0. -1.
         23    2    1    2    0    0  0.38083102978E+02  0.23720193167E+02 -0.20097633660E-01  0.10399823078E+03  0.93822498931E+02 0.  0.
         23    2    1    2    0    0 -0.93807730828E+00  0.18670922777E+02  0.28304821752E+02  0.99053113057E+02  0.93063811041E+02 0.  0.
        -13    1    4    4    0    0  0.44475552591E+02 -0.29516951732E+01  0.11678313539E+02  0.46077872019E+02  0.00000000000E+00 0. -1.
         13    1    4    4    0    0 -0.45413629899E+02  0.21622617950E+02  0.16626508213E+02  0.52975241038E+02  0.00000000000E+00 0.  1.
        -13    1    3    3    0    0 -0.22197173575E+02 -0.14143043556E+02  0.16310191644E+02  0.30963891022E+02  0.00000000000E+00 0.  1.
         13    1    3    3    0    0  0.60280276553E+02  0.37863236722E+02 -0.16330289277E+02  0.73034339761E+02  0.00000000000E+00 0. -1.
          4    1    1    2  501    0 -0.37145025670E+02 -0.42391115944E+02  0.15906101075E+03  0.16875178454E+03  0.00000000000E+00 0. -1.
<scales pt_clust_5="13000.00000" pt_clust_6="13000.00000" pt_clust_7="13000.00000" pt_clust_8="13000.00000" pt_clust_9="56.36275"></scales>
<clustering>
<clus scale="   56.363">  1  9  2 -1</clus>
<clus scale="   93.064">  5  6 -1 -1</clus>
<clus scale="   93.822">  7  8 -1 -1</clus>
<clus scale="   95.604">  1  5  2 -1</clus>
<clus scale="   56.363">  1  5  2 -1</clus>
</clustering>
</event>
<event>
 9    1  0.3288491E-005  0.1070637E+03  0.7546771E-02  0.1268252E+00
         21   -1    0    0  501  502  0.00000000000E+00  0.00000000000E+00  0.10997590942E+03  0.10997590942E+03  0.00000000000E+00 0. -1.
          2   -1    0    0  502    0 -0.00000000000E+00 -0.00000000000E+00 -0.14252897031E+03  0.14252897031E+03  0.00000000000E+00 0.  1.
         23    2    1    2    0    0 -0.21278894991E+02  0.36692061713E+02 -0.25581181723E+02  0.10101906160E+03  0.88041780899E+02 0.  0.
         23    2    1    2    0    0  0.27956729686E+02 -0.58542553527E+02 -0.31696125459E+02  0.11782091321E+03  0.93103780330E+02 0.  0.
        -11    1    3    3    0    0 -0.43021567587E+02  0.10608115662E+02 -0.43951551426E+02  0.62410946702E+02  0.00000000000E+00 0.  1.
         11    1    3    3    0    0  0.21742672596E+02  0.26083946051E+02  0.18370369702E+02  0.38608114901E+02  0.00000000000E+00 0. -1.
        -11    1    4    4    0    0 -0.30899576617E+02 -0.39085485096E+02 -0.24167899119E+02  0.55376405879E+02  0.00000000000E+00 0.  1.
         11    1    4    4    0    0  0.58856306303E+02 -0.19457068432E+02 -0.75282263394E+01  0.62444507328E+02  0.00000000000E+00 0. -1.
          2    1    1    2  501    0 -0.66778346952E+01  0.21850491815E+02  0.24724246293E+02  0.33664904924E+02  0.00000000000E+00 0.  1.
<scales pt_clust_5="13000.00000" pt_clust_6="13000.00000" pt_clust_7="13000.00000" pt_clust_8="13000.00000" pt_clust_9="22.84814"></scales>
<clustering>
<clus scale="   22.848">  1  9  2 -1</clus>
<clus scale="   88.042">  5  6 -1 -1</clus>
<clus scale="   93.104">  7  8 -1 -1</clus>
<clus scale="  102.692">  2  5  1 -1</clus>
<clus scale="   22.848">  1  5  2 -1</clus>
</clustering>
</event>
<event>
 9    1  0.3288491E-005  0.9383545E+02  0.7546771E-02  0.1294441E+00
          1   -1    0    0  502    0 -0.00000000000E+00  0.00000000000E+00  0.29655515918E+03  0.29655515918E+03  0.00000000000E+00 0. -1.
         21   -1    0    0  501  502  0.00000000000E+00 -0.00000000000E+00 -0.52272932708E+02  0.52272932708E+02  0.00000000000E+00 0.  1.
         23    2    1    2    0    0  0.24582098344E+02  0.11174252283E+02  0.14718313003E+03  0.17560582953E+03  0.91898803719E+02 0.  0.
         23    2    1    2    0    0  0.49807428164E+01  0.20643120496E+01  0.10451140527E+03  0.13999330684E+03  0.92986143833E+02 0.  0.
        -11    1    3    3    0    0 -0.32473815500E+02  0.20075466786E+01  0.83484621930E+02  0.89600563813E+02  0.00000000000E+00 0.  1.
         11    1    3    3    0    0  0.57055913845E+02  0.91667056046E+01  0.63698508104E+02  0.86005265717E+02  0.00000000000E+00 0. -1.
        -13    1    4    4    0    0 -0.29995056269E+02  0.22656754268E+02  0.12813178140E+02  0.39714096346E+02  0.00000000000E+00 0.  1.
         13    1    4    4    0    0  0.34975799086E+02 -0.20592442218E+02  0.91698227129E+02  0.10027921049E+03  0.00000000000E+00 0. -1.
          1    1    1    2  501    0 -0.29562841161E+02 -0.13238564333E+02 -0.74123088280E+01  0.33228955524E+02  0.00000000000E+00 0. -1.
<scales pt_clust_5="13000.00000" pt_clust_6="13000.00000" pt_clust_7="13000.00000" pt_clust_8="13000.00000" pt_clust_9="32.39168"></scales>
<clustering>
<clus scale="   32.392">  2  9  1 -1</clus>
<clus scale="   91.899">  5  6 -1 -1</clus>
<clus scale="   92.758">  1  5  2 -1</clus>
<clus scale="   92.986">  7  8 -1 -1</clus>
<clus scale="   32.392">  2  5  1 -1</clus>
</clustering>
</event>
<event>
 9    1  0.3288491E-005  0.9513776E+02  0.7546771E-02  0.1292713E+00
         -1   -1    0    0    0  501 -0.00000000000E+00  0.00000000000E+00  0.40280806023E+03  0.40280806023E+03  0.00000000000E+00 0.  1.
         21   -1    0    0  501  502  0.00000000000E+00 -0.00000000000E+00 -0.48465499953E+02  0.48465499953E+02  0.00000000000E+00 0. -1.
         23    2    1    2    0    0  0.11686253918E+02 -0.15683307663E+02  0.29623255605E+03  0.31099252418E+03  0.92628765283E+02 0.  0.
         23    2    1    2    0    0 -0.38944183879E+02  0.40620086689E+01  0.49839610810E+02  0.10951662893E+03  0.89312685734E+02 0.  0.
        -11    1    3    3    0    0  0.43594804966E+02  0.18825803135E+02  0.13916394774E+03  0.14704258646E+03  0.00000000000E+00 0.  1.
         11    1    3    3    0    0 -0.31908551048E+02 -0.34509110798E+02  0.15706860832E+03  0.16394993771E+03  0.00000000000E+00 0. -1.
        -13    1    4    4    0    0 -0.57914600396E+02 -0.17471803328E+02  0.53282682318E+02  0.80612710447E+02  0.00000000000E+00 0.  1.
         13    1    4    4    0    0  0.18970416517E+02  0.21533811997E+02 -0.34430715078E+01  0.28903918478E+02  0.00000000000E+00 0. -1.
         -1    1    1    2    0  502  0.27257929961E+02  0.11621298994E+02  0.82703934176E+01  0.30764407086E+02  0.00000000000E+00 0.  1.
<scales pt_clust_5="13000.00000" pt_clust_6="13000.00000" pt_clust_7="13000.00000" pt_clust_8="13000.00000" pt_clust_9="29.63190"></scales>
<clustering>
<clus scale="   29.632">  2  9  1 -1</clus>
<clus scale="   89.313">  7  8 -1 -1</clus>
<clus scale="   91.912">  2  7  1 -1</clus>
<clus scale="   92.629">  5  6 -1 -1</clus>
<clus scale="   29.632">  2  5  1 -1</clus>
</clustering>
</event>
<event>
 9    1  0.3288491E-005  0.1487751E+03  0.7546771E-02  0.1202318E+00
          1   -1    0    0  502    0 -0.00000000000E+00  0.00000000000E+00  0.78455077198E+03  0.78455077198E+03  0.00000000000E+00 0. -1.
         21   -1    0    0  501  502  0.00000000000E+00 -0.00000000000E+00 -0.96195389418E+02  0.96195389418E+02  0.00000000000E+00 0. -1.
         23    2    1    2    0    0 -0.20786799607E+02  0.10176241868E+03  0.35834368791E+03  0.38372197875E+03  0.89692125735E+02 0.  0.
         23    2    1    2    0    0  0.16909965282E+02 -0.13371175523E+03  0.39348499013E+03  0.42585783395E+03  0.91431268527E+02 0.  0.
        -11    1    4    4    0    0  0.42617204824E+02 -0.12190789860E+03  0.27168885382E+03  0.30081987165E+03  0.00000000000E+00 0. -1.
         11    1    4    4    0    0 -0.25707239542E+02 -0.11803856632E+02  0.12179613631E+03  0.12503796230E+03  0.00000000000E+00 0.  1.
        -13    1    3    3    0    0 -0.25593365066E+02  0.72046830833E+00  0.26691624863E+02  0.36986244035E+02  0.00000000000E+00 0.  1.
         13    1    3    3    0    0  0.48065654588E+01  0.10104195037E+03  0.33165206304E+03  0.34673573471E+03  0.00000000000E+00 0. -1.
          1    1    1    2  501    0  0.38768343254E+01  0.31949336551E+02 -0.63473295469E+02  0.71166348706E+02  0.00000000000E+00 0. -1.
<scales pt_clust_5="13000.00000" pt_clust_6="13000.00000" pt_clust_7="13000.00000" pt_clust_8="13000.00000" pt_clust_9="32.18369"></scales>
<clustering>
<clus scale="   32.184">  2  9  1 -1</clus>
<clus scale="   89.692">  7  8 -1 -1</clus>
<clus scale="   91.431">  5  6 -1 -1</clus>
<clus scale="  147.713">  1  7  2 -1</clus>
<clus scale="   32.184">  2  5  1 -1</clus>
</clustering>
</event>
<event>
 9    1  0.3288491E-005  0.1411514E+03  0.7546771E-02  0.1214031E+00
         -3   -1    0    0    0  501 -0.00000000000E+00  0.00000000000E+00  0.16943710084E+03  0.16943710084E+03  0.00000000000E+00 0.  1.
         21   -1    0    0  501  502  0.00000000000E+00 -0.00000000000E+00 -0.22267067816E+03  0.22267067816E+03  0.00000000000E+00 0. -1.
         23    2    1    2    0    0  0.30648369142E+02 -0.85105386026E+02  0.57806051586E+02  0.14737282358E+03  0.10097009591E+03 0.  0.
         23    2    1    2    0    0 -0.62923308811E+02  0.11303555229E+03 -0.12275927280E+03  0.20047305339E+03  0.91559965071E+02 0.  0.
        -13    1    4    4    0    0 -0.41203995149E+02  0.11830403693E+03 -0.12624668879E+03  0.17785342505E+03  0.00000000000E+00 0. -1.
         13    1    4    4    0    0 -0.21719313662E+02 -0.52684846387E+01  0.34874159843E+01  0.22619628348E+02  0.00000000000E+00 0.  1.
        -13    1    3    3    0    0  0.43176382350E+02 -0.10287373746E+03  0.57759583036E+02  0.12563190393E+03  0.00000000000E+00 0.  1.
         13    1    3    3    0    0 -0.12528013208E+02  0.17768351439E+02  0.46468550418E-01  0.21740919647E+02  0.00000000000E+00 0. -1.
         -3    1    1    2    0  502  0.32274939669E+02 -0.27930166267E+02  0.11719643899E+02  0.44261902032E+02  0.00000000000E+00 0.  1.
<scales pt_clust_5="13000.00000" pt_clust_6="13000.00000" pt_clust_7="13000.00000" pt_clust_8="13000.00000" pt_clust_9="42.68217"></scales>
<clustering>
<clus scale="   42.682">  2  9  1 -1</clus>
<clus scale="   91.560">  5  6 -1 -1</clus>
<clus scale="  100.970">  7  8 -1 -1</clus>
<clus scale="  134.581">  2  5  1 -1</clus>
<clus scale="   42.682">  2  5  1 -1</clus>
</clustering>
</event>
<event>
 9    1  0.3288491E-005  0.1211391E+03  0.7546771E-02  0.1241265E+00
         21   -1    0    0  501  502  0.00000000000E+00  0.00000000000E+00  0.82537165098E+02  0.82537165098E+02  0.00000000000E+00 0.  1.
          1   -1    0    0  502    0 -0.00000000000E+00 -0.00000000000E+00 -0.46194039900E+03  0.46194039900E+03  0.00000000000E+00 0. -1.
         23    2    1    2    0    0  0.35182712974E+02 -0.79082183141E+02 -0.35310825648E+03  0.37484379762E+03  0.91272212806E+02 0.  0.
         23    2    1    2    0    0  0.80474653718E+01  0.48617975409E+02  0.11742119799E+02  0.10448979487E+03  0.91388022320E+02 0.  0.
        -13    1    3    3    0    0  0.21569376755E+01  0.20236451459E+02 -0.74307013831E+02  0.77043485463E+02  0.00000000000E+00 0.  1.
         13    1    3    3    0    0  0.33025775298E+02 -0.99318634600E+02 -0.27880124265E+03  0.29780031215E+03  0.00000000000E+00 0. -1.
        -13    1    4    4    0    0  0.14430538078E+02  0.73268343899E+02  0.20708138434E+02  0.77493984568E+02  0.00000000000E+00 0.  1.
         13    1    4    4    0    0 -0.63830727060E+01 -0.24650368490E+02 -0.89660186348E+01  0.26995810305E+02  0.00000000000E+00 0. -1.
          1    1    1    2  501    0 -0.43230178345E+02  0.30464207733E+02 -0.38037097222E+02  0.65143971614E+02  0.00000000000E+00 0. -1.
<scales pt_clust_5="13000.00000" pt_clust_6="13000.00000" pt_clust_7="13000.00000" pt_clust_8="13000.00000" pt_clust_9="52.88588"></scales>
<clustering>
<clus scale="   52.886">  1  9  2 -1</clus>
<clus scale="   91.272">  5  6 -1 -1</clus>
<clus scale="   91.388">  7  8 -1 -1</clus>
<clus scale="  121.052">  2  5  1 -1</clus>
<clus scale="   52.886">  1  5  2 -1</clus>
</clustering>
</event>
<event>
 9    1  0.3288491E-005  0.9787186E+02  0.7546771E-02  0.1287332E+00
         21   -1    0    0  501  502  0.00000000000E+00  0.00000000000E+00  0.16715415665E+03  0.16715415665E+03  0.00000000000E+00 0.  1.
         -1   -1    0    0    0  501 -0.00000000000E+00 -0.00000000000E+00 -0.16154407186E+03  0.16154407186E+03  0.00000000000E+00 0.  1.
         23    2    1    2    0    0 -0.20322082920E+01  0.49642954661E+02 -0.54478159080E+02  0.11840048978E+03  0.92640451995E+02 0.  0.
         23    2    1    2    0    0  0.77225294924E+01  0.29435551259E+02  0.86224375435E+02  0.12681787752E+03  0.87875150072E+02 0.  0.
        -11    1    3    3    0    0 -0.19452141726E+02  0.65290235295E+02 -0.63668078758E+02  0.93246044931E+02  0.00000000000E+00 0.  1.
         11    1    3    3    0    0  0.17419933434E+02 -0.15647280634E+02  0.91899196776E+01  0.25154444851E+02  0.00000000000E+00 0. -1.
        -11    1    4    4    0    0 -0.34389372793E+02  0.30847102346E+02  0.25093434577E+02  0.52572361019E+02  0.00000000000E+00 0. -1.
         11    1    4    4    0    0  0.42111902285E+02 -0.14115510869E+01  0.61130940858E+02  0.74245516502E+02  0.00000000000E+00 0.  1.
         -1    1    1    2    0  502 -0.56903212003E+01 -0.79078505920E+02 -0.26136131565E+02  0.83479861207E+02  0.00000000000E+00 0.  1.
<scales pt_clust_5="13000.00000" pt_clust_6="13000.00000" pt_clust_7="13000.00000" pt_clust_8="13000.00000" pt_clust_9="79.28301"></scales>
<clustering>
<clus scale="   79.283">  1  9  2 -1</clus>
<clus scale="   87.875">  7  8 -1 -1</clus>
<clus scale="   92.640">  5  6 -1 -1</clus>
<clus scale="   93.374">  1  7  2 -1</clus>
<clus scale="   79.283">  1  5  2 -1</clus>
</clustering>
</event>
<event>
 9    1  0.3288491E-005  0.1241765E+03  0.7546771E-02  0.1238026E+00
         21   -1    0    0  501  502  0.00000000000E+00  0.00000000000E+00  0.15914626893E+03  0.15914626893E+03  0.00000000000E+00 0. -1.
         -4   -1    0    0    0  501 -0.00000000000E+00 -0.00000000000E+00 -0.22163678213E+03  0.22163678213E+03  0.00000000000E+00 0.  1.
         23    2    1    2    0    0  0.37304842192E+02  0.69257705703E+02 -0.54098652835E+02  0.13343476178E+03  0.93219581438E+02 0.  0.
         23    2    1    2    0    0 -0.10713951226E+03  0.45050157722E+01 -0.32802478523E+01  0.14564308388E+03  0.98498617266E+02 0.  0.
        -11    1    3    3    0    0  0.26604517141E+02 -0.15732784325E+02  0.21071807223E+01  0.30980010419E+02  0.00000000000E+00 0.  1.
         11    1    3    3    0    0  0.10700325050E+02  0.84990490028E+02 -0.56205833558E+02  0.10245475137E+03  0.00000000000E+00 0. -1.
        -13    1    4    4    0    0 -0.46477167590E+02 -0.42733859206E+02 -0.21373813149E+02  0.66656955514E+02  0.00000000000E+00 0.  1.
         13    1    4    4    0    0 -0.60662344666E+02  0.47238874978E+02  0.18093565297E+02  0.78986128369E+02  0.00000000000E+00 0. -1.
         -4    1    1    2    0  502  0.69834670064E+02 -0.73762721475E+02 -0.51116125089E+01  0.10170520540E+03  0.00000000000E+00 0.  1.
<scales pt_clust_5="13000.00000" pt_clust_6="13000.00000" pt_clust_7="13000.00000" pt_clust_8="13000.00000" pt_clust_9="101.57667"></scales>
<clustering>
<clus scale="   93.220">  5  6 -1 -1</clus>
<clus scale="   98.499">  7  8 -1 -1</clus>
<clus scale="  101.577">  1  9  2 -1</clus>
<clus scale="  120.032">  2  5  1 -1</clus>
<clus scale="  101.577">  1  5  2 -1</clus>
</clustering>
</event>
<event>
 9    1  0.3288491E-005  0.1880610E+03  0.7546771E-02  0.1160356E+00
         21   -1    0    0  501  502  0.00000000000E+00  0.00000000000E+00  0.27520836642E+03  0.27520836642E+03  0.00000000000E+00 0.  1.
          1   -1    0    0  502    0 -0.00000000000E+00 -0.00000000000E+00 -0.23542549306E+03  0.23542549306E+03  0.00000000000E+00 0. -1.
         23    2    1    2    0    0  0.13587204599E+03 -0.15129943920E+03 -0.73483112392E+02  0.23842374140E+03  0.10046581246E+03 0.  0.
         23    2    1    2    0    0 -0.81947652518E+02  0.61995947967E+02  0.59252511221E+02  0.15473497523E+03  0.99363661149E+02 0.  0.
        -11    1    4    4    0    0 -0.78415624068E+02  0.87164386583E+02  0.44915610504E+02  0.12555497781E+03  0.00000000000E+00 0.  1.
         11    1    4    4    0    0 -0.35320284496E+01 -0.25168438616E+02  0.14336900717E+02  0.29179997421E+02  0.00000000000E+00 0. -1.
        -13    1    3    3    0    0  0.23399763380E+02 -0.37891171364E+02  0.24711409011E+02  0.50930771925E+02  0.00000000000E+00 0.  1.
         13    1    3    3    0    0  0.11247228261E+03 -0.11340826784E+03 -0.98194521404E+02  0.18749296947E+03  0.00000000000E+00 0. -1.
          1    1    1    2  501    0 -0.53924393470E+02  0.89303491233E+02  0.54013474530E+02  0.11747514285E+03  0.00000000000E+00 0. -1.
<scales pt_clust_5="13000.00000" pt_clust_6="13000.00000" pt_clust_7="13000.00000" pt_clust_8="13000.00000" pt_clust_9="104.32140"></scales>
<clustering>
<clus scale="   99.364">  5  6 -1 -1</clus>
<clus scale="  100.466">  7  8 -1 -1</clus>
<clus scale="  104.321">  1  9  2 -1</clus>
<clus scale="  187.475">  1  5  2 -1</clus>
<clus scale="  104.321">  1  5  2 -1</clus>
</clustering>
</event>
<event>
 9    1  0.3288491E-005  0.9629429E+02  0.7546771E-02  0.1291688E+00
         21   -1    0    0  501  502  0.00000000000E+00  0.00000000000E+00  0.22025038823E+03  0.22025038823E+03  0.00000000000E+00 0.  1.
          1   -1    0    0  502    0 -0.00000000000E+00 -0.00000000000E+00 -0.10639166669E+03  0.10639166669E+03  0.00000000000E+00 0. -1.
         23    2    1    2    0    0  0.91296836741E+01 -0.17713796721E+02 -0.56474282531E+02  0.10595296881E+03  0.87404561065E+02 0.  0.
         23    2    1    2    0    0  0.10619506617E+02  0.45996320445E+02  0.11580418686E+03  0.15616526437E+03  0.93533655373E+02 0.  0.
        -13    1    3    3    0    0 -0.36120564748E+02 -0.24604125768E+02 -0.30861717726E+02  0.53502372130E+02  0.00000000000E+00 0. -1.
         13    1    3    3    0    0  0.45250248422E+02  0.68903290476E+01 -0.25612564805E+02  0.52450596685E+02  0.00000000000E+00 0.  1.
        -13    1    4    4    0    0  0.83013082880E+01 -0.27539545979E+02  0.48842927662E+02  0.56683065325E+02  0.00000000000E+00 0. -1.
         13    1    4    4    0    0  0.23181983288E+01  0.73535866424E+02  0.66961259197E+02  0.99482199048E+02  0.00000000000E+00 0.  1.
          1    1    1    2  501    0 -0.19749190291E+02 -0.28282523724E+02  0.54528817206E+02  0.64523821735E+02  0.00000000000E+00 0. -1.
<scales pt_clust_5="13000.00000" pt_clust_6="13000.00000" pt_clust_7="13000.00000" pt_clust_8="13000.00000" pt_clust_9="34.49539"></scales>
<clustering>
<clus scale="   34.495">  1  9  2 -1</clus>
<clus scale="   87.405">  5  6 -1 -1</clus>
<clus scale="   90.353">  2  5  1 -1</clus>
<clus scale="   93.534">  7  8 -1 -1</clus>
<clus scale="   34.495">  1  5  2 -1</clus>
</clustering>
</event>
<event>
 9    1  0.3288491E-005  0.9440506E+02  0.7546771E-02  0.1293497E+00
          1   -1    0    0  502    0 -0.00000000000E+00  0.00000000000E+00  0.85879148796E+03  0.85879148796E+03  0.00000000000E+00 0. -1.
         21   -1    0    0  501  502  0.00000000000E+00 -0.00000000000E+00 -0.46402003057E+02  0.46402003057E+02  0.00000000000E+00 0.  1.
         23    2    1    2    0    0 -0.10613373291E+02 -0.36956784873E+02  0.17235954205E+03  0.19970894653E+03  0.93259873190E+02 0.  0.
         23    2    1    2    0    0 -0.22078359188E+02 -0.34453730870E+02  0.53362639122E+02  0.11358359298E+03  0.91537685268E+02 0.  0.
        -11    1    4    4    0    0  0.30264862820E+02  0.82849830690E+01  0.25722824569E+02  0.40574210649E+02  0.00000000000E+00 0.  1.
         11    1    4    4    0    0 -0.52343222009E+02 -0.42738713939E+02  0.27639814552E+02  0.73009382328E+02  0.00000000000E+00 0. -1.
        -11    1    3    3    0    0 -0.39432309919E+00  0.31104148690E+02  0.66905719090E+02  0.73783458874E+02  0.00000000000E+00 0.  1.
         11    1    3    3    0    0 -0.10219050192E+02 -0.68060933563E+02  0.10545382295E+03  0.12592548765E+03  0.00000000000E+00 0. -1.
          1    1    1    2  501    0  0.32691732479E+02  0.71410515743E+02  0.58666730373E+03  0.59190095151E+03  0.00000000000E+00 0. -1.
<scales pt_clust_5="13000.00000" pt_clust_6="13000.00000" pt_clust_7="13000.00000" pt_clust_8="13000.00000" pt_clust_9="78.53800"></scales>
<clustering>
<clus scale="   78.538">  2  9  1 -1</clus>
<clus scale="   91.538">  5  6 -1 -1</clus>
<clus scale="   92.704">  2  5  1 -1</clus>
<clus scale="   93.260">  7  8 -1 -1</clus>
<clus scale="   78.538">  2  5  1 -1</clus>
</clustering>
</event>
<event>
 9    1  0.3288491E-005  0.1363236E+03  0.7546771E-02  0.1227244E+00
         21   -1    0    0  501  502  0.00000000000E+00  0.00000000000E+00  0.68369969244E+03  0.68369969244E+03  0.00000000000E+00 0. -1.
          2   -1    0    0  502    0 -0.00000000000E+00 -0.00000000000E+00 -0.48589749644E+02  0.48589749644E+02  0.00000000000E+00 0. -1.
         23    2    1    2    0    0 -0.66630927420E+02  0.44123297635E+02  0.77620727550E+02  0.14419057934E+03  0.91539062388E+02 0.  0.
         23    2    1    2    0    0  0.28378780941E+02 -0.16144511291E+02  0.27131926044E+03  0.29803114267E+03  0.11892190909E+03 0.  0.
        -13    1    4    4    0    0  0.59860049633E+02  0.19928275965E+02  0.86204439733E+02  0.10682493695E+03  0.00000000000E+00 0.  1.
         13    1    4    4    0    0 -0.31481268691E+02 -0.36072787257E+02  0.18511482071E+03  0.19120620572E+03  0.00000000000E+00 0. -1.
        -13    1    3    3    0    0  0.78638525624E+01  0.27679873350E+02  0.59029987848E+02  0.65670046681E+02  0.00000000000E+00 0.  1.
         13    1    3    3    0    0 -0.74494779982E+02  0.16443424286E+02  0.18590739702E+02  0.78520532662E+02  0.00000000000E+00 0. -1.
          2    1    1    2  501    0  0.38252146478E+02 -0.27978786344E+02  0.28616995480E+03  0.29006772007E+03  0.00000000000E+00 0. -1.
<scales pt_clust_5="13000.00000" pt_clust_6="13000.00000" pt_clust_7="13000.00000" pt_clust_8="13000.00000" pt_clust_9="47.39240"></scales>
<clustering>
<clus scale="   47.392">  1  9  2 -1</clus>
<clus scale="   91.539">  7  8 -1 -1</clus>
<clus scale="  113.230">  2  7  1 -1</clus>
<clus scale="  118.922">  5  6 -1 -1</clus>
<clus scale="   47.392">  1  5  2 -1</clus>
</clustering>
</event>
<event>
 9    1  0.3288491E-005  0.1345414E+03  0.7546771E-02  0.1228529E+00
          2   -1    0    0  502    0 -0.00000000000E+00  0.00000000000E+00  0.11752044076E+04  0.11752044076E+04  0.00000000000E+00 0. -1.
         21   -1    0    0  501  502  0.00000000000E+00 -0.00000000000E+00 -0.19824315413E+02  0.19824315413E+02  0.00000000000E+00 0. -1.
         23    2    1    2    0    0  0.12998352798E+02 -0.89009938876E+02  0.51949173818E+03  0.53046506063E+03  0.58564392887E+02 0.  0.
         23    2    1    2    0    0  0.48946496917E+01  0.11999112450E+03  0.43363159022E+03  0.45916699275E+03  0.91521274250E+02 0.  0.
        -11    1    3    3    0    0  0.35504528283E+02 -0.62981669977E+02  0.37772958040E+03  0.38458665889E+03  0.00000000000E+00 0. -1.
         11    1    3    3    0    0 -0.22506175485E+02 -0.26028268900E+02  0.14176215778E+03  0.14587840174E+03  0.00000000000E+00 0.  1.
        -13    1    4    4    0    0  0.20323989998E+02  0.10463545478E+03  0.42037849740E+03  0.43368159293E+03  0.00000000000E+00 0. -1.
         13    1    4    4    0    0 -0.15429340306E+02  0.15355669719E+02  0.13253092816E+02  0.25485399821E+02  0.00000000000E+00 0.  1.
          2    1    1    2  501    0 -0.17893002489E+02 -0.30981185619E+02  0.20225676383E+03  0.20539666968E+03  0.00000000000E+00 0. -1.
<scales pt_clust_5="13000.00000" pt_clust_6="13000.00000" pt_clust_7="13000.00000" pt_clust_8="13000.00000" pt_clust_9="35.77701"></scales>
<clustering>
<clus scale="   35.777">  2  9  1 -1</clus>
<clus scale="   58.564">  5  6 -1 -1</clus>
<clus scale="   91.521">  7  8 -1 -1</clus>
<clus scale="  114.695">  1  5  2 -1</clus>
<clus scale="   35.777">  2  5  1 -1</clus>
</clustering>
</event>
<event>
 9    1  0.3288491E-005  0.1239456E+03  0.7546771E-02  0.1237588E+00
         -2   -1    0    0    0  501 -0.00000000000E+00  0.00000000000E+00  0.10987018240E+03  0.10987018240E+03  0.00000000000E+00 0.  1.
         21   -1    0    0  501  502  0.00000000000E+00 -0.00000000000E+00 -0.27123610515E+03  0.27123610515E+03  0.00000000000E+00 0.  1.
         23    2    1    2    0    0 -0.32728680113E+02 -0.84315289639E+02 -0.15076456679E+02  0.13004507730E+03  0.92218154472E+02 0.  0.
         23    2    1    2    0    0 -0.38450502008E+02  0.80586725213E+02 -0.62003324772E+02  0.14067764365E+03  0.89292361116E+02 0.  0.
        -11    1    4    4    0    0 -0.22750732915E+02 -0.70161642461E+01 -0.43776567718E+02  0.49831820055E+02  0.00000000000E+00 0.  1.
         11    1    4    4    0    0 -0.15699769093E+02  0.87602889459E+02 -0.18226757055E+02  0.90845823590E+02  0.00000000000E+00 0. -1.
        -11    1    3    3    0    0 -0.48225618011E+02 -0.11790408092E+02 -0.24366751184E+02  0.55303368060E+02  0.00000000000E+00 0.  1.
         11    1    3    3    0    0  0.15496937898E+02 -0.72524881547E+02  0.92902945050E+01  0.74741709236E+02  0.00000000000E+00 0. -1.
         -2    1    1    2    0  502  0.71179182121E+02  0.37285644265E+01 -0.84286141304E+02  0.11038356660E+03  0.00000000000E+00 0.  1.
<scales pt_clust_5="13000.00000" pt_clust_6="13000.00000" pt_clust_7="13000.00000" pt_clust_8="13000.00000" pt_clust_9="71.27677"></scales>
<clustering>
<clus scale="   71.277">  2  9  1 -1</clus>
<clus scale="   89.292">  5  6 -1 -1</clus>
<clus scale="   92.218">  7  8 -1 -1</clus>
<clus scale="  121.784">  2  5  1 -1</clus>
<clus scale="   71.277">  2  5  1 -1</clus>
</clustering>
</event>
<event>
 9    1  0.3288491E-005  0.1119278E+03  0.7546771E-02  0.1257703E+00
         21   -1    0    0  501  502  0.00000000000E+00  0.00000000000E+00  0.45473449953E+03  0.45473449953E+03  0.00000000000E+00 0. -1.
         -1   -1    0    0    0  501 -0.00000000000E+00 -0.00000000000E+00 -0.44492137463E+02  0.44492137463E+02  0.00000000000E+00 0.  1.
         23    2    1    2    0    0  0.20850852585E+02 -0.58572274880E+02  0.11509788007E+03  0.15901805109E+03  0.90408789058E+02 0.  0.
         23    2    1    2    0    0  0.52444770352E+01  0.78051897082E+02  0.28072939149E+03  0.30459655502E+03  0.88602860585E+02 0.  0.
        -11    1    4    4    0    0  0.34716775356E+02  0.65656385750E+02  0.12319800052E+03  0.14385326834E+03  0.00000000000E+00 0. -1.
         11    1    4    4    0    0 -0.29472298321E+02  0.12395511332E+02  0.15753139097E+03  0.16074328667E+03  0.00000000000E+00 0.  1.
        -11    1    3    3    0    0  0.17533690039E+02 -0.78651955072E+02  0.60546883225E+02  0.10079427261E+03  0.00000000000E+00 0.  1.
         11    1    3    3    0    0  0.33171625462E+01  0.20079680192E+02  0.54550996844E+02  0.58223778481E+02  0.00000000000E+00 0. -1.
         -1    1    1    2    0  502 -0.26095329620E+02 -0.19479622202E+02  0.14415090505E+02  0.35612030880E+02  0.00000000000E+00 0.  1.
<scales pt_clust_5="13000.00000" pt_clust_6="13000.00000" pt_clust_7="13000.00000" pt_clust_8="13000.00000" pt_clust_9="32.56414"></scales>
<clustering>
<clus scale="   32.564">  1  9  2 -1</clus>
<clus scale="   88.603">  5  6 -1 -1</clus>
<clus scale="   90.409">  7  8 -1 -1</clus>
<clus scale="  110.474">  1  5  2 -1</clus>
<clus scale="   32.564">  1  5  2 -1</clus>
</clustering>
</event>
<event>
 9    1  0.3288491E-005  0.1035290E+03  0.7546771E-02  0.1276071E+00
         21   -1    0    0  501  502  0.00000000000E+00  0.00000000000E+00  0.12673261103E+03  0.12673261103E+03  0.00000000000E+00 0. -1.
         -1   -1    0    0    0  501 -0.00000000000E+00 -0.00000000000E+00 -0.13256650158E+03  0.13256650158E+03  0.00000000000E+00 0.  1.
         23    2    1    2    0    0 -0.26543380216E+01  0.39855885154E+02 -0.55923039073E+02  0.12061182495E+03  0.99117551049E+02 0.  0.
         23    2    1    2    0    0  0.13884148201E+02 -0.66397846135E+01  0.36599388036E+02  0.10111879542E+03  0.92998060575E+02 0.  0.
        -11    1    4    4    0    0 -0.26976423086E+02  0.78076589608E+01  0.48615758268E+02  0.56144268567E+02  0.00000000000E+00 0. -1.
         11    1    4    4    0    0  0.40860571287E+02 -0.14447443574E+02 -0.12016370232E+02  0.44974526848E+02  0.00000000000E+00 0.  1.
        -13    1    3    3    0    0  0.34811932608E+02  0.50495258967E+02 -0.53835606568E+02  0.81608298381E+02  0.00000000000E+00 0.  1.
         13    1    3    3    0    0 -0.37466270630E+02 -0.10639373813E+02 -0.20874325051E+01  0.39003526565E+02  0.00000000000E+00 0. -1.
         -1    1    1    2    0  502 -0.11229810179E+02 -0.33216100540E+02  0.13489760481E+02  0.37568492245E+02  0.00000000000E+00 0.  1.
<scales pt_clust_5="13000.00000" pt_clust_6="13000.00000" pt_clust_7="13000.00000" pt_clust_8="13000.00000" pt_clust_9="35.06306"></scales>
<clustering>
<clus scale="   35.063">  1  9  2 -1</clus>
<clus scale="   92.998">  5  6 -1 -1</clus>
<clus scale="   97.686">  1  5  2 -1</clus>
<clus scale="   99.118">  7  8 -1 -1</clus>
<clus scale="   35.063">  1  5  2 -1</clus>
</clustering>
</event>
<event>
 9    1  0.3288491E-005  0.1339207E+03  0.7546771E-02  0.1222230E+00
          3   -1    0    0  502    0 -0.00000000000E+00  0.00000000000E+00  0.48256056497E+03  0.48256056497E+03  0.00000000000E+00 0. -1.
         21   -1    0    0  501  502  0.00000000000E+00 -0.00000000000E+00 -0.12061271648E+03  0.12061271648E+03  0.00000000000E+00 0. -1.
         23    2    1    2    0    0  0.15188728310E+02  0.10736411175E+03  0.32068168736E+03  0.35057299339E+03  0.91142356389E+02 0.  0.
         23    2    1    2    0    0  0.85697347509E+02 -0.59900347626E+02  0.16659331102E+02  0.13842364735E+03  0.89171104156E+02 0.  0.
        -13    1    3    3    0    0 -0.37975728978E+02  0.33491488872E+02  0.11397185093E+03  0.12471334581E+03  0.00000000000E+00 0.  1.
         13    1    3    3    0    0  0.53164457289E+02  0.73872622879E+02  0.20670983643E+03  0.22585964759E+03  0.00000000000E+00 0. -1.
        -13    1    4    4    0    0  0.44229404837E+02 -0.72735619960E+02  0.34017526982E+02  0.91672802975E+02  0.00000000000E+00 0. -1.
         13    1    4    4    0    0  0.41467942672E+02  0.12835272334E+02 -0.17358195880E+02  0.46750844373E+02  0.00000000000E+00 0.  1.
          3    1    1    2  501    0 -0.10088607582E+03 -0.47463764125E+02  0.24606830028E+02  0.11417664071E+03  0.00000000000E+00 0. -1.
<scales pt_clust_5="13000.00000" pt_clust_6="13000.00000" pt_clust_7="13000.00000" pt_clust_8="13000.00000" pt_clust_9="111.49354"></scales>
<clustering>
<clus scale="   89.171">  7  8 -1 -1</clus>
<clus scale="   91.142">  5  6 -1 -1</clus>
<clus scale="  111.494">  2  9  1 -1</clus>
<clus scale="  132.587">  2  7  1 -1</clus>
<clus scale="  111.494">  2  5  1 -1</clus>
</clustering>
</event>
<event>
 9    1  0.3288491E-005  0.4665012E+03  0.7546771E-02  0.1057837E+00
         21   -1    0    0  501  502  0.00000000000E+00  0.00000000000E+00  0.53782532399E+03  0.53782532399E+03  0.00000000000E+00 0. -1.
         -1   -1    0    0    0  501 -0.00000000000E+00 -0.00000000000E+00 -0.81358997271E+03  0.81358997271E+03  0.00000000000E+00 0.  1.
         23    2    1    2    0    0 -0.12582275334E+03  0.66795645611E+02 -0.17912395016E+03  0.24622946757E+03  0.90832470226E+02 0.  0.
         23    2    1    2    0    0  0.63529306593E+02  0.40486671697E+03 -0.36729207925E+03  0.55783034349E+03  0.91204108037E+02 0.  0.
        -11    1    4    4    0    0  0.67983871759E+02  0.15282383534E+03 -0.15993500173E+03  0.23142198739E+03  0.00000000000E+00 0. -1.
         11    1    4    4    0    0 -0.44545651657E+01  0.25204288163E+03 -0.20735707752E+03  0.32640835610E+03  0.00000000000E+00 0.  1.
        -11    1    3    3    0    0 -0.39819599578E+02  0.66776559602E+02 -0.55053901001E+02  0.95266161034E+02  0.00000000000E+00 0.  1.
         11    1    3    3    0    0 -0.86003153765E+02  0.19086009754E-01 -0.12407004916E+03  0.15096330654E+03  0.00000000000E+00 0. -1.
         -1    1    1    2    0  502  0.62293446750E+02 -0.47166236258E+03  0.27065138070E+03  0.54735548564E+03  0.00000000000E+00 0.  1.
<scales pt_clust_5="13000.00000" pt_clust_6="13000.00000" pt_clust_7="13000.00000" pt_clust_8="13000.00000" pt_clust_9="457.49888"></scales>
<clustering>
<clus scale="   90.832">  7  8 -1 -1</clus>
<clus scale="   91.204">  5  6 -1 -1</clus>
<clus scale="  168.948">  2  7  1 -1</clus>
<clus scale="  457.499">  1  9  2 -1</clus>
<clus scale="  457.499">  1  5  2 -1</clus>
</clustering>
</event>
<event>
 9    1  0.3288491E-005  0.9627617E+02  0.7546771E-02  0.1288941E+00
          4   -1    0    0  502    0 -0.00000000000E+00  0.00000000000E+00  0.33866545110E+03  0.33866545110E+03  0.00000000000E+00 0. -1.
         21   -1    0    0  501  502  0.00000000000E+00 -0.00000000000E+00 -0.36586331382E+02  0.36586331382E+02  0.00000000000E+00 0.  1.
         23    2    1    2    0    0  0.62308700303E+01  0.18333706278E+02  0.14514024235E+03  0.17337243789E+03  0.92829756774E+02 0.  0.
         23    2    1    2    0    0  0.18107303038E+02 -0.22356115082E+02  0.14311134430E+03  0.17359989778E+03  0.93959551614E+02 0.  0.
        -11    1    4    4    0    0 -0.31443457174E+02 -0.22806664943E+02  0.26854282397E+02  0.47222742910E+02  0.00000000000E+00 0.  1.
         11    1    4    4    0    0  0.49550760211E+02  0.45054986031E+00  0.11625706190E+03  0.12637715487E+03  0.00000000000E+00 0. -1.
        -13    1    3    3    0    0 -0.39298243426E+02  0.23977642951E+02  0.94013915084E+02  0.10467996717E+03  0.00000000000E+00 0. -1.
         13    1    3    3    0    0  0.45529113457E+02 -0.56439366728E+01  0.51126327267E+02  0.68692470717E+02  0.00000000000E+00 0.  1.
          4    1    1    2  501    0 -0.24338173068E+02  0.40224088039E+01  0.13827533068E+02  0.28279446805E+02  0.00000000000E+00 0. -1.
<scales pt_clust_5="13000.00000" pt_clust_6="13000.00000" pt_clust_7="13000.00000" pt_clust_8="13000.00000" pt_clust_9="24.66833"></scales>
<clustering>
<clus scale="   24.668">  2  9  1 -1</clus>
<clus scale="   92.830">  7  8 -1 -1</clus>
<clus scale="   93.960">  5  6 -1 -1</clus>
<clus scale="   95.174">  1  7  2 -1</clus>
<clus scale="   24.668">  2  5  1 -1</clus>
</clustering>
</event>
<event>
 9    1  0.3288491E-005  0.1017071E+03  0.7546771E-02  0.1277817E+00
         21   -1    0    0  501  502  0.00000000000E+00  0.00000000000E+00  0.38220496677E+02  0.38220496677E+02  0.00000000000E+00 0. -1.
          1   -1    0    0  502    0 -0.00000000000E+00 -0.00000000000E+00 -0.69217885211E+03  0.69217885211E+03  0.00000000000E+00 0. -1.
         23    2    1    2    0    0  0.21626000623E+02  0.56664344337E+02 -0.42387567953E+03  0.43747460902E+03  0.89637659621E+02 0.  0.
         23    2    1    2    0    0  0.43987942054E+01 -0.22384386346E+02 -0.23122519794E+03  0.24986999761E+03  0.91921234756E+02 0.  0.
        -11    1    3    3    0    0  0.20317215434E+02  0.77749733654E+02 -0.38431144255E+03  0.39262335030E+03  0.00000000000E+00 0. -1.
         11    1    3    3    0    0  0.13087851893E+01 -0.21085389317E+02 -0.39564236975E+02  0.44851258720E+02  0.00000000000E+00 0.  1.
        -11    1    4    4    0    0 -0.35122755991E+02 -0.15034833046E+02 -0.18366627031E+03  0.18759784925E+03  0.00000000000E+00 0.  1.
         11    1    4    4    0    0  0.39521550197E+02 -0.73495533003E+01 -0.47558927624E+02  0.62272148352E+02  0.00000000000E+00 0. -1.
          1    1    1    2  501    0 -0.26024794829E+02 -0.34279957991E+02  0.11425220336E+01  0.43054742158E+02  0.00000000000E+00 0. -1.
<scales pt_clust_5="13000.00000" pt_clust_6="13000.00000" pt_clust_7="13000.00000" pt_clust_8="13000.00000" pt_clust_9="43.03958"></scales>
<clustering>
<clus scale="   43.040">  1  9  2 -1</clus>
<clus scale="   89.638">  5  6 -1 -1</clus>
<clus scale="   91.921">  7  8 -1 -1</clus>
<clus scale="   99.648">  2  5  1 -1</clus>
<clus scale="   43.040">  1  5  2 -1</clus>
</clustering>
</event>
<event>
 9    1  0.3288491E-005  0.9582765E+02  0.7546771E-02  0.1290272E+00
         -2   -1    0    0    0  501 -0.00000000000E+00  0.00000000000E+00  0.22420845543E+03  0.22420845543E+03  0.00000000000E+00 0.  1.
         21   -1    0    0  501  502  0.00000000000E+00 -0.00000000000E+00 -0.10413377415E+03  0.10413377415E+03  0.00000000000E+00 0.  1.
         23    2    1    2    0    0  0.13646144463E+02  0.48771793678E+02  0.11266232793E+03  0.15343418402E+03  0.91018369426E+02 0.  0.
         23    2    1    2    0    0 -0.22826174429E+02  0.28898645046E+02  0.38305873250E+01  0.96615012347E+02  0.89239124195E+02 0.  0.
        -11    1    4    4    0    0  0.29624214588E+02 -0.83087062904E+01  0.91199719549E+01  0.32090537213E+02  0.00000000000E+00 0. -1.
         11    1    4    4    0    0 -0.52450389017E+02  0.37207351336E+02 -0.52893846298E+01  0.64524475134E+02  0.00000000000E+00 0.  1.
        -13    1    3    3    0    0  0.30185306368E+02 -0.17713369133E+02  0.46418915565E+02  0.58134601477E+02  0.00000000000E+00 0. -1.
         13    1    3    3    0    0 -0.16539161905E+02  0.66485162811E+02  0.66243412364E+02  0.95299582540E+02  0.00000000000E+00 0.  1.
         -2    1    1    2    0  502  0.91800299662E+01 -0.77670438724E+02  0.35817660274E+01  0.78293033212E+02  0.00000000000E+00 0.  1.
<scales pt_clust_5="13000.00000" pt_clust_6="13000.00000" pt_clust_7="13000.00000" pt_clust_8="13000.00000" pt_clust_9="78.21106"></scales>
<clustering>
<clus scale="   78.211">  2  9  1 -1</clus>
<clus scale="   89.239">  5  6 -1 -1</clus>
<clus scale="   91.018">  7  8 -1 -1</clus>
<clus scale="   94.139">  2  5  1 -1</clus>
<clus scale="   78.211">  2  5  1 -1</clus>
</clustering>
</event>
<event>
 9    1  0.3288491E-005  0.1345007E+03  0.7546771E-02  0.1228583E+00
         21   -1    0    0  501  502  0.00000000000E+00  0.00000000000E+00  0.23390578284E+03  0.23390578284E+03  0.00000000000E+00 0.  1.
          1   -1    0    0  502    0 -0.00000000000E+00 -0.00000000000E+00 -0.12980045029E+03  0.12980045029E+03  0.00000000000E+00 0. -1.
         23    2    1    2    0    0 -0.38922631071E+02 -0.94505680207E+02 -0.61461015461E+02  0.13365509648E+03  0.60331862169E+02 0.  0.
         23    2    1    2    0    0  0.47654957728E+02  0.61424519389E+02  0.14939601048E+03  0.19220808517E+03  0.92632680410E+02 0.  0.
        -11    1    4    4    0    0  0.19818991221E+02 -0.23977778209E+02  0.38208596969E+02  0.49270915794E+02  0.00000000000E+00 0.  1.
         11    1    4    4    0    0  0.27835966507E+02  0.85402297599E+02  0.11118741351E+03  0.14293716937E+03  0.00000000000E+00 0. -1.
        -13    1    3    3    0    0 -0.10772314255E+02 -0.88007100938E+02 -0.38109148222E+02  0.96506993260E+02  0.00000000000E+00 0.  1.
         13    1    3    3    0    0 -0.28150316815E+02 -0.64985792694E+01 -0.23351867239E+02  0.37148103220E+02  0.00000000000E+00 0. -1.
          1    1    1    2  501    0 -0.87323266568E+01  0.33081160818E+02  0.16170337537E+02  0.37843051489E+02  0.00000000000E+00 0. -1.
<scales pt_clust_5="13000.00000" pt_clust_6="13000.00000" pt_clust_7="13000.00000" pt_clust_8="13000.00000" pt_clust_9="34.21428"></scales>
<clustering>
<clus scale="   34.214">  1  9  2 -1</clus>
<clus scale="   60.332">  7  8 -1 -1</clus>
<clus scale="   92.633">  5  6 -1 -1</clus>
<clus scale="  114.672">  2  7  1 -1</clus>
<clus scale="   34.214">  1  5  2 -1</clus>
</clustering>
</event>
<event>
 9    1  0.3288491E-005  0.9777043E+02  0.7546771E-02  0.1285663E+00
          2   -1    0    0  502    0 -0.00000000000E+00  0.00000000000E+00  0.34457649607E+03  0.34457649607E+03  0.00000000000E+00 0. -1.
         21   -1    0    0  501  502  0.00000000000E+00 -0.00000000000E+00 -0.66526102502E+02  0.66526102502E+02  0.00000000000E+00 0. -1.
         23    2    1    2    0    0 -0.38660421005E+02 -0.40714550086E+01  0.23007831786E+03  0.24985704551E+03  0.89338155025E+02 0.  0.
         23    2    1    2    0    0  0.30435455599E+02 -0.32110176207E+02  0.65520118400E+02  0.12020052541E+03  0.90542255435E+02 0.  0.
        -11    1    3    3    0    0 -0.59949094969E+02  0.84024718265E+01  0.20839557914E+03  0.21700970698E+03  0.00000000000E+00 0. -1.
         11    1    3    3    0    0  0.21288673964E+02 -0.12473926835E+02  0.21682738723E+02  0.32847338528E+02  0.00000000000E+00 0.  1.
        -13    1    4    4    0    0 -0.77569928393E+01 -0.49822508023E+02  0.58980147855E+02  0.77595818732E+02  0.00000000000E+00 0. -1.
         13    1    4    4    0    0  0.38192448439E+02  0.17712331816E+02  0.65399705445E+01  0.42604706674E+02  0.00000000000E+00 0.  1.
          2    1    1    2  501    0  0.82249654056E+01  0.36181631216E+02 -0.17548042689E+02  0.41045027660E+02  0.00000000000E+00 0. -1.
<scales pt_clust_5="13000.00000" pt_clust_6="13000.00000" pt_clust_7="13000.00000" pt_clust_8="13000.00000" pt_clust_9="37.10472"></scales>
<clustering>
<clus scale="   37.105">  2  9  1 -1</clus>
<clus scale="   89.338">  5  6 -1 -1</clus>
<clus scale="   90.542">  7  8 -1 -1</clus>
<clus scale="   96.656">  1  5  2 -1</clus>
<clus scale="   37.105">  2  5  1 -1</clus>
</clustering>
</event>
<event>
 9    1  0.3288491E-005  0.1611286E+03  0.7546771E-02  0.1188681E+00
         21   -1    0    0  501  502  0.00000000000E+00  0.00000000000E+00  0.28928525745E+02  0.28928525745E+02  0.00000000000E+00 0.  1.
          2   -1    0    0  502    0 -0.00000000000E+00 -0.00000000000E+00 -0.11588854815E+04  0.11588854815E+04  0.00000000000E+00 0. -1.
         23    2    1    2    0    0 -0.55619102043E+02 -0.11267500717E+03 -0.67323530969E+03  0.69185952789E+03  0.98156417873E+02 0.  0.
         23    2    1    2    0    0  0.84759150505E+02  0.10311581523E+03 -0.40262675096E+03  0.43377105511E+03  0.90730605159E+02 0.  0.
        -11    1    3    3    0    0  0.10479349074E+02 -0.81450209700E+02 -0.27618047171E+03  0.28813123116E+03  0.00000000000E+00 0.  1.
         11    1    3    3    0    0 -0.66098451117E+02 -0.31224797465E+02 -0.39705483798E+03  0.40372829673E+03  0.00000000000E+00 0. -1.
        -11    1    4    4    0    0  0.24469942775E+02  0.92663779394E+02 -0.29231496693E+03  0.30762541182E+03  0.00000000000E+00 0. -1.
         11    1    4    4    0    0  0.60289207730E+02  0.10452035838E+02 -0.11031178404E+03  0.12614564328E+03  0.00000000000E+00 0.  1.
          2    1    1    2  501    0 -0.29140048462E+02  0.95591919324E+01 -0.54094895098E+02  0.62183424242E+02  0.00000000000E+00 0. -1.
<scales pt_clust_5="13000.00000" pt_clust_6="13000.00000" pt_clust_7="13000.00000" pt_clust_8="13000.00000" pt_clust_9="30.66791"></scales>
<clustering>
<clus scale="   30.668">  1  9  2 -1</clus>
<clus scale="   90.731">  7  8 -1 -1</clus>
<clus scale="   98.156">  5  6 -1 -1</clus>
<clus scale="  156.716">  1  7  2 -1</clus>
<clus scale="   30.668">  1  5  2 -1</clus>
</clustering>
</event>
<event>
 9    1  0.3288491E-005  0.9621362E+02  0.7546771E-02  0.1289029E+00
         21   -1    0    0  501  502  0.00000000000E+00  0.00000000000E+00  0.14733356368E+03  0.14733356368E+03  0.00000000000E+00 0. -1.
          2   -1    0    0  502    0 -0.00000000000E+00 -0.00000000000E+00 -0.15676501186E+03  0.15676501186E+03  0.00000000000E+00 0. -1.
         23    2    1    2    0    0 -0.90954091562E+01  0.52547089386E+02 -0.44425139527E+02  0.11527555545E+03  0.92037696581E+02 0.  0.
         23    2    1    2    0    0 -0.30193980120E+02  0.14518975448E+01 -0.24974809324E+02  0.99069091091E+02  0.90978894623E+02 0.  0.
        -11    1    3    3    0    0  0.70079433602E+01  0.19041990049E+02 -0.68196387691E+02  0.71150937796E+02  0.00000000000E+00 0. -1.
         11    1    3    3    0    0 -0.16103352516E+02  0.33505099337E+02  0.23771248165E+02  0.44124617655E+02  0.00000000000E+00 0.  1.
        -13    1    4    4    0    0 -0.89965149954E-02 -0.38622612616E+02  0.74470796814E+01  0.39334021940E+02  0.00000000000E+00 0.  1.
         13    1    4    4    0    0 -0.30184983605E+02  0.40074510160E+02 -0.32421889005E+02  0.59735069151E+02  0.00000000000E+00 0. -1.
          2    1    1    2  501    0  0.39289389276E+02 -0.53998986931E+02  0.59968500667E+02  0.89753929003E+02  0.00000000000E+00 0. -1.
<scales pt_clust_5="13000.00000" pt_clust_6="13000.00000" pt_clust_7="13000.00000" pt_clust_8="13000.00000" pt_clust_9="66.77984"></scales>
<clustering>
<clus scale="   66.780">  1  9  2 -1</clus>
<clus scale="   90.979">  7  8 -1 -1</clus>
<clus scale="   92.038">  5  6 -1 -1</clus>
<clus scale="   95.201">  1  7  2 -1</clus>
<clus scale="   66.780">  1  5  2 -1</clus>
</clustering>
</event>
<event>
 9    1  0.3288491E-005  0.2454466E+03  0.7546771E-02  0.1117708E+00
         21   -1    0    0  501  502  0.00000000000E+00  0.00000000000E+00  0.64409598837E+02  0.64409598837E+02  0.00000000000E+00 0.  1.
          1   -1    0    0  502    0 -0.00000000000E+00 -0.00000000000E+00 -0.26306477412E+04  0.26306477412E+04  0.00000000000E+00 0. -1.
         23    2    1    2    0    0 -0.12360383802E+02  0.24162971002E+03 -0.11300899410E+04  0.11593440820E+04  0.91857117263E+02 0.  0.
         23    2    1    2    0    0 -0.16077502886E+03 -0.17826813818E+03 -0.32341766064E+03  0.40781263463E+03  0.63906359275E+02 0.  0.
        -11    1    3    3    0    0  0.79530034228E+01  0.16034015678E+03 -0.90576062163E+03  0.91987744827E+03  0.00000000000E+00 0. -1.
         11    1    3    3    0    0 -0.20313387225E+02  0.81289553239E+02 -0.22432931934E+03  0.23946663376E+03  0.00000000000E+00 0.  1.
        -13    1    4    4    0    0 -0.13723806457E+02 -0.49694966352E+02 -0.87124606591E+02  0.10123551560E+03  0.00000000000E+00 0. -1.
         13    1    4    4    0    0 -0.14705122240E+03 -0.12857317183E+03 -0.23629305405E+03  0.30657711903E+03  0.00000000000E+00 0.  1.
          1    1    1    2  501    0  0.17313541266E+03 -0.63361571842E+02 -0.11127305407E+04  0.11279006233E+04  0.00000000000E+00 0. -1.
<scales pt_clust_5="13000.00000" pt_clust_6="13000.00000" pt_clust_7="13000.00000" pt_clust_8="13000.00000" pt_clust_9="184.36538"></scales>
<clustering>
<clus scale="   63.906">  7  8 -1 -1</clus>
<clus scale="   91.857">  5  6 -1 -1</clus>
<clus scale="  184.365">  1  9  2 -1</clus>
<clus scale="  236.411">  1  7  2 -1</clus>
<clus scale="  184.365">  1  5  2 -1</clus>
</clustering>
</event>
<event>
 9    1  0.3288491E-005  0.9910720E+02  0.7546771E-02  0.1282763E+00
          1   -1    0    0  502    0 -0.00000000000E+00  0.00000000000E+00  0.51299699820E+03  0.51299699820E+03  0.00000000000E+00 0. -1.
         21   -1    0    0  501  502  0.00000000000E+00 -0.00000000000E+00 -0.35287892947E+02  0.35287892947E+02  0.00000000000E+00 0.  1.
         23    2    1    2    0    0 -0.33856763562E+02 -0.33376623407E+01  0.35085528086E+03  0.36424870699E+03  0.91762040108E+02 0.  0.
         23    2    1    2    0    0  0.46694670652E+02  0.25458975686E+02  0.85663787648E+02  0.13555130518E+03  0.90594260920E+02 0.  0.
        -13    1    3    3    0    0  0.17851660486E+02 -0.29220478547E+02  0.75718727213E+02  0.83101406723E+02  0.00000000000E+00 0.  1.
         13    1    3    3    0    0 -0.51708424048E+02  0.25882816207E+02  0.27513655365E+03  0.28114730026E+03  0.00000000000E+00 0. -1.
        -13    1    4    4    0    0  0.66985878816E+02 -0.24286892644E+01  0.72226243823E+02  0.98537489257E+02  0.00000000000E+00 0.  1.
         13    1    4    4    0    0 -0.20291208164E+02  0.27887664951E+02  0.13437543825E+02  0.37013815923E+02  0.00000000000E+00 0. -1.
          1    1    1    2  501    0 -0.12837907090E+02 -0.22121313346E+02  0.41190036739E+02  0.48484878975E+02  0.00000000000E+00 0. -1.
<scales pt_clust_5="13000.00000" pt_clust_6="13000.00000" pt_clust_7="13000.00000" pt_clust_8="13000.00000" pt_clust_9="25.57664"></scales>
<clustering>
<clus scale="   25.577">  2  9  1 -1</clus>
<clus scale="   90.594">  7  8 -1 -1</clus>
<clus scale="   91.762">  5  6 -1 -1</clus>
<clus scale="   98.027">  2  7  1 -1</clus>
<clus scale="   25.577">  2  5  1 -1</clus>
</clustering>
</event>
<event>
 9    1  0.3288491E-005  0.1082634E+03  0.7546771E-02  0.1266806E+00
          1   -1    0    0  502    0 -0.00000000000E+00  0.00000000000E+00  0.38357797122E+03  0.38357797122E+03  0.00000000000E+00 0. -1.
         21   -1    0    0  501  502  0.00000000000E+00 -0.00000000000E+00 -0.78583437845E+02  0.78583437845E+02  0.00000000000E+00 0. -1.
         23    2    1    2    0    0  0.13405692130E+01 -0.70776192465E+02  0.19689709330E+03  0.22480696857E+03  0.82210955608E+02 0.  0.
         23    2    1    2    0    0 -0.11775000696E+02  0.48615631150E+02  0.15412753771E+03  0.18521292416E+03  0.89701723285E+02 0.  0.
        -11    1    4    4    0    0  0.24819999490E+02  0.79410981226E+01  0.52273866455E+01  0.26578543700E+02  0.00000000000E+00 0.  1.
         11    1    4    4    0    0 -0.36595000185E+02  0.40674533028E+02  0.14890015107E+03  0.15863438046E+03  0.00000000000E+00 0. -1.
        -13    1    3    3    0    0  0.19025893048E+02 -0.80458044105E+02  0.12296628165E+03  0.14817620555E+03  0.00000000000E+00 0.  1.
         13    1    3    3    0    0 -0.17685323835E+02  0.96818516403E+01  0.73930811643E+02  0.76630763017E+02  0.00000000000E+00 0. -1.
          1    1    1    2  501    0  0.10434431483E+02  0.22160561315E+02 -0.46030097633E+02  0.52141516340E+02  0.00000000000E+00 0. -1.
<scales pt_clust_5="13000.00000" pt_clust_6="13000.00000" pt_clust_7="13000.00000" pt_clust_8="13000.00000" pt_clust_9="24.49424"></scales>
<clustering>
<clus scale="   24.494">  2  9  1 -1</clus>
<clus scale="   82.211">  7  8 -1 -1</clus>
<clus scale="   89.702">  5  6 -1 -1</clus>
<clus scale="  102.143">  1  7  2 -1</clus>
<clus scale="   24.494">  2  5  1 -1</clus>
</clustering>
</event>
<event>
 9    1  0.3288491E-005  0.9314761E+02  0.7546771E-02  0.1318059E+00
         21   -1    0    0  501  502  0.00000000000E+00  0.00000000000E+00  0.39629681263E+03  0.39629681263E+03  0.00000000000E+00 0. -1.
         -3   -1    0    0    0  501 -0.00000000000E+00 -0.00000000000E+00 -0.28864866315E+02  0.28864866315E+02  0.00000000000E+00 0.  1.
         23    2    1    2    0    0 -0.15206937459E+00 -0.15400551253E+02  0.51668147394E+02  0.79984857977E+02  0.59082822770E+02 0.  0.
         23    2    1    2    0    0 -0.35433371593E+02  0.14553841253E+02  0.18817967259E+03  0.21272022499E+03  0.91492987849E+02 0.  0.
        -11    1    4    4    0    0 -0.66247093100E+02  0.12832755513E+02  0.11563038027E+03  0.13387957947E+03  0.00000000000E+00 0.  1.
         11    1    4    4    0    0  0.30813721508E+02  0.17210857404E+01  0.72549292321E+02  0.78840645517E+02  0.00000000000E+00 0. -1.
        -13    1    3    3    0    0  0.25072669804E+02  0.82321536297E+01  0.24669066762E+02  0.36124368221E+02  0.00000000000E+00 0.  1.
         13    1    3    3    0    0 -0.25224739178E+02 -0.23632704882E+02  0.26999080632E+02  0.43860489756E+02  0.00000000000E+00 0. -1.
         -3    1    1    2    0  502  0.35585440967E+02  0.84670999947E+00  0.12758412633E+03  0.13245659597E+03  0.00000000000E+00 0.  1.
<scales pt_clust_5="13000.00000" pt_clust_6="13000.00000" pt_clust_7="13000.00000" pt_clust_8="13000.00000" pt_clust_9="35.59551"></scales>
<clustering>
<clus scale="   35.596">  1  9  2 -1</clus>
<clus scale="   59.083">  7  8 -1 -1</clus>
<clus scale="   61.614">  2  7  1 -1</clus>
<clus scale="   91.493">  5  6 -1 -1</clus>
<clus scale="   35.596">  1  5  2 -1</clus>
</clustering>
</event>
<event>
 9    1  0.3288491E-005  0.9344815E+02  0.7546771E-02  0.1295569E+00
          1   -1    0    0  502    0 -0.00000000000E+00  0.00000000000E+00  0.10743167278E+03  0.10743167278E+03  0.00000000000E+00 0. -1.
         21   -1    0    0  501  502  0.00000000000E+00 -0.00000000000E+00 -0.12307133359E+03  0.12307133359E+03  0.00000000000E+00 0.  1.
         23    2    1    2    0    0  0.19519164733E+01  0.24730432834E+00  0.36006075276E+02  0.98572277118E+02  0.91739769033E+02 0.  0.
         23    2    1    2    0    0  0.28115146082E+01 -0.22467088531E+02 -0.52167877079E+02  0.10920009537E+03  0.93222844562E+02 0.  0.
        -11    1    3    3    0    0  0.23115642024E+02 -0.33689750822E+02 -0.51534869459E+01  0.41181192847E+02  0.00000000000E+00 0.  1.
         11    1    3    3    0    0 -0.21163725551E+02  0.33937055150E+02  0.41159562222E+02  0.57391084271E+02  0.00000000000E+00 0. -1.
        -11    1    4    4    0    0  0.38110336394E+02 -0.24926381946E+01 -0.56727884058E+02  0.68386137593E+02  0.00000000000E+00 0. -1.
         11    1    4    4    0    0 -0.35298821786E+02 -0.19974450337E+02  0.45600069783E+01  0.40813957776E+02  0.00000000000E+00 0.  1.
          1    1    1    2  501    0 -0.47634310815E+01  0.22219784203E+02  0.52214099541E+00  0.22730633887E+02  0.00000000000E+00 0. -1.
<scales pt_clust_5="13000.00000" pt_clust_6="13000.00000" pt_clust_7="13000.00000" pt_clust_8="13000.00000" pt_clust_9="22.72465"></scales>
<clustering>
<clus scale="   22.725">  2  9  1 -1</clus>
<clus scale="   91.740">  5  6 -1 -1</clus>
<clus scale="   91.969">  1  5  2 -1</clus>
<clus scale="   93.223">  7  8 -1 -1</clus>
<clus scale="   22.725">  2  5  1 -1</clus>
</clustering>
</event>
<event>
 9    1  0.3288491E-005  0.9917003E+02  0.7546771E-02  0.1282692E+00
         21   -1    0    0  501  502  0.00000000000E+00  0.00000000000E+00  0.11513992754E+03  0.11513992754E+03  0.00000000000E+00 0.  1.
          1   -1    0    0  502    0 -0.00000000000E+00 -0.00000000000E+00 -0.12242959956E+03  0.12242959956E+03  0.00000000000E+00 0. -1.
         23    2    1    2    0    0 -0.36372214338E+02  0.21350751438E+02 -0.21387678747E+02  0.10281863508E+03  0.91298665684E+02 0.  0.
         23    2    1    2    0    0  0.31250099365E+02  0.99297864682E+01  0.24792048504E+02  0.10129837876E+03  0.92582646870E+02 0.  0.
        -13    1    4    4    0    0  0.29129274796E+02  0.34394842503E+02  0.49165600384E+02  0.66699146187E+02  0.00000000000E+00 0. -1.
         13    1    4    4    0    0  0.21208245691E+01 -0.24465056035E+02 -0.24373551880E+02  0.34599232577E+02  0.00000000000E+00 0.  1.
        -13    1    3    3    0    0 -0.56715305214E+02  0.13133359002E+01  0.12919680646E+02  0.58183063212E+02  0.00000000000E+00 0.  1.
         13    1    3    3    0    0  0.20343090877E+02  0.20037415538E+02 -0.34307359393E+02  0.44635571873E+02  0.00000000000E+00 0. -1.
          1    1    1    2  501    0  0.51221149729E+01 -0.31280537906E+02 -0.10694041771E+02  0.33452513253E+02  0.00000000000E+00 0. -1.
<scales pt_clust_5="13000.00000" pt_clust_6="13000.00000" pt_clust_7="13000.00000" pt_clust_8="13000.00000" pt_clust_9="31.69715"></scales>
<clustering>
<clus scale="   31.697">  1  9  2 -1</clus>
<clus scale="   91.299">  7  8 -1 -1</clus>
<clus scale="   92.583">  5  6 -1 -1</clus>
<clus scale="   97.972">  2  7  1 -1</clus>
<clus scale="   31.697">  1  5  2 -1</clus>
</clustering>
</event>
<event>
 9    1  0.3288491E-005  0.1162041E+03  0.7546771E-02  0.1249634E+00
         -1   -1    0    0    0  501 -0.00000000000E+00  0.00000000000E+00  0.16664909471E+03  0.16664909471E+03  0.00000000000E+00 0.  1.
         21   -1    0    0  501  502  0.00000000000E+00 -0.00000000000E+00 -0.13091911449E+03  0.13091911449E+03  0.00000000000E+00 0. -1.
         23    2    1    2    0    0  0.39543216585E+02 -0.71970304340E+02  0.50200698321E+02  0.13308566986E+03  0.91914605617E+02 0.  0.
         23    2    1    2    0    0 -0.51163426068E+02  0.27483122336E+02 -0.35332294181E+02  0.11399151055E+03  0.91502323936E+02 0.  0.
        -11    1    4    4    0    0 -0.27675114071E+02 -0.18485345192E+02 -0.50237229694E+02  0.60261091701E+02  0.00000000000E+00 0. -1.
         11    1    4    4    0    0 -0.23488311998E+02  0.45968467528E+02  0.14904935512E+02  0.53730418852E+02  0.00000000000E+00 0.  1.
        -13    1    3    3    0    0  0.97397405451E+01 -0.88431293812E+02  0.39988480607E+02  0.97539914150E+02  0.00000000000E+00 0. -1.
         13    1    3    3    0    0  0.29803476040E+02  0.16460989471E+02  0.10212217713E+02  0.35545755711E+02  0.00000000000E+00 0.  1.
         -1    1    1    2    0  502  0.11620209483E+02  0.44487182004E+02  0.20861576083E+02  0.50491028785E+02  0.00000000000E+00 0.  1.
<scales pt_clust_5="13000.00000" pt_clust_6="13000.00000" pt_clust_7="13000.00000" pt_clust_8="13000.00000" pt_clust_9="45.97979"></scales>
<clustering>
<clus scale="   45.980">  2  9  1 -1</clus>
<clus scale="   91.502">  5  6 -1 -1</clus>
<clus scale="   91.915">  7  8 -1 -1</clus>
<clus scale="  115.878">  2  5  1 -1</clus>
<clus scale="   45.980">  2  5  1 -1</clus>
</clustering>
</event>
<event>
 9    1  0.3288491E-005  0.1061031E+03  0.7546771E-02  0.1268488E+00
          2   -1    0    0  502    0 -0.00000000000E+00  0.00000000000E+00  0.53177728588E+03  0.53177728588E+03  0.00000000000E+00 0. -1.
         21   -1    0    0  501  502  0.00000000000E+00 -0.00000000000E+00 -0.44946605876E+02  0.44946605876E+02  0.00000000000E+00 0. -1.
         23    2    1    2    0    0 -0.31176824499E+02  0.50520281265E+02  0.38095051662E+03  0.39600248823E+03  0.90390161889E+02 0.  0.
         23    2    1    2    0    0  0.23071380514E+02 -0.17542516650E+02  0.35291767366E+02  0.10238908048E+03  0.91640528529E+02 0.  0.
        -13    1    3    3    0    0  0.21758799698E+02 -0.12481222932E+02  0.70430223558E+02  0.74763912956E+02  0.00000000000E+00 0.  1.
         13    1    3    3    0    0 -0.52935624197E+02  0.63001504198E+02  0.31052029306E+03  0.32123857527E+03  0.00000000000E+00 0. -1.
        -13    1    4    4    0    0 -0.32563975337E+02 -0.23250283631E+02  0.17773450181E+02  0.43782230528E+02  0.00000000000E+00 0.  1.
         13    1    4    4    0    0  0.55635355852E+02  0.57077669801E+01  0.17518317185E+02  0.58606849955E+02  0.00000000000E+00 0. -1.
          2    1    1    2  501    0  0.81054439846E+01 -0.32977764615E+02  0.70588396024E+02  0.78332323050E+02  0.00000000000E+00 0. -1.
<scales pt_clust_5="13000.00000" pt_clust_6="13000.00000" pt_clust_7="13000.00000" pt_clust_8="13000.00000" pt_clust_9="33.95927"></scales>
<clustering>
<clus scale="   33.959">  2  9  1 -1</clus>
<clus scale="   90.390">  5  6 -1 -1</clus>
<clus scale="   91.641">  7  8 -1 -1</clus>
<clus scale="  105.025">  1  5  2 -1</clus>
<clus scale="   33.959">  2  5  1 -1</clus>
</clustering>
</event>
<event>
 9    1  0.3288491E-005  0.1091954E+03  0.7546771E-02  0.1263033E+00
         21   -1    0    0  501  502  0.00000000000E+00  0.00000000000E+00  0.31775505631E+02  0.31775505631E+02  0.00000000000E+00 0.  1.
          1   -1    0    0  502    0 -0.00000000000E+00 -0.00000000000E+00 -0.56944933854E+03  0.56944933854E+03  0.00000000000E+00 0. -1.
         23    2    1    2    0    0 -0.69997013962E+02 -0.61806760945E+01 -0.38647530458E+03  0.40307669376E+03  0.90387373462E+02 0.  0.
         23    2    1    2    0    0  0.41849216481E+02 -0.54181774243E+01 -0.11157140413E+03  0.14817674981E+03  0.87905957694E+02 0.  0.
        -11    1    4    4    0    0 -0.19679073675E+02 -0.25344521843E+02 -0.45917090629E+02  0.56017764504E+02  0.00000000000E+00 0. -1.
         11    1    4    4    0    0  0.61528290156E+02  0.19926344419E+02 -0.65654313505E+02  0.92158985309E+02  0.00000000000E+00 0.  1.
        -13    1    3    3    0    0  0.19703965598E+02  0.11810752943E+02 -0.81235312281E+02  0.84421064355E+02  0.00000000000E+00 0.  1.
         13    1    3    3    0    0 -0.89700979560E+02 -0.17991429037E+02 -0.30523999229E+03  0.31865562940E+03  0.00000000000E+00 0. -1.
          1    1    1    2  501    0  0.28147797481E+02  0.11598853519E+02 -0.39627124204E+02  0.49971400607E+02  0.00000000000E+00 0. -1.
<scales pt_clust_5="13000.00000" pt_clust_6="13000.00000" pt_clust_7="13000.00000" pt_clust_8="13000.00000" pt_clust_9="30.44391"></scales>
<clustering>
<clus scale="   30.444">  1  9  2 -1</clus>
<clus scale="   87.906">  5  6 -1 -1</clus>
<clus scale="   90.387">  7  8 -1 -1</clus>
<clus scale="  107.150">  1  5  2 -1</clus>
<clus scale="   30.444">  1  5  2 -1</clus>
</clustering>
</event>
<event>
 9    1  0.3288491E-005  0.9998806E+02  0.7546771E-02  0.1281012E+00
         -1   -1    0    0    0  501 -0.00000000000E+00  0.00000000000E+00  0.64111145677E+02  0.64111145677E+02  0.00000000000E+00 0.  1.
         21   -1    0    0  501  502  0.00000000000E+00 -0.00000000000E+00 -0.50895711081E+03  0.50895711081E+03  0.00000000000E+00 0. -1.
         23    2    1    2    0    0 -0.15923581339E+02 -0.34231558549E+02  0.69021685943E+01  0.10050364797E+03  0.92886938162E+02 0.  0.
         23    2    1    2    0    0  0.41731616694E+02  0.14184412326E+02 -0.28264192524E+03  0.30032973251E+03  0.91480954008E+02 0.  0.
        -11    1    4    4    0    0  0.48270771792E+02  0.39025513226E+02 -0.25561167432E+03  0.26304065492E+03  0.00000000000E+00 0. -1.
         11    1    4    4    0    0 -0.65391550982E+01 -0.24841100900E+02 -0.27030250919E+02  0.37289077598E+02  0.00000000000E+00 0.  1.
        -13    1    3    3    0    0 -0.49016647052E+02  0.60311040032E+00 -0.91063769941E+01  0.49859016560E+02  0.00000000000E+00 0.  1.
         13    1    3    3    0    0  0.33093065713E+02 -0.34834668949E+02  0.16008545588E+02  0.50644631413E+02  0.00000000000E+00 0. -1.
         -1    1    1    2    0  502 -0.25808035355E+02  0.20047146223E+02 -0.16910620849E+03  0.17223487600E+03  0.00000000000E+00 0.  1.
<scales pt_clust_5="13000.00000" pt_clust_6="13000.00000" pt_clust_7="13000.00000" pt_clust_8="13000.00000" pt_clust_9="32.67939"></scales>
<clustering>
<clus scale="   32.679">  2  9  1 -1</clus>
<clus scale="   91.481">  5  6 -1 -1</clus>
<clus scale="   92.887">  7  8 -1 -1</clus>
<clus scale="   98.683">  2  5  1 -1</clus>
<clus scale="   32.679">  2  5  1 -1</clus>
</clustering>
</event>
<event>
 9    1  0.3288491E-005  0.1872410E+03  0.7546771E-02  0.1187727E+00
         21   -1    0    0  501  502  0.00000000000E+00  0.00000000000E+00  0.37962885755E+03  0.37962885755E+03  0.00000000000E+00 0.  1.
         -1   -1    0    0    0  501 -0.00000000000E+00 -0.00000000000E+00 -0.20310339430E+03  0.20310339430E+03  0.00000000000E+00 0.  1.
         23    2    1    2    0    0 -0.25522915510E+02 -0.14329123042E+02 -0.85483288091E+02  0.13308538207E+03  0.97711736211E+02 0.  0.
         23    2    1    2    0    0 -0.15064658796E+03  0.19637998969E+02  0.65179713145E+02  0.18543947323E+03  0.84019984284E+02 0.  0.
        -11    1    4    4    0    0 -0.12750157819E+03 -0.12689658269E+02  0.28321490165E+02  0.13122418479E+03  0.00000000000E+00 0.  1.
         11    1    4    4    0    0 -0.23145009770E+02  0.32327657238E+02  0.36858222980E+02  0.54215288443E+02  0.00000000000E+00 0. -1.
        -13    1    3    3    0    0 -0.35431165365E+02 -0.52065118947E+02 -0.53648417861E+02  0.82730265496E+02  0.00000000000E+00 0. -1.
         13    1    3    3    0    0  0.99082498558E+01  0.37735995905E+02 -0.31834870230E+02  0.50355116570E+02  0.00000000000E+00 0.  1.
         -1    1    1    2    0  502  0.17616950347E+03 -0.53088759270E+01  0.19682903819E+03  0.26420739655E+03  0.00000000000E+00 0.  1.
<scales pt_clust_5="13000.00000" pt_clust_6="13000.00000" pt_clust_7="13000.00000" pt_clust_8="13000.00000" pt_clust_9="167.33146"></scales>
<clustering>
<clus scale="   84.020">  5  6 -1 -1</clus>
<clus scale="   97.712">  7  8 -1 -1</clus>
<clus scale="  102.002">  2  7  1 -1</clus>
<clus scale="  167.331">  1  9  2 -1</clus>
<clus scale="  167.331">  1  5  2 -1</clus>
</clustering>
</event>
<event>
 9    1  0.3288491E-005  0.1059093E+03  0.7546771E-02  0.1269237E+00
         21   -1    0    0  501  502  0.00000000000E+00  0.00000000000E+00  0.25134937362E+03  0.25134937362E+03  0.00000000000E+00 0.  1.
          2   -1    0    0  502    0 -0.00000000000E+00 -0.00000000000E+00 -0.10998998636E+03  0.10998998636E+03  0.00000000000E+00 0. -1.
         23    2    1    2    0    0 -0.22315509366E+02 -0.31237553258E+02  0.10886171395E+00  0.97627799647E+02  0.89763069919E+02 0.  0.
         23    2    1    2    0    0  0.57612045667E+02  0.41285528648E+02 -0.17761757258E+01  0.11605166544E+03  0.91875957511E+02 0.  0.
        -13    1    3    3    0    0  0.20576316852E+02 -0.45846322532E+02 -0.99150156542E+01  0.51220871140E+02  0.00000000000E+00 0. -1.
         13    1    3    3    0    0 -0.42891826218E+02  0.14608769274E+02  0.10023877368E+02  0.46406928507E+02  0.00000000000E+00 0.  1.
        -13    1    4    4    0    0  0.81206262942E+02  0.38650072851E+02  0.81830221352E+01  0.90306406880E+02  0.00000000000E+00 0.  1.
         13    1    4    4    0    0 -0.23594217275E+02  0.26354557965E+01 -0.99591978610E+01  0.25745258555E+02  0.00000000000E+00 0. -1.
          2    1    1    2  501    0 -0.35296536301E+02 -0.10047975389E+02  0.14302670127E+03  0.14765989490E+03  0.00000000000E+00 0. -1.
<scales pt_clust_5="13000.00000" pt_clust_6="13000.00000" pt_clust_7="13000.00000" pt_clust_8="13000.00000" pt_clust_9="36.69887"></scales>
<clustering>
<clus scale="   36.699">  1  9  2 -1</clus>
<clus scale="   89.763">  5  6 -1 -1</clus>
<clus scale="   91.876">  7  8 -1 -1</clus>
<clus scale="  104.082">  2  5  1 -1</clus>
<clus scale="   36.699">  1  5  2 -1</clus>
</clustering>
</event>
<event>
 9    1  0.3288491E-005  0.9843619E+02  0.7546771E-02  0.1284034E+00
          4   -1    0    0  502    0 -0.00000000000E+00  0.00000000000E+00  0.13769345544E+03  0.13769345544E+03  0.00000000000E+00 0. -1.
         21   -1    0    0  501  502  0.00000000000E+00 -0.00000000000E+00 -0.25012471593E+03  0.25012471593E+03  0.00000000000E+00 0. -1.
         23    2    1    2    0    0 -0.51473329817E+02  0.11505125241E+02  0.30464258511E+02  0.11005625295E+03  0.91664803374E+02 0.  0.
         23    2    1    2    0    0 -0.16476683865E+02 -0.45214157844E+02  0.12342997546E+02  0.10498315740E+03  0.92484120624E+02 0.  0.
        -11    1    3    3    0    0 -0.28476633831E+01 -0.25283899926E+02 -0.18825601501E+02  0.31651035592E+02  0.00000000000E+00 0.  1.
         11    1    3    3    0    0 -0.48625666434E+02  0.36789025167E+02  0.49289860012E+02  0.78405217358E+02  0.00000000000E+00 0. -1.
        -13    1    4    4    0    0 -0.28695514294E+02  0.20081630332E+02 -0.71630338707E+01  0.35749314282E+02  0.00000000000E+00 0. -1.
         13    1    4    4    0    0  0.12218830429E+02 -0.65295788176E+02  0.19506031417E+02  0.69233843114E+02  0.00000000000E+00 0.  1.
          4    1    1    2  501    0  0.67950013682E+02  0.33709032603E+02 -0.15523851655E+03  0.17277876102E+03  0.00000000000E+00 0. -1.
<scales pt_clust_5="13000.00000" pt_clust_6="13000.00000" pt_clust_7="13000.00000" pt_clust_8="13000.00000" pt_clust_9="75.85185"></scales>
<clustering>
<clus scale="   75.852">  2  9  1 -1</clus>
<clus scale="   91.665">  5  6 -1 -1</clus>
<clus scale="   92.484">  7  8 -1 -1</clus>
<clus scale="   97.667">  1  5  2 -1</clus>
<clus scale="   75.852">  2  5  1 -1</clus>
</clustering>
</event>
<event>
 9    1  0.3288491E-005  0.9832303E+02  0.7546771E-02  0.1284733E+00
         21   -1    0    0  501  502  0.00000000000E+00  0.00000000000E+00  0.13906011700E+03  0.13906011700E+03  0.00000000000E+00 0.  1.
          2   -1    0    0  502    0 -0.00000000000E+00 -0.00000000000E+00 -0.19479360979E+03  0.19479360979E+03  0.00000000000E+00 0. -1.
         23    2    1    2    0    0  0.31947969021E+02 -0.45147842573E+02 -0.79778640620E+02  0.12962957940E+03  0.85908066808E+02 0.  0.
         23    2    1    2    0    0  0.49334676103E+01  0.46248849790E+02 -0.59420579586E+02  0.11296637929E+03  0.84067249041E+02 0.  0.
        -11    1    3    3    0    0  0.25162410528E+02 -0.70593731804E+02 -0.66222601288E+02  0.10001027345E+03  0.00000000000E+00 0.  1.
         11    1    3    3    0    0  0.67855584932E+01  0.25445889230E+02 -0.13556039332E+02  0.29619305953E+02  0.00000000000E+00 0. -1.
        -13    1    4    4    0    0  0.39113588379E+02  0.85622744275E+00 -0.21348914515E+02  0.44568846432E+02  0.00000000000E+00 0.  1.
         13    1    4    4    0    0 -0.34180120769E+02  0.45392622347E+02 -0.38071665071E+02  0.68397532854E+02  0.00000000000E+00 0. -1.
          2    1    1    2  501    0 -0.36881436631E+02 -0.11010072169E+01  0.83465727420E+02  0.91257768100E+02  0.00000000000E+00 0. -1.
<scales pt_clust_5="13000.00000" pt_clust_6="13000.00000" pt_clust_7="13000.00000" pt_clust_8="13000.00000" pt_clust_9="36.89787"></scales>
<clustering>
<clus scale="   36.898">  1  9  2 -1</clus>
<clus scale="   84.067">  7  8 -1 -1</clus>
<clus scale="   85.908">  5  6 -1 -1</clus>
<clus scale="   96.719">  1  7  2 -1</clus>
<clus scale="   36.898">  1  5  2 -1</clus>
</clustering>
</event>
<event>
 9    1  0.3288491E-005  0.1738822E+03  0.7546771E-02  0.1173994E+00
         21   -1    0    0  501  502  0.00000000000E+00  0.00000000000E+00  0.76692032216E+02  0.76692032216E+02  0.00000000000E+00 0. -1.
         -4   -1    0    0    0  501 -0.00000000000E+00 -0.00000000000E+00 -0.61795367614E+03  0.61795367614E+03  0.00000000000E+00 0.  1.
         23    2    1    2    0    0  0.72895505084E+02 -0.14862221450E+03 -0.38287783684E+03  0.42746495773E+03  0.93426628100E+02 0.  0.
         23    2    1    2    0    0 -0.23856932079E+02  0.11864559178E+03 -0.13995169920E+03  0.20682246906E+03  0.92429031919E+02 0.  0.
        -11    1    4    4    0    0  0.26207863631E+02  0.75038374655E+02 -0.10529938765E+03  0.13193017406E+03  0.00000000000E+00 0.  1.
         11    1    4    4    0    0 -0.50064795710E+02  0.43607217125E+02 -0.34652311548E+02  0.74892295001E+02  0.00000000000E+00 0. -1.
        -13    1    3    3    0    0  0.31418329362E+02 -0.13038407898E+03 -0.21348501836E+03  0.25211698185E+03  0.00000000000E+00 0. -1.
         13    1    3    3    0    0  0.41477175722E+02 -0.18238135521E+02 -0.16939281849E+03  0.17534797589E+03  0.00000000000E+00 0.  1.
         -4    1    1    2    0  502 -0.49038573005E+02  0.29976622721E+02 -0.18432107873E+02  0.60358281559E+02  0.00000000000E+00 0.  1.
<scales pt_clust_5="13000.00000" pt_clust_6="13000.00000" pt_clust_7="13000.00000" pt_clust_8="13000.00000" pt_clust_9="57.47503"></scales>
<clustering>
<clus scale="   57.475">  1  9  2 -1</clus>
<clus scale="   92.429">  5  6 -1 -1</clus>
<clus scale="   93.427">  7  8 -1 -1</clus>
<clus scale="  173.348">  1  5  2 -1</clus>
<clus scale="   57.475">  1  5  2 -1</clus>
</clustering>
</event>
<event>
 9    1  0.3288491E-005  0.9510718E+02  0.7546771E-02  0.1292696E+00
         21   -1    0    0  501  502  0.00000000000E+00  0.00000000000E+00  0.40537637572E+02  0.40537637572E+02  0.00000000000E+00 0. -1.
          1   -1    0    0  502    0 -0.00000000000E+00 -0.00000000000E+00 -0.42233816054E+03  0.42233816054E+03  0.00000000000E+00 0. -1.
         23    2    1    2    0    0 -0.28456122869E+02 -0.15477713879E+02 -0.25838819633E+03  0.27610762922E+03  0.91769561150E+02 0.  0.
         23    2    1    2    0    0 -0.60629852485E+01  0.25605078151E+02 -0.11879257033E+03  0.15049869853E+03  0.88576541346E+02 0.  0.
        -11    1    3    3    0    0  0.31899159145E+02 -0.17476499578E+02 -0.11179680283E+03  0.11756491617E+03  0.00000000000E+00 0.  1.
         11    1    3    3    0    0 -0.60355282014E+02  0.19987856991E+01 -0.14659139350E+03  0.15854271305E+03  0.00000000000E+00 0. -1.
        -11    1    4    4    0    0  0.20916076789E+02 -0.11730824868E+02 -0.98004396403E+00  0.24001145941E+02  0.00000000000E+00 0. -1.
         11    1    4    4    0    0 -0.26979062037E+02  0.37335903019E+02 -0.11781252636E+03  0.12649755259E+03  0.00000000000E+00 0.  1.
          1    1    1    2  501    0  0.34519108117E+02 -0.10127364272E+02 -0.46197563116E+01  0.36269470367E+02  0.00000000000E+00 0. -1.
<scales pt_clust_5="13000.00000" pt_clust_6="13000.00000" pt_clust_7="13000.00000" pt_clust_8="13000.00000" pt_clust_9="35.97405"></scales>
<clustering>
<clus scale="   35.974">  1  9  2 -1</clus>
<clus scale="   88.577">  7  8 -1 -1</clus>
<clus scale="   91.770">  5  6 -1 -1</clus>
<clus scale="   92.030">  1  7  2 -1</clus>
<clus scale="   35.974">  1  5  2 -1</clus>
</clustering>
</event>
<event>
 9    1  0.3288491E-005  0.1064545E+03  0.7546771E-02  0.1267447E+00
         21   -1    0    0  501  502  0.00000000000E+00  0.00000000000E+00  0.25416865904E+03  0.25416865904E+03  0.00000000000E+00 0. -1.
         -3   -1    0    0    0  501 -0.00000000000E+00 -0.00000000000E+00 -0.92254873076E+02  0.92254873076E+02  0.00000000000E+00 0.  1.
         23    2    1    2    0    0 -0.51476747260E+02 -0.15819982228E+02 -0.28906117370E+02  0.10874882400E+03  0.89947850189E+02 0.  0.
         23    2    1    2    0    0  0.60343518834E+02  0.40606262676E+02  0.15424981766E+03  0.19261529731E+03  0.89540145595E+02 0.  0.
        -13    1    4    4    0    0  0.16352797841E+02 -0.28139066675E+02  0.32132832702E+02  0.45735544252E+02  0.00000000000E+00 0.  1.
         13    1    4    4    0    0  0.43990720993E+02  0.68745329351E+02  0.12211698496E+03  0.14687975305E+03  0.00000000000E+00 0. -1.
        -13    1    3    3    0    0 -0.54277115648E+02 -0.39759971984E+02  0.46395441344E+01  0.67441723176E+02  0.00000000000E+00 0. -1.
         13    1    3    3    0    0  0.28003683877E+01  0.23939989756E+02 -0.33545661505E+02  0.41307100823E+02  0.00000000000E+00 0.  1.
         -3    1    1    2    0  502 -0.88667715732E+01 -0.24786280449E+02  0.36570085675E+02  0.45059410814E+02  0.00000000000E+00 0.  1.
<scales pt_clust_5="13000.00000" pt_clust_6="13000.00000" pt_clust_7="13000.00000" pt_clust_8="13000.00000" pt_clust_9="26.32450"></scales>
<clustering>
<clus scale="   26.325">  1  9  2 -1</clus>
<clus scale="   89.540">  5  6 -1 -1</clus>
<clus scale="   89.948">  7  8 -1 -1</clus>
<clus scale="  106.110">  1  5  2 -1</clus>
<clus scale="   26.325">  1  5  2 -1</clus>
</clustering>
</event>
<event>
 9    1  0.3288491E-005  0.1085944E+03  0.7546771E-02  0.1270763E+00
         21   -1    0    0  501  502  0.00000000000E+00  0.00000000000E+00  0.31588957791E+03  0.31588957791E+03  0.00000000000E+00 0.  1.
          1   -1    0    0  502    0 -0.00000000000E+00 -0.00000000000E+00 -0.97180213734E+02  0.97180213734E+02  0.00000000000E+00 0. -1.
         23    2    1    2    0    0  0.10984736596E+02  0.24405515747E+02 -0.23284085128E+00  0.95123907651E+02  0.91280939713E+02 0.  0.
         23    2    1    2    0    0  0.22809389851E+02 -0.16586693101E+02  0.15105808237E+02  0.11117921931E+03  0.10647650778E+03 0.  0.
        -11    1    4    4    0    0 -0.81531897810E+01  0.40529757336E+02  0.20196202318E+02  0.46011110847E+02  0.00000000000E+00 0.  1.
         11    1    4    4    0    0  0.30962579632E+02 -0.57116450438E+02 -0.50903940804E+01  0.65168108458E+02  0.00000000000E+00 0. -1.
        -13    1    3    3    0    0 -0.39194812474E+02  0.21857848742E+02  0.18570984637E+00  0.44877983073E+02  0.00000000000E+00 0.  1.
         13    1    3    3    0    0  0.50179549070E+02  0.25476670050E+01 -0.41855069765E+00  0.50245924579E+02  0.00000000000E+00 0. -1.
          1    1    1    2  501    0 -0.33794126447E+02 -0.78188226460E+01  0.20383639679E+03  0.20676666469E+03  0.00000000000E+00 0. -1.
<scales pt_clust_5="13000.00000" pt_clust_6="13000.00000" pt_clust_7="13000.00000" pt_clust_8="13000.00000" pt_clust_9="34.68684"></scales>
<clustering>
<clus scale="   34.687">  1  9  2 -1</clus>
<clus scale="   91.281">  7  8 -1 -1</clus>
<clus scale="   93.743">  2  7  1 -1</clus>
<clus scale="  106.477">  5  6 -1 -1</clus>
<clus scale="   34.687">  1  5  2 -1</clus>
</clustering>
</event>
<event>
 9    1  0.3288491E-005  0.1568301E+03  0.7546771E-02  0.1211832E+00
          2   -1    0    0  502    0 -0.00000000000E+00  0.00000000000E+00  0.63847235726E+03  0.63847235726E+03  0.00000000000E+00 0. -1.
         21   -1    0    0  501  502  0.00000000000E+00 -0.00000000000E+00 -0.74928948097E+02  0.74928948097E+02  0.00000000000E+00 0. -1.
         23    2    1    2    0    0  0.31543673696E+02 -0.33758482094E+02  0.14848215566E+03  0.18060321210E+03  0.91847325525E+02 0.  0.
         23    2    1    2    0    0  0.69734617768E+02 -0.91272617462E+02  0.94797534344E+02  0.17438643331E+03  0.90721816519E+02 0.  0.
        -11    1    3    3    0    0 -0.24693657132E+02  0.13029764325E+02  0.27285589169E+02  0.39039144935E+02  0.00000000000E+00 0. -1.
         11    1    3    3    0    0  0.56237330829E+02 -0.46788246419E+02  0.12119656650E+03  0.14156406716E+03  0.00000000000E+00 0.  1.
        -13    1    4    4    0    0  0.12588173126E+02 -0.86821779480E+02  0.45726884686E+02  0.98931448377E+02  0.00000000000E+00 0.  1.
         13    1    4    4    0    0  0.57146444642E+02 -0.44508379811E+01  0.49070649658E+02  0.75454984937E+02  0.00000000000E+00 0. -1.
          2    1    1    2  501    0 -0.10127829146E+03  0.12503109956E+03  0.32026371916E+03  0.35841165995E+03  0.00000000000E+00 0. -1.
<scales pt_clust_5="13000.00000" pt_clust_6="13000.00000" pt_clust_7="13000.00000" pt_clust_8="13000.00000" pt_clust_9="127.92675"></scales>
<clustering>
<clus scale="   90.722">  7  8 -1 -1</clus>
<clus scale="   91.847">  5  6 -1 -1</clus>
<clus scale="  102.813">  1  5  2 -1</clus>
<clus scale="  127.927">  2  9  1 -1</clus>
<clus scale="  127.927">  2  5  1 -1</clus>
</clustering>
</event>
<event>
 9    1  0.3288491E-005  0.1596266E+03  0.7546771E-02  0.1189548E+00
         21   -1    0    0  501  502  0.00000000000E+00  0.00000000000E+00  0.17995474737E+03  0.17995474737E+03  0.00000000000E+00 0. -1.
          4   -1    0    0  502    0 -0.00000000000E+00 -0.00000000000E+00 -0.26135822899E+03  0.26135822899E+03  0.00000000000E+00 0. -1.
         23    2    1    2    0    0 -0.66597654458E+02  0.10333440041E+03 -0.86202405894E+02  0.17644649585E+03  0.92678288876E+02 0.  0.
         23    2    1    2    0    0  0.93356334811E+02 -0.10337222888E+03 -0.74018306876E+02  0.18163076503E+03  0.90054439649E+02 0.  0.
        -11    1    3    3    0    0 -0.33087184521E+02  0.14661645483E+02  0.13729496408E+02  0.38706907644E+02  0.00000000000E+00 0. -1.
         11    1    3    3    0    0 -0.33510469938E+02  0.88672754928E+02 -0.99931902302E+02  0.13773958821E+03  0.00000000000E+00 0.  1.
        -13    1    4    4    0    0  0.29957472536E+02  0.11904349103E+02 -0.36736290275E+01  0.32444710487E+02  0.00000000000E+00 0.  1.
         13    1    4    4    0    0  0.63398862274E+02 -0.11527657798E+03 -0.70344677848E+02  0.14918605455E+03  0.00000000000E+00 0. -1.
          4    1    1    2  501    0 -0.26758680352E+02  0.37828469051E-01  0.78817231145E+02  0.83235715475E+02  0.00000000000E+00 0. -1.
<scales pt_clust_5="13000.00000" pt_clust_6="13000.00000" pt_clust_7="13000.00000" pt_clust_8="13000.00000" pt_clust_9="26.75871"></scales>
<clustering>
<clus scale="   26.759">  1  9  2 -1</clus>
<clus scale="   90.054">  7  8 -1 -1</clus>
<clus scale="   92.678">  5  6 -1 -1</clus>
<clus scale="  158.118">  1  7  2 -1</clus>
<clus scale="   26.759">  1  5  2 -1</clus>
</clustering>
</event>
<event>
 9    1  0.3288491E-005  0.9449415E+02  0.7546771E-02  0.1292936E+00
         21   -1    0    0  501  502  0.00000000000E+00  0.00000000000E+00  0.78860294234E+02  0.78860294234E+02  0.00000000000E+00 0. -1.
          2   -1    0    0  502    0 -0.00000000000E+00 -0.00000000000E+00 -0.30187642310E+03  0.30187642310E+03  0.00000000000E+00 0. -1.
         23    2    1    2    0    0  0.94288460510E+01  0.27710301905E+02 -0.22702529975E+03  0.24655300631E+03  0.91603134338E+02 0.  0.
         23    2    1    2    0    0  0.15695393315E+01 -0.24153382410E+01 -0.25234241057E+02  0.93984496988E+02  0.90487686676E+02 0.  0.
        -11    1    4    4    0    0  0.29130434064E+00 -0.37317921376E+02 -0.41194079761E+02  0.55584749000E+02  0.00000000000E+00 0.  1.
         11    1    4    4    0    0  0.12782349909E+01  0.34902583134E+02  0.15959838704E+02  0.38399747989E+02  0.00000000000E+00 0. -1.
        -13    1    3    3    0    0 -0.33933932650E+02 -0.76608105729E+01 -0.50134427868E+02  0.61021804803E+02  0.00000000000E+00 0.  1.
         13    1    3    3    0    0  0.43362778701E+02  0.35371112478E+02 -0.17689087189E+03  0.18553120150E+03  0.00000000000E+00 0. -1.
          2    1    1    2  501    0 -0.10998385382E+02 -0.25294963664E+02  0.29243411941E+02  0.40199214044E+02  0.00000000000E+00 0. -1.
<scales pt_clust_5="13000.00000" pt_clust_6="13000.00000" pt_clust_7="13000.00000" pt_clust_8="13000.00000" pt_clust_9="27.58260"></scales>
<clustering>
<clus scale="   27.583">  1  9  2 -1</clus>
<clus scale="   90.488">  5  6 -1 -1</clus>
<clus scale="   91.603">  7  8 -1 -1</clus>
<clus scale="   93.413">  1  5  2 -1</clus>
<clus scale="   27.583">  1  5  2 -1</clus>
</clustering>
</event>
<event>
 9    1  0.3288491E-005  0.1048941E+03  0.7546771E-02  0.1272188E+00
         21   -1    0    0  501  502  0.00000000000E+00  0.00000000000E+00  0.56663290337E+02  0.56663290337E+02  0.00000000000E+00 0. -1.
          2   -1    0    0  502    0 -0.00000000000E+00 -0.00000000000E+00 -0.54565485161E+03  0.54565485161E+03  0.00000000000E+00 0. -1.
         23    2    1    2    0    0  0.38858362376E+02  0.45043245717E+02 -0.40255532921E+03  0.41724555642E+03  0.92218192154E+02 0.  0.
         23    2    1    2    0    0  0.50915447530E+01 -0.35362715324E+02 -0.10015963345E+03  0.13802326299E+03  0.87988769114E+02 0.  0.
        -11    1    4    4    0    0 -0.14074739033E+02 -0.54130786452E+02 -0.31232532612E+02  0.64060217094E+02  0.00000000000E+00 0.  1.
         11    1    4    4    0    0  0.19166283786E+02  0.18768071129E+02 -0.68927100840E+02  0.73963045896E+02  0.00000000000E+00 0. -1.
        -13    1    3    3    0    0 -0.18630946613E+02  0.48691898189E+02 -0.19227353476E+03  0.19921627767E+03  0.00000000000E+00 0.  1.
         13    1    3    3    0    0  0.57489308989E+02 -0.36486524726E+01 -0.21028179446E+03  0.21802927875E+03  0.00000000000E+00 0. -1.
          2    1    1    2  501    0 -0.43949907129E+02 -0.96805303930E+01  0.13723401392E+02  0.47049322536E+02  0.00000000000E+00 0. -1.
<scales pt_clust_5="13000.00000" pt_clust_6="13000.00000" pt_clust_7="13000.00000" pt_clust_8="13000.00000" pt_clust_9="45.00341"></scales>
<clustering>
<clus scale="   45.003">  1  9  2 -1</clus>
<clus scale="   87.989">  5  6 -1 -1</clus>
<clus scale="   92.218">  7  8 -1 -1</clus>
<clus scale="  101.196">  1  5  2 -1</clus>
<clus scale="   45.003">  1  5  2 -1</clus>
</clustering>
</event>
<event>
 9    1  0.3288491E-005  0.1137447E+03  0.7546771E-02  0.1254130E+00
         21   -1    0    0  501  502  0.00000000000E+00  0.00000000000E+00  0.17775071023E+03  0.17775071023E+03  0.00000000000E+00 0.  1.
          3   -1    0    0  502    0 -0.00000000000E+00 -0.00000000000E+00 -0.12245142753E+03  0.12245142753E+03  0.00000000000E+00 0. -1.
         23    2    1    2    0    0  0.80180789037E+02  0.20442554806E+02 -0.16951100767E+01  0.12319849472E+03  0.91258636441E+02 0.  0.
         23    2    1    2    0    0 -0.45371052563E+02  0.20524704824E+02  0.63995885727E+02  0.12279059094E+03  0.92207699866E+02 0.  0.
        -11    1    4    4    0    0 -0.24728955199E+02 -0.18036675453E+02  0.72081459863E+02  0.78310789439E+02  0.00000000000E+00 0.  1.
         11    1    4    4    0    0 -0.20642097365E+02  0.38561380276E+02 -0.80855741361E+01  0.44479801501E+02  0.00000000000E+00 0. -1.
        -13    1    3    3    0    0  0.99958340981E+02  0.16644082623E+02  0.63006651708E+01  0.10153026051E+03  0.00000000000E+00 0.  1.
         13    1    3    3    0    0 -0.19777551944E+02  0.37984721824E+01 -0.79957752475E+01  0.21668234206E+02  0.00000000000E+00 0. -1.
          3    1    1    2  501    0 -0.34809736474E+02 -0.40967259629E+02 -0.70014929537E+01  0.54213052104E+02  0.00000000000E+00 0. -1.
<scales pt_clust_5="13000.00000" pt_clust_6="13000.00000" pt_clust_7="13000.00000" pt_clust_8="13000.00000" pt_clust_9="53.75906"></scales>
<clustering>
<clus scale="   53.759">  1  9  2 -1</clus>
<clus scale="   91.259">  7  8 -1 -1</clus>
<clus scale="   92.208">  5  6 -1 -1</clus>
<clus scale="  112.977">  2  7  1 -1</clus>
<clus scale="   53.759">  1  5  2 -1</clus>
</clustering>
</event>
<event>
 9    1  0.3288491E-005  0.9636700E+02  0.7546771E-02  0.1298687E+00
         21   -1    0    0  501  502  0.00000000000E+00  0.00000000000E+00  0.17507228451E+03  0.17507228451E+03  0.00000000000E+00 0. -1.
         -2   -1    0    0    0  501 -0.00000000000E+00 -0.00000000000E+00 -0.98999552586E+02  0.98999552586E+02  0.00000000000E+00 0.  1.
         23    2    1    2    0    0 -0.32603939598E+02  0.13360420665E+02 -0.34224217233E+02  0.10323574219E+03  0.90800901443E+02 0.  0.
         23    2    1    2    0    0  0.13384290772E+02 -0.30945103991E+02  0.28019346455E+02  0.84533024885E+02  0.72277311930E+02 0.  0.
        -11    1    3    3    0    0 -0.53644470168E+02  0.16231510199E+02 -0.51305277372E+02  0.75983041458E+02  0.00000000000E+00 0.  1.
         11    1    3    3    0    0  0.21040530570E+02 -0.28710895342E+01  0.17081060138E+02  0.27252700733E+02  0.00000000000E+00 0. -1.
        -11    1    4    4    0    0  0.27658605846E+02  0.92536319280E+01 -0.62345975501E+01  0.29824459556E+02  0.00000000000E+00 0.  1.
         11    1    4    4    0    0 -0.14274315074E+02 -0.40198735919E+02  0.34253944005E+02  0.54708565328E+02  0.00000000000E+00 0. -1.
         -2    1    1    2    0  502  0.19219648825E+02  0.17584683326E+02  0.82277602699E+02  0.86303070018E+02  0.00000000000E+00 0.  1.
<scales pt_clust_5="13000.00000" pt_clust_6="13000.00000" pt_clust_7="13000.00000" pt_clust_8="13000.00000" pt_clust_9="26.05026"></scales>
<clustering>
<clus scale="   26.050">  1  9  2 -1</clus>
<clus scale="   72.277">  7  8 -1 -1</clus>
<clus scale="   79.157">  1  7  2 -1</clus>
<clus scale="   90.801">  5  6 -1 -1</clus>
<clus scale="   26.050">  1  5  2 -1</clus>
</clustering>
</event>
<event>
 9    1  0.3288491E-005  0.9985297E+02  0.7546771E-02  0.1281467E+00
         21   -1    0    0  501  502  0.00000000000E+00  0.00000000000E+00  0.42670019708E+02  0.42670019708E+02  0.00000000000E+00 0. -1.
          1   -1    0    0  502    0 -0.00000000000E+00 -0.00000000000E+00 -0.44479572816E+03  0.44479572816E+03  0.00000000000E+00 0. -1.
         23    2    1    2    0    0 -0.18123031516E+01  0.30294170658E+02 -0.19361265787E+03  0.21549783855E+03  0.89623857937E+02 0.  0.
         23    2    1    2    0    0  0.21405879239E+02 -0.47761460438E+02 -0.21954011488E+03  0.24349668554E+03  0.91396964179E+02 0.  0.
        -11    1    3    3    0    0  0.30681814217E+02  0.42128819558E+02 -0.15565763953E+03  0.16415088152E+03  0.00000000000E+00 0.  1.
         11    1    3    3    0    0 -0.32494117369E+02 -0.11834648901E+02 -0.37955018341E+02  0.51346957022E+02  0.00000000000E+00 0. -1.
        -13    1    4    4    0    0 -0.27485984804E+02 -0.42068938140E+02 -0.70781477528E+02  0.86806062449E+02  0.00000000000E+00 0.  1.
         13    1    4    4    0    0  0.48891864043E+02 -0.56925222987E+01 -0.14875863735E+03  0.15669062310E+03  0.00000000000E+00 0. -1.
          1    1    1    2  501    0 -0.19593576088E+02  0.17467289781E+02  0.11027064301E+02  0.28471223775E+02  0.00000000000E+00 0. -1.
<scales pt_clust_5="13000.00000" pt_clust_6="13000.00000" pt_clust_7="13000.00000" pt_clust_8="13000.00000" pt_clust_9="26.24908"></scales>
<clustering>
<clus scale="   26.249">  1  9  2 -1</clus>
<clus scale="   89.624">  5  6 -1 -1</clus>
<clus scale="   91.397">  7  8 -1 -1</clus>
<clus scale="   98.233">  2  5  1 -1</clus>
<clus scale="   26.249">  1  5  2 -1</clus>
</clustering>
</event>
<event>
 9    1  0.3288491E-005  0.1122693E+03  0.7546771E-02  0.1257174E+00
         -1   -1    0    0    0  501 -0.00000000000E+00  0.00000000000E+00  0.39185833938E+03  0.39185833938E+03  0.00000000000E+00 0.  1.
         21   -1    0    0  501  502  0.00000000000E+00 -0.00000000000E+00 -0.63666293973E+02  0.63666293973E+02  0.00000000000E+00 0. -1.
         23    2    1    2    0    0 -0.26533635552E+02  0.30389757161E+02  0.10031220186E+03  0.14154769855E+03  0.91354485201E+02 0.  0.
         23    2    1    2    0    0  0.10108649486E+03 -0.71896861843E+01  0.15065886451E+03  0.20416139980E+03  0.93346733649E+02 0.  0.
        -13    1    4    4    0    0  0.17792268498E+02  0.21509375582E+02 -0.19135010839E+01  0.27979984679E+02  0.00000000000E+00 0.  1.
         13    1    4    4    0    0  0.83294226363E+02 -0.28699061766E+02  0.15257236560E+03  0.17618141512E+03  0.00000000000E+00 0. -1.
        -13    1    3    3    0    0  0.29394133658E+02  0.32479203403E+02  0.41010344943E+02  0.60006350827E+02  0.00000000000E+00 0. -1.
         13    1    3    3    0    0 -0.55927769210E+02 -0.20894462424E+01  0.59301856913E+02  0.81541347718E+02  0.00000000000E+00 0.  1.
         -1    1    1    2    0  502 -0.74552859309E+02 -0.23200070976E+02  0.77220979040E+02  0.10981553500E+03  0.00000000000E+00 0.  1.
<scales pt_clust_5="13000.00000" pt_clust_6="13000.00000" pt_clust_7="13000.00000" pt_clust_8="13000.00000" pt_clust_9="78.07927"></scales>
<clustering>
<clus scale="   78.079">  2  9  1 -1</clus>
<clus scale="   91.354">  7  8 -1 -1</clus>
<clus scale="   93.347">  5  6 -1 -1</clus>
<clus scale="  110.618">  1  7  2 -1</clus>
<clus scale="   78.079">  2  5  1 -1</clus>
</clustering>
</event>
<event>
 9    1  0.3288491E-005  0.1007661E+03  0.7546771E-02  0.1280029E+00
         21   -1    0    0  501  502  0.00000000000E+00  0.00000000000E+00  0.17394540804E+03  0.17394540804E+03  0.00000000000E+00 0.  1.
          2   -1    0    0  502    0 -0.00000000000E+00 -0.00000000000E+00 -0.24119575694E+03  0.24119575694E+03  0.00000000000E+00 0. -1.
         23    2    1    2    0    0 -0.28083782640E+02  0.21131172776E+02 -0.20191722604E+03  0.22598114184E+03  0.95192883077E+02 0.  0.
         23    2    1    2    0    0  0.35831876252E+01 -0.23134155678E+02  0.65466005893E+02  0.11572262343E+03  0.92508914450E+02 0.  0.
        -11    1    4    4    0    0 -0.19994449151E+02  0.40136586980E+01 -0.16489763592E+02  0.26225936710E+02  0.00000000000E+00 0. -1.
         11    1    4    4    0    0  0.23577636777E+02 -0.27147814376E+02  0.81955769485E+02  0.89496686717E+02  0.00000000000E+00 0.  1.
        -13    1    3    3    0    0 -0.52809866110E+02 -0.11621352978E+02 -0.15216834389E+03  0.16149037954E+03  0.00000000000E+00 0. -1.
         13    1    3    3    0    0  0.24726083469E+02  0.32752525754E+02 -0.49748882147E+02  0.64490762299E+02  0.00000000000E+00 0.  1.
          2    1    1    2  501    0  0.24500595015E+02  0.20029829016E+01  0.69200871242E+02  0.73437399717E+02  0.00000000000E+00 0. -1.
<scales pt_clust_5="13000.00000" pt_clust_6="13000.00000" pt_clust_7="13000.00000" pt_clust_8="13000.00000" pt_clust_9="24.58233"></scales>
<clustering>
<clus scale="   24.582">  1  9  2 -1</clus>
<clus scale="   92.509">  5  6 -1 -1</clus>
<clus scale="   95.193">  7  8 -1 -1</clus>
<clus scale="   98.234">  1  5  2 -1</clus>
<clus scale="   24.582">  1  5  2 -1</clus>
</clustering>
</event>
<event>
 9    1  0.3288491E-005  0.9805198E+02  0.7546771E-02  0.1284537E+00
         21   -1    0    0  501  502  0.00000000000E+00  0.00000000000E+00  0.28777657744E+02  0.28777657744E+02  0.00000000000E+00 0. -1.
          4   -1    0    0  502    0 -0.00000000000E+00 -0.00000000000E+00 -0.60934081132E+03  0.60934081132E+03  0.00000000000E+00 0. -1.
         23    2    1    2    0    0  0.48195963015E+02  0.78730073749E+01 -0.37789131856E+03  0.39186675404E+03  0.91503383443E+02 0.  0.
         23    2    1    2    0    0 -0.21148621831E+01 -0.26177556942E+01 -0.11543575573E+03  0.14745283319E+03  0.91682054002E+02 0.  0.
        -11    1    3    3    0    0  0.28692615004E+02  0.43919225504E+02 -0.29228222342E+03  0.29695296371E+03  0.00000000000E+00 0. -1.
         11    1    3    3    0    0  0.19503348011E+02 -0.36046218129E+02 -0.85609095135E+02  0.94913790330E+02  0.00000000000E+00 0.  1.
        -13    1    4    4    0    0  0.48236628130E+01 -0.45776496787E+02 -0.74452739403E+02  0.87532655539E+02  0.00000000000E+00 0. -1.
         13    1    4    4    0    0 -0.69385249961E+01  0.43158741093E+02 -0.40983016328E+02  0.59920177647E+02  0.00000000000E+00 0.  1.
          4    1    1    2  501    0 -0.46081100832E+02 -0.52552516808E+01 -0.87236079285E+02  0.98798881841E+02  0.00000000000E+00 0. -1.
<scales pt_clust_5="13000.00000" pt_clust_6="13000.00000" pt_clust_7="13000.00000" pt_clust_8="13000.00000" pt_clust_9="46.37980"></scales>
<clustering>
<clus scale="   46.380">  1  9  2 -1</clus>
<clus scale="   91.503">  5  6 -1 -1</clus>
<clus scale="   91.682">  7  8 -1 -1</clus>
<clus scale="   97.885">  2  5  1 -1</clus>
<clus scale="   46.380">  1  5  2 -1</clus>
</clustering>
</event>
<event>
 9    1  0.3288491E-005  0.9481877E+02  0.7546771E-02  0.1291696E+00
          3   -1    0    0  502    0 -0.00000000000E+00  0.00000000000E+00  0.21393552129E+03  0.21393552129E+03  0.00000000000E+00 0. -1.
         21   -1    0    0  501  502  0.00000000000E+00 -0.00000000000E+00 -0.11699672416E+03  0.11699672416E+03  0.00000000000E+00 0. -1.
         23    2    1    2    0    0  0.13854288926E+02  0.22868029800E+02  0.15788229716E+03  0.18440192908E+03  0.91445959908E+02 0.  0.
         23    2    1    2    0    0  0.84272785325E+01 -0.20232695111E+02 -0.15026605369E+02  0.95424793642E+02  0.91649939431E+02 0.  0.
        -13    1    3    3    0    0  0.21989973803E+02  0.56501861618E+02  0.10308590245E+03  0.11959399064E+03  0.00000000000E+00 0. -1.
         13    1    3    3    0    0 -0.81356848767E+01 -0.33633831818E+02  0.54796394716E+02  0.64807938442E+02  0.00000000000E+00 0.  1.
        -13    1    4    4    0    0  0.60030285690E+01  0.36674305856E+02 -0.36503923131E+01  0.37341216183E+02  0.00000000000E+00 0.  1.
         13    1    4    4    0    0  0.24242499634E+01 -0.56907000966E+02 -0.11376213056E+02  0.58083577458E+02  0.00000000000E+00 0. -1.
          3    1    1    2  501    0 -0.22281567459E+02 -0.26353346896E+01 -0.45916894665E+02  0.51105522725E+02  0.00000000000E+00 0. -1.
<scales pt_clust_5="13000.00000" pt_clust_6="13000.00000" pt_clust_7="13000.00000" pt_clust_8="13000.00000" pt_clust_9="22.43687"></scales>
<clustering>
<clus scale="   22.437">  2  9  1 -1</clus>
<clus scale="   91.446">  5  6 -1 -1</clus>
<clus scale="   91.650">  7  8 -1 -1</clus>
<clus scale="   94.622">  1  5  2 -1</clus>
<clus scale="   22.437">  2  5  1 -1</clus>
</clustering>
</event>
<event>
 9    1  0.3288491E-005  0.1053291E+03  0.7546771E-02  0.1270702E+00
         21   -1    0    0  501  502  0.00000000000E+00  0.00000000000E+00  0.26918567936E+02  0.26918567936E+02  0.00000000000E+00 0. -1.
          1   -1    0    0  502    0 -0.00000000000E+00 -0.00000000000E+00 -0.79548440022E+03  0.79548440022E+03  0.00000000000E+00 0. -1.
         23    2    1    2    0    0 -0.34721351500E+02 -0.34408968441E+02 -0.51212307330E+03  0.52219151356E+03  0.89578933173E+02 0.  0.
         23    2    1    2    0    0  0.62710486443E+02  0.91792931293E+01 -0.22409545394E+03  0.25054983627E+03  0.92409866607E+02 0.  0.
        -11    1    4    4    0    0  0.65464079089E+02 -0.24707800905E+02 -0.18967240932E+03  0.20216736615E+03  0.00000000000E+00 0. -1.
         11    1    4    4    0    0 -0.27535926458E+01  0.33887094035E+02 -0.34423044619E+02  0.48382470125E+02  0.00000000000E+00 0.  1.
        -11    1    3    3    0    0 -0.51284779753E+02  0.11834451824E+02 -0.24499244455E+03  0.25058228343E+03  0.00000000000E+00 0.  1.
         11    1    3    3    0    0  0.16563428253E+02 -0.46243420265E+02 -0.26713062875E+03  0.27160923013E+03  0.00000000000E+00 0. -1.
          1    1    1    2  501    0 -0.27989134943E+02  0.25229675312E+02 -0.32347305045E+02  0.49661618327E+02  0.00000000000E+00 0. -1.
<scales pt_clust_5="13000.00000" pt_clust_6="13000.00000" pt_clust_7="13000.00000" pt_clust_8="13000.00000" pt_clust_9="37.68193"></scales>
<clustering>
<clus scale="   37.682">  1  9  2 -1</clus>
<clus scale="   89.579">  7  8 -1 -1</clus>
<clus scale="   92.410">  5  6 -1 -1</clus>
<clus scale="  102.854">  2  7  1 -1</clus>
<clus scale="   37.682">  1  5  2 -1</clus>
</clustering>
</event>
<event>
 9    1  0.3288491E-005  0.1150478E+03  0.7546771E-02  0.1254949E+00
         21   -1    0    0  501  502  0.00000000000E+00  0.00000000000E+00  0.97715444803E+02  0.97715444803E+02  0.00000000000E+00 0. -1.
          2   -1    0    0  502    0 -0.00000000000E+00 -0.00000000000E+00 -0.65050279405E+03  0.65050279405E+03  0.00000000000E+00 0. -1.
         23    2    1    2    0    0  0.63525033374E+02 -0.30326302161E+02 -0.49277029876E+03  0.50699331548E+03  0.96252481176E+02 0.  0.
         23    2    1    2    0    0 -0.42589056930E+02  0.17779036498E+02 -0.13230296138E+03  0.16492943269E+03  0.86992656403E+02 0.  0.
        -11    1    4    4    0    0  0.22672597853E+02  0.23083799020E+02 -0.52913404232E+02  0.62022067186E+02  0.00000000000E+00 0.  1.
         11    1    4    4    0    0 -0.65261654783E+02 -0.53047625222E+01 -0.79389557147E+02  0.10290736550E+03  0.00000000000E+00 0. -1.
        -13    1    3    3    0    0  0.40599515734E+01 -0.51911508770E+02 -0.28815590530E+03  0.29282266597E+03  0.00000000000E+00 0. -1.
         13    1    3    3    0    0  0.59465081800E+02  0.21585206609E+02 -0.20461439346E+03  0.21417064951E+03  0.00000000000E+00 0.  1.
          2    1    1    2  501    0 -0.20935976444E+02  0.12547265663E+02  0.72285910893E+02  0.76295490685E+02  0.00000000000E+00 0. -1.
<scales pt_clust_5="13000.00000" pt_clust_6="13000.00000" pt_clust_7="13000.00000" pt_clust_8="13000.00000" pt_clust_9="24.40797"></scales>
<clustering>
<clus scale="   24.408">  1  9  2 -1</clus>
<clus scale="   86.993">  5  6 -1 -1</clus>
<clus scale="   96.252">  7  8 -1 -1</clus>
<clus scale="  107.421">  1  5  2 -1</clus>
<clus scale="   24.408">  1  5  2 -1</clus>
</clustering>
</event>
<event>
 9    1  0.3288491E-005  0.1743804E+03  0.7546771E-02  0.1173364E+00
         -1   -1    0    0    0  501 -0.00000000000E+00  0.00000000000E+00  0.31319710948E+03  0.31319710948E+03  0.00000000000E+00 0.  1.
         21   -1    0    0  501  502  0.00000000000E+00 -0.00000000000E+00 -0.16691250845E+03  0.16691250845E+03  0.00000000000E+00 0.  1.
         23    2    1    2    0    0  0.27924643378E+02 -0.15107265603E+03  0.12395110829E+03  0.21745294313E+03  0.91209495798E+02 0.  0.
         23    2    1    2    0    0 -0.45727030101E+02  0.13631718466E+03  0.88952147269E+02  0.19213934332E+03  0.91278182672E+02 0.  0.
        -11    1    4    4    0    0 -0.25561634707E+02  0.14446985507E+03  0.86335422731E+02  0.17023143485E+03  0.00000000000E+00 0.  1.
         11    1    4    4    0    0 -0.20165395395E+02 -0.81526704090E+01  0.26167245377E+01  0.21907908470E+02  0.00000000000E+00 0. -1.
        -13    1    3    3    0    0 -0.17447050695E+02 -0.39027638439E+02  0.76413004111E+02  0.87558570896E+02  0.00000000000E+00 0.  1.
         13    1    3    3    0    0  0.45371694073E+02 -0.11204501759E+03  0.47538104175E+02  0.12989437224E+03  0.00000000000E+00 0. -1.
         -1    1    1    2    0  502  0.17802386723E+02  0.14755471369E+02 -0.66618654524E+02  0.70517331479E+02  0.00000000000E+00 0.  1.
<scales pt_clust_5="13000.00000" pt_clust_6="13000.00000" pt_clust_7="13000.00000" pt_clust_8="13000.00000" pt_clust_9="23.12248"></scales>
<clustering>
<clus scale="   23.122">  2  9  1 -1</clus>
<clus scale="   91.209">  7  8 -1 -1</clus>
<clus scale="   91.278">  5  6 -1 -1</clus>
<clus scale="  174.344">  1  7  2 -1</clus>
<clus scale="   23.122">  2  5  1 -1</clus>
</clustering>
</event>
<event>
 9    1  0.3288491E-005  0.2642962E+03  0.7546771E-02  0.1127554E+00
         21   -1    0    0  501  502  0.00000000000E+00  0.00000000000E+00  0.41319925144E+03  0.41319925144E+03  0.00000000000E+00 0.  1.
          2   -1    0    0  502    0 -0.00000000000E+00 -0.00000000000E+00 -0.38541933884E+03  0.38541933884E+03  0.00000000000E+00 0. -1.
         23    2    1    2    0    0  0.86497369200E+02  0.81105091535E+02 -0.17808155583E+03  0.23167881160E+03  0.88894321890E+02 0.  0.
         23    2    1    2    0    0  0.18679746368E+03  0.38600669429E+02  0.11072716437E+02  0.21062223381E+03  0.88633042407E+02 0.  0.
        -11    1    3    3    0    0  0.88842992937E+02  0.27660164673E+02 -0.95926692937E+02  0.13364165713E+03  0.00000000000E+00 0.  1.
         11    1    3    3    0    0 -0.23456237372E+01  0.53444926862E+02 -0.82154862893E+02  0.98037154462E+02  0.00000000000E+00 0. -1.
        -13    1    4    4    0    0  0.78625356949E+02 -0.34131993638E+01  0.43778960359E+02  0.90056615833E+02  0.00000000000E+00 0.  1.
         13    1    4    4    0    0  0.10817210673E+03  0.42013868793E+02 -0.32706243922E+02  0.12056561797E+03  0.00000000000E+00 0. -1.
          2    1    1    2  501    0 -0.27329483288E+03 -0.11970576096E+03  0.19478875199E+03  0.35631754488E+03  0.00000000000E+00 0. -1.
<scales pt_clust_5="13000.00000" pt_clust_6="13000.00000" pt_clust_7="13000.00000" pt_clust_8="13000.00000" pt_clust_9="248.99131"></scales>
<clustering>
<clus scale="   88.633">  7  8 -1 -1</clus>
<clus scale="   88.894">  5  6 -1 -1</clus>
<clus scale="  148.196">  2  5  1 -1</clus>
<clus scale="  248.991">  1  9  2 -1</clus>
<clus scale="  248.991">  1  5  2 -1</clus>
</clustering>
</event>
<event>
 9    1  0.3288491E-005  0.1494017E+03  0.7546771E-02  0.1202551E+00
         21   -1    0    0  501  502  0.00000000000E+00  0.00000000000E+00  0.51600971797E+03  0.51600971797E+03  0.00000000000E+00 0.  1.
          2   -1    0    0  502    0 -0.00000000000E+00 -0.00000000000E+00 -0.43688928018E+03  0.43688928018E+03  0.00000000000E+00 0. -1.
         23    2    1    2    0    0  0.57263451652E+02 -0.98497357814E+02 -0.40332258705E+03  0.43046994281E+03  0.98256959288E+02 0.  0.
         23    2    1    2    0    0 -0.88710006266E+02  0.40129250662E+02  0.30564097811E+03  0.33360457213E+03  0.91628494904E+02 0.  0.
        -11    1    4    4    0    0 -0.67593360656E+02 -0.14443422245E+02  0.21390197262E+03  0.22479219012E+03  0.00000000000E+00 0.  1.
         11    1    4    4    0    0 -0.21116645610E+02  0.54572672907E+02  0.91739005491E+02  0.10881238201E+03  0.00000000000E+00 0. -1.
        -13    1    3    3    0    0  0.61736446917E+02 -0.51996333104E+02 -0.12880407998E+03  0.15200492937E+03  0.00000000000E+00 0.  1.
         13    1    3    3    0    0 -0.44729952647E+01 -0.46501024709E+02 -0.27451850707E+03  0.27846501344E+03  0.00000000000E+00 0. -1.
          2    1    1    2  501    0  0.31446554614E+02  0.58368107151E+02  0.17680204674E+03  0.18882448321E+03  0.00000000000E+00 0. -1.
<scales pt_clust_5="13000.00000" pt_clust_6="13000.00000" pt_clust_7="13000.00000" pt_clust_8="13000.00000" pt_clust_9="66.30024"></scales>
<clustering>
<clus scale="   66.300">  1  9  2 -1</clus>
<clus scale="   91.628">  5  6 -1 -1</clus>
<clus scale="   98.257">  7  8 -1 -1</clus>
<clus scale="  145.128">  1  5  2 -1</clus>
<clus scale="   66.300">  1  5  2 -1</clus>
</clustering>
</event>
<event>
 9    1  0.3288491E-005  0.1213538E+03  0.7546771E-02  0.1241282E+00
          1   -1    0    0  502    0 -0.00000000000E+00  0.00000000000E+00  0.85086601813E+02  0.85086601813E+02  0.00000000000E+00 0. -1.
         21   -1    0    0  501  502  0.00000000000E+00 -0.00000000000E+00 -0.41773866664E+03  0.41773866664E+03  0.00000000000E+00 0.  1.
         23    2    1    2    0    0  0.84533325707E+02  0.13163008796E+02  0.93776834821E+00  0.12519714622E+03  0.91401849301E+02 0.  0.
         23    2    1    2    0    0 -0.55431601839E+02 -0.31113581097E+02 -0.13293834705E+03  0.17408414109E+03  0.92692861916E+02 0.  0.
        -11    1    4    4    0    0 -0.43198870429E+02 -0.11079890264E+02 -0.60061449530E+01  0.44999779464E+02  0.00000000000E+00 0. -1.
         11    1    4    4    0    0 -0.12232731410E+02 -0.20033690833E+02 -0.12693220210E+03  0.12908436162E+03  0.00000000000E+00 0.  1.
        -11    1    3    3    0    0  0.69155062934E+02 -0.27084015741E+02 -0.20537334369E+02  0.77056789065E+02  0.00000000000E+00 0. -1.
         11    1    3    3    0    0  0.15378262774E+02  0.40247024537E+02  0.21475102717E+02  0.48140357152E+02  0.00000000000E+00 0.  1.
          1    1    1    2  501    0 -0.29101723868E+02  0.17950572301E+02 -0.20065148613E+03  0.20354398115E+03  0.00000000000E+00 0. -1.
<scales pt_clust_5="13000.00000" pt_clust_6="13000.00000" pt_clust_7="13000.00000" pt_clust_8="13000.00000" pt_clust_9="34.19259"></scales>
<clustering>
<clus scale="   34.193">  2  9  1 -1</clus>
<clus scale="   91.402">  7  8 -1 -1</clus>
<clus scale="   92.693">  5  6 -1 -1</clus>
<clus scale="  120.371">  1  7  2 -1</clus>
<clus scale="   34.193">  2  5  1 -1</clus>
</clustering>
</event>
<event>
 9    1  0.3288491E-005  0.1036831E+03  0.7546771E-02  0.1273117E+00
         21   -1    0    0  501  502  0.00000000000E+00  0.00000000000E+00  0.57103315667E+03  0.57103315667E+03  0.00000000000E+00 0.  1.
         -1   -1    0    0    0  501 -0.00000000000E+00 -0.00000000000E+00 -0.50764088791E+02  0.50764088791E+02  0.00000000000E+00 0.  1.
         23    2    1    2    0    0 -0.28940761924E+02 -0.37863336216E+02  0.53056874359E+02  0.11695998922E+03  0.92700632317E+02 0.  0.
         23    2    1    2    0    0  0.59998076426E+02 -0.11268789130E+01  0.16248458665E+03  0.19605949142E+03  0.91853384506E+02 0.  0.
        -11    1    4    4    0    0  0.19707130703E+02  0.32410062629E+02  0.12753207223E+03  0.13305342013E+03  0.00000000000E+00 0. -1.
         11    1    4    4    0    0  0.40290945723E+02 -0.33536941542E+02  0.34952514420E+02  0.63006071290E+02  0.00000000000E+00 0.  1.
        -13    1    3    3    0    0 -0.57238539796E+02 -0.25884526061E+02  0.93190736317E+01  0.63506726107E+02  0.00000000000E+00 0.  1.
         13    1    3    3    0    0  0.28297777872E+02 -0.11978810155E+02  0.43737800728E+02  0.53453263116E+02  0.00000000000E+00 0. -1.
         -1    1    1    2    0  502 -0.31057314501E+02  0.38990215129E+02  0.30472760687E+03  0.30877776482E+03  0.00000000000E+00 0.  1.
<scales pt_clust_5="13000.00000" pt_clust_6="13000.00000" pt_clust_7="13000.00000" pt_clust_8="13000.00000" pt_clust_9="49.84770"></scales>
<clustering>
<clus scale="   49.848">  1  9  2 -1</clus>
<clus scale="   91.853">  5  6 -1 -1</clus>
<clus scale="   92.701">  7  8 -1 -1</clus>
<clus scale="  102.926">  1  5  2 -1</clus>
<clus scale="   49.848">  1  5  2 -1</clus>
</clustering>
</event>
<event>
 9    1  0.3288491E-005  0.2670120E+03  0.7546771E-02  0.1125368E+00
         21   -1    0    0  501  502  0.00000000000E+00  0.00000000000E+00  0.13201160372E+03  0.13201160372E+03  0.00000000000E+00 0. -1.
          3   -1    0    0  502    0 -0.00000000000E+00 -0.00000000000E+00 -0.11327290391E+04  0.11327290391E+04  0.00000000000E+00 0. -1.
         23    2    1    2    0    0 -0.11874744880E+03  0.17523849330E+02 -0.53762539726E+03  0.55861719007E+03  0.92758047524E+02 0.  0.
         23    2    1    2    0    0  0.27906537014E+03 -0.14191416355E+03 -0.24412015588E+03  0.40758790814E+03  0.92282943846E+02 0.  0.
        -11    1    3    3    0    0 -0.81139878441E+02  0.46415269245E+02 -0.44321211183E+03  0.45296250747E+03  0.00000000000E+00 0.  1.
         11    1    3    3    0    0 -0.37607570363E+02 -0.28891419916E+02 -0.94413285420E+02  0.10565468261E+03  0.00000000000E+00 0. -1.
        -13    1    4    4    0    0  0.19597822377E+03 -0.14414023940E+03 -0.18196815817E+03  0.30380303388E+03  0.00000000000E+00 0.  1.
         13    1    4    4    0    0  0.83087146374E+02  0.22260758458E+01 -0.62151997705E+02  0.10378487426E+03  0.00000000000E+00 0. -1.
          3    1    1    2  501    0 -0.16031792134E+03  0.12439031422E+03 -0.21897188224E+03  0.29853554459E+03  0.00000000000E+00 0. -1.
<scales pt_clust_5="13000.00000" pt_clust_6="13000.00000" pt_clust_7="13000.00000" pt_clust_8="13000.00000" pt_clust_9="250.55789"></scales>
<clustering>
<clus scale="   92.283">  7  8 -1 -1</clus>
<clus scale="   92.758">  5  6 -1 -1</clus>
<clus scale="  151.697">  2  5  1 -1</clus>
<clus scale="  250.558">  1  9  2 -1</clus>
<clus scale="  250.558">  1  5  2 -1</clus>
</clustering>
</event>
<event>
 9    1  0.3288491E-005  0.3248527E+03  0.7546771E-02  0.1073479E+00
         21   -1    0    0  501  502  0.00000000000E+00  0.00000000000E+00  0.82170685347E+02  0.82170685347E+02  0.00000000000E+00 0. -1.
         -2   -1    0    0    0  501 -0.00000000000E+00 -0.00000000000E+00 -0.26097037154E+04  0.26097037154E+04  0.00000000000E+00 0.  1.
         23    2    1    2    0    0 -0.24836484343E+03  0.19263002491E+03 -0.15247908348E+04  0.15595666573E+04  0.92030683972E+02 0.  0.
         23    2    1    2    0    0  0.22455758563E+03 -0.21153694977E+03 -0.10374651676E+04  0.10861564473E+04  0.90707572220E+02 0.  0.
        -11    1    4    4    0    0  0.65559895230E+02 -0.47147674709E+02 -0.15798401659E+03  0.17742590733E+03  0.00000000000E+00 0.  1.
         11    1    4    4    0    0  0.15899769040E+03 -0.16438927507E+03 -0.87948115099E+03  0.90873053996E+03  0.00000000000E+00 0. -1.
        -11    1    3    3    0    0 -0.65084506000E+02  0.71823483702E+02 -0.30027131482E+03  0.31552728604E+03  0.00000000000E+00 0. -1.
         11    1    3    3    0    0 -0.18328033743E+03  0.12080654120E+03 -0.12245195200E+04  0.12440393713E+04  0.00000000000E+00 0.  1.
         -2    1    1    2    0  502  0.23807257801E+02  0.18906924869E+02  0.34722972303E+02  0.46151296163E+02  0.00000000000E+00 0.  1.
<scales pt_clust_5="13000.00000" pt_clust_6="13000.00000" pt_clust_7="13000.00000" pt_clust_8="13000.00000" pt_clust_9="30.40160"></scales>
<clustering>
<clus scale="   30.402">  1  9  2 -1</clus>
<clus scale="   90.708">  5  6 -1 -1</clus>
<clus scale="   92.031">  7  8 -1 -1</clus>
<clus scale="  324.480">  1  5  2 -1</clus>
<clus scale="   30.402">  1  5  2 -1</clus>
</clustering>
</event>
<event>
 9    1  0.3741931E-005  0.1052548E+03  0.7546771E-02  0.1271969E+00
         21   -1    0    0  501  502  0.00000000000E+00  0.00000000000E+00  0.40493610179E+03  0.40493610179E+03  0.00000000000E+00 0.  1.
         -3   -1    0    0    0  501 -0.00000000000E+00 -0.00000000000E+00 -0.19288376589E+03  0.19288376589E+03  0.00000000000E+00 0.  1.
         23    2    1    2    0    0  0.54228734309E+02  0.31729632758E+02 -0.10232804883E+03  0.15073746511E+03  0.91122053267E+02 0.  0.
         23    2    1    2    0    0 -0.14807629902E+02  0.29874947842E+01 -0.27461317670E+02  0.10122831208E+03  0.96254122871E+02 0.  0.
        -13    1    4    4    0    0 -0.38138152660E+00 -0.39640623493E+02 -0.38101999422E+02  0.54984423637E+02  0.00000000000E+00 0.  1.
         13    1    4    4    0    0 -0.14426248376E+02  0.42628118277E+02  0.10640681752E+02  0.46243888441E+02  0.00000000000E+00 0. -1.
        -13    1    3    3    0    0  0.75648196063E+01 -0.23468646075E+02 -0.64721988378E+02  0.69259942419E+02  0.00000000000E+00 0. -1.
         13    1    3    3    0    0  0.46663914702E+02  0.55198278833E+02 -0.37606060448E+02  0.81477522691E+02  0.00000000000E+00 0.  1.
         -3    1    1    2    0  502 -0.39421104406E+02 -0.34717127543E+02  0.34184170239E+03  0.34585409049E+03  0.00000000000E+00 0.  1.
<scales pt_clust_5="13000.00000" pt_clust_6="13000.00000" pt_clust_7="13000.00000" pt_clust_8="13000.00000" pt_clust_9="52.52906"></scales>
<clustering>
<clus scale="   52.529">  1  9  2 -1</clus>
<clus scale="   91.122">  7  8 -1 -1</clus>
<clus scale="   96.254">  5  6 -1 -1</clus>
<clus scale="  100.583">  2  7  1 -1</clus>
<clus scale="   52.529">  1  5  2 -1</clus>
</clustering>
</event>
<event>
 9    1  0.3288491E-005  0.2213181E+03  0.7546771E-02  0.1135990E+00
          1   -1    0    0  502    0 -0.00000000000E+00  0.00000000000E+00  0.32622004468E+03  0.32622004468E+03  0.00000000000E+00 0. -1.
         21   -1    0    0  501  502  0.00000000000E+00 -0.00000000000E+00 -0.21369832236E+03  0.21369832236E+03  0.00000000000E+00 0.  1.
         23    2    1    2    0    0 -0.13856167242E+03 -0.13360431363E+03  0.18247932831E+03  0.29239257031E+03  0.12306608074E+03 0.  0.
         23    2    1    2    0    0  0.99701371295E+02  0.13519202007E+03 -0.33130322306E+02  0.19396375197E+03  0.91143146172E+02 0.  0.
        -11    1    4    4    0    0  0.11719156637E+03  0.12026396994E+03 -0.31992739940E+02  0.17094098719E+03  0.00000000000E+00 0.  1.
         11    1    4    4    0    0 -0.17490195074E+02  0.14928050129E+02 -0.11375823660E+01  0.23022764778E+02  0.00000000000E+00 0. -1.
        -13    1    3    3    0    0 -0.37197808225E+02 -0.84737197531E+02  0.14826848297E+03  0.17477875335E+03  0.00000000000E+00 0. -1.
         13    1    3    3    0    0 -0.10136386420E+03 -0.48867116100E+02  0.34210845341E+02  0.11761381696E+03  0.00000000000E+00 0.  1.
          1    1    1    2  501    0  0.38860301129E+02 -0.15877064401E+01 -0.36827283682E+02  0.53562044761E+02  0.00000000000E+00 0. -1.
<scales pt_clust_5="13000.00000" pt_clust_6="13000.00000" pt_clust_7="13000.00000" pt_clust_8="13000.00000" pt_clust_9="38.89272"></scales>
<clustering>
<clus scale="   38.893">  2  9  1 -1</clus>
<clus scale="   91.143">  5  6 -1 -1</clus>
<clus scale="  123.066">  7  8 -1 -1</clus>
<clus scale="  205.289">  2  5  1 -1</clus>
<clus scale="   38.893">  2  5  1 -1</clus>
</clustering>
</event>
<event>
 9    1  0.3288491E-005  0.1017538E+03  0.7546771E-02  0.1278039E+00
         21   -1    0    0  501  502  0.00000000000E+00  0.00000000000E+00  0.25665190788E+03  0.25665190788E+03  0.00000000000E+00 0.  1.
         -3   -1    0    0    0  501 -0.00000000000E+00 -0.00000000000E+00 -0.20665615404E+03  0.20665615404E+03  0.00000000000E+00 0.  1.
         23    2    1    2    0    0  0.43231212597E+02  0.54906671237E+00 -0.10615630598E+03  0.14789243161E+03  0.93454645753E+02 0.  0.
         23    2    1    2    0    0 -0.65508691990E+01 -0.25177997746E+02  0.21910830460E+03  0.23850320874E+03  0.90545491200E+02 0.  0.
        -11    1    4    4    0    0  0.75315485627E+01 -0.54202503827E+02  0.17815186394E+03  0.18636717058E+03  0.00000000000E+00 0.  1.
         11    1    4    4    0    0 -0.14082417762E+02  0.29024506081E+02  0.40956440653E+02  0.52136038152E+02  0.00000000000E+00 0. -1.
        -13    1    3    3    0    0  0.63600650461E+02  0.16469926519E+02 -0.40130390348E+02  0.76985384640E+02  0.00000000000E+00 0.  1.
         13    1    3    3    0    0 -0.20369437864E+02 -0.15920859806E+02 -0.66025915628E+02  0.70907046972E+02  0.00000000000E+00 0. -1.
         -3    1    1    2    0  502 -0.36680343399E+02  0.24628931033E+02 -0.62956244782E+02  0.76912421576E+02  0.00000000000E+00 0.  1.
<scales pt_clust_5="13000.00000" pt_clust_6="13000.00000" pt_clust_7="13000.00000" pt_clust_8="13000.00000" pt_clust_9="44.18183"></scales>
<clustering>
<clus scale="   44.182">  1  9  2 -1</clus>
<clus scale="   90.545">  5  6 -1 -1</clus>
<clus scale="   93.455">  7  8 -1 -1</clus>
<clus scale="   99.089">  1  5  2 -1</clus>
<clus scale="   44.182">  1  5  2 -1</clus>
</clustering>
</event>
<event>
 9    1  0.3288491E-005  0.1045292E+03  0.7546771E-02  0.1272390E+00
          2   -1    0    0  502    0 -0.00000000000E+00  0.00000000000E+00  0.35366022711E+03  0.35366022711E+03  0.00000000000E+00 0. -1.
         21   -1    0    0  501  502  0.00000000000E+00 -0.00000000000E+00 -0.52912537275E+02  0.52912537275E+02  0.00000000000E+00 0.  1.
         23    2    1    2    0    0  0.10076954864E+02 -0.41234990455E+02  0.17608140793E+03  0.20429259284E+03  0.94493025200E+02 0.  0.
         23    2    1    2    0    0 -0.33654297147E+02  0.42244675901E+02  0.38657953897E+02  0.11309304792E+03  0.91533467818E+02 0.  0.
        -11    1    3    3    0    0  0.28951433190E+02 -0.56937754294E+02  0.16579200431E+03  0.17767127523E+03  0.00000000000E+00 0.  1.
         11    1    3    3    0    0 -0.18874478326E+02  0.15702763838E+02  0.10289403617E+02  0.26621317605E+02  0.00000000000E+00 0. -1.
        -13    1    4    4    0    0 -0.13047308060E+02  0.48997750806E+02 -0.16904488634E+02  0.53448793884E+02  0.00000000000E+00 0.  1.
         13    1    4    4    0    0 -0.20606989088E+02 -0.67530749049E+01  0.55562442532E+02  0.59644254040E+02  0.00000000000E+00 0. -1.
          2    1    1    2  501    0  0.23577342283E+02 -0.10096854456E+01  0.86008328005E+02  0.89187123622E+02  0.00000000000E+00 0. -1.
<scales pt_clust_5="13000.00000" pt_clust_6="13000.00000" pt_clust_7="13000.00000" pt_clust_8="13000.00000" pt_clust_9="23.59896"></scales>
<clustering>
<clus scale="   23.599">  2  9  1 -1</clus>
<clus scale="   91.533">  7  8 -1 -1</clus>
<clus scale="   94.493">  5  6 -1 -1</clus>
<clus scale="  101.862">  2  7  1 -1</clus>
<clus scale="   23.599">  2  5  1 -1</clus>
</clustering>
</event>
<event>
 9    1  0.3288491E-005  0.1647414E+03  0.7546771E-02  0.1183556E+00
         -1   -1    0    0    0  501 -0.00000000000E+00  0.00000000000E+00  0.27651318819E+03  0.27651318819E+03  0.00000000000E+00 0.  1.
         21   -1    0    0  501  502  0.00000000000E+00 -0.00000000000E+00 -0.46160535408E+03  0.46160535408E+03  0.00000000000E+00 0.  1.
         23    2    1    2    0    0 -0.99867961721E+01 -0.13716865408E+03  0.23064991672E+03  0.28338835294E+03  0.90524022999E+02 0.  0.
         23    2    1    2    0    0 -0.11963556794E+02  0.13291969120E+03 -0.35814244822E+03  0.39294354382E+03  0.91257023908E+02 0.  0.
        -13    1    3    3    0    0  0.11340650823E+02 -0.13919136769E+03  0.21677419494E+03  0.25786410916E+03  0.00000000000E+00 0.  1.
         13    1    3    3    0    0 -0.21327446996E+02  0.20227136120E+01  0.13875721781E+02  0.25524243782E+02  0.00000000000E+00 0. -1.
        -13    1    4    4    0    0  0.28451365944E+02  0.36643779944E+02 -0.53026358716E+02  0.70455954690E+02  0.00000000000E+00 0. -1.
         13    1    4    4    0    0 -0.40414922738E+02  0.96275911259E+02 -0.30511608950E+03  0.32248758913E+03  0.00000000000E+00 0.  1.
         -1    1    1    2    0  502  0.21950352966E+02  0.42489628760E+01 -0.57599634388E+02  0.61786645503E+02  0.00000000000E+00 0.  1.
<scales pt_clust_5="13000.00000" pt_clust_6="13000.00000" pt_clust_7="13000.00000" pt_clust_8="13000.00000" pt_clust_9="22.35781"></scales>
<clustering>
<clus scale="   22.358">  2  9  1 -1</clus>
<clus scale="   90.524">  5  6 -1 -1</clus>
<clus scale="   91.257">  7  8 -1 -1</clus>
<clus scale="  164.336">  1  5  2 -1</clus>
<clus scale="   22.358">  2  5  1 -1</clus>
</clustering>
</event>
<event>
 9    1  0.3288491E-005  0.3097509E+03  0.7546771E-02  0.1099304E+00
          1   -1    0    0  502    0 -0.00000000000E+00  0.00000000000E+00  0.12780094291E+04  0.12780094291E+04  0.00000000000E+00 0. -1.
         21   -1    0    0  501  502  0.00000000000E+00 -0.00000000000E+00 -0.13882692193E+03  0.13882692193E+03  0.00000000000E+00 0. -1.
         23    2    1    2    0    0 -0.86325363220E+02 -0.13864868104E+03  0.26124158976E+03  0.32198488232E+03  0.93549832369E+02 0.  0.
         23    2    1    2    0    0  0.28217232522E+02  0.38558257951E+03  0.58715372797E+03  0.70896276116E+03  0.91698193026E+02 0.  0.
        -11    1    3    3    0    0 -0.59214504618E+02 -0.67876948238E+02  0.21524394917E+03  0.23333151376E+03  0.00000000000E+00 0. -1.
         11    1    3    3    0    0 -0.27110858602E+02 -0.70771732802E+02  0.45997640588E+02  0.88653368563E+02  0.00000000000E+00 0.  1.
        -13    1    4    4    0    0  0.45380497743E+02  0.33800052574E+03  0.46417847153E+03  0.57599079715E+03  0.00000000000E+00 0. -1.
         13    1    4    4    0    0 -0.17163265221E+02  0.47582053776E+02  0.12297525644E+03  0.13297196400E+03  0.00000000000E+00 0.  1.
          1    1    1    2  501    0  0.58108130698E+02 -0.24693389847E+03  0.29078718939E+03  0.38588870750E+03  0.00000000000E+00 0. -1.
<scales pt_clust_5="13000.00000" pt_clust_6="13000.00000" pt_clust_7="13000.00000" pt_clust_8="13000.00000" pt_clust_9="295.86665"></scales>
<clustering>
<clus scale="   91.698">  7  8 -1 -1</clus>
<clus scale="   93.550">  5  6 -1 -1</clus>
<clus scale="  188.221">  1  5  2 -1</clus>
<clus scale="  295.867">  2  9  1 -1</clus>
<clus scale="  295.867">  2  5  1 -1</clus>
</clustering>
</event>
<event>
 9    1  0.3288491E-005  0.1582362E+03  0.7546771E-02  0.1190827E+00
          1   -1    0    0  502    0 -0.00000000000E+00  0.00000000000E+00  0.52711738837E+03  0.52711738837E+03  0.00000000000E+00 0. -1.
         21   -1    0    0  501  502  0.00000000000E+00 -0.00000000000E+00 -0.72220607264E+02  0.72220607264E+02  0.00000000000E+00 0. -1.
         23    2    1    2    0    0  0.10227405985E+03  0.11974245598E+03  0.27267181697E+03  0.32777182451E+03  0.91028622361E+02 0.  0.
         23    2    1    2    0    0 -0.43712945568E+02 -0.89464268655E+02  0.12154380179E+03  0.18196496467E+03  0.91780584216E+02 0.  0.
        -11    1    4    4    0    0 -0.33990181987E+02 -0.28345685392E+02  0.11058805283E+03  0.11911560678E+03  0.00000000000E+00 0.  1.
         11    1    4    4    0    0 -0.97227635815E+01 -0.61118583264E+02  0.10955748965E+02  0.62849357890E+02  0.00000000000E+00 0. -1.
        -13    1    3    3    0    0  0.74471227348E+02  0.18699922476E+02  0.12482819040E+03  0.14655281615E+03  0.00000000000E+00 0. -1.
         13    1    3    3    0    0  0.27802832503E+02  0.10104253351E+03  0.14784362657E+03  0.18121900836E+03  0.00000000000E+00 0.  1.
          1    1    1    2  501    0 -0.58561114283E+02 -0.30278187328E+02  0.60681162348E+02  0.89601206453E+02  0.00000000000E+00 0. -1.
<scales pt_clust_5="13000.00000" pt_clust_6="13000.00000" pt_clust_7="13000.00000" pt_clust_8="13000.00000" pt_clust_9="65.92551"></scales>
<clustering>
<clus scale="   65.926">  2  9  1 -1</clus>
<clus scale="   91.029">  7  8 -1 -1</clus>
<clus scale="   91.781">  5  6 -1 -1</clus>
<clus scale="  157.801">  1  7  2 -1</clus>
<clus scale="   65.926">  2  5  1 -1</clus>
</clustering>
</event>
<event>
 9    1  0.3288491E-005  0.1321595E+03  0.7546771E-02  0.1224743E+00
         -1   -1    0    0    0  501 -0.00000000000E+00  0.00000000000E+00  0.17385145370E+03  0.17385145370E+03  0.00000000000E+00 0.  1.
         21   -1    0    0  501  502  0.00000000000E+00 -0.00000000000E+00 -0.22832094899E+03  0.22832094899E+03  0.00000000000E+00 0. -1.
         23    2    1    2    0    0 -0.10365635727E+02 -0.88885908647E+02  0.94775425606E+02  0.15862481692E+03  0.90395243695E+02 0.  0.
         23    2    1    2    0    0 -0.10262023847E+02  0.11780099817E+03 -0.91209122371E+02  0.17550541758E+03  0.92199041709E+02 0.  0.
        -13    1    4    4    0    0  0.37982884983E+02  0.51132630665E+02 -0.59960503032E+02  0.87478611067E+02  0.00000000000E+00 0. -1.
         13    1    4    4    0    0 -0.48244908830E+02  0.66668367504E+02 -0.31248619338E+02  0.88026806509E+02  0.00000000000E+00 0.  1.
        -13    1    3    3    0    0  0.18292703125E+02 -0.88486298459E+02  0.93365438211E+02  0.12992903084E+03  0.00000000000E+00 0.  1.
         13    1    3    3    0    0 -0.28658338852E+02 -0.39961018795E+00  0.14099873955E+01  0.28695786076E+02  0.00000000000E+00 0. -1.
         -1    1    1    2    0  502  0.20627659575E+02 -0.28915089522E+02 -0.58035798534E+02  0.68042168198E+02  0.00000000000E+00 0.  1.
<scales pt_clust_5="13000.00000" pt_clust_6="13000.00000" pt_clust_7="13000.00000" pt_clust_8="13000.00000" pt_clust_9="35.51877"></scales>
<clustering>
<clus scale="   35.519">  2  9  1 -1</clus>
<clus scale="   90.395">  7  8 -1 -1</clus>
<clus scale="   92.199">  5  6 -1 -1</clus>
<clus scale="  130.908">  1  7  2 -1</clus>
<clus scale="   35.519">  2  5  1 -1</clus>
</clustering>
</event>
<event>
 9    1  0.3288491E-005  0.1160550E+03  0.7546771E-02  0.1250481E+00
         21   -1    0    0  501  502  0.00000000000E+00  0.00000000000E+00  0.27316180522E+03  0.27316180522E+03  0.00000000000E+00 0.  1.
         -1   -1    0    0    0  501 -0.00000000000E+00 -0.00000000000E+00 -0.18614349336E+03  0.18614349336E+03  0.00000000000E+00 0.  1.
         23    2    1    2    0    0  0.46232841517E+02 -0.41178189095E+02 -0.10262581812E+03  0.15021122579E+03  0.90544104812E+02 0.  0.
         23    2    1    2    0    0 -0.12741846982E+03  0.33370396220E+02  0.10946583860E+03  0.19472350716E+03  0.92657566467E+02 0.  0.
        -13    1    4    4    0    0 -0.93965686098E+02 -0.15236235383E+02  0.93870909070E+02  0.13369158763E+03  0.00000000000E+00 0.  1.
         13    1    4    4    0    0 -0.33452783727E+02  0.48606631603E+02  0.15594929530E+02  0.61031919533E+02  0.00000000000E+00 0. -1.
        -13    1    3    3    0    0 -0.21305633909E+02  0.16524416995E+01 -0.16953816633E+01  0.21436765586E+02  0.00000000000E+00 0. -1.
         13    1    3    3    0    0  0.67538475425E+02 -0.42830630794E+02 -0.10093043646E+03  0.12877446020E+03  0.00000000000E+00 0.  1.
         -1    1    1    2    0  502  0.81185628308E+02  0.78077928748E+01  0.80178291385E+02  0.11437056563E+03  0.00000000000E+00 0.  1.
<scales pt_clust_5="13000.00000" pt_clust_6="13000.00000" pt_clust_7="13000.00000" pt_clust_8="13000.00000" pt_clust_9="81.56021"></scales>
<clustering>
<clus scale="   81.560">  1  9  2 -1</clus>
<clus scale="   90.544">  7  8 -1 -1</clus>
<clus scale="   92.658">  5  6 -1 -1</clus>
<clus scale="  114.375">  2  7  1 -1</clus>
<clus scale="   81.560">  1  5  2 -1</clus>
</clustering>
</event>
<event>
 9    1  0.3288491E-005  0.1945668E+03  0.7546771E-02  0.1182935E+00
          2   -1    0    0  502    0 -0.00000000000E+00  0.00000000000E+00  0.30522134550E+03  0.30522134550E+03  0.00000000000E+00 0. -1.
         21   -1    0    0  501  502  0.00000000000E+00 -0.00000000000E+00 -0.36341093094E+03  0.36341093094E+03  0.00000000000E+00 0. -1.
         23    2    1    2    0    0  0.41962461408E+02 -0.24010504184E+01  0.16808535740E+03  0.19617229551E+03  0.92001461629E+02 0.  0.
         23    2    1    2    0    0  0.58814507294E+02  0.14642907409E+03  0.31664244275E+01  0.18342121184E+03  0.93448888179E+02 0.  0.
        -11    1    3    3    0    0  0.29782608722E+02  0.42750730437E+02  0.10905646747E+03  0.12086331880E+03  0.00000000000E+00 0.  1.
         11    1    3    3    0    0  0.12179852687E+02 -0.45151780855E+02  0.59028889932E+02  0.75308976706E+02  0.00000000000E+00 0. -1.
        -13    1    4    4    0    0 -0.24365820057E+02  0.34536401657E+02 -0.98258387965E+01  0.43393586329E+02  0.00000000000E+00 0.  1.
         13    1    4    4    0    0  0.83180327351E+02  0.11189267243E+03  0.12992263224E+02  0.14002762551E+03  0.00000000000E+00 0. -1.
          2    1    1    2  501    0 -0.10077696870E+03 -0.14402802367E+03 -0.22944136727E+03  0.28903876909E+03  0.00000000000E+00 0. -1.
<scales pt_clust_5="13000.00000" pt_clust_6="13000.00000" pt_clust_7="13000.00000" pt_clust_8="13000.00000" pt_clust_9="170.65627"></scales>
<clustering>
<clus scale="   92.001">  5  6 -1 -1</clus>
<clus scale="   93.449">  7  8 -1 -1</clus>
<clus scale="  101.148">  1  5  2 -1</clus>
<clus scale="  170.656">  2  9  1 -1</clus>
<clus scale="  170.656">  2  5  1 -1</clus>
</clustering>
</event>
<event>
 9    1  0.3288491E-005  0.9534766E+02  0.7546771E-02  0.1290524E+00
         21   -1    0    0  501  502  0.00000000000E+00  0.00000000000E+00  0.54382544079E+03  0.54382544079E+03  0.00000000000E+00 0.  1.
         -1   -1    0    0    0  501 -0.00000000000E+00 -0.00000000000E+00 -0.98995590473E+02  0.98995590473E+02  0.00000000000E+00 0.  1.
         23    2    1    2    0    0  0.95926559990E+01  0.29940809118E+02 -0.46737366222E+02  0.10732736431E+03  0.91358144838E+02 0.  0.
         23    2    1    2    0    0 -0.38416392118E+02  0.12251150131E+02  0.10312230157E+03  0.14370236900E+03  0.91598318281E+02 0.  0.
        -11    1    4    4    0    0 -0.41609714996E+02 -0.25219986021E+02  0.92674966096E+02  0.10467122536E+03  0.00000000000E+00 0. -1.
         11    1    4    4    0    0  0.31933228780E+01  0.37471136152E+02  0.10447335478E+02  0.39031143644E+02  0.00000000000E+00 0.  1.
        -11    1    3    3    0    0 -0.20535685123E+02  0.66051154710E+01  0.20680947110E+02  0.29883833208E+02  0.00000000000E+00 0. -1.
         11    1    3    3    0    0  0.30128341122E+02  0.23335693647E+02 -0.67418313332E+02  0.77443531100E+02  0.00000000000E+00 0.  1.
         -1    1    1    2    0  502  0.28823736119E+02 -0.42191959249E+02  0.38844491497E+03  0.39179129796E+03  0.00000000000E+00 0.  1.
<scales pt_clust_5="13000.00000" pt_clust_6="13000.00000" pt_clust_7="13000.00000" pt_clust_8="13000.00000" pt_clust_9="51.09764"></scales>
<clustering>
<clus scale="   51.098">  1  9  2 -1</clus>
<clus scale="   91.358">  7  8 -1 -1</clus>
<clus scale="   91.598">  5  6 -1 -1</clus>
<clus scale="   95.117">  2  7  1 -1</clus>
<clus scale="   51.098">  1  5  2 -1</clus>
</clustering>
</event>
<event>
 9    1  0.3288491E-005  0.1005481E+03  0.7546771E-02  0.1279294E+00
         21   -1    0    0  501  502  0.00000000000E+00  0.00000000000E+00  0.13503502642E+03  0.13503502642E+03  0.00000000000E+00 0. -1.
         -2   -1    0    0    0  501 -0.00000000000E+00 -0.00000000000E+00 -0.16607083168E+03  0.16607083168E+03  0.00000000000E+00 0.  1.
         23    2    1    2    0    0  0.17174673625E+02  0.35765002429E+02 -0.10445833807E+03  0.14454766515E+03  0.91697209852E+02 0.  0.
         23    2    1    2    0    0 -0.23301594051E+01 -0.49483719076E+02  0.29264520717E+02  0.10799387663E+03  0.91390355724E+02 0.  0.
        -11    1    3    3    0    0  0.23136769950E+02  0.64687951800E+02 -0.84503165137E+02  0.10890650187E+03  0.00000000000E+00 0.  1.
         11    1    3    3    0    0 -0.59620963247E+01 -0.28922949371E+02 -0.19955172933E+02  0.35641163277E+02  0.00000000000E+00 0. -1.
        -13    1    4    4    0    0  0.42980678248E+02 -0.37566390491E+02  0.17056600068E+02  0.59577680410E+02  0.00000000000E+00 0. -1.
         13    1    4    4    0    0 -0.45310837653E+02 -0.11917328585E+02  0.12207920648E+02  0.48416196215E+02  0.00000000000E+00 0.  1.
         -2    1    1    2    0  502 -0.14844514220E+02  0.13718716646E+02  0.44158012088E+02  0.48564316328E+02  0.00000000000E+00 0.  1.
<scales pt_clust_5="13000.00000" pt_clust_6="13000.00000" pt_clust_7="13000.00000" pt_clust_8="13000.00000" pt_clust_9="20.21294"></scales>
<clustering>
<clus scale="   20.213">  1  9  2 -1</clus>
<clus scale="   91.390">  7  8 -1 -1</clus>
<clus scale="   91.697">  5  6 -1 -1</clus>
<clus scale="  100.268">  1  7  2 -1</clus>
<clus scale="   20.213">  1  5  2 -1</clus>
</clustering>
</event>
<event>
 9    1  0.3288491E-005  0.9699026E+02  0.7546771E-02  0.1288026E+00
         21   -1    0    0  501  502  0.00000000000E+00  0.00000000000E+00  0.59891689047E+03  0.59891689047E+03  0.00000000000E+00 0.  1.
         -3   -1    0    0    0  501 -0.00000000000E+00 -0.00000000000E+00 -0.25648553025E+02  0.25648553025E+02  0.00000000000E+00 0.  1.
         23    2    1    2    0    0  0.69082738515E+01 -0.28398357282E+02  0.11586056564E+03  0.15023120468E+03  0.91057966397E+02 0.  0.
         23    2    1    2    0    0 -0.28930371460E+02  0.36715175517E+02  0.33404621407E+03  0.34874675467E+03  0.88614080430E+02 0.  0.
        -11    1    3    3    0    0  0.15178769550E+02  0.21139353293E+02  0.90106874057E+02  0.93789743869E+02  0.00000000000E+00 0. -1.
         11    1    3    3    0    0 -0.82704956990E+01 -0.49537710574E+02  0.25753691585E+02  0.56441460809E+02  0.00000000000E+00 0.  1.
        -13    1    4    4    0    0  0.77292548846E+01 -0.25570569254E+02  0.68011054419E+02  0.73069137919E+02  0.00000000000E+00 0. -1.
         13    1    4    4    0    0 -0.36659626345E+02  0.62285744771E+02  0.26603515965E+03  0.27567761675E+03  0.00000000000E+00 0.  1.
         -3    1    1    2    0  502  0.22022097609E+02 -0.83168182355E+01  0.12336155774E+03  0.12558748415E+03  0.00000000000E+00 0.  1.
<scales pt_clust_5="13000.00000" pt_clust_6="13000.00000" pt_clust_7="13000.00000" pt_clust_8="13000.00000" pt_clust_9="23.54023"></scales>
<clustering>
<clus scale="   23.540">  1  9  2 -1</clus>
<clus scale="   88.614">  7  8 -1 -1</clus>
<clus scale="   91.058">  5  6 -1 -1</clus>
<clus scale="   94.700">  1  7  2 -1</clus>
<clus scale="   23.540">  1  5  2 -1</clus>
</clustering>
</event>
<event>
 9    1  0.3288491E-005  0.1007400E+03  0.7546771E-02  0.1280374E+00
         21   -1    0    0  501  502  0.00000000000E+00  0.00000000000E+00  0.13153084366E+03  0.13153084366E+03  0.00000000000E+00 0. -1.
          3   -1    0    0  502    0 -0.00000000000E+00 -0.00000000000E+00 -0.25816612401E+03  0.25816612401E+03  0.00000000000E+00 0. -1.
         23    2    1    2    0    0  0.46375874974E+00  0.35048460266E+02 -0.14848256270E+03  0.17568897048E+03  0.87125962152E+02 0.  0.
         23    2    1    2    0    0 -0.10315999231E+02 -0.66664031356E+02 -0.58449558953E+02  0.12715067914E+03  0.90556233065E+02 0.  0.
        -11    1    3    3    0    0 -0.31522867447E+02 -0.14392529963E+02 -0.62720971843E+02  0.71657214569E+02  0.00000000000E+00 0.  1.
         11    1    3    3    0    0  0.31986626197E+02  0.49440990229E+02 -0.85761590859E+02  0.10403175591E+03  0.00000000000E+00 0. -1.
        -13    1    4    4    0    0  0.20024231340E+02  0.15234392740E+02 -0.86105814885E+01  0.26593207337E+02  0.00000000000E+00 0. -1.
         13    1    4    4    0    0 -0.30340230571E+02 -0.81898424096E+02 -0.49838977464E+02  0.10055747180E+03  0.00000000000E+00 0.  1.
          3    1    1    2  501    0  0.98522404815E+01  0.31615571090E+02  0.80296841304E+02  0.86857318064E+02  0.00000000000E+00 0. -1.
<scales pt_clust_5="13000.00000" pt_clust_6="13000.00000" pt_clust_7="13000.00000" pt_clust_8="13000.00000" pt_clust_9="33.11512"></scales>
<clustering>
<clus scale="   33.115">  1  9  2 -1</clus>
<clus scale="   87.126">  5  6 -1 -1</clus>
<clus scale="   90.556">  7  8 -1 -1</clus>
<clus scale="   97.668">  2  5  1 -1</clus>
<clus scale="   33.115">  1  5  2 -1</clus>
</clustering>
</event>
<event>
 9    1  0.3288491E-005  0.1146465E+03  0.7546771E-02  0.1252594E+00
          1   -1    0    0  502    0 -0.00000000000E+00  0.00000000000E+00  0.72752235395E+03  0.72752235395E+03  0.00000000000E+00 0. -1.
         21   -1    0    0  501  502  0.00000000000E+00 -0.00000000000E+00 -0.24312588837E+03  0.24312588837E+03  0.00000000000E+00 0. -1.
         23    2    1    2    0    0 -0.10764882661E+02  0.63740737006E+02  0.50870228004E+03  0.52069804125E+03  0.90386261058E+02 0.  0.
         23    2    1    2    0    0 -0.28722803314E+02 -0.86574565718E+02  0.19059433579E+03  0.23026238700E+03  0.91511808931E+02 0.  0.
        -11    1    4    4    0    0 -0.49623440545E+02 -0.39013272963E+02  0.15479646959E+03  0.16717197229E+03  0.00000000000E+00 0.  1.
         11    1    4    4    0    0  0.20900637230E+02 -0.47561292755E+02  0.35797866194E+02  0.63090414717E+02  0.00000000000E+00 0. -1.
        -13    1    3    3    0    0  0.38437539520E+02  0.20223758484E+02  0.15610450737E+03  0.16203413860E+03  0.00000000000E+00 0.  1.
         13    1    3    3    0    0 -0.49202422181E+02  0.43516978523E+02  0.35259777267E+03  0.35866390264E+03  0.00000000000E+00 0. -1.
          1    1    1    2  501    0  0.39487685975E+02  0.22833828711E+02 -0.21490015024E+03  0.21968781407E+03  0.00000000000E+00 0. -1.
<scales pt_clust_5="13000.00000" pt_clust_6="13000.00000" pt_clust_7="13000.00000" pt_clust_8="13000.00000" pt_clust_9="45.61426"></scales>
<clustering>
<clus scale="   45.614">  2  9  1 -1</clus>
<clus scale="   90.386">  7  8 -1 -1</clus>
<clus scale="   91.512">  5  6 -1 -1</clus>
<clus scale="  113.750">  1  7  2 -1</clus>
<clus scale="   45.614">  2  5  1 -1</clus>
</clustering>
</event>
<event>
 9    1  0.3288491E-005  0.9510839E+02  0.7546771E-02  0.1292195E+00
         -3   -1    0    0    0  501 -0.00000000000E+00  0.00000000000E+00  0.20284075937E+03  0.20284075937E+03  0.00000000000E+00 0.  1.
         21   -1    0    0  501  502  0.00000000000E+00 -0.00000000000E+00 -0.11471610538E+03  0.11471610538E+03  0.00000000000E+00 0. -1.
         23    2    1    2    0    0 -0.22285209095E+02 -0.16860834721E+01  0.14895128354E+03  0.17631153815E+03  0.91650423869E+02 0.  0.
         23    2    1    2    0    0  0.40810590252E+02 -0.12024948649E+02 -0.31306945376E+02  0.10379410630E+03  0.89347568557E+02 0.  0.
        -11    1    3    3    0    0 -0.41467509895E+02  0.28843233137E+02  0.11956661830E+03  0.12979854655E+03  0.00000000000E+00 0.  1.
         11    1    3    3    0    0  0.19182300800E+02 -0.30529316609E+02  0.29384665241E+02  0.46512991604E+02  0.00000000000E+00 0. -1.
        -13    1    4    4    0    0  0.89584059577E+01 -0.46136039858E+02  0.10410084652E+01  0.47009264083E+02  0.00000000000E+00 0.  1.
         13    1    4    4    0    0  0.31852184294E+02  0.34111091209E+02 -0.32347953842E+02  0.56784842216E+02  0.00000000000E+00 0. -1.
         -3    1    1    2    0  502 -0.18525381157E+02  0.13711032121E+02 -0.29519684169E+02  0.37451220304E+02  0.00000000000E+00 0.  1.
<scales pt_clust_5="13000.00000" pt_clust_6="13000.00000" pt_clust_7="13000.00000" pt_clust_8="13000.00000" pt_clust_9="23.04739"></scales>
<clustering>
<clus scale="   23.047">  2  9  1 -1</clus>
<clus scale="   89.348">  7  8 -1 -1</clus>
<clus scale="   91.650">  5  6 -1 -1</clus>
<clus scale="   92.891">  2  7  1 -1</clus>
<clus scale="   23.047">  2  5  1 -1</clus>
</clustering>
</event>
<event>
 9    1  0.3288491E-005  0.2760226E+03  0.7546771E-02  0.1098015E+00
         21   -1    0    0  501  502  0.00000000000E+00  0.00000000000E+00  0.29520114931E+03  0.29520114931E+03  0.00000000000E+00 0. -1.
          4   -1    0    0  502    0 -0.00000000000E+00 -0.00000000000E+00 -0.91099013150E+03  0.91099013150E+03  0.00000000000E+00 0. -1.
         23    2    1    2    0    0  0.16073780565E+02 -0.26017343178E+03 -0.79651106695E+03  0.84337568115E+03  0.94361426246E+02 0.  0.
         23    2    1    2    0    0 -0.51280850791E+02  0.24260679895E+03  0.18588078779E+03  0.32313264867E+03  0.91516429185E+02 0.  0.
        -11    1    4    4    0    0 -0.21904340287E+02  0.12478161200E+03  0.15034890673E+03  0.19660886188E+03  0.00000000000E+00 0.  1.
         11    1    4    4    0    0 -0.29376510504E+02  0.11782518695E+03  0.35531881054E+02  0.12652378678E+03  0.00000000000E+00 0. -1.
        -13    1    3    3    0    0  0.36510821333E+02 -0.18717237887E+03 -0.66259390844E+03  0.68949055612E+03  0.00000000000E+00 0. -1.
         13    1    3    3    0    0 -0.20437040768E+02 -0.73001052910E+02 -0.13391715851E+03  0.15388512503E+03  0.00000000000E+00 0.  1.
          4    1    1    2  501    0  0.35207070225E+02  0.17566632828E+02 -0.51587030332E+01  0.39682950996E+02  0.00000000000E+00 0. -1.
<scales pt_clust_5="13000.00000" pt_clust_6="13000.00000" pt_clust_7="13000.00000" pt_clust_8="13000.00000" pt_clust_9="39.34621"></scales>
<clustering>
<clus scale="   39.346">  1  9  2 -1</clus>
<clus scale="   91.516">  5  6 -1 -1</clus>
<clus scale="   94.361">  7  8 -1 -1</clus>
<clus scale="  275.063">  1  5  2 -1</clus>
<clus scale="   39.346">  1  5  2 -1</clus>
</clustering>
</event>
<event>
 9    1  0.3288491E-005  0.9952049E+02  0.7546771E-02  0.1283919E+00
          2   -1    0    0  502    0 -0.00000000000E+00  0.00000000000E+00  0.29698365525E+03  0.29698365525E+03  0.00000000000E+00 0. -1.
         21   -1    0    0  501  502  0.00000000000E+00 -0.00000000000E+00 -0.66360916450E+02  0.66360916450E+02  0.00000000000E+00 0.  1.
         23    2    1    2    0    0  0.26236762485E+02  0.18679748676E+01  0.20341472494E+03  0.22380135948E+03  0.89541281802E+02 0.  0.
         23    2    1    2    0    0 -0.52329934027E+02  0.71626064208E+01  0.15130201405E+02  0.10940555217E+03  0.94609338466E+02 0.  0.
        -11    1    3    3    0    0 -0.22470744008E+02  0.29602699696E+02  0.86448927713E+02  0.94099262847E+02  0.00000000000E+00 0.  1.
         11    1    3    3    0    0  0.48707506493E+02 -0.27734724828E+02  0.11696579723E+03  0.12970209663E+03  0.00000000000E+00 0. -1.
        -13    1    4    4    0    0 -0.49708101179E+02 -0.34820758246E+02  0.25895807320E+02  0.65984644914E+02  0.00000000000E+00 0. -1.
         13    1    4    4    0    0 -0.26218328482E+01  0.41983364667E+02 -0.10765605915E+02  0.43420907256E+02  0.00000000000E+00 0.  1.
          2    1    1    2  501    0  0.26093171542E+02 -0.90305812885E+01  0.12077812451E+02  0.30137660048E+02  0.00000000000E+00 0. -1.
<scales pt_clust_5="13000.00000" pt_clust_6="13000.00000" pt_clust_7="13000.00000" pt_clust_8="13000.00000" pt_clust_9="27.61168"></scales>
<clustering>
<clus scale="   27.612">  2  9  1 -1</clus>
<clus scale="   89.541">  5  6 -1 -1</clus>
<clus scale="   94.609">  7  8 -1 -1</clus>
<clus scale="   94.716">  1  5  2 -1</clus>
<clus scale="   27.612">  2  5  1 -1</clus>
</clustering>
</event>
<event>
 9    1  0.3288491E-005  0.9840599E+02  0.7546771E-02  0.1284229E+00
         21   -1    0    0  501  502  0.00000000000E+00  0.00000000000E+00  0.97352812746E+02  0.97352812746E+02  0.00000000000E+00 0.  1.
          4   -1    0    0  502    0 -0.00000000000E+00 -0.00000000000E+00 -0.12816435048E+03  0.12816435048E+03  0.00000000000E+00 0. -1.
         23    2    1    2    0    0  0.19670413337E+02 -0.26771510740E+02 -0.18198159533E+02  0.97584573227E+02  0.89932958215E+02 0.  0.
         23    2    1    2    0    0 -0.42929774734E+02  0.26084002651E+02 -0.12943962868E+01  0.10205615455E+03  0.88828162574E+02 0.  0.
        -13    1    3    3    0    0 -0.50061477723E+00 -0.55726617641E+02  0.40375216549E+01  0.55874932751E+02  0.00000000000E+00 0.  1.
         13    1    3    3    0    0  0.20171028114E+02  0.28955106900E+02 -0.22235681188E+02  0.41709640476E+02  0.00000000000E+00 0. -1.
        -13    1    4    4    0    0 -0.32589906235E+02  0.19923071819E+01  0.40928193160E+02  0.52356358465E+02  0.00000000000E+00 0.  1.
         13    1    4    4    0    0 -0.10339868499E+02  0.24091695469E+02 -0.42222589447E+02  0.49699796083E+02  0.00000000000E+00 0. -1.
          4    1    1    2  501    0  0.23259361398E+02  0.68750808975E+00 -0.11318981912E+02  0.25876435449E+02  0.00000000000E+00 0. -1.
<scales pt_clust_5="13000.00000" pt_clust_6="13000.00000" pt_clust_7="13000.00000" pt_clust_8="13000.00000" pt_clust_9="23.26953"></scales>
<clustering>
<clus scale="   23.270">  1  9  2 -1</clus>
<clus scale="   88.828">  7  8 -1 -1</clus>
<clus scale="   89.933">  5  6 -1 -1</clus>
<clus scale="   97.397">  1  7  2 -1</clus>
<clus scale="   23.270">  1  5  2 -1</clus>
</clustering>
</event>
<event>
 9    1  0.3288491E-005  0.3266689E+03  0.7546771E-02  0.1072726E+00
         -3   -1    0    0    0  501 -0.00000000000E+00  0.00000000000E+00  0.63706858271E+03  0.63706858271E+03  0.00000000000E+00 0.  1.
         21   -1    0    0  501  502  0.00000000000E+00 -0.00000000000E+00 -0.19890258503E+03  0.19890258503E+03  0.00000000000E+00 0.  1.
         23    2    1    2    0    0  0.17726051642E+03 -0.23911328087E+03  0.25949462000E+03  0.40449830794E+03  0.87663969490E+02 0.  0.
         23    2    1    2    0    0 -0.20984954592E+03  0.26550438035E+03  0.16496449335E+03  0.38735468152E+03  0.91109589619E+02 0.  0.
        -11    1    3    3    0    0  0.70517056735E+02 -0.16743380748E+03  0.14884389393E+03  0.23486430112E+03  0.00000000000E+00 0.  1.
         11    1    3    3    0    0  0.10674345969E+03 -0.71679473383E+02  0.11065072607E+03  0.16963400682E+03  0.00000000000E+00 0. -1.
        -11    1    4    4    0    0 -0.96950027321E+02  0.12170403846E+03  0.12648761310E+03  0.20052505340E+03  0.00000000000E+00 0.  1.
         11    1    4    4    0    0 -0.11289951860E+03  0.14380034189E+03  0.38476880250E+02  0.18682962812E+03  0.00000000000E+00 0. -1.
         -3    1    1    2    0  502  0.32589029503E+02 -0.26391099489E+02  0.13706884328E+02  0.44118178274E+02  0.00000000000E+00 0.  1.
<scales pt_clust_5="13000.00000" pt_clust_6="13000.00000" pt_clust_7="13000.00000" pt_clust_8="13000.00000" pt_clust_9="41.93489"></scales>
<clustering>
<clus scale="   41.935">  2  9  1 -1</clus>
<clus scale="   87.664">  5  6 -1 -1</clus>
<clus scale="   91.110">  7  8 -1 -1</clus>
<clus scale="  325.725">  1  5  2 -1</clus>
<clus scale="   41.935">  2  5  1 -1</clus>
</clustering>
</event>
<event>
 9    1  0.3288491E-005  0.9798279E+02  0.7546771E-02  0.1285027E+00
         21   -1    0    0  501  502  0.00000000000E+00  0.00000000000E+00  0.30901025876E+02  0.30901025876E+02  0.00000000000E+00 0. -1.
          1   -1    0    0  502    0 -0.00000000000E+00 -0.00000000000E+00 -0.61956485737E+03  0.61956485737E+03  0.00000000000E+00 0. -1.
         23    2    1    2    0    0 -0.41638298149E+02 -0.12450869113E+02 -0.38023501707E+03  0.39318753547E+03  0.90160955147E+02 0.  0.
         23    2    1    2    0    0  0.26466127832E+02 -0.22887479718E+01 -0.21512338423E+03  0.23509122699E+03  0.91017142755E+02 0.  0.
        -13    1    4    4    0    0  0.50126350286E+02 -0.25895525073E+02 -0.95840929447E+02  0.11121471561E+03  0.00000000000E+00 0.  1.
         13    1    4    4    0    0 -0.23660222454E+02  0.23606777101E+02 -0.11928245478E+03  0.12387651137E+03  0.00000000000E+00 0. -1.
        -13    1    3    3    0    0  0.21811629697E+02  0.13166629591E+02 -0.52123432709E+02  0.58016890318E+02  0.00000000000E+00 0.  1.
         13    1    3    3    0    0 -0.63449927846E+02 -0.25617498704E+02 -0.32811158436E+03  0.33517064516E+03  0.00000000000E+00 0. -1.
          1    1    1    2  501    0  0.15172170317E+02  0.14739617085E+02  0.66945698015E+01  0.22187120786E+02  0.00000000000E+00 0. -1.
<scales pt_clust_5="13000.00000" pt_clust_6="13000.00000" pt_clust_7="13000.00000" pt_clust_8="13000.00000" pt_clust_9="21.15304"></scales>
<clustering>
<clus scale="   21.153">  1  9  2 -1</clus>
<clus scale="   90.161">  7  8 -1 -1</clus>
<clus scale="   91.017">  5  6 -1 -1</clus>
<clus scale="   97.188">  2  7  1 -1</clus>
<clus scale="   21.153">  1  5  2 -1</clus>
</clustering>
</event>
<event>
 9    1  0.3288491E-005  0.1064114E+03  0.7546771E-02  0.1267825E+00
         21   -1    0    0  501  502  0.00000000000E+00  0.00000000000E+00  0.83272348117E+02  0.83272348117E+02  0.00000000000E+00 0.  1.
          1   -1    0    0  502    0 -0.00000000000E+00 -0.00000000000E+00 -0.55158477976E+03  0.55158477976E+03  0.00000000000E+00 0. -1.
         23    2    1    2    0    0  0.46005981958E+02  0.18723985423E+02 -0.46686810015E+03  0.47832605056E+03  0.91448617808E+02 0.  0.
         23    2    1    2    0    0 -0.71649732423E+02 -0.37206206518E+02 -0.11535930964E+02  0.12334923267E+03  0.92541717827E+02 0.  0.
        -13    1    4    4    0    0 -0.83639945565E+02 -0.23357668814E+01  0.29676534522E+01  0.83725165082E+02  0.00000000000E+00 0.  1.
         13    1    4    4    0    0  0.11990213142E+02 -0.34870439637E+02 -0.14503584416E+02  0.39624067592E+02  0.00000000000E+00 0. -1.
        -13    1    3    3    0    0  0.87906350767E+01  0.50701580542E+02 -0.17676210388E+03  0.18409988295E+03  0.00000000000E+00 0. -1.
         13    1    3    3    0    0  0.37215346882E+02 -0.31977595119E+02 -0.29010599627E+03  0.29422616761E+03  0.00000000000E+00 0.  1.
          1    1    1    2  501    0  0.25643750465E+02  0.18482221095E+02  0.10091599467E+02  0.33181844649E+02  0.00000000000E+00 0. -1.
<scales pt_clust_5="13000.00000" pt_clust_6="13000.00000" pt_clust_7="13000.00000" pt_clust_8="13000.00000" pt_clust_9="31.61004"></scales>
<clustering>
<clus scale="   31.610">  1  9  2 -1</clus>
<clus scale="   91.449">  7  8 -1 -1</clus>
<clus scale="   92.542">  5  6 -1 -1</clus>
<clus scale="  105.462">  2  7  1 -1</clus>
<clus scale="   31.610">  1  5  2 -1</clus>
</clustering>
</event>
<event>
 9    1  0.3288491E-005  0.9462597E+02  0.7546771E-02  0.1292555E+00
         21   -1    0    0  501  502  0.00000000000E+00  0.00000000000E+00  0.58785035150E+03  0.58785035150E+03  0.00000000000E+00 0.  1.
          3   -1    0    0  502    0 -0.00000000000E+00 -0.00000000000E+00 -0.26663717900E+02  0.26663717900E+02  0.00000000000E+00 0. -1.
         23    2    1    2    0    0  0.18124272527E+02 -0.32135705769E+01  0.14740484235E+03  0.17457381196E+03  0.91700665120E+02 0.  0.
         23    2    1    2    0    0 -0.19318781558E+02 -0.40490264250E+02  0.23462891975E+03  0.25552983638E+03  0.90730868372E+02 0.  0.
        -11    1    4    4    0    0 -0.52202543044E+02 -0.38136156770E+02  0.12065458087E+03  0.13688316127E+03  0.00000000000E+00 0.  1.
         11    1    4    4    0    0  0.32883761486E+02 -0.23541074802E+01  0.11397433888E+03  0.11864667511E+03  0.00000000000E+00 0. -1.
        -13    1    3    3    0    0 -0.17108076031E+02  0.19798024318E+02  0.12336579113E+03  0.12611013620E+03  0.00000000000E+00 0.  1.
         13    1    3    3    0    0  0.35232348557E+02 -0.23011594894E+02  0.24039051227E+02  0.48463675762E+02  0.00000000000E+00 0. -1.
          3    1    1    2  501    0  0.11945090310E+01  0.43703834827E+02  0.17915287150E+03  0.18441042107E+03  0.00000000000E+00 0. -1.
<scales pt_clust_5="13000.00000" pt_clust_6="13000.00000" pt_clust_7="13000.00000" pt_clust_8="13000.00000" pt_clust_9="43.72016"></scales>
<clustering>
<clus scale="   43.720">  1  9  2 -1</clus>
<clus scale="   90.731">  5  6 -1 -1</clus>
<clus scale="   91.701">  7  8 -1 -1</clus>
<clus scale="   93.686">  1  5  2 -1</clus>
<clus scale="   43.720">  1  5  2 -1</clus>
</clustering>
</event>
<event>
 9    1  0.3288491E-005  0.1051274E+03  0.7546771E-02  0.1271907E+00
         21   -1    0    0  501  502  0.00000000000E+00  0.00000000000E+00  0.20579284590E+03  0.20579284590E+03  0.00000000000E+00 0. -1.
         -2   -1    0    0    0  501 -0.00000000000E+00 -0.00000000000E+00 -0.92624523071E+02  0.92624523071E+02  0.00000000000E+00 0.  1.
         23    2    1    2    0    0 -0.57886736689E+02 -0.99995418469E+01 -0.11315064787E+02  0.10510804190E+03  0.86422246316E+02 0.  0.
         23    2    1    2    0    0  0.37561521005E+02  0.22747637754E+02  0.45795643223E+02  0.11104518264E+03  0.91134344603E+02 0.  0.
        -11    1    4    4    0    0  0.27839022587E+02 -0.11532255548E+02 -0.20037934293E+02  0.36187330757E+02  0.00000000000E+00 0.  1.
         11    1    4    4    0    0  0.97224984185E+01  0.34279893302E+02  0.65833577516E+02  0.74857851885E+02  0.00000000000E+00 0. -1.
        -13    1    3    3    0    0 -0.64818377360E+02 -0.37443770342E+02 -0.64887893374E+00  0.74859061074E+02  0.00000000000E+00 0.  1.
         13    1    3    3    0    0  0.69316406712E+01  0.27444228495E+02 -0.10666185853E+02  0.30248980821E+02  0.00000000000E+00 0. -1.
         -2    1    1    2    0  502  0.20325215684E+02 -0.12748095907E+02  0.78687744395E+02  0.82264144436E+02  0.00000000000E+00 0.  1.
<scales pt_clust_5="13000.00000" pt_clust_6="13000.00000" pt_clust_7="13000.00000" pt_clust_8="13000.00000" pt_clust_9="23.99226"></scales>
<clustering>
<clus scale="   23.992">  1  9  2 -1</clus>
<clus scale="   86.422">  7  8 -1 -1</clus>
<clus scale="   91.134">  5  6 -1 -1</clus>
<clus scale="  101.070">  2  7  1 -1</clus>
<clus scale="   23.992">  1  5  2 -1</clus>
</clustering>
</event>
<event>
 9    1  0.3288491E-005  0.1465503E+03  0.7546771E-02  0.1204913E+00
          2   -1    0    0  502    0 -0.00000000000E+00  0.00000000000E+00  0.65590322549E+02  0.65590322549E+02  0.00000000000E+00 0. -1.
         21   -1    0    0  501  502  0.00000000000E+00 -0.00000000000E+00 -0.41228981848E+03  0.41228981848E+03  0.00000000000E+00 0.  1.
         23    2    1    2    0    0 -0.61924942927E+02 -0.96046866794E+02 -0.12808596722E+03  0.19474637969E+03  0.91980640502E+02 0.  0.
         23    2    1    2    0    0  0.85813524376E+02  0.76459686739E+02 -0.16627031671E+03  0.22235437512E+03  0.92658541180E+02 0.  0.
        -11    1    4    4    0    0  0.17325118665E+02  0.33644991558E+02 -0.37960276077E+00  0.37845598052E+02  0.00000000000E+00 0. -1.
         11    1    4    4    0    0  0.68488405712E+02  0.42814695181E+02 -0.16589071394E+03  0.18450877706E+03  0.00000000000E+00 0.  1.
        -13    1    3    3    0    0  0.51495131941E+00 -0.68284649098E+02 -0.28556865923E+02  0.74017248453E+02  0.00000000000E+00 0. -1.
         13    1    3    3    0    0 -0.62439894246E+02 -0.27762217696E+02 -0.99529101295E+02  0.12072913124E+03  0.00000000000E+00 0.  1.
          2    1    1    2  501    0 -0.23888581450E+02  0.19587180055E+02 -0.52343212003E+02  0.60779386218E+02  0.00000000000E+00 0. -1.
<scales pt_clust_5="13000.00000" pt_clust_6="13000.00000" pt_clust_7="13000.00000" pt_clust_8="13000.00000" pt_clust_9="30.89210"></scales>
<clustering>
<clus scale="   30.892">  2  9  1 -1</clus>
<clus scale="   91.981">  7  8 -1 -1</clus>
<clus scale="   92.659">  5  6 -1 -1</clus>
<clus scale="  146.123">  1  7  2 -1</clus>
<clus scale="   30.892">  2  5  1 -1</clus>
</clustering>
</event>
<event>
 9    1  0.3288491E-005  0.1595986E+03  0.7546771E-02  0.1190286E+00
         21   -1    0    0  501  502  0.00000000000E+00  0.00000000000E+00  0.23030619477E+03  0.23030619477E+03  0.00000000000E+00 0. -1.
          2   -1    0    0  502    0 -0.00000000000E+00 -0.00000000000E+00 -0.23810758731E+03  0.23810758731E+03  0.00000000000E+00 0. -1.
         23    2    1    2    0    0  0.10216909620E+03  0.32785217871E+02 -0.68565360819E+02  0.16031793247E+03  0.97402443705E+02 0.  0.
         23    2    1    2    0    0 -0.15114075964E+03 -0.11164405060E+03  0.50470574832E+02  0.21469941889E+03  0.90777961466E+02 0.  0.
        -11    1    4    4    0    0 -0.46801290048E+01 -0.48141024857E+02  0.44990465342E+01  0.48576777389E+02  0.00000000000E+00 0. -1.
         11    1    4    4    0    0 -0.14646063064E+03 -0.63503025748E+02  0.45971528298E+02  0.16612264150E+03  0.00000000000E+00 0.  1.
        -11    1    3    3    0    0  0.53498862595E+02 -0.27552764078E+02 -0.55187500476E+02  0.81651352200E+02  0.00000000000E+00 0. -1.
         11    1    3    3    0    0  0.48670233601E+02  0.60337981949E+02 -0.13377860343E+02  0.78666580272E+02  0.00000000000E+00 0.  1.
          2    1    1    2  501    0  0.48971663447E+02  0.78858832734E+02  0.10293393449E+02  0.93396430711E+02  0.00000000000E+00 0. -1.
<scales pt_clust_5="13000.00000" pt_clust_6="13000.00000" pt_clust_7="13000.00000" pt_clust_8="13000.00000" pt_clust_9="92.82747"></scales>
<clustering>
<clus scale="   90.778">  5  6 -1 -1</clus>
<clus scale="   92.827">  1  9  2 -1</clus>
<clus scale="   97.402">  7  8 -1 -1</clus>
<clus scale="  155.644">  1  5  2 -1</clus>
<clus scale="   92.827">  1  5  2 -1</clus>
</clustering>
</event>
<event>
 9    1  0.3288491E-005  0.1265943E+03  0.7546771E-02  0.1232704E+00
          1   -1    0    0  502    0 -0.00000000000E+00  0.00000000000E+00  0.10577822382E+04  0.10577822382E+04  0.00000000000E+00 0. -1.
         21   -1    0    0  501  502  0.00000000000E+00 -0.00000000000E+00 -0.20344631021E+02  0.20344631021E+02  0.00000000000E+00 0.  1.
         23    2    1    2    0    0 -0.67666199533E+01  0.77084808989E+02  0.43452819724E+03  0.45064040713E+03  0.90962450585E+02 0.  0.
         23    2    1    2    0    0  0.37094673892E+02 -0.94493330894E+02  0.52002025326E+03  0.53752280396E+03  0.90579780086E+02 0.  0.
        -11    1    3    3    0    0  0.37221207432E+02  0.55860100068E+02  0.30275889785E+03  0.31011081775E+03  0.00000000000E+00 0. -1.
         11    1    3    3    0    0 -0.43987827386E+02  0.21224708921E+02  0.13176929940E+03  0.14052958938E+03  0.00000000000E+00 0.  1.
        -11    1    4    4    0    0 -0.16241712455E+02 -0.49100545419E+02  0.10984215650E+03  0.12140822101E+03  0.00000000000E+00 0.  1.
         11    1    4    4    0    0  0.53336386348E+02 -0.45392785475E+02  0.41017809676E+03  0.41611458295E+03  0.00000000000E+00 0. -1.
          1    1    1    2  501    0 -0.30328053939E+02  0.17408521905E+02  0.82889156721E+02  0.89963658177E+02  0.00000000000E+00 0. -1.
<scales pt_clust_5="13000.00000" pt_clust_6="13000.00000" pt_clust_7="13000.00000" pt_clust_8="13000.00000" pt_clust_9="34.96924"></scales>
<clustering>
<clus scale="   34.969">  2  9  1 -1</clus>
<clus scale="   90.580">  7  8 -1 -1</clus>
<clus scale="   90.962">  5  6 -1 -1</clus>
<clus scale="  126.320">  2  7  1 -1</clus>
<clus scale="   34.969">  2  5  1 -1</clus>
</clustering>
</event>
<event>
 9    1  0.3288491E-005  0.9313984E+02  0.7546771E-02  0.1300182E+00
         -4   -1    0    0    0  501 -0.00000000000E+00  0.00000000000E+00  0.31395555246E+03  0.31395555246E+03  0.00000000000E+00 0.  1.
         21   -1    0    0  501  502  0.00000000000E+00 -0.00000000000E+00 -0.27952363894E+03  0.27952363894E+03  0.00000000000E+00 0.  1.
         23    2    1    2    0    0  0.11757791287E+01  0.19867090064E+02  0.25051543376E+03  0.26507739728E+03  0.84332439027E+02 0.  0.
         23    2    1    2    0    0  0.21992736239E+01  0.30981733322E+02  0.88619905889E+01  0.97756012314E+02  0.92265911702E+02 0.  0.
        -13    1    4    4    0    0 -0.79269797046E+01  0.62846393843E+02  0.10828615570E+02  0.64263248762E+02  0.00000000000E+00 0.  1.
         13    1    4    4    0    0  0.10126253329E+02 -0.31864660521E+02 -0.19666249813E+01  0.33492763552E+02  0.00000000000E+00 0. -1.
        -13    1    3    3    0    0 -0.36267388072E+02 -0.23962831726E+01  0.64564937788E+02  0.74092488163E+02  0.00000000000E+00 0. -1.
         13    1    3    3    0    0  0.37443167201E+02  0.22263373237E+02  0.18595049597E+03  0.19098490912E+03  0.00000000000E+00 0.  1.
         -4    1    1    2    0  502 -0.33750527526E+01 -0.50848823386E+02 -0.22494551083E+03  0.23064578180E+03  0.00000000000E+00 0.  1.
<scales pt_clust_5="13000.00000" pt_clust_6="13000.00000" pt_clust_7="13000.00000" pt_clust_8="13000.00000" pt_clust_9="50.96071"></scales>
<clustering>
<clus scale="   50.961">  2  9  1 -1</clus>
<clus scale="   84.332">  7  8 -1 -1</clus>
<clus scale="   85.288">  1  7  2 -1</clus>
<clus scale="   92.266">  5  6 -1 -1</clus>
<clus scale="   50.961">  2  5  1 -1</clus>
</clustering>
</event>
<event>
 9    1  0.3288491E-005  0.3975128E+03  0.7546771E-02  0.1093815E+00
          2   -1    0    0  502    0 -0.00000000000E+00  0.00000000000E+00  0.78709494572E+03  0.78709494572E+03  0.00000000000E+00 0. -1.
         21   -1    0    0  501  502  0.00000000000E+00 -0.00000000000E+00 -0.26699195777E+03  0.26699195777E+03  0.00000000000E+00 0. -1.
         23    2    1    2    0    0  0.29915447525E+02  0.28872667937E+02  0.14253480848E+03  0.17572525633E+03  0.93992707862E+02 0.  0.
         23    2    1    2    0    0 -0.34856623789E+03  0.18318025225E+03  0.24834742713E+03  0.47437802125E+03  0.91129772665E+02 0.  0.
        -11    1    3    3    0    0  0.49123269849E+02 -0.10180602326E+02  0.11151770947E+03  0.12228221387E+03  0.00000000000E+00 0.  1.
         11    1    3    3    0    0 -0.19207822324E+02  0.39053270263E+02  0.31017099012E+02  0.53443042464E+02  0.00000000000E+00 0. -1.
        -11    1    4    4    0    0 -0.65322694185E+02 -0.26151445934E+01  0.37246702958E+02  0.75241014334E+02  0.00000000000E+00 0.  1.
         11    1    4    4    0    0 -0.28324354371E+03  0.18579539684E+03  0.21110072418E+03  0.39913700691E+03  0.00000000000E+00 0. -1.
          2    1    1    2  501    0  0.31865079037E+03 -0.21205292019E+03  0.12922075234E+03  0.40398362590E+03  0.00000000000E+00 0. -1.
<scales pt_clust_5="13000.00000" pt_clust_6="13000.00000" pt_clust_7="13000.00000" pt_clust_8="13000.00000" pt_clust_9="386.92609"></scales>
<clustering>
<clus scale="   91.130">  7  8 -1 -1</clus>
<clus scale="   93.993">  5  6 -1 -1</clus>
<clus scale="  102.777">  1  5  2 -1</clus>
<clus scale="  386.926">  2  9  1 -1</clus>
<clus scale="  386.926">  2  5  1 -1</clus>
</clustering>
</event>
<event>
 9    1  0.3288491E-005  0.9852434E+02  0.7546771E-02  0.1288340E+00
          2   -1    0    0  502    0 -0.00000000000E+00  0.00000000000E+00  0.47323608150E+03  0.47323608150E+03  0.00000000000E+00 0. -1.
         21   -1    0    0  501  502  0.00000000000E+00 -0.00000000000E+00 -0.37135779494E+02  0.37135779494E+02  0.00000000000E+00 0. -1.
         23    2    1    2    0    0 -0.38018158401E+02 -0.29707176820E+02  0.18900553036E+03  0.21302117496E+03  0.85598094304E+02 0.  0.
         23    2    1    2    0    0  0.49701397868E+01 -0.20737382806E+02  0.10503453889E+03  0.14302008357E+03  0.94698197493E+02 0.  0.
        -11    1    4    4    0    0 -0.10591228127E+02 -0.51454686214E+02  0.30083098191E+02  0.60537192232E+02  0.00000000000E+00 0. -1.
         11    1    4    4    0    0  0.15561367914E+02  0.30717303408E+02  0.74951440698E+02  0.82482891333E+02  0.00000000000E+00 0.  1.
        -13    1    3    3    0    0  0.19040598174E+01 -0.51272509947E+02  0.11908959449E+03  0.12967199866E+03  0.00000000000E+00 0. -1.
         13    1    3    3    0    0 -0.39922218219E+02  0.21565333127E+02  0.69915935873E+02  0.83349176297E+02  0.00000000000E+00 0.  1.
          2    1    1    2  501    0  0.33048018615E+02  0.50444559625E+02  0.14206023276E+03  0.15433060248E+03  0.00000000000E+00 0. -1.
<scales pt_clust_5="13000.00000" pt_clust_6="13000.00000" pt_clust_7="13000.00000" pt_clust_8="13000.00000" pt_clust_9="60.30613"></scales>
<clustering>
<clus scale="   60.306">  2  9  1 -1</clus>
<clus scale="   85.598">  7  8 -1 -1</clus>
<clus scale="   89.813">  1  7  2 -1</clus>
<clus scale="   94.698">  5  6 -1 -1</clus>
<clus scale="   60.306">  2  5  1 -1</clus>
</clustering>
</event>
<event>
 9    1  0.3288491E-005  0.1269433E+03  0.7546771E-02  0.1232190E+00
         21   -1    0    0  501  502  0.00000000000E+00  0.00000000000E+00  0.73643386744E+03  0.73643386744E+03  0.00000000000E+00 0.  1.
         -3   -1    0    0    0  501 -0.00000000000E+00 -0.00000000000E+00 -0.58658862737E+02  0.58658862737E+02  0.00000000000E+00 0.  1.
         23    2    1    2    0    0  0.39298789475E+02  0.11032241164E+03  0.85032763252E+02  0.17133818832E+03  0.91710275249E+02 0.  0.
         23    2    1    2    0    0 -0.64167877519E+01 -0.36494005303E+02  0.20653576505E+03  0.22918223919E+03  0.92165551740E+02 0.  0.
        -11    1    3    3    0    0 -0.20528953594E+02  0.59322722922E+02  0.11751085842E+02  0.63864790057E+02  0.00000000000E+00 0. -1.
         11    1    3    3    0    0  0.59827743069E+02  0.50999688715E+02  0.73281677410E+02  0.10747339826E+03  0.00000000000E+00 0.  1.
        -13    1    4    4    0    0  0.17516311849E+02 -0.61788947573E+02  0.14208138528E+03  0.15592246556E+03  0.00000000000E+00 0. -1.
         13    1    4    4    0    0 -0.23933099600E+02  0.25294942270E+02  0.64454379765E+02  0.73259773626E+02  0.00000000000E+00 0.  1.
         -3    1    1    2    0  502 -0.32882001723E+02 -0.73828406333E+02  0.38620647641E+03  0.39457230267E+03  0.00000000000E+00 0.  1.
<scales pt_clust_5="13000.00000" pt_clust_6="13000.00000" pt_clust_7="13000.00000" pt_clust_8="13000.00000" pt_clust_9="80.81992"></scales>
<clustering>
<clus scale="   80.820">  1  9  2 -1</clus>
<clus scale="   91.710">  5  6 -1 -1</clus>
<clus scale="   92.166">  7  8 -1 -1</clus>
<clus scale="  126.613">  2  5  1 -1</clus>
<clus scale="   80.820">  1  5  2 -1</clus>
</clustering>
</event>
<event>
 9    1  0.3288491E-005  0.1346628E+03  0.7546771E-02  0.1233959E+00
         21   -1    0    0  501  502  0.00000000000E+00  0.00000000000E+00  0.24467878654E+03  0.24467878654E+03  0.00000000000E+00 0. -1.
          1   -1    0    0  502    0 -0.00000000000E+00 -0.00000000000E+00 -0.46432780384E+03  0.46432780384E+03  0.00000000000E+00 0. -1.
         23    2    1    2    0    0  0.47190005903E+02  0.40998091114E+01 -0.12100086461E+03  0.15843581853E+03  0.90647637938E+02 0.  0.
         23    2    1    2    0    0 -0.24213626728E+01  0.87904412973E+02 -0.29987766721E+03  0.32482240350E+03  0.88599829041E+02 0.  0.
        -11    1    3    3    0    0  0.67507668331E+02 -0.30470240410E+01 -0.11894377814E+03  0.13679982455E+03  0.00000000000E+00 0. -1.
         11    1    3    3    0    0 -0.20317662428E+02  0.71468331525E+01 -0.20570864730E+01  0.21635993978E+02  0.00000000000E+00 0.  1.
        -13    1    4    4    0    0 -0.39405339602E+02  0.14642522470E+02 -0.85569054595E+02  0.95337544324E+02  0.00000000000E+00 0.  1.
         13    1    4    4    0    0  0.36983976929E+02  0.73261890503E+02 -0.21430861262E+03  0.22948485918E+03  0.00000000000E+00 0. -1.
          1    1    1    2  501    0 -0.44768643230E+02 -0.92004222084E+02  0.20122951453E+03  0.22574836835E+03  0.00000000000E+00 0. -1.
<scales pt_clust_5="13000.00000" pt_clust_6="13000.00000" pt_clust_7="13000.00000" pt_clust_8="13000.00000" pt_clust_9="101.41076"></scales>
<clustering>
<clus scale="   88.600">  7  8 -1 -1</clus>
<clus scale="   90.648">  5  6 -1 -1</clus>
<clus scale="  102.278">  2  5  1 -1</clus>
<clus scale="  101.411">  1  9  2 -1</clus>
<clus scale="  101.411">  1  5  2 -1</clus>
</clustering>
</event>
<event>
 9    1  0.3288491E-005  0.1082082E+03  0.7546771E-02  0.1272937E+00
          3   -1    0    0  502    0 -0.00000000000E+00  0.00000000000E+00  0.13829024587E+03  0.13829024587E+03  0.00000000000E+00 0. -1.
         21   -1    0    0  501  502  0.00000000000E+00 -0.00000000000E+00 -0.23036808659E+03  0.23036808659E+03  0.00000000000E+00 0. -1.
         23    2    1    2    0    0  0.19394466081E+02 -0.18413602998E+02  0.33556512081E+02  0.96337967061E+02  0.86254033555E+02 0.  0.
         23    2    1    2    0    0 -0.40286295602E+02 -0.12810524594E+02  0.26443864764E+02  0.11567044058E+03  0.10437086609E+03 0.  0.
        -13    1    4    4    0    0 -0.59960176316E+02 -0.42021201516E+02  0.32197105731E+02  0.79985359524E+02  0.00000000000E+00 0.  1.
         13    1    4    4    0    0  0.19673880714E+02  0.29210676922E+02 -0.57532409668E+01  0.35685081060E+02  0.00000000000E+00 0. -1.
        -13    1    3    3    0    0  0.35095324248E+02 -0.45686025593E+02  0.29140583646E+02  0.64560578790E+02  0.00000000000E+00 0.  1.
         13    1    3    3    0    0 -0.15700858166E+02  0.27272422595E+02  0.44159284345E+01  0.31777388270E+02  0.00000000000E+00 0. -1.
          3    1    1    2  501    0  0.20891829521E+02  0.31224127592E+02 -0.15207821757E+03  0.15664992481E+03  0.00000000000E+00 0. -1.
<scales pt_clust_5="13000.00000" pt_clust_6="13000.00000" pt_clust_7="13000.00000" pt_clust_8="13000.00000" pt_clust_9="37.56880"></scales>
<clustering>
<clus scale="   37.569">  2  9  1 -1</clus>
<clus scale="   86.254">  7  8 -1 -1</clus>
<clus scale="   90.860">  1  7  2 -1</clus>
<clus scale="  104.371">  5  6 -1 -1</clus>
<clus scale="   37.569">  2  5  1 -1</clus>
</clustering>
</event>
<event>
 9    1  0.3288491E-005  0.9086137E+02  0.7546771E-02  0.1300827E+00
         -1   -1    0    0    0  501 -0.00000000000E+00  0.00000000000E+00  0.18983413327E+03  0.18983413327E+03  0.00000000000E+00 0.  1.
         21   -1    0    0  501  502  0.00000000000E+00 -0.00000000000E+00 -0.69625762720E+02  0.69625762720E+02  0.00000000000E+00 0. -1.
         23    2    1    2    0    0 -0.18091732924E+02 -0.47054663703E+01  0.42166506400E+02  0.10176965820E+03  0.90717125473E+02 0.  0.
         23    2    1    2    0    0 -0.23530461437E+02  0.41506324579E+01  0.42346429451E+02  0.10285522195E+03  0.90637002540E+02 0.  0.
        -13    1    3    3    0    0  0.34932178567E+02 -0.95797096441E+01  0.30280704760E+02  0.47211746601E+02  0.00000000000E+00 0.  1.
         13    1    3    3    0    0 -0.53023911491E+02  0.48742432738E+01  0.11885801640E+02  0.54557911598E+02  0.00000000000E+00 0. -1.
        -13    1    4    4    0    0  0.83697357786E+01 -0.36745817773E+02  0.31014240309E+01  0.37814368061E+02  0.00000000000E+00 0.  1.
         13    1    4    4    0    0 -0.31900197216E+02  0.40896450231E+02  0.39245005420E+02  0.65040853887E+02  0.00000000000E+00 0. -1.
         -1    1    1    2    0  502  0.41622194362E+02  0.55483391234E+00  0.35695434697E+02  0.54835015842E+02  0.00000000000E+00 0.  1.
<scales pt_clust_5="13000.00000" pt_clust_6="13000.00000" pt_clust_7="13000.00000" pt_clust_8="13000.00000" pt_clust_9="41.62591"></scales>
<clustering>
<clus scale="   41.626">  2  9  1 -1</clus>
<clus scale="   90.637">  7  8 -1 -1</clus>
<clus scale="   90.717">  5  6 -1 -1</clus>
<clus scale="   90.781">  2  7  1 -1</clus>
<clus scale="   41.626">  2  5  1 -1</clus>
</clustering>
</event>
<event>
 9    1  0.3288491E-005  0.1064502E+03  0.7546771E-02  0.1267650E+00
         21   -1    0    0  501  502  0.00000000000E+00  0.00000000000E+00  0.71900632953E+02  0.71900632953E+02  0.00000000000E+00 0.  1.
          1   -1    0    0  502    0 -0.00000000000E+00 -0.00000000000E+00 -0.27206477378E+03  0.27206477378E+03  0.00000000000E+00 0. -1.
         23    2    1    2    0    0 -0.46687915432E+02 -0.43514094464E+02 -0.14110784117E+03  0.17966866948E+03  0.91083313996E+02 0.  0.
         23    2    1    2    0    0  0.19504750254E+02  0.41883966671E+02 -0.80661587607E+02  0.12953511685E+03  0.90212819684E+02 0.  0.
        -11    1    3    3    0    0 -0.72803673604E+02 -0.21915980456E+02 -0.84314308340E+02  0.11353231998E+03  0.00000000000E+00 0.  1.
         11    1    3    3    0    0  0.26115758172E+02 -0.21598114008E+02 -0.56793532831E+02  0.66136349499E+02  0.00000000000E+00 0. -1.
        -13    1    4    4    0    0 -0.23070982553E+02  0.51884102457E+02 -0.37230725828E+02  0.67899611702E+02  0.00000000000E+00 0.  1.
         13    1    4    4    0    0  0.42575732807E+02 -0.10000135786E+02 -0.43430861779E+02  0.61635505147E+02  0.00000000000E+00 0. -1.
          1    1    1    2  501    0  0.27183165178E+02  0.16301277929E+01  0.21605287950E+02  0.34761620404E+02  0.00000000000E+00 0. -1.
<scales pt_clust_5="13000.00000" pt_clust_6="13000.00000" pt_clust_7="13000.00000" pt_clust_8="13000.00000" pt_clust_9="27.23200"></scales>
<clustering>
<clus scale="   27.232">  1  9  2 -1</clus>
<clus scale="   90.213">  7  8 -1 -1</clus>
<clus scale="   91.083">  5  6 -1 -1</clus>
<clus scale="  105.706">  1  7  2 -1</clus>
<clus scale="   27.232">  1  5  2 -1</clus>
</clustering>
</event>
<event>
 9    1  0.3288491E-005  0.9551546E+02  0.7546771E-02  0.1304568E+00
          1   -1    0    0  502    0 -0.00000000000E+00  0.00000000000E+00  0.98305680414E+02  0.98305680414E+02  0.00000000000E+00 0. -1.
         21   -1    0    0  501  502  0.00000000000E+00 -0.00000000000E+00 -0.16107745689E+03  0.16107745689E+03  0.00000000000E+00 0.  1.
         23    2    1    2    0    0 -0.14661735590E+01 -0.12921418327E+02  0.48014032766E+02  0.10649389495E+03  0.94162039076E+02 0.  0.
         23    2    1    2    0    0  0.27416496355E+02  0.18946326754E+02 -0.85966736246E+02  0.11647900809E+03  0.71179013866E+02 0.  0.
        -11    1    3    3    0    0  0.13619900599E+01 -0.40405056485E+02 -0.10513593103E+02  0.41772709349E+02  0.00000000000E+00 0.  1.
         11    1    3    3    0    0 -0.28281636190E+01  0.27483638158E+02  0.58527625869E+02  0.64721185602E+02  0.00000000000E+00 0. -1.
        -13    1    4    4    0    0  0.44837035285E+02 -0.24787997847E+01 -0.73611474041E+02  0.86227334947E+02  0.00000000000E+00 0.  1.
         13    1    4    4    0    0 -0.17420538930E+02  0.21425126538E+02 -0.12355262205E+02  0.30251673143E+02  0.00000000000E+00 0. -1.
          1    1    1    2  501    0 -0.25950322796E+02 -0.60249084267E+01 -0.24819073000E+02  0.36410234266E+02  0.00000000000E+00 0. -1.
<scales pt_clust_5="13000.00000" pt_clust_6="13000.00000" pt_clust_7="13000.00000" pt_clust_8="13000.00000" pt_clust_9="26.64055"></scales>
<clustering>
<clus scale="   26.641">  2  9  1 -1</clus>
<clus scale="   71.179">  7  8 -1 -1</clus>
<clus scale="   72.960">  2  7  1 -1</clus>
<clus scale="   94.162">  5  6 -1 -1</clus>
<clus scale="   26.641">  2  5  1 -1</clus>
</clustering>
</event>
<event>
 9    1  0.3288491E-005  0.1017221E+03  0.7546771E-02  0.1276833E+00
         21   -1    0    0  501  502  0.00000000000E+00  0.00000000000E+00  0.52270825235E+03  0.52270825235E+03  0.00000000000E+00 0. -1.
          4   -1    0    0  502    0 -0.00000000000E+00 -0.00000000000E+00 -0.57765719691E+02  0.57765719691E+02  0.00000000000E+00 0. -1.
         23    2    1    2    0    0  0.53923215797E+02  0.22339937446E+02  0.24551046115E+02  0.10991201019E+03  0.89839357258E+02 0.  0.
         23    2    1    2    0    0 -0.21747881306E+02 -0.38419474624E+01  0.14036611796E+03  0.16824978945E+03  0.90097800631E+02 0.  0.
        -13    1    3    3    0    0  0.65945729768E+02  0.43869683060E+01  0.45164595951E+02  0.80049519005E+02  0.00000000000E+00 0.  1.
         13    1    3    3    0    0 -0.12022513971E+02  0.17952969140E+02 -0.20613549836E+02  0.29862491188E+02  0.00000000000E+00 0. -1.
        -13    1    4    4    0    0 -0.46013023292E+02 -0.19683853340E+01  0.13591861821E+03  0.14350938516E+03  0.00000000000E+00 0. -1.
         13    1    4    4    0    0  0.24265141986E+02 -0.18735621283E+01  0.44474997524E+01  0.24740404295E+02  0.00000000000E+00 0.  1.
          4    1    1    2  501    0 -0.32175334491E+02 -0.18497989983E+02  0.30002536858E+03  0.30231217239E+03  0.00000000000E+00 0. -1.
<scales pt_clust_5="13000.00000" pt_clust_6="13000.00000" pt_clust_7="13000.00000" pt_clust_8="13000.00000" pt_clust_9="37.11371"></scales>
<clustering>
<clus scale="   37.114">  1  9  2 -1</clus>
<clus scale="   89.839">  5  6 -1 -1</clus>
<clus scale="   90.098">  7  8 -1 -1</clus>
<clus scale="  101.493">  2  5  1 -1</clus>
<clus scale="   37.114">  1  5  2 -1</clus>
</clustering>
</event>
<event>
 9    1  0.3288491E-005  0.1097866E+03  0.7546771E-02  0.1261875E+00
         -3   -1    0    0    0  501 -0.00000000000E+00  0.00000000000E+00  0.15619894878E+03  0.15619894878E+03  0.00000000000E+00 0.  1.
         21   -1    0    0  501  502  0.00000000000E+00 -0.00000000000E+00 -0.10081281151E+03  0.10081281151E+03  0.00000000000E+00 0. -1.
         23    2    1    2    0    0 -0.58258293453E+02 -0.91743444175E+01  0.40661677487E+02  0.11893124823E+03  0.94937202600E+02 0.  0.
         23    2    1    2    0    0  0.44953821079E+02  0.29210131569E+02  0.27910799568E+02  0.11065203583E+03  0.92686474117E+02 0.  0.
        -11    1    3    3    0    0 -0.95935897739E+00  0.37102333134E+02  0.21233496510E+02  0.42759383387E+02  0.00000000000E+00 0.  1.
         11    1    3    3    0    0 -0.57298934476E+02 -0.46276677552E+02  0.19428180977E+02  0.76171864841E+02  0.00000000000E+00 0. -1.
        -11    1    4    4    0    0 -0.78195911386E+01  0.49225617813E+02  0.64075178041E+01  0.50252997314E+02  0.00000000000E+00 0.  1.
         11    1    4    4    0    0  0.52773412218E+02 -0.20015486244E+02  0.21503281764E+02  0.60399038513E+02  0.00000000000E+00 0. -1.
         -3    1    1    2    0  502  0.13304472374E+02 -0.20035787151E+02 -0.13186339779E+02  0.27428476237E+02  0.00000000000E+00 0.  1.
<scales pt_clust_5="13000.00000" pt_clust_6="13000.00000" pt_clust_7="13000.00000" pt_clust_8="13000.00000" pt_clust_9="24.05082"></scales>
<clustering>
<clus scale="   24.051">  2  9  1 -1</clus>
<clus scale="   92.686">  7  8 -1 -1</clus>
<clus scale="   94.937">  5  6 -1 -1</clus>
<clus scale="  107.846">  2  7  1 -1</clus>
<clus scale="   24.051">  2  5  1 -1</clus>
</clustering>
</event>
<event>
 9    1  0.3288491E-005  0.1092568E+03  0.7546771E-02  0.1267292E+00
          2   -1    0    0  502    0 -0.00000000000E+00  0.00000000000E+00  0.35776625297E+03  0.35776625297E+03  0.00000000000E+00 0. -1.
         21   -1    0    0  501  502  0.00000000000E+00 -0.00000000000E+00 -0.60358198324E+02  0.60358198324E+02  0.00000000000E+00 0.  1.
         23    2    1    2    0    0 -0.39891997663E+02  0.82688447424E+01  0.25154496116E+03  0.27445996945E+03  0.10194931129E+03 0.  0.
         23    2    1    2    0    0  0.29591859846E+02 -0.26445425570E+02  0.62680613586E+02  0.11684452822E+03  0.90270403528E+02 0.  0.
        -11    1    4    4    0    0 -0.25848253413E+02 -0.11043785717E+02  0.50849081362E+02  0.58101002425E+02  0.00000000000E+00 0. -1.
         11    1    4    4    0    0  0.55440113258E+02 -0.15401639853E+02  0.11831532225E+02  0.58743525797E+02  0.00000000000E+00 0.  1.
        -13    1    3    3    0    0 -0.84993998322E+01 -0.43832358667E+02  0.70302362941E+02  0.83282277220E+02  0.00000000000E+00 0.  1.
         13    1    3    3    0    0 -0.31392597831E+02  0.52101203410E+02  0.18124259822E+03  0.19117769223E+03  0.00000000000E+00 0. -1.
          2    1    1    2  501    0  0.10300137817E+02  0.18176580828E+02 -0.16817520107E+02  0.26819953620E+02  0.00000000000E+00 0. -1.
<scales pt_clust_5="13000.00000" pt_clust_6="13000.00000" pt_clust_7="13000.00000" pt_clust_8="13000.00000" pt_clust_9="20.89213"></scales>
<clustering>
<clus scale="   20.892">  2  9  1 -1</clus>
<clus scale="   90.270">  5  6 -1 -1</clus>
<clus scale="   98.449">  2  5  1 -1</clus>
<clus scale="  101.949">  7  8 -1 -1</clus>
<clus scale="   20.892">  2  5  1 -1</clus>
</clustering>
</event>
<event>
 9    1  0.3288491E-005  0.9161591E+02  0.7546771E-02  0.1299081E+00
         21   -1    0    0  501  502  0.00000000000E+00  0.00000000000E+00  0.67021852197E+02  0.67021852197E+02  0.00000000000E+00 0. -1.
          2   -1    0    0  502    0 -0.00000000000E+00 -0.00000000000E+00 -0.33979679462E+03  0.33979679462E+03  0.00000000000E+00 0. -1.
         23    2    1    2    0    0 -0.29644187374E+01 -0.18215555728E+02 -0.27635471969E+03  0.29125112021E+03  0.90081572381E+02 0.  0.
         23    2    1    2    0    0 -0.13070982061E+02  0.13327509400E+01 -0.33945945650E+01  0.91261045193E+02  0.90246486360E+02 0.  0.
        -13    1    3    3    0    0 -0.98860077963E+01  0.31264290105E+02 -0.52577351743E+02  0.61964238898E+02  0.00000000000E+00 0.  1.
         13    1    3    3    0    0  0.69215890590E+01 -0.49479845833E+02 -0.22377736794E+03  0.22928688131E+03  0.00000000000E+00 0. -1.
        -13    1    4    4    0    0  0.79780436035E+01  0.27112874767E+02  0.31988352265E+02  0.42685030614E+02  0.00000000000E+00 0.  1.
         13    1    4    4    0    0 -0.21049025664E+02 -0.25780123827E+02 -0.35382946830E+02  0.48576014579E+02  0.00000000000E+00 0. -1.
          2    1    1    2  501    0  0.16035400798E+02  0.16882804788E+02  0.69743718274E+01  0.24306481412E+02  0.00000000000E+00 0. -1.
<scales pt_clust_5="13000.00000" pt_clust_6="13000.00000" pt_clust_7="13000.00000" pt_clust_8="13000.00000" pt_clust_9="23.28440"></scales>
<clustering>
<clus scale="   23.284">  1  9  2 -1</clus>
<clus scale="   90.082">  5  6 -1 -1</clus>
<clus scale="   90.246">  7  8 -1 -1</clus>
<clus scale="   91.453">  2  5  1 -1</clus>
<clus scale="   23.284">  1  5  2 -1</clus>
</clustering>
</event>
<event>
 9    1  0.3288491E-005  0.1329766E+03  0.7546771E-02  0.1223759E+00
          2   -1    0    0  502    0 -0.00000000000E+00  0.00000000000E+00  0.40801461601E+03  0.40801461601E+03  0.00000000000E+00 0. -1.
         21   -1    0    0  501  502  0.00000000000E+00 -0.00000000000E+00 -0.10499704015E+03  0.10499704015E+03  0.00000000000E+00 0.  1.
         23    2    1    2    0    0  0.53551413640E+02 -0.78778838654E+02  0.31184349380E+03  0.33947673627E+03  0.94468145520E+02 0.  0.
         23    2    1    2    0    0 -0.18659879860E+02  0.90325964310E+02  0.12889052878E+02  0.13084657021E+03  0.91911513455E+02 0.  0.
        -11    1    4    4    0    0  0.23758707313E+02  0.69693435165E+02  0.31566615147E+02  0.80113059299E+02  0.00000000000E+00 0. -1.
         11    1    4    4    0    0 -0.42418587173E+02  0.20632529145E+02 -0.18677562269E+02  0.50733510907E+02  0.00000000000E+00 0.  1.
        -13    1    3    3    0    0  0.28435835082E+02  0.15067803952E+02  0.12260550767E+03  0.12675861290E+03  0.00000000000E+00 0.  1.
         13    1    3    3    0    0  0.25115578558E+02 -0.93846642606E+02  0.18923798613E+03  0.21271812337E+03  0.00000000000E+00 0. -1.
          2    1    1    2  501    0 -0.34891533780E+02 -0.11547125656E+02 -0.21714970821E+02  0.42688349677E+02  0.00000000000E+00 0. -1.
<scales pt_clust_5="13000.00000" pt_clust_6="13000.00000" pt_clust_7="13000.00000" pt_clust_8="13000.00000" pt_clust_9="36.75262"></scales>
<clustering>
<clus scale="   36.753">  2  9  1 -1</clus>
<clus scale="   91.912">  5  6 -1 -1</clus>
<clus scale="   94.468">  7  8 -1 -1</clus>
<clus scale="  131.173">  2  5  1 -1</clus>
<clus scale="   36.753">  2  5  1 -1</clus>
</clustering>
</event>
<event>
 9    1  0.3288491E-005  0.1051633E+03  0.7546771E-02  0.1270526E+00
         21   -1    0    0  501  502  0.00000000000E+00  0.00000000000E+00  0.19870416330E+03  0.19870416330E+03  0.00000000000E+00 0.  1.
         -3   -1    0    0    0  501 -0.00000000000E+00 -0.00000000000E+00 -0.14458654090E+03  0.14458654090E+03  0.00000000000E+00 0.  1.
         23    2    1    2    0    0 -0.41708025984E+02  0.53487684892E+02 -0.69461262054E+02  0.13289533485E+03  0.90751370414E+02 0.  0.
         23    2    1    2    0    0  0.48231750541E+01 -0.17577345825E+02  0.22337403085E+02  0.96817720887E+02  0.92425566794E+02 0.  0.
        -11    1    4    4    0    0 -0.21402062901E+02 -0.42029233218E+02 -0.10362920621E+02  0.48289697298E+02  0.00000000000E+00 0. -1.
         11    1    4    4    0    0  0.26225237955E+02  0.24451887393E+02  0.32700323706E+02  0.48528023588E+02  0.00000000000E+00 0.  1.
        -11    1    3    3    0    0 -0.44218626985E+02  0.76548976439E+02 -0.63789817152E+02  0.10901455654E+03  0.00000000000E+00 0.  1.
         11    1    3    3    0    0  0.25106010010E+01 -0.23061291547E+02 -0.56714449023E+01  0.23880778305E+02  0.00000000000E+00 0. -1.
         -3    1    1    2    0  502  0.36884850930E+02 -0.35910339067E+02  0.10124148137E+03  0.11357764846E+03  0.00000000000E+00 0.  1.
<scales pt_clust_5="13000.00000" pt_clust_6="13000.00000" pt_clust_7="13000.00000" pt_clust_8="13000.00000" pt_clust_9="51.47858"></scales>
<clustering>
<clus scale="   51.479">  1  9  2 -1</clus>
<clus scale="   90.751">  7  8 -1 -1</clus>
<clus scale="   92.426">  5  6 -1 -1</clus>
<clus scale="  103.695">  2  7  1 -1</clus>
<clus scale="   51.479">  1  5  2 -1</clus>
</clustering>
</event>
<event>
 9    1  0.3288491E-005  0.9528061E+02  0.7546771E-02  0.1292759E+00
          1   -1    0    0  502    0 -0.00000000000E+00  0.00000000000E+00  0.29171988354E+03  0.29171988354E+03  0.00000000000E+00 0. -1.
         21   -1    0    0  501  502  0.00000000000E+00 -0.00000000000E+00 -0.85603281528E+02  0.85603281528E+02  0.00000000000E+00 0.  1.
         23    2    1    2    0    0  0.38448139856E+01 -0.67391649688E+00  0.16731469549E+03  0.19058509263E+03  0.91176934845E+02 0.  0.
         23    2    1    2    0    0 -0.16260124360E+02 -0.29689470151E+02 -0.34338985624E+02  0.10657782491E+03  0.95046359982E+02 0.  0.
        -11    1    4    4    0    0 -0.48083274221E+02 -0.22311983072E+02  0.74575598987E+01  0.53529814572E+02  0.00000000000E+00 0. -1.
         11    1    4    4    0    0  0.31823149862E+02 -0.73774870790E+01 -0.41796545523E+02  0.53048010334E+02  0.00000000000E+00 0.  1.
        -11    1    3    3    0    0  0.13377036310E+01 -0.44153729980E+02  0.11046789498E+03  0.11897267394E+03  0.00000000000E+00 0. -1.
         11    1    3    3    0    0  0.25071103546E+01  0.43479813483E+02  0.56846800506E+02  0.71612418690E+02  0.00000000000E+00 0.  1.
          1    1    1    2  501    0  0.12415310374E+02  0.30363386648E+02  0.73140892144E+02  0.80160247530E+02  0.00000000000E+00 0. -1.
<scales pt_clust_5="13000.00000" pt_clust_6="13000.00000" pt_clust_7="13000.00000" pt_clust_8="13000.00000" pt_clust_9="32.80360"></scales>
<clustering>
<clus scale="   32.804">  2  9  1 -1</clus>
<clus scale="   91.177">  7  8 -1 -1</clus>
<clus scale="   91.421">  1  7  2 -1</clus>
<clus scale="   95.046">  5  6 -1 -1</clus>
<clus scale="   32.804">  2  5  1 -1</clus>
</clustering>
</event>
<event>
 9    1  0.3288491E-005  0.1123815E+03  0.7546771E-02  0.1257334E+00
         21   -1    0    0  501  502  0.00000000000E+00  0.00000000000E+00  0.95206347149E+02  0.95206347149E+02  0.00000000000E+00 0. -1.
          1   -1    0    0  502    0 -0.00000000000E+00 -0.00000000000E+00 -0.38295452210E+03  0.38295452210E+03  0.00000000000E+00 0. -1.
         23    2    1    2    0    0  0.27684406664E+02  0.66231206684E+02 -0.25473892319E+03  0.28050723086E+03  0.92948310724E+02 0.  0.
         23    2    1    2    0    0 -0.17223086430E+02 -0.44597118592E+02 -0.89908888178E+02  0.13588761525E+03  0.89979431606E+02 0.  0.
        -11    1    3    3    0    0 -0.22258369708E+02  0.25313174845E+02 -0.17346311649E+03  0.17670779446E+03  0.00000000000E+00 0.  1.
         11    1    3    3    0    0  0.49942776372E+02  0.40918031839E+02 -0.81275806705E+02  0.10379943640E+03  0.00000000000E+00 0. -1.
        -13    1    4    4    0    0 -0.34627027779E+02  0.12435787405E+02 -0.14016621668E+02  0.39371887739E+02  0.00000000000E+00 0.  1.
         13    1    4    4    0    0  0.17403941349E+02 -0.57032905997E+02 -0.75892266510E+02  0.96515727511E+02  0.00000000000E+00 0. -1.
          1    1    1    2  501    0 -0.10461320234E+02 -0.21634088092E+02  0.56899636423E+02  0.61766023133E+02  0.00000000000E+00 0. -1.
<scales pt_clust_5="13000.00000" pt_clust_6="13000.00000" pt_clust_7="13000.00000" pt_clust_8="13000.00000" pt_clust_9="24.03067"></scales>
<clustering>
<clus scale="   24.031">  1  9  2 -1</clus>
<clus scale="   89.979">  7  8 -1 -1</clus>
<clus scale="   92.948">  5  6 -1 -1</clus>
<clus scale="  109.939">  1  7  2 -1</clus>
<clus scale="   24.031">  1  5  2 -1</clus>
</clustering>
</event>
<event>
 9    1  0.3288491E-005  0.9283012E+02  0.7546771E-02  0.1297249E+00
          3   -1    0    0  502    0 -0.00000000000E+00  0.00000000000E+00  0.76330877330E+02  0.76330877330E+02  0.00000000000E+00 0. -1.
         21   -1    0    0  501  502  0.00000000000E+00 -0.00000000000E+00 -0.20222561311E+03  0.20222561311E+03  0.00000000000E+00 0.  1.
         23    2    1    2    0    0 -0.61085345627E+01 -0.18373954399E+02 -0.31374435038E+01  0.94301165793E+02  0.92238549009E+02 0.  0.
         23    2    1    2    0    0  0.11206854791E+02 -0.11680825951E+02 -0.48106120621E+02  0.10361984784E+03  0.90337360684E+02 0.  0.
        -11    1    4    4    0    0 -0.49580932810E+01 -0.49865796875E+02 -0.22920000992E+02  0.55104508277E+02  0.00000000000E+00 0.  1.
         11    1    4    4    0    0  0.16164948072E+02  0.38184970924E+02 -0.25186119629E+02  0.48515339560E+02  0.00000000000E+00 0. -1.
        -13    1    3    3    0    0  0.36662470399E+02 -0.29617411386E+02  0.99731227766E+01  0.48174588435E+02  0.00000000000E+00 0. -1.
         13    1    3    3    0    0 -0.42771004962E+02  0.11243456987E+02 -0.13110566280E+02  0.46126577357E+02  0.00000000000E+00 0.  1.
          3    1    1    2  501    0 -0.50983202280E+01  0.30054780350E+02 -0.74651171651E+02  0.80635476807E+02  0.00000000000E+00 0. -1.
<scales pt_clust_5="13000.00000" pt_clust_6="13000.00000" pt_clust_7="13000.00000" pt_clust_8="13000.00000" pt_clust_9="30.48414"></scales>
<clustering>
<clus scale="   30.484">  2  9  1 -1</clus>
<clus scale="   90.337">  5  6 -1 -1</clus>
<clus scale="   90.941">  2  5  1 -1</clus>
<clus scale="   92.239">  7  8 -1 -1</clus>
<clus scale="   30.484">  2  5  1 -1</clus>
</clustering>
</event>
<event>
 9    1  0.3288491E-005  0.1274536E+03  0.7546771E-02  0.1232325E+00
          1   -1    0    0  502    0 -0.00000000000E+00  0.00000000000E+00  0.78745026458E+03  0.78745026458E+03  0.00000000000E+00 0. -1.
         21   -1    0    0  501  502  0.00000000000E+00 -0.00000000000E+00 -0.49529626334E+02  0.49529626334E+02  0.00000000000E+00 0. -1.
         23    2    1    2    0    0  0.25673475097E+02  0.85413941056E+02  0.47674138852E+03  0.49301496607E+03  0.88468845349E+02 0.  0.
         23    2    1    2    0    0 -0.86771444183E+02 -0.54549941509E+02  0.23128639700E+03  0.26927134454E+03  0.92242505957E+02 0.  0.
        -11    1    4    4    0    0  0.20286166094E+01 -0.25202617032E+02  0.69516199317E+01  0.26222360884E+02  0.00000000000E+00 0.  1.
         11    1    4    4    0    0 -0.88800060792E+02 -0.29347324476E+02  0.22433477707E+03  0.24304898365E+03  0.00000000000E+00 0. -1.
        -11    1    3    3    0    0 -0.85903489146E+01  0.78261108591E+02  0.41162892354E+03  0.41909064164E+03  0.00000000000E+00 0. -1.
         11    1    3    3    0    0  0.34263824012E+02  0.71528324652E+01  0.65112464976E+02  0.73924324436E+02  0.00000000000E+00 0.  1.
          1    1    1    2  501    0  0.61097969086E+02 -0.30863999547E+02  0.29892852722E+02  0.74693580302E+02  0.00000000000E+00 0. -1.
<scales pt_clust_5="13000.00000" pt_clust_6="13000.00000" pt_clust_7="13000.00000" pt_clust_8="13000.00000" pt_clust_9="68.45106"></scales>
<clustering>
<clus scale="   68.451">  2  9  1 -1</clus>
<clus scale="   88.469">  7  8 -1 -1</clus>
<clus scale="   92.243">  5  6 -1 -1</clus>
<clus scale="  124.750">  1  7  2 -1</clus>
<clus scale="   68.451">  2  5  1 -1</clus>
</clustering>
</event>
<event>
 9    1  0.3288491E-005  0.1227860E+03  0.7546771E-02  0.1243282E+00
         21   -1    0    0  501  502  0.00000000000E+00  0.00000000000E+00  0.18026022629E+03  0.18026022629E+03  0.00000000000E+00 0.  1.
          1   -1    0    0  502    0 -0.00000000000E+00 -0.00000000000E+00 -0.13384339704E+03  0.13384339704E+03  0.00000000000E+00 0. -1.
         23    2    1    2    0    0  0.53944193823E+02 -0.37370497573E+01 -0.23988812703E+02  0.12070032704E+03  0.10521009564E+03 0.  0.
         23    2    1    2    0    0 -0.74421197709E+02 -0.22847529038E+02  0.57792782830E+01  0.12058424385E+03  0.91905579564E+02 0.  0.
        -11    1    4    4    0    0 -0.52797290495E+02  0.12191237096E+02 -0.33478215219E+02  0.63694356420E+02  0.00000000000E+00 0. -1.
         11    1    4    4    0    0 -0.21623907214E+02 -0.35038766134E+02  0.39257493502E+02  0.56889887427E+02  0.00000000000E+00 0.  1.
        -11    1    3    3    0    0  0.31786686816E+02  0.48901592888E+02  0.10658182590E+01  0.58334339924E+02  0.00000000000E+00 0.  1.
         11    1    3    3    0    0  0.22157507007E+02 -0.52638642646E+02 -0.25054630962E+02  0.62365987116E+02  0.00000000000E+00 0. -1.
          1    1    1    2  501    0  0.20477003886E+02  0.26584578795E+02  0.64626363667E+02  0.72819052443E+02  0.00000000000E+00 0. -1.
<scales pt_clust_5="13000.00000" pt_clust_6="13000.00000" pt_clust_7="13000.00000" pt_clust_8="13000.00000" pt_clust_9="33.55663"></scales>
<clustering>
<clus scale="   33.557">  1  9  2 -1</clus>
<clus scale="   91.906">  5  6 -1 -1</clus>
<clus scale="  105.210">  7  8 -1 -1</clus>
<clus scale="  111.597">  1  5  2 -1</clus>
<clus scale="   33.557">  1  5  2 -1</clus>
</clustering>
</event>
<event>
 9    1  0.3288491E-005  0.9242801E+02  0.7546771E-02  0.1297684E+00
         21   -1    0    0  501  502  0.00000000000E+00  0.00000000000E+00  0.76199775067E+02  0.76199775067E+02  0.00000000000E+00 0. -1.
          2   -1    0    0  502    0 -0.00000000000E+00 -0.00000000000E+00 -0.23754189477E+03  0.23754189477E+03  0.00000000000E+00 0. -1.
         23    2    1    2    0    0 -0.27048367113E+02 -0.13347029534E+02 -0.12004009915E+03  0.15289444673E+03  0.89762626277E+02 0.  0.
         23    2    1    2    0    0 -0.15403157704E+02  0.14810739282E+02 -0.63563704267E+02  0.11289039911E+03  0.90814549745E+02 0.  0.
        -11    1    3    3    0    0  0.11317866396E+02 -0.23817477503E+02  0.71779693231E-01  0.26369897358E+02  0.00000000000E+00 0.  1.
         11    1    3    3    0    0 -0.38366233509E+02  0.10470447969E+02 -0.12011187885E+03  0.12652454937E+03  0.00000000000E+00 0. -1.
        -13    1    4    4    0    0  0.33875335562E+02  0.25301820949E+02 -0.22514840927E+02  0.47902385793E+02  0.00000000000E+00 0.  1.
         13    1    4    4    0    0 -0.49278493266E+02 -0.10491081667E+02 -0.41048863340E+02  0.64988013315E+02  0.00000000000E+00 0. -1.
          2    1    1    2  501    0  0.42451524817E+02 -0.14637097477E+01  0.22261683719E+02  0.47956823994E+02  0.00000000000E+00 0. -1.
<scales pt_clust_5="13000.00000" pt_clust_6="13000.00000" pt_clust_7="13000.00000" pt_clust_8="13000.00000" pt_clust_9="42.47675"></scales>
<clustering>
<clus scale="   42.477">  1  9  2 -1</clus>
<clus scale="   89.763">  5  6 -1 -1</clus>
<clus scale="   90.815">  7  8 -1 -1</clus>
<clus scale="   91.395">  2  5  1 -1</clus>
<clus scale="   42.477">  1  5  2 -1</clus>
</clustering>
</event>
<event>
 9    1  0.3288492E-005  0.9819572E+02  0.7546771E-02  0.1284392E+00
         -4   -1    0    0    0  501 -0.00000000000E+00  0.00000000000E+00  0.82806669756E+02  0.82806669756E+02  0.00000000000E+00 0.  1.
         21   -1    0    0  501  502  0.00000000000E+00 -0.00000000000E+00 -0.53846622451E+03  0.53846622451E+03  0.00000000000E+00 0.  1.
         23    2    1    2    0    0  0.28364452753E+02 -0.17012338984E+02  0.36390283846E+02  0.10317590283E+03  0.90703099773E+02 0.  0.
         23    2    1    2    0    0 -0.72586168049E+02  0.17789720401E+02 -0.35149033597E+03  0.37074320558E+03  0.91213169347E+02 0.  0.
        -11    1    3    3    0    0  0.39816179933E+02 -0.48526787163E+02  0.27184735392E+02  0.68404583875E+02  0.00000000000E+00 0.  1.
         11    1    3    3    0    0 -0.11451727180E+02  0.31514448179E+02  0.92055484537E+01  0.34771318953E+02  0.00000000000E+00 0. -1.
        -11    1    4    4    0    0  0.14858100224E+02  0.21155619696E+02 -0.43894269457E+02  0.50941439694E+02  0.00000000000E+00 0. -1.
         11    1    4    4    0    0 -0.87444268273E+02 -0.33658992948E+01 -0.30759606651E+03  0.31980176589E+03  0.00000000000E+00 0.  1.
         -4    1    1    2    0  502  0.44221715297E+02 -0.77738141693E+00 -0.14055950263E+03  0.14735378585E+03  0.00000000000E+00 0.  1.
<scales pt_clust_5="13000.00000" pt_clust_6="13000.00000" pt_clust_7="13000.00000" pt_clust_8="13000.00000" pt_clust_9="44.22855"></scales>
<clustering>
<clus scale="   44.229">  2  9  1 -1</clus>
<clus scale="   90.703">  5  6 -1 -1</clus>
<clus scale="   91.213">  7  8 -1 -1</clus>
<clus scale="   97.722">  1  5  2 -1</clus>
<clus scale="   44.229">  2  5  1 -1</clus>
</clustering>
</event>
<event>
 9    1  0.3288491E-005  0.6641886E+03  0.7546771E-02  0.1030565E+00
         -1   -1    0    0    0  501 -0.00000000000E+00  0.00000000000E+00  0.11192913590E+04  0.11192913590E+04  0.00000000000E+00 0.  1.
         21   -1    0    0  501  502  0.00000000000E+00 -0.00000000000E+00 -0.49529445132E+03  0.49529445132E+03  0.00000000000E+00 0.  1.
         23    2    1    2    0    0 -0.28820561036E+02 -0.84712905774E+02  0.16966733075E+03  0.21290384754E+03  0.92380431001E+02 0.  0.
         23    2    1    2    0    0 -0.45603819464E+03  0.50175569648E+03  0.19165833198E+03  0.71030009640E+03  0.89798089116E+02 0.  0.
        -11    1    3    3    0    0 -0.58958723718E+02 -0.70066961684E+02  0.14418668253E+03  0.17080781493E+03  0.00000000000E+00 0.  1.
         11    1    3    3    0    0  0.30138162682E+02 -0.14645944090E+02  0.25480648219E+02  0.42096032613E+02  0.00000000000E+00 0. -1.
        -13    1    4    4    0    0 -0.26097711605E+02  0.62026809841E+02  0.34146809180E+02  0.75461382622E+02  0.00000000000E+00 0.  1.
         13    1    4    4    0    0 -0.42994048304E+03  0.43972888664E+03  0.15751152280E+03  0.63483871378E+03  0.00000000000E+00 0. -1.
         -1    1    1    2    0  502  0.48485875568E+03 -0.41704279071E+03  0.26267124496E+03  0.69138186639E+03  0.00000000000E+00 0.  1.
<scales pt_clust_5="13000.00000" pt_clust_6="13000.00000" pt_clust_7="13000.00000" pt_clust_8="13000.00000" pt_clust_9="658.09058"></scales>
<clustering>
<clus scale="   89.798">  7  8 -1 -1</clus>
<clus scale="   92.380">  5  6 -1 -1</clus>
<clus scale="  128.612">  1  5  2 -1</clus>
<clus scale="  658.091">  2  9  1 -1</clus>
<clus scale="  658.091">  2  5  1 -1</clus>
</clustering>
</event>
<event>
 9    1  0.3288491E-005  0.1286546E+03  0.7546771E-02  0.1229622E+00
          2   -1    0    0  502    0 -0.00000000000E+00  0.00000000000E+00  0.12236598473E+03  0.12236598473E+03  0.00000000000E+00 0. -1.
         21   -1    0    0  501  502  0.00000000000E+00 -0.00000000000E+00 -0.22679019099E+03  0.22679019099E+03  0.00000000000E+00 0.  1.
         23    2    1    2    0    0 -0.33784455730E+02 -0.97583641142E+02  0.81503418820E+01  0.13793104392E+03  0.91074630589E+02 0.  0.
         23    2    1    2    0    0  0.26559902648E+02  0.71928418116E+02 -0.27060195236E+02  0.12165343321E+03  0.90488551121E+02 0.  0.
        -11    1    3    3    0    0 -0.53474934815E+02 -0.82657756897E+02 -0.20017777252E+02  0.10046185761E+03  0.00000000000E+00 0.  1.
         11    1    3    3    0    0  0.19690479086E+02 -0.14925884245E+02  0.28168119134E+02  0.37469186309E+02  0.00000000000E+00 0. -1.
        -11    1    4    4    0    0 -0.33655038997E+02  0.20420143618E+02 -0.88373130078E+01  0.40345284935E+02  0.00000000000E+00 0.  1.
         11    1    4    4    0    0  0.60214941645E+02  0.51508274498E+02 -0.18222882228E+02  0.81308148274E+02  0.00000000000E+00 0. -1.
          2    1    1    2  501    0  0.72245530818E+01  0.25655223026E+02 -0.85514352909E+02  0.89571698595E+02  0.00000000000E+00 0. -1.
<scales pt_clust_5="13000.00000" pt_clust_6="13000.00000" pt_clust_7="13000.00000" pt_clust_8="13000.00000" pt_clust_9="26.65304"></scales>
<clustering>
<clus scale="   26.653">  2  9  1 -1</clus>
<clus scale="   90.489">  7  8 -1 -1</clus>
<clus scale="   91.075">  5  6 -1 -1</clus>
<clus scale="  128.240">  2  7  1 -1</clus>
<clus scale="   26.653">  2  5  1 -1</clus>
</clustering>
</event>
<event>
 9    1  0.3288491E-005  0.9268547E+02  0.7546771E-02  0.1297529E+00
         21   -1    0    0  501  502  0.00000000000E+00  0.00000000000E+00  0.26141284676E+03  0.26141284676E+03  0.00000000000E+00 0. -1.
          1   -1    0    0  502    0 -0.00000000000E+00 -0.00000000000E+00 -0.19086954700E+03  0.19086954700E+03  0.00000000000E+00 0. -1.
         23    2    1    2    0    0 -0.17321041432E+02  0.51223970263E+01 -0.10897750950E+03  0.14244587116E+03  0.89935928346E+02 0.  0.
         23    2    1    2    0    0  0.40040148860E+01  0.17953916151E+02 -0.30281600640E+02  0.98349145608E+02  0.91745320666E+02 0.  0.
        -11    1    4    4    0    0  0.62572846004E+01 -0.36519910151E+02 -0.24427929621E+01  0.37132528670E+02  0.00000000000E+00 0.  1.
         11    1    4    4    0    0 -0.22532697144E+01  0.54473826301E+02 -0.27838807678E+02  0.61216616937E+02  0.00000000000E+00 0. -1.
        -11    1    3    3    0    0  0.16139571702E+02  0.25612122703E+02 -0.42001476353E+01  0.30563177915E+02  0.00000000000E+00 0.  1.
         11    1    3    3    0    0 -0.33460613135E+02 -0.20489725677E+02 -0.10477736186E+03  0.11188269325E+03  0.00000000000E+00 0. -1.
          1    1    1    2  501    0  0.13317026546E+02 -0.23076313177E+02  0.20980240990E+03  0.21148737699E+03  0.00000000000E+00 0. -1.
<scales pt_clust_5="13000.00000" pt_clust_6="13000.00000" pt_clust_7="13000.00000" pt_clust_8="13000.00000" pt_clust_9="26.64319"></scales>
<clustering>
<clus scale="   26.643">  1  9  2 -1</clus>
<clus scale="   89.936">  7  8 -1 -1</clus>
<clus scale="   90.895">  2  7  1 -1</clus>
<clus scale="   91.745">  5  6 -1 -1</clus>
<clus scale="   26.643">  1  5  2 -1</clus>
</clustering>
</event>
<event>
 9    1  0.3288491E-005  0.1035824E+03  0.7546771E-02  0.1274452E+00
         21   -1    0    0  501  502  0.00000000000E+00  0.00000000000E+00  0.14575460193E+03  0.14575460193E+03  0.00000000000E+00 0. -1.
          1   -1    0    0  502    0 -0.00000000000E+00 -0.00000000000E+00 -0.20355012174E+03  0.20355012174E+03  0.00000000000E+00 0. -1.
         23    2    1    2    0    0  0.18361801949E+02  0.22430498458E+02 -0.42035299087E+02  0.10032138091E+03  0.86354675996E+02 0.  0.
         23    2    1    2    0    0  0.11617984693E+02 -0.83142230320E+02 -0.87075496016E+02  0.15064428398E+03  0.89799500318E+02 0.  0.
        -11    1    3    3    0    0 -0.23770375720E+02  0.22221380978E+02  0.93643756214E+01  0.33860184070E+02  0.00000000000E+00 0.  1.
         11    1    3    3    0    0  0.42132177669E+02  0.20911747950E+00 -0.51399674709E+02  0.66461196840E+02  0.00000000000E+00 0. -1.
        -13    1    4    4    0    0  0.40186097466E+02 -0.84797125850E+02 -0.72158548173E+02  0.11837369242E+03  0.00000000000E+00 0. -1.
         13    1    4    4    0    0 -0.28568112773E+02  0.16548955306E+01 -0.14916947843E+02  0.32270591559E+02  0.00000000000E+00 0.  1.
          1    1    1    2  501    0 -0.29979786642E+02  0.60711731862E+02  0.71315275292E+02  0.98339058785E+02  0.00000000000E+00 0. -1.
<scales pt_clust_5="13000.00000" pt_clust_6="13000.00000" pt_clust_7="13000.00000" pt_clust_8="13000.00000" pt_clust_9="67.71043"></scales>
<clustering>
<clus scale="   67.710">  1  9  2 -1</clus>
<clus scale="   86.355">  5  6 -1 -1</clus>
<clus scale="   89.800">  7  8 -1 -1</clus>
<clus scale="  100.611">  2  5  1 -1</clus>
<clus scale="   67.710">  1  5  2 -1</clus>
</clustering>
</event>
<event>
 9    1  0.3288491E-005  0.1438980E+03  0.7546771E-02  0.1208505E+00
         21   -1    0    0  501  502  0.00000000000E+00  0.00000000000E+00  0.93450813095E+02  0.93450813095E+02  0.00000000000E+00 0. -1.
          2   -1    0    0  502    0 -0.00000000000E+00 -0.00000000000E+00 -0.91462660034E+03  0.91462660034E+03  0.00000000000E+00 0. -1.
         23    2    1    2    0    0 -0.85274359099E+01  0.10974081343E+03 -0.59727232332E+03  0.61416432685E+03  0.91366453801E+02 0.  0.
         23    2    1    2    0    0  0.13642976137E+03 -0.93545298317E+02 -0.17188952016E+03  0.25489240498E+03  0.89779331417E+02 0.  0.
        -13    1    4    4    0    0  0.12109418611E+03 -0.32822396417E+02 -0.11033070238E+03  0.16707476022E+03  0.00000000000E+00 0. -1.
         13    1    4    4    0    0  0.15335575261E+02 -0.60722901899E+02 -0.61558817778E+02  0.87817644753E+02  0.00000000000E+00 0.  1.
        -13    1    3    3    0    0 -0.49732694051E+02  0.66811527394E+02 -0.36634474394E+03  0.37569348206E+03  0.00000000000E+00 0.  1.
         13    1    3    3    0    0  0.41205258142E+02  0.42929286033E+02 -0.23092757938E+03  0.23847084479E+03  0.00000000000E+00 0. -1.
          2    1    1    2  501    0 -0.12790232546E+03 -0.16195515111E+02 -0.52013943766E+02  0.13902068160E+03  0.00000000000E+00 0. -1.
<scales pt_clust_5="13000.00000" pt_clust_6="13000.00000" pt_clust_7="13000.00000" pt_clust_8="13000.00000" pt_clust_9="128.92362"></scales>
<clustering>
<clus scale="   89.779">  5  6 -1 -1</clus>
<clus scale="   91.366">  7  8 -1 -1</clus>
<clus scale="  128.924">  1  9  2 -1</clus>
<clus scale="  142.896">  1  5  2 -1</clus>
<clus scale="  128.924">  1  5  2 -1</clus>
</clustering>
</event>
<event>
 9    1  0.3288491E-005  0.1611946E+03  0.7546771E-02  0.1187916E+00
         -1   -1    0    0    0  501 -0.00000000000E+00  0.00000000000E+00  0.97386909804E+03  0.97386909804E+03  0.00000000000E+00 0.  1.
         21   -1    0    0  501  502  0.00000000000E+00 -0.00000000000E+00 -0.48400596698E+02  0.48400596698E+02  0.00000000000E+00 0.  1.
         23    2    1    2    0    0  0.60673165556E+02 -0.12835351695E+03  0.58686041226E+03  0.61020752136E+03  0.88273536896E+02 0.  0.
         23    2    1    2    0    0  0.14597034794E+02  0.12682320395E+03  0.25467228392E+03  0.29930950464E+03  0.91820525410E+02 0.  0.
        -13    1    4    4    0    0  0.44393144223E+02  0.11527608868E+03  0.21884723974E+03  0.25130348628E+03  0.00000000000E+00 0.  1.
         13    1    4    4    0    0 -0.29796109430E+02  0.11547115269E+02  0.35825044178E+02  0.48006018357E+02  0.00000000000E+00 0. -1.
        -13    1    3    3    0    0  0.18147384865E+02 -0.11954949416E+03  0.37760643427E+03  0.39649467630E+03  0.00000000000E+00 0. -1.
         13    1    3    3    0    0  0.42525780691E+02 -0.88040227964E+01  0.20925397799E+03  0.21371284506E+03  0.00000000000E+00 0.  1.
         -1    1    1    2    0  502 -0.75270200350E+02  0.15303130034E+01  0.83935805162E+02  0.11275266873E+03  0.00000000000E+00 0.  1.
<scales pt_clust_5="13000.00000" pt_clust_6="13000.00000" pt_clust_7="13000.00000" pt_clust_8="13000.00000" pt_clust_9="75.28576"></scales>
<clustering>
<clus scale="   75.286">  2  9  1 -1</clus>
<clus scale="   88.274">  7  8 -1 -1</clus>
<clus scale="   91.821">  5  6 -1 -1</clus>
<clus scale="  159.201">  1  7  2 -1</clus>
<clus scale="   75.286">  2  5  1 -1</clus>
</clustering>
</event>
<event>
 9    1  0.3288491E-005  0.1044750E+03  0.7546771E-02  0.1272194E+00
         21   -1    0    0  501  502  0.00000000000E+00  0.00000000000E+00  0.22061264909E+03  0.22061264909E+03  0.00000000000E+00 0.  1.
         -1   -1    0    0    0  501 -0.00000000000E+00 -0.00000000000E+00 -0.12218160600E+03  0.12218160600E+03  0.00000000000E+00 0.  1.
         23    2    1    2    0    0  0.36441205125E+02 -0.20500331299E+02 -0.18714586958E+02  0.10291106932E+03  0.92153282145E+02 0.  0.
         23    2    1    2    0    0 -0.15286977490E+02  0.69033865443E+02  0.33174397518E+01  0.11434489604E+03  0.89801913037E+02 0.  0.
        -13    1    4    4    0    0 -0.24429350793E+02  0.30949612170E+01  0.33233334977E+02  0.41362138712E+02  0.00000000000E+00 0. -1.
         13    1    4    4    0    0  0.91423733037E+01  0.65938904226E+02 -0.29915895225E+02  0.72982757328E+02  0.00000000000E+00 0.  1.
        -13    1    3    3    0    0  0.46157350492E+02 -0.48526637271E+02 -0.26847706842E+02  0.72153550792E+02  0.00000000000E+00 0.  1.
         13    1    3    3    0    0 -0.97161453670E+01  0.28026305972E+02  0.81331198840E+01  0.30757518532E+02  0.00000000000E+00 0. -1.
         -1    1    1    2    0  502 -0.21154227636E+02 -0.48533534144E+02  0.11382819029E+03  0.12553828973E+03  0.00000000000E+00 0.  1.
<scales pt_clust_5="13000.00000" pt_clust_6="13000.00000" pt_clust_7="13000.00000" pt_clust_8="13000.00000" pt_clust_9="52.94342"></scales>
<clustering>
<clus scale="   52.943">  1  9  2 -1</clus>
<clus scale="   89.802">  5  6 -1 -1</clus>
<clus scale="   92.153">  7  8 -1 -1</clus>
<clus scale="  102.407">  1  5  2 -1</clus>
<clus scale="   52.943">  1  5  2 -1</clus>
</clustering>
</event>
<event>
 9    1  0.3288491E-005  0.1197057E+03  0.7546771E-02  0.1243637E+00
          4   -1    0    0  502    0 -0.00000000000E+00  0.00000000000E+00  0.79075116571E+02  0.79075116571E+02  0.00000000000E+00 0. -1.
         21   -1    0    0  501  502  0.00000000000E+00 -0.00000000000E+00 -0.37133370645E+03  0.37133370645E+03  0.00000000000E+00 0. -1.
         23    2    1    2    0    0 -0.20141738580E+02  0.69554596969E+02 -0.23416428843E+02  0.11867446660E+03  0.91059147205E+02 0.  0.
         23    2    1    2    0    0  0.54635594315E+02 -0.73707247864E+02 -0.11155189703E+03  0.17065270711E+03  0.90888470998E+02 0.  0.
        -11    1    3    3    0    0  0.16775906757E+02 -0.15984480140E+02 -0.42831839971E+01  0.23564386646E+02  0.00000000000E+00 0.  1.
         11    1    3    3    0    0 -0.36917645338E+02  0.85539077108E+02 -0.19133244846E+02  0.95110079950E+02  0.00000000000E+00 0. -1.
        -11    1    4    4    0    0  0.60433415354E+02 -0.75685439829E+01 -0.39072040388E+02  0.72360934830E+02  0.00000000000E+00 0. -1.
         11    1    4    4    0    0 -0.57978210392E+01 -0.66138703881E+02 -0.72479856639E+02  0.98291772282E+02  0.00000000000E+00 0.  1.
          4    1    1    2  501    0 -0.34493855734E+02  0.41526508958E+01 -0.15729026401E+03  0.16108164931E+03  0.00000000000E+00 0. -1.
<scales pt_clust_5="13000.00000" pt_clust_6="13000.00000" pt_clust_7="13000.00000" pt_clust_8="13000.00000" pt_clust_9="34.74292"></scales>
<clustering>
<clus scale="   34.743">  2  9  1 -1</clus>
<clus scale="   90.888">  7  8 -1 -1</clus>
<clus scale="   91.059">  5  6 -1 -1</clus>
<clus scale="  119.576">  2  7  1 -1</clus>
<clus scale="   34.743">  2  5  1 -1</clus>
</clustering>
</event>
<event>
 9    1  0.3288491E-005  0.1231480E+03  0.7546771E-02  0.1238330E+00
         21   -1    0    0  501  502  0.00000000000E+00  0.00000000000E+00  0.97894350301E+02  0.97894350301E+02  0.00000000000E+00 0. -1.
          1   -1    0    0  502    0 -0.00000000000E+00 -0.00000000000E+00 -0.76188950064E+03  0.76188950064E+03  0.00000000000E+00 0. -1.
         23    2    1    2    0    0  0.29586114441E+02  0.53376480901E+02 -0.30603247864E+03  0.32462874361E+03  0.89462597294E+02 0.  0.
         23    2    1    2    0    0 -0.12066031886E+03 -0.53743883969E+02 -0.40291708435E+03  0.43358963626E+03  0.90611689095E+02 0.  0.
        -11    1    3    3    0    0  0.36168885113E+02 -0.11964774571E+02 -0.70773181562E+02  0.80375290415E+02  0.00000000000E+00 0.  1.
         11    1    3    3    0    0 -0.65827706724E+01  0.65341255473E+02 -0.23525929707E+03  0.24425345319E+03  0.00000000000E+00 0. -1.
        -11    1    4    4    0    0 -0.87976009047E+02 -0.76497823653E+02 -0.25467127284E+03  0.28008775839E+03  0.00000000000E+00 0.  1.
         11    1    4    4    0    0 -0.32684309817E+02  0.22753939684E+02 -0.14824581151E+03  0.15350187787E+03  0.00000000000E+00 0. -1.
          1    1    1    2  501    0  0.91074204423E+02  0.36740306806E+00  0.44954412652E+02  0.10156547107E+03  0.00000000000E+00 0. -1.
<scales pt_clust_5="13000.00000" pt_clust_6="13000.00000" pt_clust_7="13000.00000" pt_clust_8="13000.00000" pt_clust_9="91.07495"></scales>
<clustering>
<clus scale="   89.463">  5  6 -1 -1</clus>
<clus scale="   90.612">  7  8 -1 -1</clus>
<clus scale="   91.075">  1  9  2 -1</clus>
<clus scale="  122.305">  2  5  1 -1</clus>
<clus scale="   91.075">  1  5  2 -1</clus>
</clustering>
</event>
<event>
 9    1  0.3288491E-005  0.9914880E+02  0.7546771E-02  0.1282823E+00
         21   -1    0    0  501  502  0.00000000000E+00  0.00000000000E+00  0.11702707111E+03  0.11702707111E+03  0.00000000000E+00 0. -1.
         -1   -1    0    0    0  501 -0.00000000000E+00 -0.00000000000E+00 -0.13641125527E+03  0.13641125527E+03  0.00000000000E+00 0.  1.
         23    2    1    2    0    0  0.37078691772E+02  0.47001047116E+01 -0.50850861630E+02  0.11164879115E+03  0.92101694172E+02 0.  0.
         23    2    1    2    0    0 -0.35713523153E+02  0.16191634083E+02 -0.59239258273E+01  0.98936464734E+02  0.90640534015E+02 0.  0.
        -11    1    3    3    0    0 -0.87475035423E+01  0.18894902475E+02 -0.59377764700E+02  0.62922611981E+02  0.00000000000E+00 0. -1.
         11    1    3    3    0    0  0.45826195315E+02 -0.14194797763E+02  0.85269030702E+01  0.48726179170E+02  0.00000000000E+00 0.  1.
        -13    1    4    4    0    0 -0.34552474800E+02 -0.33833682756E+02 -0.71380093655E+01  0.48882949802E+02  0.00000000000E+00 0.  1.
         13    1    4    4    0    0 -0.11610483529E+01  0.50025316839E+02  0.12140835382E+01  0.50053514931E+02  0.00000000000E+00 0. -1.
         -1    1    1    2    0  502 -0.13651686194E+01 -0.20891738794E+02  0.37390603299E+02  0.42853070489E+02  0.00000000000E+00 0.  1.
<scales pt_clust_5="13000.00000" pt_clust_6="13000.00000" pt_clust_7="13000.00000" pt_clust_8="13000.00000" pt_clust_9="20.93629"></scales>
<clustering>
<clus scale="   20.936">  1  9  2 -1</clus>
<clus scale="   90.641">  7  8 -1 -1</clus>
<clus scale="   92.102">  5  6 -1 -1</clus>
<clus scale="   97.793">  1  7  2 -1</clus>
<clus scale="   20.936">  1  5  2 -1</clus>
</clustering>
</event>
<event>
 9    1  0.3288491E-005  0.1152192E+03  0.7546771E-02  0.1251216E+00
         21   -1    0    0  501  502  0.00000000000E+00  0.00000000000E+00  0.40498520090E+03  0.40498520090E+03  0.00000000000E+00 0.  1.
          1   -1    0    0  502    0 -0.00000000000E+00 -0.00000000000E+00 -0.15063713590E+03  0.15063713590E+03  0.00000000000E+00 0. -1.
         23    2    1    2    0    0  0.22628922692E+02  0.63797291338E+02 -0.10936425807E+03  0.15811592984E+03  0.91967079995E+02 0.  0.
         23    2    1    2    0    0 -0.13285501165E+02 -0.87583728949E+02  0.24747496761E+03  0.27849289116E+03  0.92016393733E+02 0.  0.
        -11    1    3    3    0    0 -0.32757051021E+02  0.95885338003E+01 -0.49786074299E+02  0.60362385358E+02  0.00000000000E+00 0.  1.
         11    1    3    3    0    0  0.55385973713E+02  0.54208757538E+02 -0.59578183770E+02  0.97753544484E+02  0.00000000000E+00 0. -1.
        -11    1    4    4    0    0  0.22210048457E+02 -0.14917891513E+02  0.14748312513E+03  0.14989029968E+03  0.00000000000E+00 0. -1.
         11    1    4    4    0    0 -0.35495549622E+02 -0.72665837436E+02  0.99991842481E+02  0.12860259148E+03  0.00000000000E+00 0.  1.
          1    1    1    2  501    0 -0.93434215270E+01  0.23786437611E+02  0.11623735545E+03  0.11901351580E+03  0.00000000000E+00 0. -1.
<scales pt_clust_5="13000.00000" pt_clust_6="13000.00000" pt_clust_7="13000.00000" pt_clust_8="13000.00000" pt_clust_9="25.55571"></scales>
<clustering>
<clus scale="   25.556">  1  9  2 -1</clus>
<clus scale="   91.967">  5  6 -1 -1</clus>
<clus scale="   92.016">  7  8 -1 -1</clus>
<clus scale="  115.180">  2  5  1 -1</clus>
<clus scale="   25.556">  1  5  2 -1</clus>
</clustering>
</event>
<event>
 9    1  0.3288491E-005  0.1334196E+03  0.7546771E-02  0.1223332E+00
          2   -1    0    0  502    0 -0.00000000000E+00  0.00000000000E+00  0.23876160227E+03  0.23876160227E+03  0.00000000000E+00 0. -1.
         21   -1    0    0  501  502  0.00000000000E+00 -0.00000000000E+00 -0.11951884737E+03  0.11951884737E+03  0.00000000000E+00 0. -1.
         23    2    1    2    0    0 -0.10382483587E+03 -0.15585247790E+01  0.15494866638E+03  0.20759747884E+03  0.91135056177E+02 0.  0.
         23    2    1    2    0    0  0.78458772994E+02 -0.10027261232E+02 -0.33595442051E+02  0.12271653262E+03  0.87603473818E+02 0.  0.
        -13    1    4    4    0    0  0.44855834414E+02  0.18664775366E+02 -0.55196867099E+02  0.73533080025E+02  0.00000000000E+00 0.  1.
         13    1    4    4    0    0  0.33602938579E+02 -0.28692036598E+02  0.21601425048E+02  0.49183452598E+02  0.00000000000E+00 0. -1.
        -13    1    3    3    0    0 -0.52488476704E+02  0.27764130875E+02  0.24232712459E+02  0.64133544289E+02  0.00000000000E+00 0. -1.
         13    1    3    3    0    0 -0.51336359169E+02 -0.29322655654E+02  0.13071595392E+03  0.14346393455E+03  0.00000000000E+00 0.  1.
          2    1    1    2  501    0  0.25366062880E+02  0.11585786011E+02 -0.21104694288E+01  0.27966438184E+02  0.00000000000E+00 0. -1.
<scales pt_clust_5="13000.00000" pt_clust_6="13000.00000" pt_clust_7="13000.00000" pt_clust_8="13000.00000" pt_clust_9="27.88669"></scales>
<clustering>
<clus scale="   27.887">  2  9  1 -1</clus>
<clus scale="   87.603">  5  6 -1 -1</clus>
<clus scale="   91.135">  7  8 -1 -1</clus>
<clus scale="  131.033">  2  5  1 -1</clus>
<clus scale="   27.887">  2  5  1 -1</clus>
</clustering>
</event>
<event>
 9    1  0.3288491E-005  0.9296408E+02  0.7546771E-02  0.1295850E+00
         -2   -1    0    0    0  501 -0.00000000000E+00  0.00000000000E+00  0.24975776283E+03  0.24975776283E+03  0.00000000000E+00 0.  1.
         21   -1    0    0  501  502  0.00000000000E+00 -0.00000000000E+00 -0.62205408641E+02  0.62205408641E+02  0.00000000000E+00 0. -1.
         23    2    1    2    0    0 -0.26671741179E+02 -0.59842372891E+01  0.86565228342E+02  0.12831985655E+03  0.90693185812E+02 0.  0.
         23    2    1    2    0    0 -0.17901796589E+01  0.22687228453E+02  0.19160261820E+02  0.95412330977E+02  0.90655844773E+02 0.  0.
        -11    1    3    3    0    0 -0.26657310984E+02  0.36671050116E+02  0.68165744184E+02  0.81865418985E+02  0.00000000000E+00 0. -1.
         11    1    3    3    0    0 -0.14430195199E-01 -0.42655287405E+02  0.18399484158E+02  0.46454437561E+02  0.00000000000E+00 0.  1.
        -11    1    4    4    0    0  0.70731611293E+01  0.52255086264E+02 -0.91600628355E+01  0.53521307906E+02  0.00000000000E+00 0. -1.
         11    1    4    4    0    0 -0.88633407881E+01 -0.29567857810E+02  0.28320324655E+02  0.41891023072E+02  0.00000000000E+00 0.  1.
         -2    1    1    2    0  502  0.28461920838E+02 -0.16702991164E+02  0.81826864025E+02  0.88230983944E+02  0.00000000000E+00 0.  1.
<scales pt_clust_5="13000.00000" pt_clust_6="13000.00000" pt_clust_7="13000.00000" pt_clust_8="13000.00000" pt_clust_9="33.00109"></scales>
<clustering>
<clus scale="   33.001">  2  9  1 -1</clus>
<clus scale="   90.656">  7  8 -1 -1</clus>
<clus scale="   90.693">  5  6 -1 -1</clus>
<clus scale="   92.928">  2  7  1 -1</clus>
<clus scale="   33.001">  2  5  1 -1</clus>
</clustering>
</event>
<event>
 9    1  0.3288491E-005  0.1034422E+03  0.7546771E-02  0.1275789E+00
         -2   -1    0    0    0  501 -0.00000000000E+00  0.00000000000E+00  0.29193389928E+03  0.29193389928E+03  0.00000000000E+00 0.  1.
         21   -1    0    0  501  502  0.00000000000E+00 -0.00000000000E+00 -0.12509163305E+03  0.12509163305E+03  0.00000000000E+00 0.  1.
         23    2    1    2    0    0  0.39330831662E+02  0.24831388371E+02  0.16243363087E+03  0.19121254744E+03  0.89521180129E+02 0.  0.
         23    2    1    2    0    0 -0.36302126749E+02 -0.52369666259E+02  0.88369729083E+02  0.13739921298E+03  0.83719223361E+02 0.  0.
        -11    1    4    4    0    0  0.20153202234E+02 -0.40688282197E+02  0.25411634871E+02  0.52033057332E+02  0.00000000000E+00 0. -1.
         11    1    4    4    0    0 -0.56455328983E+02 -0.11681384061E+02  0.62958094212E+02  0.85366155653E+02  0.00000000000E+00 0.  1.
        -13    1    3    3    0    0  0.11723346857E+02 -0.23569109017E+02  0.11519001065E+03  0.11815954602E+03  0.00000000000E+00 0.  1.
         13    1    3    3    0    0  0.27607484805E+02  0.48400497388E+02  0.47243620218E+02  0.73053001417E+02  0.00000000000E+00 0. -1.
         -2    1    1    2    0  502 -0.30287049125E+01  0.27538277887E+02 -0.83961093728E+02  0.88413771905E+02  0.00000000000E+00 0.  1.
<scales pt_clust_5="13000.00000" pt_clust_6="13000.00000" pt_clust_7="13000.00000" pt_clust_8="13000.00000" pt_clust_9="27.70433"></scales>
<clustering>
<clus scale="   27.704">  2  9  1 -1</clus>
<clus scale="   83.719">  5  6 -1 -1</clus>
<clus scale="   89.521">  7  8 -1 -1</clus>
<clus scale="   98.464">  2  5  1 -1</clus>
<clus scale="   27.704">  2  5  1 -1</clus>
</clustering>
</event>
<event>
 9    1  0.3288491E-005  0.1029165E+03  0.7546771E-02  0.1275336E+00
         -2   -1    0    0    0  501 -0.00000000000E+00  0.00000000000E+00  0.32510945716E+02  0.32510945716E+02  0.00000000000E+00 0.  1.
         21   -1    0    0  501  502  0.00000000000E+00 -0.00000000000E+00 -0.43467497145E+03  0.43467497145E+03  0.00000000000E+00 0. -1.
         23    2    1    2    0    0 -0.17261818566E+02 -0.41762552391E+02 -0.11910810211E+03  0.15862916447E+03  0.94521905759E+02 0.  0.
         23    2    1    2    0    0  0.29439104404E+02  0.22053646303E+02 -0.22019535694E+03  0.24156288647E+03  0.92269218681E+02 0.  0.
        -13    1    4    4    0    0  0.42870181490E+02 -0.20846828624E+02 -0.15651818606E+03  0.16361658012E+03  0.00000000000E+00 0. -1.
         13    1    4    4    0    0 -0.13431077086E+02  0.42900474928E+02 -0.63677170884E+02  0.77946306343E+02  0.00000000000E+00 0.  1.
        -13    1    3    3    0    0 -0.45626277822E+02 -0.12435848096E+01 -0.24332884551E+02  0.51724201314E+02  0.00000000000E+00 0.  1.
         13    1    3    3    0    0  0.28364459256E+02 -0.40518967582E+02 -0.94775217564E+02  0.10690496315E+03  0.00000000000E+00 0. -1.
         -2    1    1    2    0  502 -0.12177285838E+02  0.19708906088E+02 -0.62860566683E+02  0.66993866236E+02  0.00000000000E+00 0.  1.
<scales pt_clust_5="13000.00000" pt_clust_6="13000.00000" pt_clust_7="13000.00000" pt_clust_8="13000.00000" pt_clust_9="23.16738"></scales>
<clustering>
<clus scale="   23.167">  2  9  1 -1</clus>
<clus scale="   92.269">  5  6 -1 -1</clus>
<clus scale="   94.522">  7  8 -1 -1</clus>
<clus scale="  100.851">  2  5  1 -1</clus>
<clus scale="   23.167">  2  5  1 -1</clus>
</clustering>
</event>
<event>
 9    1  0.3288491E-005  0.9546554E+02  0.7546771E-02  0.1293111E+00
         21   -1    0    0  501  502  0.00000000000E+00  0.00000000000E+00  0.21117295206E+03  0.21117295206E+03  0.00000000000E+00 0.  1.
          1   -1    0    0  502    0 -0.00000000000E+00 -0.00000000000E+00 -0.53052529680E+02  0.53052529680E+02  0.00000000000E+00 0. -1.
         23    2    1    2    0    0  0.20384305896E+02 -0.19465193964E+02  0.55584652065E+02  0.11054157384E+03  0.91298260113E+02 0.  0.
         23    2    1    2    0    0 -0.31814462233E+02  0.95199479045E+00  0.73685489499E+02  0.11754908092E+03  0.85878802747E+02 0.  0.
        -11    1    4    4    0    0 -0.35022126312E+02 -0.37464518498E+02  0.53198171491E+02  0.73893064138E+02  0.00000000000E+00 0. -1.
         11    1    4    4    0    0  0.32076640796E+01  0.38416513289E+02  0.20487318008E+02  0.43656016782E+02  0.00000000000E+00 0.  1.
        -13    1    3    3    0    0  0.34465826557E+02 -0.43113897758E+02  0.61238708290E+02  0.82443197252E+02  0.00000000000E+00 0.  1.
         13    1    3    3    0    0 -0.14081520661E+02  0.23648703795E+02 -0.56540562243E+01  0.28098376591E+02  0.00000000000E+00 0. -1.
          1    1    1    2  501    0  0.11430156337E+02  0.18513199173E+02  0.28850280820E+02  0.36134826981E+02  0.00000000000E+00 0. -1.
<scales pt_clust_5="13000.00000" pt_clust_6="13000.00000" pt_clust_7="13000.00000" pt_clust_8="13000.00000" pt_clust_9="21.75746"></scales>
<clustering>
<clus scale="   21.757">  1  9  2 -1</clus>
<clus scale="   85.879">  5  6 -1 -1</clus>
<clus scale="   90.297">  1  5  2 -1</clus>
<clus scale="   91.298">  7  8 -1 -1</clus>
<clus scale="   21.757">  1  5  2 -1</clus>
</clustering>
</event>
<event>
 9    1  0.3288491E-005  0.9304837E+02  0.7546771E-02  0.1296590E+00
         21   -1    0    0  501  502  0.00000000000E+00  0.00000000000E+00  0.72382610859E+02  0.72382610859E+02  0.00000000000E+00 0. -1.
          1   -1    0    0  502    0 -0.00000000000E+00 -0.00000000000E+00 -0.43519637037E+03  0.43519637037E+03  0.00000000000E+00 0. -1.
         23    2    1    2    0    0 -0.50970677389E+01 -0.27626801394E+02 -0.28282944535E+03  0.29791975001E+03  0.89299843435E+02 0.  0.
         23    2    1    2    0    0  0.32573559010E+01  0.23146410582E+01 -0.12697515520E+03  0.15625296621E+03  0.90974345180E+02 0.  0.
        -11    1    3    3    0    0 -0.17856652908E+02  0.28956080528E+02 -0.79362200820E+02  0.86346242371E+02  0.00000000000E+00 0. -1.
         11    1    3    3    0    0  0.12759585169E+02 -0.56582881923E+02 -0.20346724453E+03  0.21157350764E+03  0.00000000000E+00 0.  1.
        -11    1    4    4    0    0  0.16290835749E+02  0.41324918617E+02 -0.92393818476E+02  0.10251711038E+03  0.00000000000E+00 0. -1.
         11    1    4    4    0    0 -0.13033479848E+02 -0.39010277559E+02 -0.34581336722E+02  0.53735855829E+02  0.00000000000E+00 0.  1.
          1    1    1    2  501    0  0.18397118379E+01  0.25312160336E+02  0.46990841036E+02  0.53406265005E+02  0.00000000000E+00 0. -1.
<scales pt_clust_5="13000.00000" pt_clust_6="13000.00000" pt_clust_7="13000.00000" pt_clust_8="13000.00000" pt_clust_9="25.37893"></scales>
<clustering>
<clus scale="   25.379">  1  9  2 -1</clus>
<clus scale="   89.300">  5  6 -1 -1</clus>
<clus scale="   90.974">  7  8 -1 -1</clus>
<clus scale="   91.412">  2  5  1 -1</clus>
<clus scale="   25.379">  1  5  2 -1</clus>
</clustering>
</event>
<event>
 9    1  0.3288491E-005  0.1031949E+03  0.7546771E-02  0.1276128E+00
         21   -1    0    0  501  502  0.00000000000E+00  0.00000000000E+00  0.70495226742E+02  0.70495226742E+02  0.00000000000E+00 0.  1.
          2   -1    0    0  502    0 -0.00000000000E+00 -0.00000000000E+00 -0.39316701789E+03  0.39316701789E+03  0.00000000000E+00 0. -1.
         23    2    1    2    0    0 -0.30897786798E+02  0.24127676734E+02 -0.26913452089E+03  0.28572949549E+03  0.87585022948E+02 0.  0.
         23    2    1    2    0    0  0.76002432704E+02 -0.29944754161E+02 -0.32548660739E+02  0.12784493424E+03  0.92800074447E+02 0.  0.
        -11    1    3    3    0    0 -0.21122400331E+02 -0.26865337358E+02 -0.50240873548E+02  0.60762221174E+02  0.00000000000E+00 0. -1.
         11    1    3    3    0    0 -0.97753864667E+01  0.50993014092E+02 -0.21889364734E+03  0.22496727431E+03  0.00000000000E+00 0.  1.
        -13    1    4    4    0    0  0.75666011565E+02 -0.50794126432E+02 -0.23720988848E+01  0.91164770823E+02  0.00000000000E+00 0.  1.
         13    1    4    4    0    0  0.33642113925E+00  0.20849372271E+02 -0.30176561854E+02  0.36680163421E+02  0.00000000000E+00 0. -1.
          2    1    1    2  501    0 -0.45104645906E+02  0.58170774268E+01 -0.20988609526E+02  0.50087814905E+02  0.00000000000E+00 0. -1.
<scales pt_clust_5="13000.00000" pt_clust_6="13000.00000" pt_clust_7="13000.00000" pt_clust_8="13000.00000" pt_clust_9="45.47821"></scales>
<clustering>
<clus scale="   45.478">  1  9  2 -1</clus>
<clus scale="   87.585">  5  6 -1 -1</clus>
<clus scale="   92.800">  7  8 -1 -1</clus>
<clus scale="   98.532">  2  5  1 -1</clus>
<clus scale="   45.478">  1  5  2 -1</clus>
</clustering>
</event>
<event>
 9    1  0.3288491E-005  0.9991147E+02  0.7546771E-02  0.1283007E+00
          1   -1    0    0  502    0 -0.00000000000E+00  0.00000000000E+00  0.28038427894E+03  0.28038427894E+03  0.00000000000E+00 0. -1.
         21   -1    0    0  501  502  0.00000000000E+00 -0.00000000000E+00 -0.11845420076E+03  0.11845420076E+03  0.00000000000E+00 0. -1.
         23    2    1    2    0    0  0.31090419654E+02 -0.32429742432E+02  0.20021141329E+03  0.22224860636E+03  0.85390459827E+02 0.  0.
         23    2    1    2    0    0 -0.37868125345E+02  0.77094221376E+01  0.30579604849E+02  0.10311293422E+03  0.90574471369E+02 0.  0.
        -11    1    4    4    0    0 -0.30752508455E+02  0.46934982114E+02  0.63722934702E+01  0.56473139158E+02  0.00000000000E+00 0.  1.
         11    1    4    4    0    0 -0.71156168901E+01 -0.39225559976E+02  0.24207311379E+02  0.46639795061E+02  0.00000000000E+00 0. -1.
        -13    1    3    3    0    0  0.44682170092E+02  0.13866372967E+02  0.11781883369E+03  0.12676770170E+03  0.00000000000E+00 0.  1.
         13    1    3    3    0    0 -0.13591750437E+02 -0.46296115399E+02  0.82392579605E+02  0.95480904662E+02  0.00000000000E+00 0. -1.
          1    1    1    2  501    0  0.67777056913E+01  0.24720320295E+02 -0.68860939963E+02  0.73476939120E+02  0.00000000000E+00 0. -1.
<scales pt_clust_5="13000.00000" pt_clust_6="13000.00000" pt_clust_7="13000.00000" pt_clust_8="13000.00000" pt_clust_9="25.63263"></scales>
<clustering>
<clus scale="   25.633">  2  9  1 -1</clus>
<clus scale="   85.390">  7  8 -1 -1</clus>
<clus scale="   90.574">  5  6 -1 -1</clus>
<clus scale="   95.237">  1  7  2 -1</clus>
<clus scale="   25.633">  2  5  1 -1</clus>
</clustering>
</event>
<event>
 9    1  0.3288491E-005  0.1016807E+03  0.7546771E-02  0.1278750E+00
          1   -1    0    0  502    0 -0.00000000000E+00  0.00000000000E+00  0.38766988659E+03  0.38766988659E+03  0.00000000000E+00 0. -1.
         21   -1    0    0  501  502  0.00000000000E+00 -0.00000000000E+00 -0.38847405906E+02  0.38847405906E+02  0.00000000000E+00 0.  1.
         23    2    1    2    0    0 -0.43511157709E+02  0.11540413418E+02  0.17880524921E+03  0.20641639403E+03  0.92790131991E+02 0.  0.
         23    2    1    2    0    0  0.38393682209E+02  0.26435591717E+02  0.13550755974E+03  0.16853266246E+03  0.88701996736E+02 0.  0.
        -11    1    4    4    0    0 -0.87826274471E+00  0.51638820974E+02  0.54769994781E+02  0.75280087044E+02  0.00000000000E+00 0.  1.
         11    1    4    4    0    0  0.39271944953E+02 -0.25203229258E+02  0.80737564962E+02  0.93252575415E+02  0.00000000000E+00 0. -1.
        -13    1    3    3    0    0 -0.51883276057E+02 -0.26619170708E+02  0.71766132668E+02  0.92470710939E+02  0.00000000000E+00 0. -1.
         13    1    3    3    0    0  0.83721183483E+01  0.38159584126E+02  0.10703911654E+03  0.11394568309E+03  0.00000000000E+00 0.  1.
          1    1    1    2  501    0  0.51174754999E+01 -0.37976005135E+02  0.34509671736E+02  0.51568236006E+02  0.00000000000E+00 0. -1.
<scales pt_clust_5="13000.00000" pt_clust_6="13000.00000" pt_clust_7="13000.00000" pt_clust_8="13000.00000" pt_clust_9="38.31926"></scales>
<clustering>
<clus scale="   38.319">  2  9  1 -1</clus>
<clus scale="   88.702">  5  6 -1 -1</clus>
<clus scale="   92.790">  7  8 -1 -1</clus>
<clus scale="   97.964">  2  5  1 -1</clus>
<clus scale="   38.319">  2  5  1 -1</clus>
</clustering>
</event>
<event>
 9    1  0.3288491E-005  0.9783783E+02  0.7546771E-02  0.1285440E+00
         -3   -1    0    0    0  501 -0.00000000000E+00  0.00000000000E+00  0.41796000964E+03  0.41796000964E+03  0.00000000000E+00 0.  1.
         21   -1    0    0  501  502  0.00000000000E+00 -0.00000000000E+00 -0.46570380343E+02  0.46570380343E+02  0.00000000000E+00 0. -1.
         23    2    1    2    0    0 -0.20343962749E+02  0.13820091656E+02  0.16919265275E+03  0.19420736431E+03  0.92116637222E+02 0.  0.
         23    2    1    2    0    0  0.45181286820E+02  0.34385605277E+02  0.18419810905E+03  0.21318598764E+03  0.91080203229E+02 0.  0.
        -11    1    4    4    0    0  0.61542369825E+02  0.47077226288E+02  0.10014829643E+03  0.12662310135E+03  0.00000000000E+00 0. -1.
         11    1    4    4    0    0 -0.16361083004E+02 -0.12691621011E+02  0.84049812624E+02  0.86562886292E+02  0.00000000000E+00 0.  1.
        -13    1    3    3    0    0 -0.30867490838E+02 -0.27333371755E+02  0.37141719735E+02  0.55492544968E+02  0.00000000000E+00 0.  1.
         13    1    3    3    0    0  0.10523528090E+02  0.41153463412E+02  0.13205093302E+03  0.13871481934E+03  0.00000000000E+00 0. -1.
         -3    1    1    2    0  502 -0.24837324072E+02 -0.48205696933E+02  0.17998867493E+02  0.57137038031E+02  0.00000000000E+00 0.  1.
<scales pt_clust_5="13000.00000" pt_clust_6="13000.00000" pt_clust_7="13000.00000" pt_clust_8="13000.00000" pt_clust_9="54.22805"></scales>
<clustering>
<clus scale="   54.228">  2  9  1 -1</clus>
<clus scale="   91.080">  5  6 -1 -1</clus>
<clus scale="   92.117">  7  8 -1 -1</clus>
<clus scale="   96.863">  2  5  1 -1</clus>
<clus scale="   54.228">  2  5  1 -1</clus>
</clustering>
</event>
<event>
 9    1  0.3288491E-005  0.9531755E+02  0.7546771E-02  0.1292458E+00
         21   -1    0    0  501  502  0.00000000000E+00  0.00000000000E+00  0.37497464069E+02  0.37497464069E+02  0.00000000000E+00 0. -1.
          2   -1    0    0  502    0 -0.00000000000E+00 -0.00000000000E+00 -0.44307899466E+03  0.44307899466E+03  0.00000000000E+00 0. -1.
         23    2    1    2    0    0  0.22588285980E+02 -0.24592247300E+02 -0.26393897117E+03  0.27884030958E+03  0.83505260039E+02 0.  0.
         23    2    1    2    0    0 -0.62299899536E+01  0.57937218454E+02 -0.11682540139E+03  0.15706655901E+03  0.87328091088E+02 0.  0.
        -13    1    3    3    0    0 -0.65119441850E+01 -0.47990922777E+02 -0.18909592461E+03  0.19519939240E+03  0.00000000000E+00 0. -1.
         13    1    3    3    0    0  0.29100230165E+02  0.23398675478E+02 -0.74843046553E+02  0.83640917182E+02  0.00000000000E+00 0.  1.
        -13    1    4    4    0    0 -0.23735144931E+02 -0.42483718074E+01 -0.63096542398E+00  0.24120611213E+02  0.00000000000E+00 0.  1.
         13    1    4    4    0    0  0.17505154977E+02  0.62185590262E+02 -0.11619443597E+03  0.13294594780E+03  0.00000000000E+00 0. -1.
          2    1    1    2  501    0 -0.16358296026E+02 -0.33344971155E+02 -0.24817158033E+02  0.44669590137E+02  0.00000000000E+00 0. -1.
<scales pt_clust_5="13000.00000" pt_clust_6="13000.00000" pt_clust_7="13000.00000" pt_clust_8="13000.00000" pt_clust_9="37.14136"></scales>
<clustering>
<clus scale="   37.141">  1  9  2 -1</clus>
<clus scale="   83.505">  5  6 -1 -1</clus>
<clus scale="   87.328">  7  8 -1 -1</clus>
<clus scale="   91.828">  2  5  1 -1</clus>
<clus scale="   37.141">  1  5  2 -1</clus>
</clustering>
</event>
<event>
 9    1  0.3288491E-005  0.1258046E+03  0.7546771E-02  0.1234873E+00
          2   -1    0    0  502    0 -0.00000000000E+00  0.00000000000E+00  0.78932500850E+02  0.78932500850E+02  0.00000000000E+00 0. -1.
         21   -1    0    0  501  502  0.00000000000E+00 -0.00000000000E+00 -0.34414610052E+03  0.34414610052E+03  0.00000000000E+00 0.  1.
         23    2    1    2    0    0 -0.77237109549E+01  0.72727527527E+02 -0.40777475913E+02  0.12385638326E+03  0.91261449481E+02 0.  0.
         23    2    1    2    0    0  0.24886652679E+02 -0.10821531219E+03 -0.11290441318E+03  0.18092905730E+03  0.87510102206E+02 0.  0.
        -11    1    4    4    0    0  0.14803901433E+02 -0.50487470066E+02 -0.11037424925E+03  0.12227270762E+03  0.00000000000E+00 0.  1.
         11    1    4    4    0    0  0.10082751246E+02 -0.57727842122E+02 -0.25301639278E+01  0.58656349684E+02  0.00000000000E+00 0. -1.
        -13    1    3    3    0    0 -0.23323028403E+02 -0.55032013317E+01  0.13372970631E+02  0.27442398260E+02  0.00000000000E+00 0.  1.
         13    1    3    3    0    0  0.15599317448E+02  0.78230728859E+02 -0.54150446545E+02  0.96413985000E+02  0.00000000000E+00 0. -1.
          2    1    1    2  501    0 -0.17162941724E+02  0.35487784660E+02 -0.11153171058E+03  0.11829316081E+03  0.00000000000E+00 0. -1.
<scales pt_clust_5="13000.00000" pt_clust_6="13000.00000" pt_clust_7="13000.00000" pt_clust_8="13000.00000" pt_clust_9="39.42017"></scales>
<clustering>
<clus scale="   39.420">  2  9  1 -1</clus>
<clus scale="   87.510">  5  6 -1 -1</clus>
<clus scale="   91.261">  7  8 -1 -1</clus>
<clus scale="  123.110">  2  5  1 -1</clus>
<clus scale="   39.420">  2  5  1 -1</clus>
</clustering>
</event>
<event>
 9    1  0.3288491E-005  0.1094164E+03  0.7546771E-02  0.1262894E+00
         -3   -1    0    0    0  501 -0.00000000000E+00  0.00000000000E+00  0.24277326119E+03  0.24277326119E+03  0.00000000000E+00 0.  1.
         21   -1    0    0  501  502  0.00000000000E+00 -0.00000000000E+00 -0.12019026474E+03  0.12019026474E+03  0.00000000000E+00 0.  1.
         23    2    1    2    0    0 -0.52371285749E+02  0.25637056581E+00  0.11852673304E+03  0.15688735053E+03  0.88443411355E+02 0.  0.
         23    2    1    2    0    0  0.72681670737E+02 -0.47224867727E+01  0.70388381551E+02  0.13656065318E+03  0.91593452809E+02 0.  0.
        -11    1    3    3    0    0 -0.23299896980E+02  0.40349535883E+02  0.29899439444E+02  0.55361960987E+02  0.00000000000E+00 0.  1.
         11    1    3    3    0    0 -0.29071388769E+02 -0.40093165317E+02  0.88627293601E+02  0.10152538954E+03  0.00000000000E+00 0. -1.
        -13    1    4    4    0    0  0.70686883434E+02 -0.40199561751E+02  0.52342883410E+02  0.96707898841E+02  0.00000000000E+00 0.  1.
         13    1    4    4    0    0  0.19947873035E+01  0.35477074978E+02  0.18045498141E+02  0.39852754341E+02  0.00000000000E+00 0. -1.
         -3    1    1    2    0  502 -0.20310384989E+02  0.44661162069E+01 -0.66332118142E+02  0.69515522220E+02  0.00000000000E+00 0.  1.
<scales pt_clust_5="13000.00000" pt_clust_6="13000.00000" pt_clust_7="13000.00000" pt_clust_8="13000.00000" pt_clust_9="20.79562"></scales>
<clustering>
<clus scale="   20.796">  2  9  1 -1</clus>
<clus scale="   88.443">  5  6 -1 -1</clus>
<clus scale="   91.593">  7  8 -1 -1</clus>
<clus scale="  106.793">  1  5  2 -1</clus>
<clus scale="   20.796">  2  5  1 -1</clus>
</clustering>
</event>
<event>
 9    1  0.3288491E-005  0.9420700E+02  0.7546771E-02  0.1293989E+00
          1   -1    0    0  502    0 -0.00000000000E+00  0.00000000000E+00  0.59960016217E+02  0.59960016217E+02  0.00000000000E+00 0. -1.
         21   -1    0    0  501  502  0.00000000000E+00 -0.00000000000E+00 -0.38448020706E+03  0.38448020706E+03  0.00000000000E+00 0. -1.
         23    2    1    2    0    0  0.36542277876E+02 -0.18556144998E+01 -0.33117981263E+02  0.10522316747E+03  0.92931872421E+02 0.  0.
         23    2    1    2    0    0  0.37155565428E+02  0.94831965495E+01 -0.15161861419E+03  0.18101147545E+03  0.91139909029E+02 0.  0.
        -11    1    3    3    0    0 -0.19855738876E+02  0.15276200417E+02  0.14942693322E+02  0.29170134542E+02  0.00000000000E+00 0.  1.
         11    1    3    3    0    0  0.56398016751E+02 -0.17131814917E+02 -0.48060674585E+02  0.76053032927E+02  0.00000000000E+00 0. -1.
        -13    1    4    4    0    0  0.43371688194E+02  0.36189370286E+02 -0.14048726999E+03  0.15141811941E+03  0.00000000000E+00 0. -1.
         13    1    4    4    0    0 -0.62161227660E+01 -0.26706173737E+02 -0.11131344203E+02  0.29593356039E+02  0.00000000000E+00 0.  1.
          1    1    1    2  501    0 -0.73697843303E+02 -0.76275820497E+01 -0.13978359539E+03  0.15820558036E+03  0.00000000000E+00 0. -1.
<scales pt_clust_5="13000.00000" pt_clust_6="13000.00000" pt_clust_7="13000.00000" pt_clust_8="13000.00000" pt_clust_9="74.09151"></scales>
<clustering>
<clus scale="   74.092">  2  9  1 -1</clus>
<clus scale="   91.140">  7  8 -1 -1</clus>
<clus scale="   92.440">  2  7  1 -1</clus>
<clus scale="   92.932">  5  6 -1 -1</clus>
<clus scale="   74.092">  2  5  1 -1</clus>
</clustering>
</event>
<event>
 9    1  0.3288491E-005  0.1182004E+03  0.7546771E-02  0.1246909E+00
         21   -1    0    0  501  502  0.00000000000E+00  0.00000000000E+00  0.72415572903E+02  0.72415572903E+02  0.00000000000E+00 0. -1.
          1   -1    0    0  502    0 -0.00000000000E+00 -0.00000000000E+00 -0.35855643177E+03  0.35855643177E+03  0.00000000000E+00 0. -1.
         23    2    1    2    0    0 -0.81214608029E+00  0.64822458156E+02 -0.15181804937E+03  0.18868639786E+03  0.91385042330E+02 0.  0.
         23    2    1    2    0    0  0.42125135895E+02 -0.82762695391E+02 -0.14720844410E+03  0.19543846369E+03  0.88891373330E+02 0.  0.
        -11    1    4    4    0    0 -0.25443581537E+02 -0.42160271169E+02 -0.64942508678E+02  0.81500881835E+02  0.00000000000E+00 0.  1.
         11    1    4    4    0    0  0.67568717432E+02 -0.40602424223E+02 -0.82265935424E+02  0.11393758186E+03  0.00000000000E+00 0. -1.
        -13    1    3    3    0    0  0.26846828883E+02  0.28849216270E+02 -0.13443742014E+03  0.14009443041E+03  0.00000000000E+00 0.  1.
         13    1    3    3    0    0 -0.27658974963E+02  0.35973241887E+02 -0.17380629230E+02  0.48591967446E+02  0.00000000000E+00 0. -1.
          1    1    1    2  501    0 -0.41312989815E+02  0.17940237235E+02  0.12885634602E+02  0.46847143121E+02  0.00000000000E+00 0. -1.
<scales pt_clust_5="13000.00000" pt_clust_6="13000.00000" pt_clust_7="13000.00000" pt_clust_8="13000.00000" pt_clust_9="45.04015"></scales>
<clustering>
<clus scale="   45.040">  1  9  2 -1</clus>
<clus scale="   88.891">  5  6 -1 -1</clus>
<clus scale="   91.385">  7  8 -1 -1</clus>
<clus scale="  116.283">  1  5  2 -1</clus>
<clus scale="   45.040">  1  5  2 -1</clus>
</clustering>
</event>
<event>
 9    1  0.3288491E-005  0.1042946E+03  0.7546771E-02  0.1271628E+00
          1   -1    0    0  502    0 -0.00000000000E+00  0.00000000000E+00  0.19227394026E+03  0.19227394026E+03  0.00000000000E+00 0. -1.
         21   -1    0    0  501  502  0.00000000000E+00 -0.00000000000E+00 -0.17349557271E+03  0.17349557271E+03  0.00000000000E+00 0.  1.
         23    2    1    2    0    0 -0.21272625090E+02 -0.39257023755E+02  0.79098191620E+02  0.12863045181E+03  0.91080353111E+02 0.  0.
         23    2    1    2    0    0  0.92727516507E+02 -0.74641307927E-01  0.84793654593E+01  0.13043334499E+03  0.91337615244E+02 0.  0.
        -11    1    4    4    0    0  0.52106118067E+02 -0.36129564628E+02  0.32259597039E+02  0.71141229827E+02  0.00000000000E+00 0. -1.
         11    1    4    4    0    0  0.40621398440E+02  0.36054923320E+02 -0.23780231579E+02  0.59292115165E+02  0.00000000000E+00 0.  1.
        -13    1    3    3    0    0 -0.27740817844E+02  0.18891219727E+02  0.56886347076E+02  0.66049130510E+02  0.00000000000E+00 0. -1.
         13    1    3    3    0    0  0.64681927543E+01 -0.58148243482E+02  0.22211844544E+02  0.62581321300E+02  0.00000000000E+00 0.  1.
          1    1    1    2  501    0 -0.71454891417E+02  0.39331665063E+02 -0.68799189521E+02  0.10670571617E+03  0.00000000000E+00 0. -1.
<scales pt_clust_5="13000.00000" pt_clust_6="13000.00000" pt_clust_7="13000.00000" pt_clust_8="13000.00000" pt_clust_9="81.56458"></scales>
<clustering>
<clus scale="   81.565">  2  9  1 -1</clus>
<clus scale="   91.080">  7  8 -1 -1</clus>
<clus scale="   91.338">  5  6 -1 -1</clus>
<clus scale="  104.069">  1  7  2 -1</clus>
<clus scale="   81.565">  2  5  1 -1</clus>
</clustering>
</event>
<event>
 9    1  0.3288491E-005  0.3534022E+03  0.7546771E-02  0.1061424E+00
         21   -1    0    0  501  502  0.00000000000E+00  0.00000000000E+00  0.57030211370E+02  0.57030211370E+02  0.00000000000E+00 0. -1.
          2   -1    0    0  502    0 -0.00000000000E+00 -0.00000000000E+00 -0.25237588445E+04  0.25237588445E+04  0.00000000000E+00 0. -1.
         23    2    1    2    0    0 -0.23969916835E+03  0.23750186443E+03 -0.15457490926E+04  0.15846657776E+04  0.89233079457E+02 0.  0.
         23    2    1    2    0    0  0.23083221541E+03 -0.25615384121E+03 -0.88393011154E+03  0.95370654478E+03  0.96568263117E+02 0.  0.
        -13    1    3    3    0    0 -0.22332806064E+03  0.20375769604E+03 -0.14615942230E+04  0.14925315052E+04  0.00000000000E+00 0. -1.
         13    1    3    3    0    0 -0.16371107713E+02  0.33744168389E+02 -0.84154869634E+02  0.92134272402E+02  0.00000000000E+00 0.  1.
        -13    1    4    4    0    0  0.34580766260E+02 -0.31120239990E+02 -0.23246573059E+03  0.23707512445E+03  0.00000000000E+00 0. -1.
         13    1    4    4    0    0  0.19625144915E+03 -0.22503360122E+03 -0.65146438095E+03  0.71663142034E+03  0.00000000000E+00 0.  1.
          2    1    1    2  501    0  0.88669529409E+01  0.18651976784E+02 -0.37049429023E+02  0.42416733530E+02  0.00000000000E+00 0. -1.
<scales pt_clust_5="13000.00000" pt_clust_6="13000.00000" pt_clust_7="13000.00000" pt_clust_8="13000.00000" pt_clust_9="20.65234"></scales>
<clustering>
<clus scale="   20.652">  1  9  2 -1</clus>
<clus scale="   89.233">  5  6 -1 -1</clus>
<clus scale="   96.568">  7  8 -1 -1</clus>
<clus scale="  351.469">  2  5  1 -1</clus>
<clus scale="   20.652">  1  5  2 -1</clus>
</clustering>
</event>
<event>
 9    1  0.3288491E-005  0.1012481E+03  0.7546771E-02  0.1282419E+00
          1   -1    0    0  502    0 -0.00000000000E+00  0.00000000000E+00  0.70707700791E+03  0.70707700791E+03  0.00000000000E+00 0. -1.
         21   -1    0    0  501  502  0.00000000000E+00 -0.00000000000E+00 -0.19610499443E+02  0.19610499443E+02  0.00000000000E+00 0.  1.
         23    2    1    2    0    0  0.16705021622E+02 -0.23522229931E+02  0.23910402888E+03  0.25790717142E+03  0.92266025141E+02 0.  0.
         23    2    1    2    0    0 -0.47875253500E+02  0.27841073556E+02  0.27161225573E+03  0.28925073559E+03  0.82617221584E+02 0.  0.
        -11    1    3    3    0    0 -0.23909402729E+02 -0.31422238322E+01  0.13226244576E+02  0.27503938901E+02  0.00000000000E+00 0.  1.
         11    1    3    3    0    0  0.40614424351E+02 -0.20380006099E+02  0.22587778430E+03  0.23040323252E+03  0.00000000000E+00 0. -1.
        -13    1    4    4    0    0 -0.12591610934E+02  0.42109137975E+02  0.22412540130E+03  0.22839422864E+03  0.00000000000E+00 0. -1.
         13    1    4    4    0    0 -0.35283642566E+02 -0.14268064419E+02  0.47486854434E+02  0.60856506957E+02  0.00000000000E+00 0.  1.
          1    1    1    2  501    0  0.31170231878E+02 -0.43188436253E+01  0.17675022386E+03  0.17952960035E+03  0.00000000000E+00 0. -1.
<scales pt_clust_5="13000.00000" pt_clust_6="13000.00000" pt_clust_7="13000.00000" pt_clust_8="13000.00000" pt_clust_9="31.46803"></scales>
<clustering>
<clus scale="   31.468">  2  9  1 -1</clus>
<clus scale="   82.617">  7  8 -1 -1</clus>
<clus scale="   92.266">  5  6 -1 -1</clus>
<clus scale="   92.541">  2  7  1 -1</clus>
<clus scale="   31.468">  2  5  1 -1</clus>
</clustering>
</event>
<event>
 9    1  0.3288491E-005  0.9500293E+02  0.7546771E-02  0.1291733E+00
          2   -1    0    0  502    0 -0.00000000000E+00  0.00000000000E+00  0.45030826459E+03  0.45030826459E+03  0.00000000000E+00 0. -1.
         21   -1    0    0  501  502  0.00000000000E+00 -0.00000000000E+00 -0.64023746177E+02  0.64023746177E+02  0.00000000000E+00 0. -1.
         23    2    1    2    0    0 -0.14371907878E+02 -0.37827244297E+02  0.30914059556E+03  0.32446745058E+03  0.89854140226E+02 0.  0.
         23    2    1    2    0    0  0.37593117503E+02 -0.20912997191E+02  0.79414226287E+02  0.12666017092E+03  0.88800808695E+02 0.  0.
        -11    1    3    3    0    0  0.36320245035E+02 -0.29678294928E+02  0.16023981885E+03  0.16696335207E+03  0.00000000000E+00 0. -1.
         11    1    3    3    0    0 -0.50692152913E+02 -0.81489493684E+01  0.14890077671E+03  0.15750409851E+03  0.00000000000E+00 0.  1.
        -13    1    4    4    0    0  0.59798576823E+01  0.26693495946E+02  0.60612934171E+02  0.66499843703E+02  0.00000000000E+00 0.  1.
         13    1    4    4    0    0  0.31613259821E+02 -0.47606493136E+02  0.18801292115E+02  0.60160327214E+02  0.00000000000E+00 0. -1.
          2    1    1    2  501    0 -0.23221209625E+02  0.58740241487E+02 -0.22703034244E+01  0.63204389278E+02  0.00000000000E+00 0. -1.
<scales pt_clust_5="13000.00000" pt_clust_6="13000.00000" pt_clust_7="13000.00000" pt_clust_8="13000.00000" pt_clust_9="63.16360"></scales>
<clustering>
<clus scale="   63.164">  2  9  1 -1</clus>
<clus scale="   88.801">  7  8 -1 -1</clus>
<clus scale="   89.854">  5  6 -1 -1</clus>
<clus scale="   94.007">  2  7  1 -1</clus>
<clus scale="   63.164">  2  5  1 -1</clus>
</clustering>
</event>
<event>
 9    1  0.3288491E-005  0.1546347E+03  0.7546771E-02  0.1194896E+00
         21   -1    0    0  501  502  0.00000000000E+00  0.00000000000E+00  0.11104347858E+04  0.11104347858E+04  0.00000000000E+00 0. -1.
          3   -1    0    0  502    0 -0.00000000000E+00 -0.00000000000E+00 -0.35240061168E+02  0.35240061168E+02  0.00000000000E+00 0. -1.
         23    2    1    2    0    0 -0.65795714474E+02  0.89306828792E+02  0.28738567121E+03  0.32176330212E+03  0.92931764537E+02 0.  0.
         23    2    1    2    0    0  0.12699437724E+03 -0.83858439166E+02  0.54371706066E+03  0.57220564066E+03  0.92904485808E+02 0.  0.
        -11    1    4    4    0    0  0.53778388054E+02 -0.88320046569E+02  0.28025291749E+03  0.29872101267E+03  0.00000000000E+00 0. -1.
         11    1    4    4    0    0  0.73215989186E+02  0.44616074034E+01  0.26346414317E+03  0.27348462799E+03  0.00000000000E+00 0.  1.
        -11    1    3    3    0    0 -0.86528376372E+02  0.65034259000E+02  0.18310853572E+03  0.21270954519E+03  0.00000000000E+00 0. -1.
         11    1    3    3    0    0  0.20732661899E+02  0.24272569792E+02  0.10427713550E+03  0.10905375693E+03  0.00000000000E+00 0.  1.
          3    1    1    2  501    0 -0.61198662766E+02 -0.54483896262E+01  0.24409199281E+03  0.25170590423E+03  0.00000000000E+00 0. -1.
<scales pt_clust_5="13000.00000" pt_clust_6="13000.00000" pt_clust_7="13000.00000" pt_clust_8="13000.00000" pt_clust_9="61.44071"></scales>
<clustering>
<clus scale="   61.441">  1  9  2 -1</clus>
<clus scale="   92.904">  5  6 -1 -1</clus>
<clus scale="   92.932">  7  8 -1 -1</clus>
<clus scale="  154.618">  1  5  2 -1</clus>
<clus scale="   61.441">  1  5  2 -1</clus>
</clustering>
</event>
<event>
 9    1  0.3288491E-005  0.9513074E+02  0.7546771E-02  0.1293144E+00
         21   -1    0    0  501  502  0.00000000000E+00  0.00000000000E+00  0.15065716197E+03  0.15065716197E+03  0.00000000000E+00 0. -1.
         -2   -1    0    0    0  501 -0.00000000000E+00 -0.00000000000E+00 -0.18050464982E+03  0.18050464982E+03  0.00000000000E+00 0.  1.
         23    2    1    2    0    0  0.22470587926E+02 -0.10123057086E+02 -0.69087910268E+02  0.11679426402E+03  0.90886507008E+02 0.  0.
         23    2    1    2    0    0 -0.34132840683E+02 -0.13953830040E+02 -0.59892905175E+02  0.11168784543E+03  0.86759751845E+02 0.  0.
        -11    1    3    3    0    0  0.91864731781E+01 -0.44870969630E+02 -0.64792521760E+02  0.79346493816E+02  0.00000000000E+00 0.  1.
         11    1    3    3    0    0  0.13284114748E+02  0.34747912543E+02 -0.42953885084E+01  0.37447770203E+02  0.00000000000E+00 0. -1.
        -13    1    4    4    0    0 -0.60669198428E+01  0.20041782738E+02  0.14320557739E+02  0.25368463604E+02  0.00000000000E+00 0. -1.
         13    1    4    4    0    0 -0.28065920840E+02 -0.33995612778E+02 -0.74213462914E+02  0.86319381824E+02  0.00000000000E+00 0.  1.
         -2    1    1    2    0  502  0.11662252757E+02  0.24076887126E+02  0.99133327593E+02  0.10267970234E+03  0.00000000000E+00 0.  1.
<scales pt_clust_5="13000.00000" pt_clust_6="13000.00000" pt_clust_7="13000.00000" pt_clust_8="13000.00000" pt_clust_9="26.75266"></scales>
<clustering>
<clus scale="   26.753">  1  9  2 -1</clus>
<clus scale="   86.760">  7  8 -1 -1</clus>
<clus scale="   90.887">  5  6 -1 -1</clus>
<clus scale="   91.196">  1  7  2 -1</clus>
<clus scale="   26.753">  1  5  2 -1</clus>
</clustering>
</event>
<event>
 9    1  0.3288491E-005  0.1078552E+03  0.7546771E-02  0.1270883E+00
          1   -1    0    0  502    0 -0.00000000000E+00  0.00000000000E+00  0.54656494940E+03  0.54656494940E+03  0.00000000000E+00 0. -1.
         21   -1    0    0  501  502  0.00000000000E+00 -0.00000000000E+00 -0.41056528687E+02  0.41056528687E+02  0.00000000000E+00 0. -1.
         23    2    1    2    0    0  0.43540368562E+02 -0.22763055719E+02  0.39142103281E+03  0.40388585908E+03  0.86599317773E+02 0.  0.
         23    2    1    2    0    0 -0.61946601669E+01  0.91327625979E+01  0.98990619746E+02  0.14121034141E+03  0.10009713560E+03 0.  0.
        -11    1    3    3    0    0 -0.24920207319E+02 -0.98594210528E+01  0.68945518025E+02  0.73971003589E+02  0.00000000000E+00 0.  1.
         11    1    3    3    0    0  0.68460575881E+02 -0.12903634666E+02  0.32247551479E+03  0.32991485549E+03  0.00000000000E+00 0. -1.
        -13    1    4    4    0    0 -0.48106898457E+02  0.15374943756E+02  0.80379077364E+02  0.94928702996E+02  0.00000000000E+00 0.  1.
         13    1    4    4    0    0  0.41912238290E+02 -0.62421811582E+01  0.18611542382E+02  0.46281638410E+02  0.00000000000E+00 0. -1.
          1    1    1    2  501    0 -0.37345708396E+02  0.13630293121E+02  0.15096768158E+02  0.42525277600E+02  0.00000000000E+00 0. -1.
<scales pt_clust_5="13000.00000" pt_clust_6="13000.00000" pt_clust_7="13000.00000" pt_clust_8="13000.00000" pt_clust_9="39.75534"></scales>
<clustering>
<clus scale="   39.755">  2  9  1 -1</clus>
<clus scale="   86.599">  5  6 -1 -1</clus>
<clus scale="   95.461">  1  5  2 -1</clus>
<clus scale="  100.097">  7  8 -1 -1</clus>
<clus scale="   39.755">  2  5  1 -1</clus>
</clustering>
</event>
<event>
 9    1  0.3288491E-005  0.1076194E+03  0.7546771E-02  0.1266100E+00
          1   -1    0    0  502    0 -0.00000000000E+00  0.00000000000E+00  0.32487402352E+03  0.32487402352E+03  0.00000000000E+00 0. -1.
         21   -1    0    0  501  502  0.00000000000E+00 -0.00000000000E+00 -0.99002140325E+02  0.99002140325E+02  0.00000000000E+00 0.  1.
         23    2    1    2    0    0  0.62065457296E+02  0.19879111263E+01  0.18450136449E+03  0.21515591525E+03  0.91625550970E+02 0.  0.
         23    2    1    2    0    0 -0.48577413894E+01 -0.66021240496E+02  0.42258712516E+01  0.11516430349E+03  0.94141154454E+02 0.  0.
        -11    1    4    4    0    0  0.32811858689E+02 -0.34431101308E+02 -0.29112332848E+02  0.55764206547E+02  0.00000000000E+00 0.  1.
         11    1    4    4    0    0 -0.37669600078E+02 -0.31590139187E+02  0.33338204100E+02  0.59400096940E+02  0.00000000000E+00 0. -1.
        -13    1    3    3    0    0  0.83052359379E+02 -0.14078165183E+02  0.13876250536E+03  0.16232967082E+03  0.00000000000E+00 0. -1.
         13    1    3    3    0    0 -0.20986902084E+02  0.16066076309E+02  0.45738859124E+02  0.52826244434E+02  0.00000000000E+00 0.  1.
          1    1    1    2  501    0 -0.57207715906E+02  0.64033329369E+02  0.37144647450E+02  0.93555945100E+02  0.00000000000E+00 0. -1.
<scales pt_clust_5="13000.00000" pt_clust_6="13000.00000" pt_clust_7="13000.00000" pt_clust_8="13000.00000" pt_clust_9="85.86612"></scales>
<clustering>
<clus scale="   85.866">  2  9  1 -1</clus>
<clus scale="   91.626">  7  8 -1 -1</clus>
<clus scale="   94.141">  5  6 -1 -1</clus>
<clus scale="  105.426">  1  7  2 -1</clus>
<clus scale="   85.866">  2  5  1 -1</clus>
</clustering>
</event>
<event>
 9    1  0.3288491E-005  0.9245065E+02  0.7546771E-02  0.1297614E+00
         21   -1    0    0  501  502  0.00000000000E+00  0.00000000000E+00  0.51245755436E+03  0.51245755436E+03  0.00000000000E+00 0.  1.
          1   -1    0    0  502    0 -0.00000000000E+00 -0.00000000000E+00 -0.43106952990E+02  0.43106952990E+02  0.00000000000E+00 0. -1.
         23    2    1    2    0    0 -0.24539222691E+01 -0.64178791872E+01  0.29621756120E+02  0.96646778369E+02  0.91738434834E+02 0.  0.
         23    2    1    2    0    0  0.67685213080E+01  0.29544557962E+02  0.24895419908E+03  0.26669799884E+03  0.90724503621E+02 0.  0.
        -11    1    4    4    0    0  0.83987039208E+01  0.60611286911E+02  0.12902444000E+03  0.14279906319E+03  0.00000000000E+00 0.  1.
         11    1    4    4    0    0 -0.16301826128E+01 -0.31066728949E+02  0.11992975908E+03  0.12389893565E+03  0.00000000000E+00 0. -1.
        -13    1    3    3    0    0  0.13652512342E+02  0.38525693098E+02  0.26687229658E+02  0.48814222812E+02  0.00000000000E+00 0.  1.
         13    1    3    3    0    0 -0.16106434611E+02 -0.44943572285E+02  0.29345264621E+01  0.47832555558E+02  0.00000000000E+00 0. -1.
          1    1    1    2  501    0 -0.43145990388E+01 -0.23126678775E+02  0.19077464617E+03  0.19221973015E+03  0.00000000000E+00 0. -1.
<scales pt_clust_5="13000.00000" pt_clust_6="13000.00000" pt_clust_7="13000.00000" pt_clust_8="13000.00000" pt_clust_9="23.52571"></scales>
<clustering>
<clus scale="   23.526">  1  9  2 -1</clus>
<clus scale="   90.725">  5  6 -1 -1</clus>
<clus scale="   91.445">  1  5  2 -1</clus>
<clus scale="   91.738">  7  8 -1 -1</clus>
<clus scale="   23.526">  1  5  2 -1</clus>
</clustering>
</event>
<event>
 9    1  0.3288491E-005  0.1103629E+03  0.7546771E-02  0.1261480E+00
          3   -1    0    0  502    0 -0.00000000000E+00  0.00000000000E+00  0.22948800174E+03  0.22948800174E+03  0.00000000000E+00 0. -1.
         21   -1    0    0  501  502  0.00000000000E+00 -0.00000000000E+00 -0.13434588235E+03  0.13434588235E+03  0.00000000000E+00 0.  1.
         23    2    1    2    0    0  0.26655859617E+02  0.35830683684E+02  0.81246267081E+02  0.12844693569E+03  0.88900430984E+02 0.  0.
         23    2    1    2    0    0 -0.81502250891E+02 -0.32513673118E+02  0.78952268547E+02  0.15023140549E+03  0.92931472857E+02 0.  0.
        -11    1    4    4    0    0 -0.73543563308E+02 -0.54779331614E+02  0.31060237627E+02  0.96820293521E+02  0.00000000000E+00 0.  1.
         11    1    4    4    0    0 -0.79586875835E+01  0.22265658496E+02  0.47892030919E+02  0.53411111970E+02  0.00000000000E+00 0. -1.
        -11    1    3    3    0    0  0.44045275714E+01 -0.28985487985E+02  0.35547625840E+02  0.46078108465E+02  0.00000000000E+00 0.  1.
         11    1    3    3    0    0  0.22251332046E+02  0.64816171669E+02  0.45698641241E+02  0.82368827228E+02  0.00000000000E+00 0. -1.
          3    1    1    2  501    0  0.54846391274E+02 -0.33170105664E+01 -0.65056416232E+02  0.85155542907E+02  0.00000000000E+00 0. -1.
<scales pt_clust_5="13000.00000" pt_clust_6="13000.00000" pt_clust_7="13000.00000" pt_clust_8="13000.00000" pt_clust_9="54.94660"></scales>
<clustering>
<clus scale="   54.947">  2  9  1 -1</clus>
<clus scale="   88.900">  7  8 -1 -1</clus>
<clus scale="   92.931">  5  6 -1 -1</clus>
<clus scale="  106.991">  1  7  2 -1</clus>
<clus scale="   54.947">  2  5  1 -1</clus>
</clustering>
</event>
<event>
 9    1  0.3288491E-005  0.1135302E+03  0.7546771E-02  0.1255019E+00
          1   -1    0    0  502    0 -0.00000000000E+00  0.00000000000E+00  0.22792893900E+03  0.22792893900E+03  0.00000000000E+00 0. -1.
         21   -1    0    0  501  502  0.00000000000E+00 -0.00000000000E+00 -0.29432203185E+03  0.29432203185E+03  0.00000000000E+00 0. -1.
         23    2    1    2    0    0  0.65072384242E+02 -0.31872362772E+02  0.15833509172E+03  0.19539450908E+03  0.88649592273E+02 0.  0.
         23    2    1    2    0    0 -0.35351168064E+02 -0.50127849070E+02 -0.21197486284E+03  0.23870867310E+03  0.91027368420E+02 0.  0.
        -11    1    4    4    0    0 -0.66112246376E+02 -0.33469457528E+02 -0.15593775324E+03  0.17264882448E+03  0.00000000000E+00 0. -1.
         11    1    4    4    0    0  0.30761078312E+02 -0.16658391542E+02 -0.56037109594E+02  0.66059848617E+02  0.00000000000E+00 0.  1.
        -13    1    3    3    0    0  0.20941177573E+02 -0.53043962825E+02  0.12122860065E+03  0.13397226775E+03  0.00000000000E+00 0. -1.
         13    1    3    3    0    0  0.44131206669E+02  0.21171600053E+02  0.37106491069E+02  0.61422241332E+02  0.00000000000E+00 0.  1.
          1    1    1    2  501    0 -0.29721216178E+02  0.82000211841E+02 -0.12753321733E+02  0.88147788675E+02  0.00000000000E+00 0. -1.
<scales pt_clust_5="13000.00000" pt_clust_6="13000.00000" pt_clust_7="13000.00000" pt_clust_8="13000.00000" pt_clust_9="87.22033"></scales>
<clustering>
<clus scale="   87.220">  2  9  1 -1</clus>
<clus scale="   88.650">  7  8 -1 -1</clus>
<clus scale="   91.027">  5  6 -1 -1</clus>
<clus scale="  111.633">  1  7  2 -1</clus>
<clus scale="   87.220">  2  5  1 -1</clus>
</clustering>
</event>
<event>
 9    1  0.3288491E-005  0.9518690E+02  0.7546771E-02  0.1294026E+00
          2   -1    0    0  502    0 -0.00000000000E+00  0.00000000000E+00  0.92148541325E+03  0.92148541325E+03  0.00000000000E+00 0. -1.
         21   -1    0    0  501  502  0.00000000000E+00 -0.00000000000E+00 -0.33130858937E+02  0.33130858937E+02  0.00000000000E+00 0. -1.
         23    2    1    2    0    0  0.42338362535E+02  0.12190828780E+02  0.50427487244E+03  0.51411877432E+03  0.89910032159E+02 0.  0.
         23    2    1    2    0    0  0.54386953876E+02 -0.28770308417E+02  0.26500843466E+03  0.28619705103E+03  0.88845991372E+02 0.  0.
        -11    1    3    3    0    0  0.37810592818E+02  0.49637014849E+02  0.31745204690E+03  0.32352631462E+03  0.00000000000E+00 0. -1.
         11    1    3    3    0    0  0.45277697167E+01 -0.37446186069E+02  0.18682282554E+03  0.19059245969E+03  0.00000000000E+00 0.  1.
        -13    1    4    4    0    0  0.72945807898E+02 -0.37471152974E+02  0.24131034534E+03  0.25486439721E+03  0.00000000000E+00 0. -1.
         13    1    4    4    0    0 -0.18558854022E+02  0.87008445562E+01  0.23698089315E+02  0.31332653826E+02  0.00000000000E+00 0.  1.
          2    1    1    2  501    0 -0.96725316411E+02  0.16579479637E+02  0.11907124721E+03  0.15430044683E+03  0.00000000000E+00 0. -1.
<scales pt_clust_5="13000.00000" pt_clust_6="13000.00000" pt_clust_7="13000.00000" pt_clust_8="13000.00000" pt_clust_9="98.13596"></scales>
<clustering>
<clus scale="   88.846">  7  8 -1 -1</clus>
<clus scale="   89.910">  5  6 -1 -1</clus>
<clus scale="   98.136">  2  9  1 -1</clus>
<clus scale="   98.136">  2  7  1 -1</clus>
<clus scale="   95.187">  2  5  1 -1</clus>
</clustering>
</event>
<event>
 9    1  0.3288491E-005  0.9924495E+02  0.7546771E-02  0.1287008E+00
         21   -1    0    0  501  502  0.00000000000E+00  0.00000000000E+00  0.52420162508E+03  0.52420162508E+03  0.00000000000E+00 0.  1.
          2   -1    0    0  502    0 -0.00000000000E+00 -0.00000000000E+00 -0.44027009708E+02  0.44027009708E+02  0.00000000000E+00 0. -1.
         23    2    1    2    0    0  0.23839513407E+02 -0.40753185954E+01  0.35528149559E+02  0.10433930225E+03  0.95076337546E+02 0.  0.
         23    2    1    2    0    0 -0.49591389910E+02 -0.14028566543E+02  0.31298906889E+03  0.32852102028E+03  0.85485653105E+02 0.  0.
        -11    1    3    3    0    0 -0.29670221063E+01  0.24155267198E+02  0.55488110388E+02  0.60590515330E+02  0.00000000000E+00 0.  1.
         11    1    3    3    0    0  0.26806535513E+02 -0.28230585793E+02 -0.19959960829E+02  0.43748786917E+02  0.00000000000E+00 0. -1.
        -13    1    4    4    0    0 -0.68867168304E+02  0.33125569071E+01  0.17452560878E+03  0.18765086736E+03  0.00000000000E+00 0.  1.
         13    1    4    4    0    0  0.19275778394E+02 -0.17341123450E+02  0.13846346012E+03  0.14087015292E+03  0.00000000000E+00 0. -1.
          2    1    1    2  501    0  0.25751876503E+02  0.18103885139E+02  0.13165739692E+03  0.13536831226E+03  0.00000000000E+00 0. -1.
<scales pt_clust_5="13000.00000" pt_clust_6="13000.00000" pt_clust_7="13000.00000" pt_clust_8="13000.00000" pt_clust_9="31.47872"></scales>
<clustering>
<clus scale="   31.479">  1  9  2 -1</clus>
<clus scale="   85.486">  7  8 -1 -1</clus>
<clus scale="   90.099">  1  7  2 -1</clus>
<clus scale="   95.076">  5  6 -1 -1</clus>
<clus scale="   31.479">  1  5  2 -1</clus>
</clustering>
</event>
<event>
 9    1  0.3288491E-005  0.1721802E+03  0.7546771E-02  0.1178890E+00
         21   -1    0    0  501  502  0.00000000000E+00  0.00000000000E+00  0.74673791595E+02  0.74673791595E+02  0.00000000000E+00 0. -1.
          2   -1    0    0  502    0 -0.00000000000E+00 -0.00000000000E+00 -0.71999382989E+03  0.71999382989E+03  0.00000000000E+00 0. -1.
         23    2    1    2    0    0 -0.13012889057E+03 -0.28977998876E+02 -0.44597813431E+03  0.47458148057E+03  0.92508555481E+02 0.  0.
         23    2    1    2    0    0  0.16977221138E+03  0.47665591316E+02 -0.20181804929E+03  0.27618909897E+03  0.66747891453E+02 0.  0.
        -11    1    3    3    0    0 -0.76742619619E+02 -0.62099091373E+02 -0.29390369947E+03  0.31004049958E+03  0.00000000000E+00 0.  1.
         11    1    3    3    0    0 -0.53386270952E+02  0.33121092498E+02 -0.15207443483E+03  0.16454098099E+03  0.00000000000E+00 0. -1.
        -13    1    4    4    0    0  0.49730616182E+02  0.87632274948E+01 -0.10710148527E+03  0.11840885309E+03  0.00000000000E+00 0. -1.
         13    1    4    4    0    0  0.12004159520E+03  0.38902363821E+02 -0.94716564021E+02  0.15778024588E+03  0.00000000000E+00 0.  1.
          2    1    1    2  501    0 -0.39643320814E+02 -0.18687592440E+02  0.24761453066E+01  0.43897041949E+02  0.00000000000E+00 0. -1.
<scales pt_clust_5="13000.00000" pt_clust_6="13000.00000" pt_clust_7="13000.00000" pt_clust_8="13000.00000" pt_clust_9="43.82715"></scales>
<clustering>
<clus scale="   43.827">  1  9  2 -1</clus>
<clus scale="   66.748">  7  8 -1 -1</clus>
<clus scale="   92.509">  5  6 -1 -1</clus>
<clus scale="  159.823">  1  7  2 -1</clus>
<clus scale="   43.827">  1  5  2 -1</clus>
</clustering>
</event>
<event>
 9    1  0.3288491E-005  0.1139381E+03  0.7546771E-02  0.1258197E+00
         21   -1    0    0  501  502  0.00000000000E+00  0.00000000000E+00  0.13383748052E+03  0.13383748052E+03  0.00000000000E+00 0. -1.
         -2   -1    0    0    0  501 -0.00000000000E+00 -0.00000000000E+00 -0.14505078866E+03  0.14505078866E+03  0.00000000000E+00 0.  1.
         23    2    1    2    0    0  0.28455782485E+02  0.38861524053E+02 -0.43233665114E+02  0.12062093630E+03  0.10178561228E+03 0.  0.
         23    2    1    2    0    0 -0.14426274464E+02 -0.55038876527E+02 -0.13953480958E+02  0.10755118553E+03  0.90195135976E+02 0.  0.
        -11    1    4    4    0    0 -0.31090019563E+02 -0.70285228900E+02  0.64356767193E+01  0.77123411833E+02  0.00000000000E+00 0.  1.
         11    1    4    4    0    0  0.16663745099E+02  0.15246352372E+02 -0.20389157677E+02  0.30427773697E+02  0.00000000000E+00 0. -1.
        -11    1    3    3    0    0  0.40850097937E+02  0.68001206947E+02 -0.21420384747E+02  0.82168896368E+02  0.00000000000E+00 0. -1.
         11    1    3    3    0    0 -0.12394315451E+02 -0.29139682894E+02 -0.21813280367E+02  0.38452039933E+02  0.00000000000E+00 0.  1.
         -2    1    1    2    0  502 -0.14029508021E+02  0.16177352474E+02  0.45973837931E+02  0.50716147355E+02  0.00000000000E+00 0.  1.
<scales pt_clust_5="13000.00000" pt_clust_6="13000.00000" pt_clust_7="13000.00000" pt_clust_8="13000.00000" pt_clust_9="21.41340"></scales>
<clustering>
<clus scale="   21.413">  1  9  2 -1</clus>
<clus scale="   90.195">  5  6 -1 -1</clus>
<clus scale="  101.786">  7  8 -1 -1</clus>
<clus scale="  103.715">  1  5  2 -1</clus>
<clus scale="   21.413">  1  5  2 -1</clus>
</clustering>
</event>
<event>
 9    1  0.3288491E-005  0.1644655E+03  0.7546771E-02  0.1184162E+00
          3   -1    0    0  502    0 -0.00000000000E+00  0.00000000000E+00  0.47808542960E+03  0.47808542960E+03  0.00000000000E+00 0. -1.
         21   -1    0    0  501  502  0.00000000000E+00 -0.00000000000E+00 -0.89675665372E+02  0.89675665372E+02  0.00000000000E+00 0.  1.
         23    2    1    2    0    0 -0.73648570663E+01  0.13648011551E+03  0.26997296183E+03  0.31644342017E+03  0.92574159459E+02 0.  0.
         23    2    1    2    0    0 -0.14354793728E+02 -0.13034060026E+03  0.14429852230E+03  0.21699180359E+03  0.95229444538E+02 0.  0.
        -13    1    4    4    0    0 -0.42185245227E+02 -0.87781081518E+02  0.13309271304E+03  0.16492053678E+03  0.00000000000E+00 0.  1.
         13    1    4    4    0    0  0.27830451499E+02 -0.42559518737E+02  0.11205809266E+02  0.52071266809E+02  0.00000000000E+00 0. -1.
        -13    1    3    3    0    0 -0.14209670105E+01  0.58662916585E+02  0.33819797862E+02  0.67728396238E+02  0.00000000000E+00 0.  1.
         13    1    3    3    0    0 -0.59438900558E+01  0.77817198929E+02  0.23615316396E+03  0.24871502393E+03  0.00000000000E+00 0. -1.
          3    1    1    2  501    0  0.21719650794E+02 -0.61395152587E+01 -0.25861719905E+02  0.34325871215E+02  0.00000000000E+00 0. -1.
<scales pt_clust_5="13000.00000" pt_clust_6="13000.00000" pt_clust_7="13000.00000" pt_clust_8="13000.00000" pt_clust_9="22.57071"></scales>
<clustering>
<clus scale="   22.571">  2  9  1 -1</clus>
<clus scale="   92.574">  7  8 -1 -1</clus>
<clus scale="   95.229">  5  6 -1 -1</clus>
<clus scale="  162.942">  1  7  2 -1</clus>
<clus scale="   22.571">  2  5  1 -1</clus>
</clustering>
</event>
<event>
 9    1  0.3288491E-005  0.1922289E+03  0.7546771E-02  0.1156549E+00
         21   -1    0    0  501  502  0.00000000000E+00  0.00000000000E+00  0.90944929742E+02  0.90944929742E+02  0.00000000000E+00 0. -1.
          1   -1    0    0  502    0 -0.00000000000E+00 -0.00000000000E+00 -0.10742234713E+04  0.10742234713E+04  0.00000000000E+00 0. -1.
         23    2    1    2    0    0 -0.11848568582E+03 -0.33690782745E+02 -0.29718610199E+03  0.33393214536E+03  0.89538661512E+02 0.  0.
         23    2    1    2    0    0  0.21547168529E+03  0.49185794772E+02 -0.69299545433E+03  0.73277798482E+03  0.88733227949E+02 0.  0.
        -11    1    3    3    0    0 -0.12253434155E+03 -0.85998013474E+01 -0.27047761346E+03  0.29706356361E+03  0.00000000000E+00 0.  1.
         11    1    3    3    0    0  0.40486557347E+01 -0.25090981398E+02 -0.26708488528E+02  0.36868581750E+02  0.00000000000E+00 0. -1.
        -13    1    4    4    0    0  0.50263762683E+02  0.32971565638E+01 -0.29720512472E+03  0.30144353243E+03  0.00000000000E+00 0.  1.
         13    1    4    4    0    0  0.16520792261E+03  0.45888638208E+02 -0.39579032961E+03  0.43133445239E+03  0.00000000000E+00 0. -1.
          1    1    1    2  501    0 -0.96985999472E+02 -0.15495012027E+02  0.69030147479E+01  0.98458270876E+02  0.00000000000E+00 0. -1.
<scales pt_clust_5="13000.00000" pt_clust_6="13000.00000" pt_clust_7="13000.00000" pt_clust_8="13000.00000" pt_clust_9="98.21598"></scales>
<clustering>
<clus scale="   88.733">  7  8 -1 -1</clus>
<clus scale="   89.539">  5  6 -1 -1</clus>
<clus scale="   98.216">  1  9  2 -1</clus>
<clus scale="  191.855">  1  7  2 -1</clus>
<clus scale="   98.216">  1  5  2 -1</clus>
</clustering>
</event>
<event>
 9    1  0.3288491E-005  0.1991896E+03  0.7546771E-02  0.1150988E+00
          2   -1    0    0  502    0 -0.00000000000E+00  0.00000000000E+00  0.74912254252E+03  0.74912254252E+03  0.00000000000E+00 0. -1.
         21   -1    0    0  501  502  0.00000000000E+00 -0.00000000000E+00 -0.94585798821E+02  0.94585798821E+02  0.00000000000E+00 0.  1.
         23    2    1    2    0    0 -0.75771570856E+02 -0.15118599342E+03  0.39536162190E+03  0.43848864809E+03  0.85807615499E+02 0.  0.
         23    2    1    2    0    0  0.90238309820E+02  0.16590851139E+03  0.29606524626E+03  0.36294771253E+03  0.91694194333E+02 0.  0.
        -11    1    4    4    0    0  0.53120657917E+02  0.14535477044E+03  0.16979276896E+03  0.22973767209E+03  0.00000000000E+00 0. -1.
         11    1    4    4    0    0  0.37117651903E+02  0.20553740957E+02  0.12627247730E+03  0.13321004044E+03  0.00000000000E+00 0.  1.
        -11    1    3    3    0    0 -0.21415929589E+02 -0.71717737783E+02  0.83652107751E+02  0.11224861284E+03  0.00000000000E+00 0.  1.
         11    1    3    3    0    0 -0.54355641267E+02 -0.79468255639E+02  0.31170951415E+03  0.32624003525E+03  0.00000000000E+00 0. -1.
          2    1    1    2  501    0 -0.14466738964E+02 -0.14722517972E+02 -0.36890124459E+02  0.42271980723E+02  0.00000000000E+00 0. -1.
<scales pt_clust_5="13000.00000" pt_clust_6="13000.00000" pt_clust_7="13000.00000" pt_clust_8="13000.00000" pt_clust_9="20.64071"></scales>
<clustering>
<clus scale="   20.641">  2  9  1 -1</clus>
<clus scale="   85.808">  7  8 -1 -1</clus>
<clus scale="   91.694">  5  6 -1 -1</clus>
<clus scale="  196.549">  1  7  2 -1</clus>
<clus scale="   20.641">  2  5  1 -1</clus>
</clustering>
</event>
<event>
 9    1  0.3288491E-005  0.1521185E+03  0.7546771E-02  0.1198154E+00
         21   -1    0    0  501  502  0.00000000000E+00  0.00000000000E+00  0.93724914668E+02  0.93724914668E+02  0.00000000000E+00 0. -1.
          1   -1    0    0  502    0 -0.00000000000E+00 -0.00000000000E+00 -0.92038489784E+03  0.92038489784E+03  0.00000000000E+00 0. -1.
         23    2    1    2    0    0 -0.43251416570E+02 -0.90028204412E+02 -0.36540314197E+03  0.38971799056E+03  0.91569063457E+02 0.  0.
         23    2    1    2    0    0 -0.32949613732E+02  0.16877883923E+03 -0.47576247295E+03  0.51385371605E+03  0.90131776973E+02 0.  0.
        -11    1    3    3    0    0  0.24653559227E+02 -0.13586389556E+02 -0.13091691989E+03  0.13390902836E+03  0.00000000000E+00 0.  1.
         11    1    3    3    0    0 -0.67904975798E+02 -0.76441814856E+02 -0.23448622208E+03  0.25580896220E+03  0.00000000000E+00 0. -1.
        -13    1    4    4    0    0  0.19825985368E+02  0.12953987399E+02 -0.27162062907E+02  0.36036830420E+02  0.00000000000E+00 0.  1.
         13    1    4    4    0    0 -0.52775599099E+02  0.15582485183E+03 -0.44860041004E+03  0.47781688563E+03  0.00000000000E+00 0. -1.
          1    1    1    2  501    0  0.76201030302E+02 -0.78750634817E+02  0.14505631738E+02  0.11053810590E+03  0.00000000000E+00 0. -1.
<scales pt_clust_5="13000.00000" pt_clust_6="13000.00000" pt_clust_7="13000.00000" pt_clust_8="13000.00000" pt_clust_9="109.58220"></scales>
<clustering>
<clus scale="   90.132">  7  8 -1 -1</clus>
<clus scale="   91.569">  5  6 -1 -1</clus>
<clus scale="  109.582">  1  9  2 -1</clus>
<clus scale="  151.258">  1  7  2 -1</clus>
<clus scale="  109.582">  1  5  2 -1</clus>
</clustering>
</event>
<event>
 9    1  0.3288491E-005  0.1507416E+03  0.7546771E-02  0.1202515E+00
         -1   -1    0    0    0  501 -0.00000000000E+00  0.00000000000E+00  0.24909443851E+03  0.24909443851E+03  0.00000000000E+00 0.  1.
         21   -1    0    0  501  502  0.00000000000E+00 -0.00000000000E+00 -0.32406374151E+03  0.32406374151E+03  0.00000000000E+00 0.  1.
         23    2    1    2    0    0  0.83738725994E+02  0.76639379112E+02  0.12326430334E+03  0.19053428653E+03  0.90683279629E+02 0.  0.
         23    2    1    2    0    0 -0.17141761750E+03 -0.10374203533E+02 -0.42161932906E+02  0.19173903616E+03  0.74125607678E+02 0.  0.
        -11    1    4    4    0    0 -0.23362001069E+02 -0.20974949251E+02 -0.28969005797E+02  0.42719256629E+02  0.00000000000E+00 0. -1.
         11    1    4    4    0    0 -0.14805561643E+03  0.10600745719E+02 -0.13192927109E+02  0.14901977953E+03  0.00000000000E+00 0.  1.
        -13    1    3    3    0    0 -0.12363852718E+02  0.30533742766E+02  0.54518637385E+02  0.63698164209E+02  0.00000000000E+00 0.  1.
         13    1    3    3    0    0  0.96102578712E+02  0.46105636347E+02  0.68745665953E+02  0.12683612232E+03  0.00000000000E+00 0. -1.
         -1    1    1    2    0  502  0.87678891506E+02 -0.66265175580E+02 -0.15607167343E+03  0.19088485733E+03  0.00000000000E+00 0.  1.
<scales pt_clust_5="13000.00000" pt_clust_6="13000.00000" pt_clust_7="13000.00000" pt_clust_8="13000.00000" pt_clust_9="109.90296"></scales>
<clustering>
<clus scale="   74.126">  5  6 -1 -1</clus>
<clus scale="   90.683">  7  8 -1 -1</clus>
<clus scale="  109.903">  2  9  1 -1</clus>
<clus scale="  141.401">  2  5  1 -1</clus>
<clus scale="  109.903">  2  5  1 -1</clus>
</clustering>
</event>
<event>
 9    1  0.3288491E-005  0.1093711E+03  0.7546771E-02  0.1263474E+00
         21   -1    0    0  501  502  0.00000000000E+00  0.00000000000E+00  0.17719355955E+02  0.17719355955E+02  0.00000000000E+00 0. -1.
          1   -1    0    0  502    0 -0.00000000000E+00 -0.00000000000E+00 -0.98694456082E+03  0.98694456082E+03  0.00000000000E+00 0. -1.
         23    2    1    2    0    0 -0.40284101961E+02 -0.20691278703E+02 -0.48343413714E+03  0.49477065428E+03  0.95071012942E+02 0.  0.
         23    2    1    2    0    0  0.70101520799E+02 -0.47215507899E+00 -0.40980587465E+03  0.42556818341E+03  0.90845900756E+02 0.  0.
        -13    1    4    4    0    0  0.35263455609E+02  0.40644519343E+02 -0.13134035423E+03  0.14193581966E+03  0.00000000000E+00 0.  1.
         13    1    4    4    0    0  0.34838065190E+02 -0.41116674422E+02 -0.27846552042E+03  0.28363236375E+03  0.00000000000E+00 0. -1.
        -13    1    3    3    0    0 -0.67724538091E+02 -0.22968155820E+01 -0.38561678309E+03  0.39152546765E+03  0.00000000000E+00 0.  1.
         13    1    3    3    0    0  0.27440436130E+02 -0.18394463121E+02 -0.97817354047E+02  0.10324518663E+03  0.00000000000E+00 0. -1.
          1    1    1    2  501    0 -0.29817418839E+02  0.21163433782E+02 -0.75985193083E+02  0.84325079090E+02  0.00000000000E+00 0. -1.
<scales pt_clust_5="13000.00000" pt_clust_6="13000.00000" pt_clust_7="13000.00000" pt_clust_8="13000.00000" pt_clust_9="36.56459"></scales>
<clustering>
<clus scale="   36.565">  1  9  2 -1</clus>
<clus scale="   90.846">  5  6 -1 -1</clus>
<clus scale="   95.071">  7  8 -1 -1</clus>
<clus scale="  105.719">  1  5  2 -1</clus>
<clus scale="   36.565">  1  5  2 -1</clus>
</clustering>
</event>
<event>
 9    1  0.3288491E-005  0.2027600E+03  0.7546771E-02  0.1147587E+00
          2   -1    0    0  502    0 -0.00000000000E+00  0.00000000000E+00  0.99577988135E+03  0.99577988135E+03  0.00000000000E+00 0. -1.
         21   -1    0    0  501  502  0.00000000000E+00 -0.00000000000E+00 -0.53979560583E+02  0.53979560583E+02  0.00000000000E+00 0.  1.
         23    2    1    2    0    0  0.14739234519E+03  0.97199700379E+02  0.52997030991E+03  0.56592878139E+03  0.90744537294E+02 0.  0.
         23    2    1    2    0    0 -0.14226139120E+03 -0.12091525838E+03  0.40951397248E+03  0.45945611616E+03  0.92409014069E+02 0.  0.
        -11    1    3    3    0    0  0.26305496863E+02  0.58371060655E+02  0.11160664298E+03  0.12866702236E+03  0.00000000000E+00 0.  1.
         11    1    3    3    0    0  0.12108684833E+03  0.38828639724E+02  0.41836366693E+03  0.43726175903E+03  0.00000000000E+00 0. -1.
        -11    1    4    4    0    0  0.20779991090E+01 -0.42795740696E+02  0.10758119671E+03  0.11579942740E+03  0.00000000000E+00 0. -1.
         11    1    4    4    0    0 -0.14433939031E+03 -0.78119517683E+02  0.30193277577E+03  0.34365668875E+03  0.00000000000E+00 0.  1.
          2    1    1    2  501    0 -0.51309539852E+01  0.23715557999E+02  0.23160383740E+01  0.24374544381E+02  0.00000000000E+00 0. -1.
<scales pt_clust_5="13000.00000" pt_clust_6="13000.00000" pt_clust_7="13000.00000" pt_clust_8="13000.00000" pt_clust_9="24.26426"></scales>
<clustering>
<clus scale="   24.264">  2  9  1 -1</clus>
<clus scale="   90.745">  5  6 -1 -1</clus>
<clus scale="   92.409">  7  8 -1 -1</clus>
<clus scale="  202.007">  1  5  2 -1</clus>
<clus scale="   24.264">  2  5  1 -1</clus>
</clustering>
</event>
<event>
 9    1  0.3288491E-005  0.1922468E+03  0.7546771E-02  0.1177050E+00
          1   -1    0    0  502    0 -0.00000000000E+00  0.00000000000E+00  0.23012683120E+03  0.23012683120E+03  0.00000000000E+00 0. -1.
         21   -1    0    0  501  502  0.00000000000E+00 -0.00000000000E+00 -0.38478230533E+03  0.38478230533E+03  0.00000000000E+00 0. -1.
         23    2    1    2    0    0  0.31209183188E+02  0.73950899601E+02  0.63798233228E+02  0.13562784374E+03  0.88780339983E+02 0.  0.
         23    2    1    2    0    0 -0.16840345946E+03  0.36735928227E+02 -0.23162577088E+03  0.30251210273E+03  0.90298510423E+02 0.  0.
        -11    1    3    3    0    0  0.31124292626E+02 -0.26639848423E+01  0.48205879140E+02  0.57442364074E+02  0.00000000000E+00 0.  1.
         11    1    3    3    0    0  0.84890561553E-01  0.76614884443E+02  0.15592354088E+02  0.78185479666E+02  0.00000000000E+00 0. -1.
        -13    1    4    4    0    0 -0.15830633119E+03  0.26298066292E+01 -0.17876700001E+03  0.23880002234E+03  0.00000000000E+00 0. -1.
         13    1    4    4    0    0 -0.10097128263E+02  0.34106121598E+02 -0.52858770871E+02  0.63712080390E+02  0.00000000000E+00 0.  1.
          1    1    1    2  501    0  0.13719427627E+03 -0.11068682783E+03  0.13172063526E+02  0.17676919006E+03  0.00000000000E+00 0. -1.
<scales pt_clust_5="13000.00000" pt_clust_6="13000.00000" pt_clust_7="13000.00000" pt_clust_8="13000.00000" pt_clust_9="169.72047"></scales>
<clustering>
<clus scale="   88.780">  5  6 -1 -1</clus>
<clus scale="   90.299">  7  8 -1 -1</clus>
<clus scale="  119.686">  1  5  2 -1</clus>
<clus scale="  169.720">  2  9  1 -1</clus>
<clus scale="  169.720">  2  5  1 -1</clus>
</clustering>
</event>
<event>
 9    1  0.3288491E-005  0.1011070E+03  0.7546771E-02  0.1279166E+00
         21   -1    0    0  501  502  0.00000000000E+00  0.00000000000E+00  0.30192629690E+03  0.30192629690E+03  0.00000000000E+00 0.  1.
         -2   -1    0    0    0  501 -0.00000000000E+00 -0.00000000000E+00 -0.50738892061E+02  0.50738892061E+02  0.00000000000E+00 0.  1.
         23    2    1    2    0    0  0.40142237842E+02  0.27229882400E+02  0.58449768374E+02  0.11818149546E+03  0.90540734983E+02 0.  0.
         23    2    1    2    0    0 -0.31059877596E+02  0.26934918779E+01  0.11782527305E+03  0.15330635807E+03  0.92995019006E+02 0.  0.
        -11    1    3    3    0    0  0.64570560430E+02  0.26551321288E+02  0.62142064062E+02  0.93466390014E+02  0.00000000000E+00 0.  1.
         11    1    3    3    0    0 -0.24428322589E+02  0.67856111194E+00 -0.36922956877E+01  0.24715105444E+02  0.00000000000E+00 0. -1.
        -13    1    4    4    0    0 -0.35111468689E+02 -0.35777594155E+02  0.32830299048E+02  0.59922283105E+02  0.00000000000E+00 0. -1.
         13    1    4    4    0    0  0.40515910927E+01  0.38471086033E+02  0.84994974003E+02  0.93384074963E+02  0.00000000000E+00 0.  1.
         -2    1    1    2    0  502 -0.90823602458E+01 -0.29923374278E+02  0.74912363416E+02  0.81177335436E+02  0.00000000000E+00 0.  1.
<scales pt_clust_5="13000.00000" pt_clust_6="13000.00000" pt_clust_7="13000.00000" pt_clust_8="13000.00000" pt_clust_9="31.27135"></scales>
<clustering>
<clus scale="   31.271">  1  9  2 -1</clus>
<clus scale="   90.541">  5  6 -1 -1</clus>
<clus scale="   92.995">  7  8 -1 -1</clus>
<clus scale="   98.854">  2  5  1 -1</clus>
<clus scale="   31.271">  1  5  2 -1</clus>
</clustering>
</event>
<event>
 9    1  0.3288491E-005  0.1600486E+03  0.7546771E-02  0.1188967E+00
         21   -1    0    0  501  502  0.00000000000E+00  0.00000000000E+00  0.14688992789E+03  0.14688992789E+03  0.00000000000E+00 0. -1.
         -1   -1    0    0    0  501 -0.00000000000E+00 -0.00000000000E+00 -0.26779295481E+03  0.26779295481E+03  0.00000000000E+00 0.  1.
         23    2    1    2    0    0  0.10410204538E+03  0.68363770600E+02 -0.14120252203E+03  0.20914876725E+03  0.91072573439E+02 0.  0.
         23    2    1    2    0    0 -0.13322486648E+03 -0.61534566653E+02  0.10618327599E+02  0.17409366795E+03  0.93061745086E+02 0.  0.
        -13    1    3    3    0    0  0.71907457419E+02  0.30366806239E+02 -0.23775243586E+02  0.81597105103E+02  0.00000000000E+00 0. -1.
         13    1    3    3    0    0  0.32194587964E+02  0.37996964361E+02 -0.11742727844E+03  0.12755166215E+03  0.00000000000E+00 0.  1.
        -13    1    4    4    0    0  0.73306489071E+01 -0.28020903502E+02  0.56670059165E+01  0.29513122547E+02  0.00000000000E+00 0.  1.
         13    1    4    4    0    0 -0.14055551538E+03 -0.33513663152E+02  0.49513216824E+01  0.14458054540E+03  0.00000000000E+00 0. -1.
         -1    1    1    2    0  502  0.29122821092E+02 -0.68292039463E+01  0.96811675117E+01  0.31440447504E+02  0.00000000000E+00 0.  1.
<scales pt_clust_5="13000.00000" pt_clust_6="13000.00000" pt_clust_7="13000.00000" pt_clust_8="13000.00000" pt_clust_9="29.91282"></scales>
<clustering>
<clus scale="   29.913">  1  9  2 -1</clus>
<clus scale="   91.073">  5  6 -1 -1</clus>
<clus scale="   93.062">  7  8 -1 -1</clus>
<clus scale="  158.900">  2  5  1 -1</clus>
<clus scale="   29.913">  1  5  2 -1</clus>
</clustering>
</event>
<event>
 9    1  0.3849527E-005  0.1163909E+03  0.7546771E-02  0.1249660E+00
          4   -1    0    0  502    0 -0.00000000000E+00  0.00000000000E+00  0.33970087894E+03  0.33970087894E+03  0.00000000000E+00 0. -1.
         21   -1    0    0  501  502  0.00000000000E+00 -0.00000000000E+00 -0.18495441876E+03  0.18495441876E+03  0.00000000000E+00 0. -1.
         23    2    1    2    0    0 -0.35359993947E+02 -0.67516981484E+02  0.28420198637E+03  0.30836107749E+03  0.92232928458E+02 0.  0.
         23    2    1    2    0    0  0.49875498112E+02 -0.35654664260E+00 -0.83364501552E+02  0.13297616555E+03  0.90803788725E+02 0.  0.
        -11    1    3    3    0    0  0.16682511358E+02 -0.12753080839E+02  0.87710129442E+01  0.22756931344E+02  0.00000000000E+00 0.  1.
         11    1    3    3    0    0 -0.52042505305E+02 -0.54763900644E+02  0.27543097343E+03  0.28560414614E+03  0.00000000000E+00 0. -1.
        -13    1    4    4    0    0  0.67851435654E+02 -0.25646827741E+02 -0.56779517598E+02  0.92116723303E+02  0.00000000000E+00 0. -1.
         13    1    4    4    0    0 -0.17975937542E+02  0.25290281098E+02 -0.26584983954E+02  0.40859442243E+02  0.00000000000E+00 0.  1.
          4    1    1    2  501    0 -0.14515504165E+02  0.67873528126E+02 -0.46091024631E+02  0.83318054664E+02  0.00000000000E+00 0. -1.
<scales pt_clust_5="13000.00000" pt_clust_6="13000.00000" pt_clust_7="13000.00000" pt_clust_8="13000.00000" pt_clust_9="69.40833"></scales>
<clustering>
<clus scale="   69.408">  2  9  1 -1</clus>
<clus scale="   90.804">  7  8 -1 -1</clus>
<clus scale="   92.233">  5  6 -1 -1</clus>
<clus scale="  115.262">  2  7  1 -1</clus>
<clus scale="   69.408">  2  5  1 -1</clus>
</clustering>
</event>
<event>
 9    1  0.3288491E-005  0.1143984E+03  0.7546771E-02  0.1253073E+00
         21   -1    0    0  501  502  0.00000000000E+00  0.00000000000E+00  0.24599881189E+03  0.24599881189E+03  0.00000000000E+00 0.  1.
         -2   -1    0    0    0  501 -0.00000000000E+00 -0.00000000000E+00 -0.11320189958E+03  0.11320189958E+03  0.00000000000E+00 0.  1.
         23    2    1    2    0    0  0.64506936369E+02  0.54653637190E+02 -0.18400573682E+02  0.12653947549E+03  0.92333595447E+02 0.  0.
         23    2    1    2    0    0 -0.30602230522E+02 -0.34395253607E+02  0.31819336854E+02  0.10691914409E+03  0.91102706824E+02 0.  0.
        -11    1    4    4    0    0 -0.51646060447E+02 -0.50685076583E+02  0.34512628375E+02  0.80171154821E+02  0.00000000000E+00 0.  1.
         11    1    4    4    0    0  0.21043829925E+02  0.16289822976E+02 -0.26932915215E+01  0.26747989265E+02  0.00000000000E+00 0. -1.
        -11    1    3    3    0    0  0.23328073747E+02  0.21377926601E+02 -0.54107618020E+02  0.62680532051E+02  0.00000000000E+00 0.  1.
         11    1    3    3    0    0  0.41178862621E+02  0.33275710590E+02  0.35707044338E+02  0.63858943441E+02  0.00000000000E+00 0. -1.
         -2    1    1    2    0  502 -0.33904705846E+02 -0.20258383583E+02  0.11937814913E+03  0.12574209189E+03  0.00000000000E+00 0.  1.
<scales pt_clust_5="13000.00000" pt_clust_6="13000.00000" pt_clust_7="13000.00000" pt_clust_8="13000.00000" pt_clust_9="39.49596"></scales>
<clustering>
<clus scale="   39.496">  1  9  2 -1</clus>
<clus scale="   91.103">  5  6 -1 -1</clus>
<clus scale="   92.334">  7  8 -1 -1</clus>
<clus scale="  113.407">  1  5  2 -1</clus>
<clus scale="   39.496">  1  5  2 -1</clus>
</clustering>
</event>
<event>
 9    1  0.3288491E-005  0.1122853E+03  0.7546771E-02  0.1256496E+00
         21   -1    0    0  501  502  0.00000000000E+00  0.00000000000E+00  0.38869587745E+02  0.38869587745E+02  0.00000000000E+00 0. -1.
          1   -1    0    0  502    0 -0.00000000000E+00 -0.00000000000E+00 -0.54159626077E+03  0.54159626077E+03  0.00000000000E+00 0. -1.
         23    2    1    2    0    0  0.67298092985E+02 -0.18082106888E+02 -0.23245314704E+03  0.25930511154E+03  0.91371108072E+02 0.  0.
         23    2    1    2    0    0 -0.61971365462E+02 -0.37111577746E+02 -0.20346518030E+03  0.23433866661E+03  0.91097814111E+02 0.  0.
        -13    1    3    3    0    0 -0.21314696361E+02 -0.13489101482E+02 -0.66431337536E+02  0.71059093342E+02  0.00000000000E+00 0.  1.
         13    1    3    3    0    0  0.88612789347E+02 -0.45930054062E+01 -0.16602180951E+03  0.18824601820E+03  0.00000000000E+00 0. -1.
        -13    1    4    4    0    0  0.18460195737E+02 -0.17188456204E+02 -0.92325030805E+02  0.95708584602E+02  0.00000000000E+00 0. -1.
         13    1    4    4    0    0 -0.80431561199E+02 -0.19923121542E+02 -0.11114014949E+03  0.13863008201E+03  0.00000000000E+00 0.  1.
          1    1    1    2  501    0 -0.53267275233E+01  0.55193684634E+02 -0.66808345689E+02  0.86822070370E+02  0.00000000000E+00 0. -1.
<scales pt_clust_5="13000.00000" pt_clust_6="13000.00000" pt_clust_7="13000.00000" pt_clust_8="13000.00000" pt_clust_9="55.45013"></scales>
<clustering>
<clus scale="   55.450">  1  9  2 -1</clus>
<clus scale="   91.098">  7  8 -1 -1</clus>
<clus scale="   91.371">  5  6 -1 -1</clus>
<clus scale="  112.063">  1  7  2 -1</clus>
<clus scale="   55.450">  1  5  2 -1</clus>
</clustering>
</event>
<event>
 9    1  0.3288491E-005  0.1024706E+03  0.7546771E-02  0.1275570E+00
         21   -1    0    0  501  502  0.00000000000E+00  0.00000000000E+00  0.14494068421E+03  0.14494068421E+03  0.00000000000E+00 0. -1.
          1   -1    0    0  502    0 -0.00000000000E+00 -0.00000000000E+00 -0.24603801212E+03  0.24603801212E+03  0.00000000000E+00 0. -1.
         23    2    1    2    0    0  0.13937693194E+02 -0.36135969250E+02 -0.10564147996E+03  0.14471105809E+03  0.91000552093E+02 0.  0.
         23    2    1    2    0    0  0.52588560242E+02  0.63984736199E+02 -0.71249438308E+02  0.14164467442E+03  0.90150586224E+02 0.  0.
        -11    1    3    3    0    0  0.51194288789E+02 -0.32681176821E+02 -0.56556037511E+02  0.82990962773E+02  0.00000000000E+00 0. -1.
         11    1    3    3    0    0 -0.37256595594E+02 -0.34547924290E+01 -0.49085442450E+02  0.61720095322E+02  0.00000000000E+00 0.  1.
        -13    1    4    4    0    0 -0.17251122252E+02  0.15961745661E+02 -0.48488870416E+02  0.53884590541E+02  0.00000000000E+00 0.  1.
         13    1    4    4    0    0  0.69839682494E+02  0.48022990539E+02 -0.22760567891E+02  0.87760083876E+02  0.00000000000E+00 0. -1.
          1    1    1    2  501    0 -0.66526253437E+02 -0.27848766950E+02  0.75793590360E+02  0.10462296381E+03  0.00000000000E+00 0. -1.
<scales pt_clust_5="13000.00000" pt_clust_6="13000.00000" pt_clust_7="13000.00000" pt_clust_8="13000.00000" pt_clust_9="72.12001"></scales>
<clustering>
<clus scale="   72.120">  1  9  2 -1</clus>
<clus scale="   90.151">  7  8 -1 -1</clus>
<clus scale="   91.001">  5  6 -1 -1</clus>
<clus scale="  101.717">  1  7  2 -1</clus>
<clus scale="   72.120">  1  5  2 -1</clus>
</clustering>
</event>
<event>
 9    1  0.3288491E-005  0.1067784E+03  0.7546771E-02  0.1270736E+00
          1   -1    0    0  502    0 -0.00000000000E+00  0.00000000000E+00  0.44542838657E+03  0.44542838657E+03  0.00000000000E+00 0. -1.
         21   -1    0    0  501  502  0.00000000000E+00 -0.00000000000E+00 -0.40402455055E+02  0.40402455055E+02  0.00000000000E+00 0. -1.
         23    2    1    2    0    0 -0.31386392582E+02 -0.36578403218E+02  0.27997518753E+03  0.30132970324E+03  0.10045097910E+03 0.  0.
         23    2    1    2    0    0  0.45851621049E+01  0.19208280117E+02  0.11969782223E+03  0.15211779539E+03  0.91772944233E+02 0.  0.
        -11    1    3    3    0    0 -0.66813735727E+02 -0.15176516428E+02  0.14962999181E+03  0.16457076405E+03  0.00000000000E+00 0. -1.
         11    1    3    3    0    0  0.35427343145E+02 -0.21401886791E+02  0.13034519572E+03  0.13675893919E+03  0.00000000000E+00 0.  1.
        -11    1    4    4    0    0  0.73346282559E+01 -0.30331763184E+02  0.11806692809E+02  0.33364811173E+02  0.00000000000E+00 0.  1.
         11    1    4    4    0    0 -0.27494661511E+01  0.49540043301E+02  0.10789112942E+03  0.11875298422E+03  0.00000000000E+00 0. -1.
          1    1    1    2  501    0  0.26801230477E+02  0.17370123101E+02  0.53529217579E+01  0.32383342986E+02  0.00000000000E+00 0. -1.
<scales pt_clust_5="13000.00000" pt_clust_6="13000.00000" pt_clust_7="13000.00000" pt_clust_8="13000.00000" pt_clust_9="31.93786"></scales>
<clustering>
<clus scale="   31.938">  2  9  1 -1</clus>
<clus scale="   91.773">  7  8 -1 -1</clus>
<clus scale="   98.658">  2  7  1 -1</clus>
<clus scale="  100.451">  5  6 -1 -1</clus>
<clus scale="   31.938">  2  5  1 -1</clus>
</clustering>
</event>
<event>
 9    1  0.3288491E-005  0.1678492E+03  0.7546771E-02  0.1180142E+00
         21   -1    0    0  501  502  0.00000000000E+00  0.00000000000E+00  0.21414808913E+03  0.21414808913E+03  0.00000000000E+00 0. -1.
         -3   -1    0    0    0  501 -0.00000000000E+00 -0.00000000000E+00 -0.22587464538E+03  0.22587464538E+03  0.00000000000E+00 0.  1.
         23    2    1    2    0    0  0.52618266349E+02  0.10040061337E+03  0.95097325285E+01  0.14634665687E+03  0.92075750583E+02 0.  0.
         23    2    1    2    0    0 -0.12881024096E+03 -0.12892190943E+03  0.14965007639E+02  0.20462993688E+03  0.91850545492E+02 0.  0.
        -11    1    3    3    0    0  0.31171932127E+02 -0.10586051425E+02  0.41364464040E+01  0.33179271031E+02  0.00000000000E+00 0.  1.
         11    1    3    3    0    0  0.21446334222E+02  0.11098666479E+03  0.53732861245E+01  0.11316738584E+03  0.00000000000E+00 0. -1.
        -13    1    4    4    0    0 -0.86971008969E+02 -0.75118626844E+02 -0.34986842507E+02  0.12012844646E+03  0.00000000000E+00 0.  1.
         13    1    4    4    0    0 -0.41839231991E+02 -0.53803282582E+02  0.49951850146E+02  0.84501490419E+02  0.00000000000E+00 0. -1.
         -3    1    1    2    0  502  0.76191974611E+02  0.28521296058E+02 -0.36201296416E+02  0.89046140770E+02  0.00000000000E+00 0.  1.
<scales pt_clust_5="13000.00000" pt_clust_6="13000.00000" pt_clust_7="13000.00000" pt_clust_8="13000.00000" pt_clust_9="81.35532"></scales>
<clustering>
<clus scale="   81.355">  1  9  2 -1</clus>
<clus scale="   91.851">  7  8 -1 -1</clus>
<clus scale="   92.076">  5  6 -1 -1</clus>
<clus scale="  167.726">  1  7  2 -1</clus>
<clus scale="   81.355">  1  5  2 -1</clus>
</clustering>
</event>
<event>
 9    1  0.3288491E-005  0.9455080E+02  0.7546771E-02  0.1292517E+00
         21   -1    0    0  501  502  0.00000000000E+00  0.00000000000E+00  0.96390458883E+02  0.96390458883E+02  0.00000000000E+00 0. -1.
          1   -1    0    0  502    0 -0.00000000000E+00 -0.00000000000E+00 -0.58933531140E+03  0.58933531140E+03  0.00000000000E+00 0. -1.
         23    2    1    2    0    0 -0.32405309562E+02 -0.28231442020E+02 -0.44062829505E+03  0.45195687385E+03  0.90909861999E+02 0.  0.
         23    2    1    2    0    0 -0.23005715228E+02 -0.43952454490E+02 -0.88508769804E+02  0.13583640531E+03  0.90314148869E+02 0.  0.
        -13    1    3    3    0    0 -0.21023965730E+02  0.30066763805E+02 -0.10786200392E+03  0.11393080931E+03  0.00000000000E+00 0. -1.
         13    1    3    3    0    0 -0.11381343831E+02 -0.58298205826E+02 -0.33276629113E+03  0.33802606453E+03  0.00000000000E+00 0.  1.
        -13    1    4    4    0    0 -0.32353595771E+01  0.28010208480E+02 -0.28286411291E+02  0.39939459116E+02  0.00000000000E+00 0.  1.
         13    1    4    4    0    0 -0.19770355651E+02 -0.71962662970E+02 -0.60222358513E+02  0.95896946193E+02  0.00000000000E+00 0. -1.
          1    1    1    2  501    0  0.55411024790E+02  0.72183896510E+02  0.36192212345E+02  0.97932491125E+02  0.00000000000E+00 0. -1.
<scales pt_clust_5="13000.00000" pt_clust_6="13000.00000" pt_clust_7="13000.00000" pt_clust_8="13000.00000" pt_clust_9="90.99943"></scales>
<clustering>
<clus scale="   90.314">  7  8 -1 -1</clus>
<clus scale="   90.910">  5  6 -1 -1</clus>
<clus scale="   90.999">  1  9  2 -1</clus>
<clus scale="   93.978">  1  7  2 -1</clus>
<clus scale="   90.999">  1  5  2 -1</clus>
</clustering>
</event>
<event>
 9    1  0.3288491E-005  0.1144181E+03  0.7546771E-02  0.1252743E+00
         -3   -1    0    0    0  501 -0.00000000000E+00  0.00000000000E+00  0.23271084666E+03  0.23271084666E+03  0.00000000000E+00 0.  1.
         21   -1    0    0  501  502  0.00000000000E+00 -0.00000000000E+00 -0.11385739093E+03  0.11385739093E+03  0.00000000000E+00 0. -1.
         23    2    1    2    0    0 -0.31538200775E+02 -0.61374077100E+02  0.13944141359E+03  0.18047594781E+03  0.91467067659E+02 0.  0.
         23    2    1    2    0    0 -0.11339379042E+02  0.75679167421E+02 -0.13220246945E+02  0.12029484854E+03  0.91870331213E+02 0.  0.
        -11    1    3    3    0    0 -0.93177558226E+01 -0.66939052098E+02  0.14216095926E+03  0.15740837210E+03  0.00000000000E+00 0.  1.
         11    1    3    3    0    0 -0.22220444952E+02  0.55649749982E+01 -0.27195456680E+01  0.23067575712E+02  0.00000000000E+00 0. -1.
        -13    1    4    4    0    0  0.96394902708E+01  0.84569159802E+02  0.12392623079E+02  0.86014182953E+02  0.00000000000E+00 0. -1.
         13    1    4    4    0    0 -0.20978869313E+02 -0.88899923808E+01 -0.25612870024E+02  0.34280665586E+02  0.00000000000E+00 0.  1.
         -3    1    1    2    0  502  0.42877579817E+02 -0.14305090321E+02 -0.73677109228E+01  0.45797441242E+02  0.00000000000E+00 0.  1.
<scales pt_clust_5="13000.00000" pt_clust_6="13000.00000" pt_clust_7="13000.00000" pt_clust_8="13000.00000" pt_clust_9="45.20091"></scales>
<clustering>
<clus scale="   45.201">  2  9  1 -1</clus>
<clus scale="   91.467">  5  6 -1 -1</clus>
<clus scale="   91.870">  7  8 -1 -1</clus>
<clus scale="  114.095">  1  5  2 -1</clus>
<clus scale="   45.201">  2  5  1 -1</clus>
</clustering>
</event>
<event>
 9    1  0.3288491E-005  0.1397179E+03  0.7546771E-02  0.1213728E+00
         -1   -1    0    0    0  501 -0.00000000000E+00  0.00000000000E+00  0.31584375993E+03  0.31584375993E+03  0.00000000000E+00 0.  1.
         21   -1    0    0  501  502  0.00000000000E+00 -0.00000000000E+00 -0.14636723022E+03  0.14636723022E+03  0.00000000000E+00 0. -1.
         23    2    1    2    0    0 -0.94760907102E+02  0.38394410950E+02  0.20311107581E+03  0.24505520396E+03  0.91346502747E+02 0.  0.
         23    2    1    2    0    0  0.11584755040E+03 -0.20563191374E+02  0.26165685862E+02  0.15128723026E+03  0.91431302894E+02 0.  0.
        -11    1    4    4    0    0  0.71327866428E+02  0.28238589006E+02 -0.76184448025E+01  0.77091654149E+02  0.00000000000E+00 0.  1.
         11    1    4    4    0    0  0.44519683974E+02 -0.48801780380E+02  0.33784130664E+02  0.74195576109E+02  0.00000000000E+00 0. -1.
        -13    1    3    3    0    0 -0.90526366677E+02  0.89516036069E+01  0.89498655682E+02  0.12761333645E+03  0.00000000000E+00 0. -1.
         13    1    3    3    0    0 -0.42345404254E+01  0.29442807343E+02  0.11361242013E+03  0.11744186751E+03  0.00000000000E+00 0.  1.
         -1    1    1    2    0  502 -0.21086643300E+02 -0.17831219576E+02 -0.59800231963E+02  0.65868555928E+02  0.00000000000E+00 0.  1.
<scales pt_clust_5="13000.00000" pt_clust_6="13000.00000" pt_clust_7="13000.00000" pt_clust_8="13000.00000" pt_clust_9="27.61519"></scales>
<clustering>
<clus scale="   27.615">  2  9  1 -1</clus>
<clus scale="   91.347">  7  8 -1 -1</clus>
<clus scale="   91.431">  5  6 -1 -1</clus>
<clus scale="  139.662">  1  7  2 -1</clus>
<clus scale="   27.615">  2  5  1 -1</clus>
</clustering>
</event>
<event>
 9    1  0.3288491E-005  0.1523536E+03  0.7546771E-02  0.1197931E+00
          1   -1    0    0  502    0 -0.00000000000E+00  0.00000000000E+00  0.56052785754E+03  0.56052785754E+03  0.00000000000E+00 0. -1.
         21   -1    0    0  501  502  0.00000000000E+00 -0.00000000000E+00 -0.71052396005E+02  0.71052396005E+02  0.00000000000E+00 0.  1.
         23    2    1    2    0    0 -0.95680023447E+02  0.86775105779E+02  0.37661107197E+03  0.40894110910E+03  0.93339944850E+02 0.  0.
         23    2    1    2    0    0  0.50144226205E+02 -0.93481793057E+02  0.10681354125E+03  0.17621607637E+03  0.91595217795E+02 0.  0.
        -11    1    3    3    0    0 -0.64277127042E+02  0.10465477999E+03  0.27816066491E+03  0.30406829420E+03  0.00000000000E+00 0.  1.
         11    1    3    3    0    0 -0.31402896405E+02 -0.17879674212E+02  0.98450407064E+02  0.10487281489E+03  0.00000000000E+00 0. -1.
        -13    1    4    4    0    0  0.23066494540E+02 -0.10385944390E+03  0.10088642716E+03  0.14661827459E+03  0.00000000000E+00 0. -1.
         13    1    4    4    0    0  0.27077731665E+02  0.10377650844E+02  0.59271140928E+01  0.29597801787E+02  0.00000000000E+00 0.  1.
          1    1    1    2  501    0  0.45535797242E+02  0.67066872778E+01  0.60508483131E+01  0.46423068080E+02  0.00000000000E+00 0. -1.
<scales pt_clust_5="13000.00000" pt_clust_6="13000.00000" pt_clust_7="13000.00000" pt_clust_8="13000.00000" pt_clust_9="46.02704"></scales>
<clustering>
<clus scale="   46.027">  2  9  1 -1</clus>
<clus scale="   91.595">  7  8 -1 -1</clus>
<clus scale="   93.340">  5  6 -1 -1</clus>
<clus scale="  151.291">  2  7  1 -1</clus>
<clus scale="   46.027">  2  5  1 -1</clus>
</clustering>
</event>
<event>
 9    1  0.3288491E-005  0.1019709E+03  0.7546771E-02  0.1276383E+00
          2   -1    0    0  502    0 -0.00000000000E+00  0.00000000000E+00  0.42210224154E+03  0.42210224154E+03  0.00000000000E+00 0. -1.
         21   -1    0    0  501  502  0.00000000000E+00 -0.00000000000E+00 -0.13451676978E+03  0.13451676978E+03  0.00000000000E+00 0. -1.
         23    2    1    2    0    0  0.10074414033E+02  0.16503535215E+02  0.15646584858E+03  0.18252825002E+03  0.91984454075E+02 0.  0.
         23    2    1    2    0    0  0.14199099405E+02 -0.74703011767E+02  0.22874550557E+03  0.25787030081E+03  0.91599297630E+02 0.  0.
        -11    1    4    4    0    0  0.36445993101E+02  0.44450436568E+01  0.75994198931E+02  0.84398975689E+02  0.00000000000E+00 0.  1.
         11    1    4    4    0    0 -0.22246893696E+02 -0.79148055424E+02  0.15275130664E+03  0.17347132512E+03  0.00000000000E+00 0. -1.
        -13    1    3    3    0    0  0.27592464260E+02 -0.15164504142E+02  0.13866943037E+03  0.14219886493E+03  0.00000000000E+00 0. -1.
         13    1    3    3    0    0 -0.17518050227E+02  0.31668039357E+02  0.17796418212E+02  0.40329385089E+02  0.00000000000E+00 0.  1.
          2    1    1    2  501    0 -0.24273513438E+02  0.58199476553E+02 -0.97625882386E+02  0.11622046049E+03  0.00000000000E+00 0. -1.
<scales pt_clust_5="13000.00000" pt_clust_6="13000.00000" pt_clust_7="13000.00000" pt_clust_8="13000.00000" pt_clust_9="63.05856"></scales>
<clustering>
<clus scale="   63.059">  2  9  1 -1</clus>
<clus scale="   91.599">  5  6 -1 -1</clus>
<clus scale="   91.984">  7  8 -1 -1</clus>
<clus scale="  101.624">  2  5  1 -1</clus>
<clus scale="   63.059">  2  5  1 -1</clus>
</clustering>
</event>
<event>
 9    1  0.3288491E-005  0.1052426E+03  0.7546771E-02  0.1276944E+00
         21   -1    0    0  501  502  0.00000000000E+00  0.00000000000E+00  0.11837702051E+03  0.11837702051E+03  0.00000000000E+00 0. -1.
          2   -1    0    0  502    0 -0.00000000000E+00 -0.00000000000E+00 -0.24675199925E+03  0.24675199925E+03  0.00000000000E+00 0. -1.
         23    2    1    2    0    0 -0.16136291348E+02  0.27740964349E+02 -0.10653155252E+03  0.14785822993E+03  0.97381432897E+02 0.  0.
         23    2    1    2    0    0  0.91000996645E+01 -0.47371408171E+02 -0.98925787354E+02  0.13741746982E+03  0.82282364338E+02 0.  0.
        -11    1    4    4    0    0 -0.20468540423E+02 -0.52965125977E+02 -0.34842940618E+02  0.66620539083E+02  0.00000000000E+00 0. -1.
         11    1    4    4    0    0  0.29568640087E+02  0.55937178055E+01 -0.64082846735E+02  0.70796930733E+02  0.00000000000E+00 0.  1.
        -11    1    3    3    0    0  0.28986742302E+02 -0.14475776658E+02 -0.67218845941E+02  0.74620054870E+02  0.00000000000E+00 0. -1.
         11    1    3    3    0    0 -0.45123033650E+02  0.42216741008E+02 -0.39312706583E+02  0.73238175059E+02  0.00000000000E+00 0.  1.
          2    1    1    2  501    0  0.70361916840E+01  0.19630443822E+02  0.77082361138E+02  0.79853320010E+02  0.00000000000E+00 0. -1.
<scales pt_clust_5="13000.00000" pt_clust_6="13000.00000" pt_clust_7="13000.00000" pt_clust_8="13000.00000" pt_clust_9="20.85335"></scales>
<clustering>
<clus scale="   20.853">  1  9  2 -1</clus>
<clus scale="   82.282">  5  6 -1 -1</clus>
<clus scale="   91.451">  1  5  2 -1</clus>
<clus scale="   97.381">  7  8 -1 -1</clus>
<clus scale="   20.853">  1  5  2 -1</clus>
</clustering>
</event>
<event>
 9    1  0.3288491E-005  0.2884315E+03  0.7546771E-02  0.1091294E+00
         21   -1    0    0  501  502  0.00000000000E+00  0.00000000000E+00  0.61459974551E+03  0.61459974551E+03  0.00000000000E+00 0. -1.
          1   -1    0    0  502    0 -0.00000000000E+00 -0.00000000000E+00 -0.27370443303E+03  0.27370443303E+03  0.00000000000E+00 0. -1.
         23    2    1    2    0    0 -0.17660656766E+03 -0.21733055094E+03 -0.10206517258E+03  0.31081460727E+03  0.88124755457E+02 0.  0.
         23    2    1    2    0    0  0.13704298239E+03  0.21818330426E+03  0.21943193182E+03  0.35048512509E+03  0.91130219614E+02 0.  0.
        -11    1    4    4    0    0  0.60120885196E+02  0.17502750768E+03  0.15091774502E+03  0.23879973836E+03  0.00000000000E+00 0.  1.
         11    1    4    4    0    0  0.76922097196E+02  0.43155796585E+02  0.68514186802E+02  0.11168538673E+03  0.00000000000E+00 0. -1.
        -13    1    3    3    0    0 -0.72659507279E+02 -0.74417760756E+02 -0.83012167494E+02  0.13307301404E+03  0.00000000000E+00 0. -1.
         13    1    3    3    0    0 -0.10394706039E+03 -0.14291279018E+03 -0.19053005090E+02  0.17774159323E+03  0.00000000000E+00 0.  1.
          1    1    1    2  501    0  0.39563585273E+02 -0.85275332360E+00  0.22352855325E+03  0.22700444618E+03  0.00000000000E+00 0. -1.
<scales pt_clust_5="13000.00000" pt_clust_6="13000.00000" pt_clust_7="13000.00000" pt_clust_8="13000.00000" pt_clust_9="39.57277"></scales>
<clustering>
<clus scale="   39.573">  1  9  2 -1</clus>
<clus scale="   88.125">  7  8 -1 -1</clus>
<clus scale="   91.130">  5  6 -1 -1</clus>
<clus scale="  287.496">  2  7  1 -1</clus>
<clus scale="   39.573">  1  5  2 -1</clus>
</clustering>
</event>
<event>
 9    1  0.3288491E-005  0.1694825E+03  0.7546771E-02  0.1179690E+00
          2   -1    0    0  502    0 -0.00000000000E+00  0.00000000000E+00  0.70709784335E+03  0.70709784335E+03  0.00000000000E+00 0. -1.
         21   -1    0    0  501  502  0.00000000000E+00 -0.00000000000E+00 -0.13293010109E+03  0.13293010109E+03  0.00000000000E+00 0. -1.
         23    2    1    2    0    0  0.27252906490E+02 -0.10890332592E+03  0.30256032888E+03  0.33546306260E+03  0.91597262245E+02 0.  0.
         23    2    1    2    0    0 -0.10271856428E+03  0.19333553501E+03  0.30700023519E+03  0.38592039071E+03  0.82192889034E+02 0.  0.
        -11    1    4    4    0    0 -0.87154143391E+01  0.73412682254E+02  0.14947460148E+03  0.16675741918E+03  0.00000000000E+00 0.  1.
         11    1    4    4    0    0 -0.94003149946E+02  0.11992285276E+03  0.15752563371E+03  0.21916297153E+03  0.00000000000E+00 0. -1.
        -11    1    3    3    0    0 -0.24605006864E+02 -0.72390790442E+02  0.12087924792E+03  0.14303015585E+03  0.00000000000E+00 0.  1.
         11    1    3    3    0    0  0.51857913354E+02 -0.36512535476E+02  0.18168108095E+03  0.19243290675E+03  0.00000000000E+00 0. -1.
          2    1    1    2  501    0  0.75465657795E+02 -0.84432209094E+02 -0.35392821807E+02  0.11864449113E+03  0.00000000000E+00 0. -1.
<scales pt_clust_5="13000.00000" pt_clust_6="13000.00000" pt_clust_7="13000.00000" pt_clust_8="13000.00000" pt_clust_9="113.24250"></scales>
<clustering>
<clus scale="   82.193">  5  6 -1 -1</clus>
<clus scale="   91.597">  7  8 -1 -1</clus>
<clus scale="  113.242">  2  9  1 -1</clus>
<clus scale="  164.590">  2  5  1 -1</clus>
<clus scale="  113.242">  2  5  1 -1</clus>
</clustering>
</event>
<event>
 9    1  0.3288491E-005  0.3138952E+03  0.7546771E-02  0.1115613E+00
         21   -1    0    0  501  502  0.00000000000E+00  0.00000000000E+00  0.33896749912E+03  0.33896749912E+03  0.00000000000E+00 0. -1.
          2   -1    0    0  502    0 -0.00000000000E+00 -0.00000000000E+00 -0.46798753951E+03  0.46798753951E+03  0.00000000000E+00 0. -1.
         23    2    1    2    0    0 -0.75336856221E+02 -0.15858821859E+02 -0.96330105413E+02  0.15321777231E+03  0.90934330188E+02 0.  0.
         23    2    1    2    0    0  0.19992317185E+03 -0.25040993497E+03 -0.10880682192E+03  0.35006872764E+03  0.89636931031E+02 0.  0.
        -13    1    3    3    0    0 -0.62153855780E+02  0.29524155984E+02 -0.73670159200E+02  0.10080709266E+03  0.00000000000E+00 0. -1.
         13    1    3    3    0    0 -0.13183000442E+02 -0.45382977843E+02 -0.22659946213E+02  0.52410679646E+02  0.00000000000E+00 0.  1.
        -13    1    4    4    0    0  0.16843112845E+03 -0.21996279269E+03 -0.58114198133E+02  0.28307231448E+03  0.00000000000E+00 0.  1.
         13    1    4    4    0    0  0.31492043398E+02 -0.30447142277E+02 -0.50692623791E+02  0.66996413166E+02  0.00000000000E+00 0. -1.
          2    1    1    2  501    0 -0.12458631563E+03  0.26626875683E+03  0.76116886945E+02  0.30366853868E+03  0.00000000000E+00 0. -1.
<scales pt_clust_5="13000.00000" pt_clust_6="13000.00000" pt_clust_7="13000.00000" pt_clust_8="13000.00000" pt_clust_9="300.82452"></scales>
<clustering>
<clus scale="   89.637">  7  8 -1 -1</clus>
<clus scale="   90.934">  5  6 -1 -1</clus>
<clus scale="  119.148">  2  5  1 -1</clus>
<clus scale="  300.825">  1  9  2 -1</clus>
<clus scale="  300.825">  1  5  2 -1</clus>
</clustering>
</event>
<event>
 9    1  0.3288491E-005  0.1649334E+03  0.7546771E-02  0.1188277E+00
         21   -1    0    0  501  502  0.00000000000E+00  0.00000000000E+00  0.16042113725E+03  0.16042113725E+03  0.00000000000E+00 0. -1.
          3   -1    0    0  502    0 -0.00000000000E+00 -0.00000000000E+00 -0.24888436423E+03  0.24888436423E+03  0.00000000000E+00 0. -1.
         23    2    1    2    0    0  0.13254985308E+03 -0.17934416944E+01 -0.52605367551E+02  0.15551060171E+03  0.61996310903E+02 0.  0.
         23    2    1    2    0    0 -0.12793849717E+03 -0.68877247474E+02 -0.50273997289E+02  0.18152155793E+03  0.96489724383E+02 0.  0.
        -11    1    4    4    0    0 -0.70767632244E+02 -0.48452468432E+01  0.16429459934E+02  0.72811134753E+02  0.00000000000E+00 0.  1.
         11    1    4    4    0    0 -0.57170864924E+02 -0.64032000631E+02 -0.66703457223E+02  0.10871042317E+03  0.00000000000E+00 0. -1.
        -13    1    3    3    0    0  0.28394722553E+02 -0.20984929569E+02 -0.31927418780E+02  0.47602390778E+02  0.00000000000E+00 0.  1.
         13    1    3    3    0    0  0.10415513052E+03  0.19191487875E+02 -0.20677948771E+02  0.10790821093E+03  0.00000000000E+00 0. -1.
          3    1    1    2  501    0 -0.46113559076E+01  0.70670689168E+02  0.14416137862E+02  0.72273341847E+02  0.00000000000E+00 0. -1.
<scales pt_clust_5="13000.00000" pt_clust_6="13000.00000" pt_clust_7="13000.00000" pt_clust_8="13000.00000" pt_clust_9="70.82098"></scales>
<clustering>
<clus scale="   61.996">  7  8 -1 -1</clus>
<clus scale="   70.821">  1  9  2 -1</clus>
<clus scale="   96.490">  5  6 -1 -1</clus>
<clus scale="  147.432">  2  7  1 -1</clus>
<clus scale="   70.821">  1  5  2 -1</clus>
</clustering>
</event>
<event>
 9    1  0.3288491E-005  0.1233632E+03  0.7546771E-02  0.1238556E+00
          1   -1    0    0  502    0 -0.00000000000E+00  0.00000000000E+00  0.71565555587E+03  0.71565555587E+03  0.00000000000E+00 0. -1.
         21   -1    0    0  501  502  0.00000000000E+00 -0.00000000000E+00 -0.45621677527E+02  0.45621677527E+02  0.00000000000E+00 0. -1.
         23    2    1    2    0    0  0.20349230845E+02  0.84262242687E+02  0.22120539505E+03  0.25559371236E+03  0.94244905731E+02 0.  0.
         23    2    1    2    0    0  0.33819264925E+02 -0.72493665297E+02  0.11470684539E+03  0.16699488193E+03  0.91271879704E+02 0.  0.
        -11    1    4    4    0    0  0.10730399489E+02 -0.51386528952E+02  0.12375620898E+03  0.13442959530E+03  0.00000000000E+00 0.  1.
         11    1    4    4    0    0  0.23088865436E+02 -0.21107136345E+02 -0.90493635973E+01  0.32565286630E+02  0.00000000000E+00 0. -1.
        -13    1    3    3    0    0 -0.20496385105E+02  0.76693320802E+02  0.18162245964E+03  0.19821373591E+03  0.00000000000E+00 0. -1.
         13    1    3    3    0    0  0.40845615951E+02  0.75689218845E+01  0.39582935416E+02  0.57379976447E+02  0.00000000000E+00 0.  1.
          1    1    1    2  501    0 -0.54168495770E+02 -0.11768577390E+02  0.33412163790E+03  0.33868863911E+03  0.00000000000E+00 0. -1.
<scales pt_clust_5="13000.00000" pt_clust_6="13000.00000" pt_clust_7="13000.00000" pt_clust_8="13000.00000" pt_clust_9="55.43220"></scales>
<clustering>
<clus scale="   55.432">  2  9  1 -1</clus>
<clus scale="   91.272">  5  6 -1 -1</clus>
<clus scale="   94.245">  7  8 -1 -1</clus>
<clus scale="  121.107">  2  5  1 -1</clus>
<clus scale="   55.432">  2  5  1 -1</clus>
</clustering>
</event>
<event>
 9    1  0.3288491E-005  0.1090475E+03  0.7546771E-02  0.1262375E+00
          1   -1    0    0  502    0 -0.00000000000E+00  0.00000000000E+00  0.48462947118E+03  0.48462947118E+03  0.00000000000E+00 0. -1.
         21   -1    0    0  501  502  0.00000000000E+00 -0.00000000000E+00 -0.11965889245E+03  0.11965889245E+03  0.00000000000E+00 0. -1.
         23    2    1    2    0    0  0.58930499710E+02  0.59201112288E+00  0.41308054384E+03  0.42715006733E+03  0.91370071969E+02 0.  0.
         23    2    1    2    0    0 -0.62424887461E+02  0.36391347632E+02 -0.24612842298E+00  0.11655012557E+03  0.91447659536E+02 0.  0.
        -11    1    4    4    0    0 -0.38112934141E+01 -0.28702028037E+02 -0.35178095178E+00  0.28956106795E+02  0.00000000000E+00 0. -1.
         11    1    4    4    0    0 -0.58613594047E+02  0.65093375668E+02  0.10565252879E+00  0.87594018777E+02  0.00000000000E+00 0.  1.
        -13    1    3    3    0    0 -0.91014512756E+01  0.32356793507E+02  0.12295019439E+03  0.12746195041E+03  0.00000000000E+00 0.  1.
         13    1    3    3    0    0  0.68031950985E+02 -0.31764782385E+02  0.29013034945E+03  0.29968811692E+03  0.00000000000E+00 0. -1.
          1    1    1    2  501    0  0.34943877517E+01 -0.36983358754E+02 -0.47863836677E+02  0.60588170726E+02  0.00000000000E+00 0. -1.
<scales pt_clust_5="13000.00000" pt_clust_6="13000.00000" pt_clust_7="13000.00000" pt_clust_8="13000.00000" pt_clust_9="37.14808"></scales>
<clustering>
<clus scale="   37.148">  2  9  1 -1</clus>
<clus scale="   91.370">  7  8 -1 -1</clus>
<clus scale="   91.448">  5  6 -1 -1</clus>
<clus scale="  108.982">  1  7  2 -1</clus>
<clus scale="   37.148">  2  5  1 -1</clus>
</clustering>
</event>
<event>
 9    1  0.3288491E-005  0.1736009E+03  0.7546771E-02  0.1174316E+00
          2   -1    0    0  502    0 -0.00000000000E+00  0.00000000000E+00  0.84101848954E+03  0.84101848954E+03  0.00000000000E+00 0. -1.
         21   -1    0    0  501  502  0.00000000000E+00 -0.00000000000E+00 -0.72413815152E+02  0.72413815152E+02  0.00000000000E+00 0. -1.
         23    2    1    2    0    0  0.15216537207E+03 -0.23615199931E+02  0.55873901608E+03  0.58664362797E+03  0.90826648229E+02 0.  0.
         23    2    1    2    0    0 -0.13450965541E+03  0.11620954189E+02  0.23969309758E+03  0.29011085788E+03  0.92106649390E+02 0.  0.
        -13    1    4    4    0    0 -0.20802124654E+02  0.39432090297E+02  0.48069470428E+02  0.65561361506E+02  0.00000000000E+00 0.  1.
         13    1    4    4    0    0 -0.11370753075E+03 -0.27811136108E+02  0.19162362715E+03  0.22454949638E+03  0.00000000000E+00 0. -1.
        -13    1    3    3    0    0  0.13081697755E+03  0.10214695826E+02  0.48846131281E+03  0.50577848485E+03  0.00000000000E+00 0. -1.
         13    1    3    3    0    0  0.21348394517E+02 -0.33829895757E+02  0.70277703269E+02  0.80865143123E+02  0.00000000000E+00 0.  1.
          2    1    1    2  501    0 -0.17655716660E+02  0.11994245742E+02 -0.29827439264E+02  0.36677818838E+02  0.00000000000E+00 0. -1.
<scales pt_clust_5="13000.00000" pt_clust_6="13000.00000" pt_clust_7="13000.00000" pt_clust_8="13000.00000" pt_clust_9="21.34447"></scales>
<clustering>
<clus scale="   21.344">  2  9  1 -1</clus>
<clus scale="   90.827">  7  8 -1 -1</clus>
<clus scale="   92.107">  5  6 -1 -1</clus>
<clus scale="  172.925">  1  7  2 -1</clus>
<clus scale="   21.344">  2  5  1 -1</clus>
</clustering>
</event>
<event>
 9    1  0.3288491E-005  0.1159462E+03  0.7546771E-02  0.1251082E+00
         21   -1    0    0  501  502  0.00000000000E+00  0.00000000000E+00  0.34156044834E+03  0.34156044834E+03  0.00000000000E+00 0.  1.
          3   -1    0    0  502    0 -0.00000000000E+00 -0.00000000000E+00 -0.78853402241E+02  0.78853402241E+02  0.00000000000E+00 0. -1.
         23    2    1    2    0    0 -0.65274943976E+02  0.57046971379E+02  0.12929946490E+02  0.12464873064E+03  0.88628140444E+02 0.  0.
         23    2    1    2    0    0  0.21263762990E+02 -0.15801554160E+02  0.17727952235E+03  0.20145675763E+03  0.91950853290E+02 0.  0.
        -11    1    4    4    0    0 -0.35236206235E+02 -0.17001426799E+02  0.69181361167E+02  0.79477666523E+02  0.00000000000E+00 0. -1.
         11    1    4    4    0    0  0.56499969225E+02  0.11998726397E+01  0.10809816118E+03  0.12197909111E+03  0.00000000000E+00 0.  1.
        -13    1    3    3    0    0 -0.17102090065E+02  0.64800833927E+02 -0.14647748259E+02  0.68601647876E+02  0.00000000000E+00 0. -1.
         13    1    3    3    0    0 -0.48172853911E+02 -0.77538625479E+01  0.27577694749E+02  0.56047082761E+02  0.00000000000E+00 0.  1.
          3    1    1    2  501    0  0.44011180987E+02 -0.41245417220E+02  0.72497577260E+02  0.94308362312E+02  0.00000000000E+00 0. -1.
<scales pt_clust_5="13000.00000" pt_clust_6="13000.00000" pt_clust_7="13000.00000" pt_clust_8="13000.00000" pt_clust_9="60.31723"></scales>
<clustering>
<clus scale="   60.317">  1  9  2 -1</clus>
<clus scale="   88.628">  7  8 -1 -1</clus>
<clus scale="   91.951">  5  6 -1 -1</clus>
<clus scale="  113.329">  2  7  1 -1</clus>
<clus scale="   60.317">  1  5  2 -1</clus>
</clustering>
</event>
<event>
 9    1  0.3288491E-005  0.1212360E+03  0.7546771E-02  0.1241876E+00
         21   -1    0    0  501  502  0.00000000000E+00  0.00000000000E+00  0.19538689538E+03  0.19538689538E+03  0.00000000000E+00 0. -1.
         -3   -1    0    0    0  501 -0.00000000000E+00 -0.00000000000E+00 -0.10651606173E+03  0.10651606173E+03  0.00000000000E+00 0.  1.
         23    2    1    2    0    0  0.45172954338E+02  0.71440130840E+02 -0.29376753777E+00  0.12472557150E+03  0.91717467188E+02 0.  0.
         23    2    1    2    0    0 -0.14304581272E+02 -0.73710433731E+02  0.48851530861E+02  0.12635264390E+03  0.89110434102E+02 0.  0.
        -11    1    3    3    0    0  0.69325535870E+01  0.70187355017E+02 -0.29642347576E+02  0.76504861763E+02  0.00000000000E+00 0.  1.
         11    1    3    3    0    0  0.38240400751E+02  0.12527758225E+01  0.29348580038E+02  0.48220709732E+02  0.00000000000E+00 0. -1.
        -11    1    4    4    0    0 -0.47755209224E+02 -0.26192676881E+02  0.73875654461E+01  0.54965375041E+02  0.00000000000E+00 0.  1.
         11    1    4    4    0    0  0.33450627953E+02 -0.47517756851E+02  0.41463965415E+02  0.71387268854E+02  0.00000000000E+00 0. -1.
         -3    1    1    2    0  502 -0.30868373066E+02  0.22703028918E+01  0.40313070327E+02  0.50824741713E+02  0.00000000000E+00 0.  1.
<scales pt_clust_5="13000.00000" pt_clust_6="13000.00000" pt_clust_7="13000.00000" pt_clust_8="13000.00000" pt_clust_9="30.95175"></scales>
<clustering>
<clus scale="   30.952">  1  9  2 -1</clus>
<clus scale="   89.110">  7  8 -1 -1</clus>
<clus scale="   91.717">  5  6 -1 -1</clus>
<clus scale="  119.276">  1  7  2 -1</clus>
<clus scale="   30.952">  1  5  2 -1</clus>
</clustering>
</event>
<event>
 9    1  0.3288491E-005  0.1161944E+03  0.7546771E-02  0.1252206E+00
          1   -1    0    0  502    0 -0.00000000000E+00  0.00000000000E+00  0.40800830693E+03  0.40800830693E+03  0.00000000000E+00 0. -1.
         21   -1    0    0  501  502  0.00000000000E+00 -0.00000000000E+00 -0.57639052499E+02  0.57639052499E+02  0.00000000000E+00 0.  1.
         23    2    1    2    0    0 -0.34096884790E+02 -0.33945515870E+02  0.10716438684E+03  0.15193557539E+03  0.96360353160E+02 0.  0.
         23    2    1    2    0    0  0.93328718504E+02  0.73085385469E+01  0.13016926544E+03  0.18334696502E+03  0.88929227381E+02 0.  0.
        -11    1    4    4    0    0  0.37554886562E+02  0.50629409811E+01  0.12098071866E+03  0.12677672169E+03  0.00000000000E+00 0.  1.
         11    1    4    4    0    0  0.55773831942E+02  0.22455975658E+01  0.91885467845E+01  0.56570243326E+02  0.00000000000E+00 0. -1.
        -11    1    3    3    0    0 -0.55175875348E+02 -0.54827920621E+02  0.82072388440E+02  0.11307676616E+03  0.00000000000E+00 0. -1.
         11    1    3    3    0    0  0.21078990559E+02  0.20882404750E+02  0.25091998403E+02  0.38858809233E+02  0.00000000000E+00 0.  1.
          1    1    1    2  501    0 -0.59231833715E+02  0.26636977323E+02  0.11303560214E+03  0.13036481902E+03  0.00000000000E+00 0. -1.
<scales pt_clust_5="13000.00000" pt_clust_6="13000.00000" pt_clust_7="13000.00000" pt_clust_8="13000.00000" pt_clust_9="64.94569"></scales>
<clustering>
<clus scale="   64.946">  2  9  1 -1</clus>
<clus scale="   88.929">  5  6 -1 -1</clus>
<clus scale="   96.360">  7  8 -1 -1</clus>
<clus scale="  110.110">  2  5  1 -1</clus>
<clus scale="   64.946">  2  5  1 -1</clus>
</clustering>
</event>
<event>
 9    1  0.3288491E-005  0.9743370E+02  0.7546771E-02  0.1286133E+00
         21   -1    0    0  501  502  0.00000000000E+00  0.00000000000E+00  0.13021701078E+03  0.13021701078E+03  0.00000000000E+00 0. -1.
          1   -1    0    0  502    0 -0.00000000000E+00 -0.00000000000E+00 -0.41792821692E+03  0.41792821692E+03  0.00000000000E+00 0. -1.
         23    2    1    2    0    0 -0.24634595508E+02  0.10411384521E+02 -0.28609354803E+03  0.30125009020E+03  0.90481149386E+02 0.  0.
         23    2    1    2    0    0  0.56563977324E+02 -0.46139221198E+02 -0.89837616420E+02  0.14650228525E+03  0.89798724921E+02 0.  0.
        -13    1    4    4    0    0  0.30150757772E+02  0.25338205364E+02 -0.34045794628E+02  0.52059667471E+02  0.00000000000E+00 0.  1.
         13    1    4    4    0    0  0.26413219552E+02 -0.71477426562E+02 -0.55791821792E+02  0.94442617784E+02  0.00000000000E+00 0. -1.
        -13    1    3    3    0    0  0.10685984011E+02  0.43345052680E+02 -0.11162235617E+03  0.12021869340E+03  0.00000000000E+00 0. -1.
         13    1    3    3    0    0 -0.35320579519E+02 -0.32933668158E+02 -0.17447119186E+03  0.18103139679E+03  0.00000000000E+00 0.  1.
          1    1    1    2  501    0 -0.31929381817E+02  0.35727836676E+02  0.88219958314E+02  0.10039285224E+03  0.00000000000E+00 0. -1.
<scales pt_clust_5="13000.00000" pt_clust_6="13000.00000" pt_clust_7="13000.00000" pt_clust_8="13000.00000" pt_clust_9="47.91622"></scales>
<clustering>
<clus scale="   47.916">  1  9  2 -1</clus>
<clus scale="   89.799">  5  6 -1 -1</clus>
<clus scale="   90.481">  7  8 -1 -1</clus>
<clus scale="   96.800">  1  5  2 -1</clus>
<clus scale="   47.916">  1  5  2 -1</clus>
</clustering>
</event>
<event>
 9    1  0.3288491E-005  0.1351669E+03  0.7546771E-02  0.1220096E+00
         -1   -1    0    0    0  501 -0.00000000000E+00  0.00000000000E+00  0.72949929992E+03  0.72949929992E+03  0.00000000000E+00 0.  1.
         21   -1    0    0  501  502  0.00000000000E+00 -0.00000000000E+00 -0.38750478774E+02  0.38750478774E+02  0.00000000000E+00 0. -1.
         23    2    1    2    0    0 -0.72156709932E+02 -0.70304029872E+02  0.51632691912E+03  0.53412580223E+03  0.92453435802E+02 0.  0.
         23    2    1    2    0    0  0.79254375524E+02  0.51347390209E+02  0.16653224196E+03  0.21239892687E+03  0.91991880080E+02 0.  0.
        -11    1    4    4    0    0  0.38713455660E+02 -0.19658276222E+02  0.92136504766E+02  0.10185438127E+03  0.00000000000E+00 0.  1.
         11    1    4    4    0    0  0.40540919863E+02  0.71005666431E+02  0.74395737195E+02  0.11054454560E+03  0.00000000000E+00 0. -1.
        -13    1    3    3    0    0 -0.71391472456E+02 -0.18334269487E+02  0.39973019211E+03  0.40646908155E+03  0.00000000000E+00 0.  1.
         13    1    3    3    0    0 -0.76523747590E+00 -0.51969760385E+02  0.11659672702E+03  0.12765672067E+03  0.00000000000E+00 0. -1.
         -1    1    1    2    0  502 -0.70976655914E+01  0.18956639664E+02  0.78896600652E+01  0.21725049600E+02  0.00000000000E+00 0.  1.
<scales pt_clust_5="13000.00000" pt_clust_6="13000.00000" pt_clust_7="13000.00000" pt_clust_8="13000.00000" pt_clust_9="20.24181"></scales>
<clustering>
<clus scale="   20.242">  2  9  1 -1</clus>
<clus scale="   91.992">  5  6 -1 -1</clus>
<clus scale="   92.453">  7  8 -1 -1</clus>
<clus scale="  134.852">  2  5  1 -1</clus>
<clus scale="   20.242">  2  5  1 -1</clus>
</clustering>
</event>
<event>
 9    1  0.3288491E-005  0.1377428E+03  0.7546771E-02  0.1216461E+00
         21   -1    0    0  501  502  0.00000000000E+00  0.00000000000E+00  0.17689264343E+03  0.17689264343E+03  0.00000000000E+00 0.  1.
          4   -1    0    0  502    0 -0.00000000000E+00 -0.00000000000E+00 -0.19755714390E+03  0.19755714390E+03  0.00000000000E+00 0. -1.
         23    2    1    2    0    0  0.13832119093E+03 -0.28373351683E+02 -0.44060073969E+02  0.17308600138E+03  0.89887011361E+02 0.  0.
         23    2    1    2    0    0 -0.55692138042E+02  0.45955457820E+02  0.14446736746E+02  0.11641219670E+03  0.90164144730E+02 0.  0.
        -13    1    3    3    0    0  0.65351845706E+02  0.26351052805E+02  0.28452641874E+01  0.70521891987E+02  0.00000000000E+00 0. -1.
         13    1    3    3    0    0  0.72969345220E+02 -0.54724404489E+02 -0.46905338157E+02  0.10256410940E+03  0.00000000000E+00 0.  1.
        -13    1    4    4    0    0 -0.38916135343E+02  0.26256953213E+02  0.52479287860E+02  0.70412845677E+02  0.00000000000E+00 0.  1.
         13    1    4    4    0    0 -0.16776002699E+02  0.19698504607E+02 -0.38032551114E+02  0.45999351023E+02  0.00000000000E+00 0. -1.
          4    1    1    2  501    0 -0.82629052883E+02 -0.17582106137E+02  0.89488367515E+01  0.84951589248E+02  0.00000000000E+00 0. -1.
<scales pt_clust_5="13000.00000" pt_clust_6="13000.00000" pt_clust_7="13000.00000" pt_clust_8="13000.00000" pt_clust_9="84.47894"></scales>
<clustering>
<clus scale="   84.479">  1  9  2 -1</clus>
<clus scale="   89.887">  5  6 -1 -1</clus>
<clus scale="   90.164">  7  8 -1 -1</clus>
<clus scale="  137.562">  2  5  1 -1</clus>
<clus scale="   84.479">  1  5  2 -1</clus>
</clustering>
</event>
<event>
 9    1  0.3288491E-005  0.2475887E+03  0.7546771E-02  0.1114883E+00
         21   -1    0    0  501  502  0.00000000000E+00  0.00000000000E+00  0.31558125373E+03  0.31558125373E+03  0.00000000000E+00 0. -1.
          3   -1    0    0  502    0 -0.00000000000E+00 -0.00000000000E+00 -0.45668957238E+03  0.45668957238E+03  0.00000000000E+00 0. -1.
         23    2    1    2    0    0 -0.68889779779E+02  0.24484003594E+03 -0.26819379826E+03  0.38036346045E+03  0.89755243121E+02 0.  0.
         23    2    1    2    0    0  0.15953693382E+02 -0.19383789706E+03 -0.32379094730E+02  0.21631580013E+03  0.88974540974E+02 0.  0.
        -11    1    3    3    0    0 -0.60775622245E+02  0.22270316438E+03 -0.27170042782E+03  0.35652699499E+03  0.00000000000E+00 0. -1.
         11    1    3    3    0    0 -0.81141575335E+01  0.22136871555E+02  0.35066295559E+01  0.23836465458E+02  0.00000000000E+00 0.  1.
        -11    1    4    4    0    0 -0.29561949779E+02 -0.72916131047E+02 -0.37178343862E+02  0.87022412596E+02  0.00000000000E+00 0. -1.
         11    1    4    4    0    0  0.45515643162E+02 -0.12092176601E+03  0.47992491322E+01  0.12929338754E+03  0.00000000000E+00 0.  1.
          3    1    1    2  501    0  0.52936086397E+02 -0.51002138875E+02  0.15946457434E+03  0.17559156552E+03  0.00000000000E+00 0. -1.
<scales pt_clust_5="13000.00000" pt_clust_6="13000.00000" pt_clust_7="13000.00000" pt_clust_8="13000.00000" pt_clust_9="73.50815"></scales>
<clustering>
<clus scale="   73.508">  1  9  2 -1</clus>
<clus scale="   88.975">  7  8 -1 -1</clus>
<clus scale="   89.755">  5  6 -1 -1</clus>
<clus scale="  247.307">  1  7  2 -1</clus>
<clus scale="   73.508">  1  5  2 -1</clus>
</clustering>
</event>
<event>
 9    1  0.3288491E-005  0.1125934E+03  0.7546771E-02  0.1255968E+00
         21   -1    0    0  501  502  0.00000000000E+00  0.00000000000E+00  0.67508301985E+02  0.67508301985E+02  0.00000000000E+00 0.  1.
          1   -1    0    0  502    0 -0.00000000000E+00 -0.00000000000E+00 -0.41504032391E+03  0.41504032391E+03  0.00000000000E+00 0. -1.
         23    2    1    2    0    0 -0.50097244348E+02 -0.33206096936E+02 -0.21243413921E+03  0.23850260676E+03  0.90237748003E+02 0.  0.
         23    2    1    2    0    0  0.53159862768E+02  0.57105777495E+02 -0.16618098723E+03  0.20471748306E+03  0.90587452335E+02 0.  0.
        -11    1    3    3    0    0 -0.60881632207E+02  0.68247897083E+00 -0.75317863193E+02  0.96849467906E+02  0.00000000000E+00 0.  1.
         11    1    3    3    0    0  0.10784387859E+02 -0.33888575907E+02 -0.13711627602E+03  0.14165313886E+03  0.00000000000E+00 0. -1.
        -11    1    4    4    0    0 -0.19025245413E+02 -0.93078384416E+01 -0.24360110230E+02  0.32280191913E+02  0.00000000000E+00 0. -1.
         11    1    4    4    0    0  0.72185108181E+02  0.66413615937E+02 -0.14182087700E+03  0.17243729115E+03  0.00000000000E+00 0.  1.
          1    1    1    2  501    0 -0.30626184199E+01 -0.23899680559E+02  0.31083104523E+02  0.39328536068E+02  0.00000000000E+00 0. -1.
<scales pt_clust_5="13000.00000" pt_clust_6="13000.00000" pt_clust_7="13000.00000" pt_clust_8="13000.00000" pt_clust_9="24.09511"></scales>
<clustering>
<clus scale="   24.095">  1  9  2 -1</clus>
<clus scale="   90.238">  5  6 -1 -1</clus>
<clus scale="   90.587">  7  8 -1 -1</clus>
<clus scale="  112.312">  2  5  1 -1</clus>
<clus scale="   24.095">  1  5  2 -1</clus>
</clustering>
</event>
<event>
 9    1  0.4787289E-005  0.1275056E+03  0.7546771E-02  0.1231391E+00
          2   -1    0    0  502    0 -0.00000000000E+00  0.00000000000E+00  0.28862995981E+03  0.28862995981E+03  0.00000000000E+00 0. -1.
         21   -1    0    0  501  502  0.00000000000E+00 -0.00000000000E+00 -0.24594015740E+03  0.24594015740E+03  0.00000000000E+00 0. -1.
         23    2    1    2    0    0  0.91052624063E+02 -0.64924133167E+02  0.19662756265E+03  0.24337077201E+03  0.89784246148E+02 0.  0.
         23    2    1    2    0    0 -0.49678153380E+02  0.13871205995E+02  0.19299024700E+02  0.10591785164E+03  0.90475464423E+02 0.  0.
        -11    1    3    3    0    0  0.58721566679E+02 -0.79062987426E+01  0.34663400247E+02  0.68646072501E+02  0.00000000000E+00 0.  1.
         11    1    3    3    0    0  0.32331057384E+02 -0.57017834424E+02  0.16196416240E+03  0.17472469951E+03  0.00000000000E+00 0. -1.
        -13    1    4    4    0    0 -0.12382546776E+02  0.49635773834E+02  0.17991864944E+02  0.54228633700E+02  0.00000000000E+00 0. -1.
         13    1    4    4    0    0 -0.37295606604E+02 -0.35764567839E+02  0.13071597564E+01  0.51689217940E+02  0.00000000000E+00 0.  1.
          2    1    1    2  501    0 -0.41374470683E+02  0.51052927172E+02 -0.17323678495E+03  0.18528149356E+03  0.00000000000E+00 0. -1.
<scales pt_clust_5="13000.00000" pt_clust_6="13000.00000" pt_clust_7="13000.00000" pt_clust_8="13000.00000" pt_clust_9="65.71338"></scales>
<clustering>
<clus scale="   65.713">  2  9  1 -1</clus>
<clus scale="   89.784">  5  6 -1 -1</clus>
<clus scale="   90.475">  7  8 -1 -1</clus>
<clus scale="  127.016">  1  5  2 -1</clus>
<clus scale="   65.713">  2  5  1 -1</clus>
</clustering>
</event>
<event>
 9    1  0.1007474E-004  0.9822847E+02  0.7546771E-02  0.1284576E+00
         -3   -1    0    0    0  501 -0.00000000000E+00  0.00000000000E+00  0.65182994981E+03  0.65182994981E+03  0.00000000000E+00 0.  1.
         21   -1    0    0  501  502  0.00000000000E+00 -0.00000000000E+00 -0.19824207831E+03  0.19824207831E+03  0.00000000000E+00 0.  1.
         23    2    1    2    0    0 -0.25057115971E+02 -0.24911098047E+02  0.53346281721E+03  0.54257763944E+03  0.92517542207E+02 0.  0.
         23    2    1    2    0    0  0.29037886795E+02  0.13226357244E+01  0.92582418784E+02  0.13338578849E+03  0.91516752945E+02 0.  0.
        -11    1    3    3    0    0 -0.55788503395E+02 -0.34781952425E+02  0.39238844925E+03  0.39785780931E+03  0.00000000000E+00 0.  1.
         11    1    3    3    0    0  0.30731387424E+02  0.98708543783E+01  0.14107436796E+03  0.14471983013E+03  0.00000000000E+00 0. -1.
        -13    1    4    4    0    0 -0.13476791666E+01 -0.29124434507E+02 -0.22615399910E+01  0.29243178480E+02  0.00000000000E+00 0.  1.
         13    1    4    4    0    0  0.30385565961E+02  0.30447070231E+02  0.94843958775E+02  0.10414261001E+03  0.00000000000E+00 0. -1.
         -3    1    1    2    0  502 -0.39807708235E+01  0.23588462322E+02 -0.17245736449E+03  0.17410860018E+03  0.00000000000E+00 0.  1.
<scales pt_clust_5="13000.00000" pt_clust_6="13000.00000" pt_clust_7="13000.00000" pt_clust_8="13000.00000" pt_clust_9="23.92200"></scales>
<clustering>
<clus scale="   23.922">  2  9  1 -1</clus>
<clus scale="   91.517">  7  8 -1 -1</clus>
<clus scale="   92.518">  5  6 -1 -1</clus>
<clus scale="   97.286">  2  7  1 -1</clus>
<clus scale="   23.922">  2  5  1 -1</clus>
</clustering>
</event>
<event>
 9    1  0.3288491E-005  0.9334331E+02  0.7546771E-02  0.1298672E+00
          2   -1    0    0  502    0 -0.00000000000E+00  0.00000000000E+00  0.53161000793E+03  0.53161000793E+03  0.00000000000E+00 0. -1.
         21   -1    0    0  501  502  0.00000000000E+00 -0.00000000000E+00 -0.58593124225E+02  0.58593124225E+02  0.00000000000E+00 0. -1.
         23    2    1    2    0    0 -0.27153154451E+01 -0.27007316359E+02  0.32491180030E+03  0.33842963734E+03  0.90720303011E+02 0.  0.
         23    2    1    2    0    0  0.23378799780E+02  0.71919361345E+01  0.18517839757E+03  0.20493270594E+03  0.84309446757E+02 0.  0.
        -13    1    3    3    0    0  0.26297707675E+02  0.20396944018E+02  0.69722152998E+02  0.77257901686E+02  0.00000000000E+00 0.  1.
         13    1    3    3    0    0 -0.29013023120E+02 -0.47404260377E+02  0.25518964731E+03  0.26117173565E+03  0.00000000000E+00 0. -1.
        -13    1    4    4    0    0  0.37102946336E+02 -0.17799301090E+02  0.16486915720E+03  0.16992728663E+03  0.00000000000E+00 0. -1.
         13    1    4    4    0    0 -0.13724146556E+02  0.24991237224E+02  0.20309240377E+02  0.35005419314E+02  0.00000000000E+00 0.  1.
          2    1    1    2  501    0 -0.20663484335E+02  0.19815380225E+02 -0.37073314173E+02  0.46840788871E+02  0.00000000000E+00 0. -1.
<scales pt_clust_5="13000.00000" pt_clust_6="13000.00000" pt_clust_7="13000.00000" pt_clust_8="13000.00000" pt_clust_9="28.62916"></scales>
<clustering>
<clus scale="   28.629">  2  9  1 -1</clus>
<clus scale="   84.309">  7  8 -1 -1</clus>
<clus scale="   87.126">  2  7  1 -1</clus>
<clus scale="   90.720">  5  6 -1 -1</clus>
<clus scale="   28.629">  2  5  1 -1</clus>
</clustering>
</event>
<event>
 9    1  0.3288491E-005  0.2098200E+03  0.7546771E-02  0.1141811E+00
          1   -1    0    0  502    0 -0.00000000000E+00  0.00000000000E+00  0.62225654415E+03  0.62225654415E+03  0.00000000000E+00 0. -1.
         21   -1    0    0  501  502  0.00000000000E+00 -0.00000000000E+00 -0.20129367075E+03  0.20129367075E+03  0.00000000000E+00 0. -1.
         23    2    1    2    0    0  0.12424680620E+03  0.17285793671E+03  0.38032963581E+03  0.44518660559E+03  0.90682670833E+02 0.  0.
         23    2    1    2    0    0 -0.10558321745E+03 -0.11800302041E+03  0.16163093370E+03  0.24420760366E+03  0.91870922077E+02 0.  0.
        -13    1    4    4    0    0 -0.49172723599E+02 -0.29085699751E+01  0.19932465905E+02  0.53138683861E+02  0.00000000000E+00 0. -1.
         13    1    4    4    0    0 -0.56410493853E+02 -0.11509445043E+03  0.14169846780E+03  0.19106891980E+03  0.00000000000E+00 0.  1.
        -13    1    3    3    0    0  0.75306349393E+02  0.64496294496E+02  0.10066166582E+03  0.14129256607E+03  0.00000000000E+00 0.  1.
         13    1    3    3    0    0  0.48940456807E+02  0.10836164221E+03  0.27966796999E+03  0.30389403951E+03  0.00000000000E+00 0. -1.
          1    1    1    2  501    0 -0.18663588747E+02 -0.54854916303E+02 -0.12099769611E+03  0.13415600565E+03  0.00000000000E+00 0. -1.
<scales pt_clust_5="13000.00000" pt_clust_6="13000.00000" pt_clust_7="13000.00000" pt_clust_8="13000.00000" pt_clust_9="57.94300"></scales>
<clustering>
<clus scale="   57.943">  2  9  1 -1</clus>
<clus scale="   90.683">  7  8 -1 -1</clus>
<clus scale="   91.871">  5  6 -1 -1</clus>
<clus scale="  209.302">  1  7  2 -1</clus>
<clus scale="   57.943">  2  5  1 -1</clus>
</clustering>
</event>
<event>
 9    1  0.3288491E-005  0.1068144E+03  0.7546771E-02  0.1267593E+00
         21   -1    0    0  501  502  0.00000000000E+00  0.00000000000E+00  0.10234360753E+03  0.10234360753E+03  0.00000000000E+00 0. -1.
         -1   -1    0    0    0  501 -0.00000000000E+00 -0.00000000000E+00 -0.30155888759E+03  0.30155888759E+03  0.00000000000E+00 0.  1.
         23    2    1    2    0    0  0.46773936134E+02  0.43328737261E+02 -0.14265852328E+03  0.17869085792E+03  0.86682108114E+02 0.  0.
         23    2    1    2    0    0 -0.27953305616E+02 -0.56614943221E+02 -0.11890246572E+03  0.15874565474E+03  0.84117462253E+02 0.  0.
        -13    1    4    4    0    0 -0.14102319317E+02 -0.25976207849E+02 -0.12147882117E+03  0.12502296900E+03  0.00000000000E+00 0.  1.
         13    1    4    4    0    0 -0.13850986298E+02 -0.30638735372E+02  0.25763554515E+01  0.33722685748E+02  0.00000000000E+00 0. -1.
        -13    1    3    3    0    0  0.36978522186E+02  0.62926262507E+02 -0.64114299766E+02  0.97148180891E+02  0.00000000000E+00 0.  1.
         13    1    3    3    0    0  0.97954139486E+01 -0.19597525245E+02 -0.78544223515E+02  0.81542677033E+02  0.00000000000E+00 0. -1.
         -1    1    1    2    0  502 -0.18820630518E+02  0.13286205960E+02  0.62345708932E+02  0.66465982458E+02  0.00000000000E+00 0.  1.
<scales pt_clust_5="13000.00000" pt_clust_6="13000.00000" pt_clust_7="13000.00000" pt_clust_8="13000.00000" pt_clust_9="23.03778"></scales>
<clustering>
<clus scale="   23.038">  1  9  2 -1</clus>
<clus scale="   84.117">  5  6 -1 -1</clus>
<clus scale="   86.682">  7  8 -1 -1</clus>
<clus scale="  104.744">  1  5  2 -1</clus>
<clus scale="   23.038">  1  5  2 -1</clus>
</clustering>
</event>
<event>
 9    1  0.3288491E-005  0.1642687E+03  0.7546771E-02  0.1206388E+00
         21   -1    0    0  501  502  0.00000000000E+00  0.00000000000E+00  0.79657308172E+02  0.79657308172E+02  0.00000000000E+00 0. -1.
          1   -1    0    0  502    0 -0.00000000000E+00 -0.00000000000E+00 -0.52693799372E+03  0.52693799372E+03  0.00000000000E+00 0. -1.
         23    2    1    2    0    0 -0.16786363052E+02 -0.24272830707E+02 -0.15971474153E+03  0.18871153849E+03  0.96084826078E+02 0.  0.
         23    2    1    2    0    0 -0.12598567193E+03 -0.62592483878E+01 -0.17170471797E+03  0.23149737568E+03  0.90537047945E+02 0.  0.
        -11    1    4    4    0    0 -0.22698340549E+02  0.27045945312E+02 -0.99030665715E+01  0.36671086008E+02  0.00000000000E+00 0.  1.
         11    1    4    4    0    0 -0.10328733138E+03 -0.33305193700E+02 -0.16180165140E+03  0.19482628967E+03  0.00000000000E+00 0. -1.
        -11    1    3    3    0    0 -0.35552908826E+02 -0.49346175823E+02 -0.65293213980E+02  0.89231486518E+02  0.00000000000E+00 0. -1.
         11    1    3    3    0    0  0.18766545774E+02  0.25073345116E+02 -0.94421527551E+02  0.99480051974E+02  0.00000000000E+00 0.  1.
          1    1    1    2  501    0  0.14277203498E+03  0.30532079095E+02 -0.11586122605E+03  0.18638638773E+03  0.00000000000E+00 0. -1.
<scales pt_clust_5="13000.00000" pt_clust_6="13000.00000" pt_clust_7="13000.00000" pt_clust_8="13000.00000" pt_clust_9="137.06657"></scales>
<clustering>
<clus scale="   90.537">  5  6 -1 -1</clus>
<clus scale="   96.085">  7  8 -1 -1</clus>
<clus scale="  100.515">  2  7  1 -1</clus>
<clus scale="  137.067">  1  9  2 -1</clus>
<clus scale="  137.067">  1  5  2 -1</clus>
</clustering>
</event>
<event>
 9    1  0.3288491E-005  0.2316448E+03  0.7546771E-02  0.1126548E+00
         21   -1    0    0  501  502  0.00000000000E+00  0.00000000000E+00  0.41577272200E+03  0.41577272200E+03  0.00000000000E+00 0.  1.
          1   -1    0    0  502    0 -0.00000000000E+00 -0.00000000000E+00 -0.30553170947E+03  0.30553170947E+03  0.00000000000E+00 0. -1.
         23    2    1    2    0    0  0.20603372488E+03 -0.86526571408E+02 -0.11160075394E+03  0.26054330650E+03  0.74103595971E+02 0.  0.
         23    2    1    2    0    0 -0.10054954134E+03  0.20384527759E+03  0.11647685748E+03  0.27104461055E+03  0.90748086044E+02 0.  0.
        -11    1    3    3    0    0  0.38928726922E+02  0.97205315701E+01 -0.56687426253E+01  0.40522452502E+02  0.00000000000E+00 0.  1.
         11    1    3    3    0    0  0.16710499796E+03 -0.96247102978E+02 -0.10593201131E+03  0.22002085400E+03  0.00000000000E+00 0. -1.
        -13    1    4    4    0    0 -0.11682587436E+03  0.18417435451E+03  0.11180361609E+03  0.24508881320E+03  0.00000000000E+00 0.  1.
         13    1    4    4    0    0  0.16276333022E+02  0.19670923076E+02  0.46732413825E+01  0.25955797355E+02  0.00000000000E+00 0. -1.
          1    1    1    2  501    0 -0.10548418354E+03 -0.11731870618E+03  0.10536490900E+03  0.18971651442E+03  0.00000000000E+00 0. -1.
<scales pt_clust_5="13000.00000" pt_clust_6="13000.00000" pt_clust_7="13000.00000" pt_clust_8="13000.00000" pt_clust_9="157.76752"></scales>
<clustering>
<clus scale="   74.104">  5  6 -1 -1</clus>
<clus scale="   90.748">  7  8 -1 -1</clus>
<clus scale="  157.768">  1  9  2 -1</clus>
<clus scale="  225.645">  2  5  1 -1</clus>
<clus scale="  157.768">  1  5  2 -1</clus>
</clustering>
</event>
<event>
 9    1  0.3288491E-005  0.1724889E+03  0.7546771E-02  0.1175400E+00
         -2   -1    0    0    0  501 -0.00000000000E+00  0.00000000000E+00  0.36125044162E+03  0.36125044162E+03  0.00000000000E+00 0.  1.
         21   -1    0    0  501  502  0.00000000000E+00 -0.00000000000E+00 -0.15448597611E+03  0.15448597611E+03  0.00000000000E+00 0. -1.
         23    2    1    2    0    0 -0.40529227401E+02  0.10666569976E+03  0.67099503756E+02  0.15967189571E+03  0.89289311222E+02 0.  0.
         23    2    1    2    0    0  0.11517549197E+03 -0.14467151842E+03  0.17008278953E+03  0.26694801786E+03  0.90210014718E+02 0.  0.
        -13    1    4    4    0    0  0.22637724748E+02 -0.10000476682E+03  0.76018973430E+02  0.12764131106E+03  0.00000000000E+00 0.  1.
         13    1    4    4    0    0  0.92537767222E+02 -0.44666751599E+02  0.94063816101E+02  0.13930670680E+03  0.00000000000E+00 0. -1.
        -13    1    3    3    0    0 -0.60132846157E+02  0.81414844959E+02  0.75904514495E+02  0.12651415528E+03  0.00000000000E+00 0.  1.
         13    1    3    3    0    0  0.19603618756E+02  0.25250854797E+02 -0.88050107384E+01  0.33157740430E+02  0.00000000000E+00 0. -1.
         -2    1    1    2    0  502 -0.74646264569E+02  0.38005818661E+02 -0.30417827781E+02  0.89116504157E+02  0.00000000000E+00 0.  1.
<scales pt_clust_5="13000.00000" pt_clust_6="13000.00000" pt_clust_7="13000.00000" pt_clust_8="13000.00000" pt_clust_9="83.76459"></scales>
<clustering>
<clus scale="   83.765">  2  9  1 -1</clus>
<clus scale="   89.289">  7  8 -1 -1</clus>
<clus scale="   90.210">  5  6 -1 -1</clus>
<clus scale="  172.009">  1  7  2 -1</clus>
<clus scale="   83.765">  2  5  1 -1</clus>
</clustering>
</event>
<event>
 9    1  0.3288491E-005  0.9591121E+02  0.7546771E-02  0.1290033E+00
         21   -1    0    0  501  502  0.00000000000E+00  0.00000000000E+00  0.41464140101E+03  0.41464140101E+03  0.00000000000E+00 0. -1.
          3   -1    0    0  502    0 -0.00000000000E+00 -0.00000000000E+00 -0.57296502408E+03  0.57296502408E+03  0.00000000000E+00 0. -1.
         23    2    1    2    0    0  0.26759536607E+02  0.31900998506E+01 -0.49873604968E+03  0.50785727561E+03  0.91951702555E+02 0.  0.
         23    2    1    2    0    0 -0.31654926276E+02  0.67372859549E+02 -0.14452195050E+02  0.11790388451E+03  0.90284680200E+02 0.  0.
        -11    1    3    3    0    0  0.57365381547E+02 -0.14999758122E+02 -0.34448371493E+03  0.34954943799E+03  0.00000000000E+00 0.  1.
         11    1    3    3    0    0 -0.30605844939E+02  0.18189857973E+02 -0.15425233475E+03  0.15830783762E+03  0.00000000000E+00 0. -1.
        -13    1    4    4    0    0  0.20298207393E+02  0.39631878791E+02  0.20925783953E+02  0.49199506846E+02  0.00000000000E+00 0.  1.
         13    1    4    4    0    0 -0.51953133669E+02  0.27740980758E+02 -0.35377979003E+02  0.68704377661E+02  0.00000000000E+00 0. -1.
          3    1    1    2  501    0  0.48953896681E+01 -0.70562959400E+02  0.35486462166E+03  0.36184526498E+03  0.00000000000E+00 0. -1.
<scales pt_clust_5="13000.00000" pt_clust_6="13000.00000" pt_clust_7="13000.00000" pt_clust_8="13000.00000" pt_clust_9="70.73257"></scales>
<clustering>
<clus scale="   70.733">  1  9  2 -1</clus>
<clus scale="   90.285">  7  8 -1 -1</clus>
<clus scale="   91.952">  5  6 -1 -1</clus>
<clus scale="   94.314">  1  7  2 -1</clus>
<clus scale="   70.733">  1  5  2 -1</clus>
</clustering>
</event>
<event>
 9    1  0.3288491E-005  0.1097081E+03  0.7546771E-02  0.1270282E+00
         21   -1    0    0  501  502  0.00000000000E+00  0.00000000000E+00  0.60966721071E+02  0.60966721071E+02  0.00000000000E+00 0. -1.
          1   -1    0    0  502    0 -0.00000000000E+00 -0.00000000000E+00 -0.31845439287E+03  0.31845439287E+03  0.00000000000E+00 0. -1.
         23    2    1    2    0    0 -0.46109403140E+02 -0.27506769104E+02 -0.23175142375E+03  0.25740190715E+03  0.98307273324E+02 0.  0.
         23    2    1    2    0    0  0.41337535661E+02 -0.20424488866E+01 -0.26735353467E+02  0.92070497058E+02  0.77776820786E+02 0.  0.
        -11    1    4    4    0    0  0.57399430075E+02 -0.21698669573E+02 -0.26085274793E+02  0.66678095318E+02  0.00000000000E+00 0. -1.
         11    1    4    4    0    0 -0.16061894415E+02  0.19656220687E+02 -0.65007867391E+00  0.25392401740E+02  0.00000000000E+00 0.  1.
        -13    1    3    3    0    0 -0.47046203343E+02  0.12072552318E+02 -0.20232491840E+03  0.20807321878E+03  0.00000000000E+00 0.  1.
         13    1    3    3    0    0  0.93680020293E+00 -0.39579321422E+02 -0.29426505354E+02  0.49328688369E+02  0.00000000000E+00 0. -1.
          1    1    1    2  501    0  0.47718674799E+01  0.29549217990E+02  0.99910541926E+00  0.29948709734E+02  0.00000000000E+00 0. -1.
<scales pt_clust_5="13000.00000" pt_clust_6="13000.00000" pt_clust_7="13000.00000" pt_clust_8="13000.00000" pt_clust_9="29.93204"></scales>
<clustering>
<clus scale="   29.932">  1  9  2 -1</clus>
<clus scale="   77.777">  5  6 -1 -1</clus>
<clus scale="   91.765">  1  5  2 -1</clus>
<clus scale="   98.307">  7  8 -1 -1</clus>
<clus scale="   29.932">  1  5  2 -1</clus>
</clustering>
</event>
<event>
 9    1  0.3288491E-005  0.9436802E+02  0.7546771E-02  0.1293200E+00
         -3   -1    0    0    0  501 -0.00000000000E+00  0.00000000000E+00  0.14759569134E+03  0.14759569134E+03  0.00000000000E+00 0.  1.
         21   -1    0    0  501  502  0.00000000000E+00 -0.00000000000E+00 -0.21778050145E+03  0.21778050145E+03  0.00000000000E+00 0.  1.
         23    2    1    2    0    0  0.16634729212E+02 -0.95574509203E+01  0.66343805681E+02  0.11417515815E+03  0.90919783886E+02 0.  0.
         23    2    1    2    0    0  0.14413330001E+02  0.41262111577E+02  0.59058646406E+01  0.10201407575E+03  0.91987425665E+02 0.  0.
        -11    1    4    4    0    0 -0.43633455512E+01  0.68199398209E+02  0.94441465889E+01  0.68988322238E+02  0.00000000000E+00 0.  1.
         11    1    4    4    0    0  0.18776675552E+02 -0.26937286632E+02 -0.35382819483E+01  0.33025753512E+02  0.00000000000E+00 0. -1.
        -13    1    3    3    0    0 -0.20076488619E+02  0.23982665279E+01  0.72331764693E+02  0.75104602131E+02  0.00000000000E+00 0.  1.
         13    1    3    3    0    0  0.36711217831E+02 -0.11955717448E+02 -0.59879590118E+01  0.39070556017E+02  0.00000000000E+00 0. -1.
         -3    1    1    2    0  502 -0.31048059212E+02 -0.31704660656E+02 -0.14243448043E+03  0.14918695889E+03  0.00000000000E+00 0.  1.
<scales pt_clust_5="13000.00000" pt_clust_6="13000.00000" pt_clust_7="13000.00000" pt_clust_8="13000.00000" pt_clust_9="44.37530"></scales>
<clustering>
<clus scale="   44.375">  2  9  1 -1</clus>
<clus scale="   90.920">  7  8 -1 -1</clus>
<clus scale="   91.987">  5  6 -1 -1</clus>
<clus scale="   93.328">  1  7  2 -1</clus>
<clus scale="   44.375">  2  5  1 -1</clus>
</clustering>
</event>
<event>
 9    1  0.3288491E-005  0.1099895E+03  0.7546771E-02  0.1260865E+00
          1   -1    0    0  502    0 -0.00000000000E+00  0.00000000000E+00  0.26720742490E+03  0.26720742490E+03  0.00000000000E+00 0. -1.
         21   -1    0    0  501  502  0.00000000000E+00 -0.00000000000E+00 -0.77125620368E+02  0.77125620368E+02  0.00000000000E+00 0.  1.
         23    2    1    2    0    0  0.61916289533E+02  0.41901597229E+01  0.18123596730E+03  0.21236423251E+03  0.91656462176E+02 0.  0.
         23    2    1    2    0    0 -0.50542505210E+02 -0.22794750451E+02  0.16235098655E+02  0.10894502179E+03  0.92365003452E+02 0.  0.
        -11    1    4    4    0    0 -0.29395658921E+02 -0.58898782219E+02  0.11702919675E+02  0.66859028105E+02  0.00000000000E+00 0.  1.
         11    1    4    4    0    0 -0.21146846289E+02  0.36104031767E+02  0.45321789795E+01  0.42085993681E+02  0.00000000000E+00 0. -1.
        -13    1    3    3    0    0  0.18584046571E+02  0.32412990208E+02  0.14366532508E+03  0.14844424661E+03  0.00000000000E+00 0. -1.
         13    1    3    3    0    0  0.43332242962E+02 -0.28222830485E+02  0.37570642219E+02  0.63919985900E+02  0.00000000000E+00 0.  1.
          1    1    1    2  501    0 -0.11373784324E+02  0.18604590728E+02 -0.73892614276E+01  0.23023790966E+02  0.00000000000E+00 0. -1.
<scales pt_clust_5="13000.00000" pt_clust_6="13000.00000" pt_clust_7="13000.00000" pt_clust_8="13000.00000" pt_clust_9="21.80582"></scales>
<clustering>
<clus scale="   21.806">  2  9  1 -1</clus>
<clus scale="   91.656">  7  8 -1 -1</clus>
<clus scale="   92.365">  5  6 -1 -1</clus>
<clus scale="  109.395">  1  7  2 -1</clus>
<clus scale="   21.806">  2  5  1 -1</clus>
</clustering>
</event>
<event>
 9    1  0.3288491E-005  0.1392446E+03  0.7546771E-02  0.1214401E+00
          2   -1    0    0  502    0 -0.00000000000E+00  0.00000000000E+00  0.74029213594E+03  0.74029213594E+03  0.00000000000E+00 0. -1.
         21   -1    0    0  501  502  0.00000000000E+00 -0.00000000000E+00 -0.47123545861E+02  0.47123545861E+02  0.00000000000E+00 0.  1.
         23    2    1    2    0    0 -0.95774210171E+02 -0.34236635558E+02  0.43924014653E+03  0.45983266985E+03  0.90384353697E+02 0.  0.
         23    2    1    2    0    0  0.93245180672E+02  0.72474204020E+02  0.24758131613E+03  0.28873981874E+03  0.90149880019E+02 0.  0.
        -11    1    3    3    0    0 -0.92145645821E+01  0.25858721513E+02  0.13772462490E+03  0.14043380641E+03  0.00000000000E+00 0.  1.
         11    1    3    3    0    0 -0.86559645589E+02 -0.60095357071E+02  0.30151552162E+03  0.31939886344E+03  0.00000000000E+00 0. -1.
        -13    1    4    4    0    0  0.40841385357E+02  0.24786902987E+02  0.19430223318E+03  0.20008939786E+03  0.00000000000E+00 0. -1.
         13    1    4    4    0    0  0.52403795314E+02  0.47687301033E+02  0.53279082942E+02  0.88650420880E+02  0.00000000000E+00 0.  1.
          2    1    1    2  501    0  0.25290294992E+01 -0.38237568462E+02  0.63471274307E+01  0.38843193209E+02  0.00000000000E+00 0. -1.
<scales pt_clust_5="13000.00000" pt_clust_6="13000.00000" pt_clust_7="13000.00000" pt_clust_8="13000.00000" pt_clust_9="38.32111"></scales>
<clustering>
<clus scale="   38.321">  2  9  1 -1</clus>
<clus scale="   90.150">  7  8 -1 -1</clus>
<clus scale="   90.384">  5  6 -1 -1</clus>
<clus scale="  139.093">  2  7  1 -1</clus>
<clus scale="   38.321">  2  5  1 -1</clus>
</clustering>
</event>
<event>
 9    1  0.3288491E-005  0.1013140E+03  0.7546771E-02  0.1277674E+00
          1   -1    0    0  502    0 -0.00000000000E+00  0.00000000000E+00  0.17474258254E+03  0.17474258254E+03  0.00000000000E+00 0. -1.
         21   -1    0    0  501  502  0.00000000000E+00 -0.00000000000E+00 -0.97495550798E+02  0.97495550798E+02  0.00000000000E+00 0.  1.
         23    2    1    2    0    0 -0.25526869182E+02 -0.24887649614E+02  0.88407656027E+02  0.13223962888E+03  0.91653639577E+02 0.  0.
         23    2    1    2    0    0  0.40246815457E+02  0.48345997470E+02 -0.13593570363E+02  0.11219760287E+03  0.91904163723E+02 0.  0.
        -11    1    3    3    0    0 -0.20038758121E+02  0.31237181616E+02  0.15876993468E+02  0.40365731306E+02  0.00000000000E+00 0.  1.
         11    1    3    3    0    0 -0.54881110616E+01 -0.56124831230E+02  0.72530662559E+02  0.91873897571E+02  0.00000000000E+00 0. -1.
        -11    1    4    4    0    0  0.10211642433E+02  0.54467400898E+02 -0.42675670818E+02  0.69944179754E+02  0.00000000000E+00 0.  1.
         11    1    4    4    0    0  0.30035173024E+02 -0.61214034277E+01  0.29082100454E+02  0.42253423120E+02  0.00000000000E+00 0. -1.
          1    1    1    2  501    0 -0.14719946275E+02 -0.23458347856E+02  0.24329460784E+01  0.27800901588E+02  0.00000000000E+00 0. -1.
<scales pt_clust_5="13000.00000" pt_clust_6="13000.00000" pt_clust_7="13000.00000" pt_clust_8="13000.00000" pt_clust_9="27.69424"></scales>
<clustering>
<clus scale="   27.694">  2  9  1 -1</clus>
<clus scale="   91.654">  5  6 -1 -1</clus>
<clus scale="   91.904">  7  8 -1 -1</clus>
<clus scale="  101.087">  1  5  2 -1</clus>
<clus scale="   27.694">  2  5  1 -1</clus>
</clustering>
</event>
<event>
 9    1  0.3288491E-005  0.9454326E+02  0.7546771E-02  0.1294570E+00
         -1   -1    0    0    0  501 -0.00000000000E+00  0.00000000000E+00  0.38527649675E+03  0.38527649675E+03  0.00000000000E+00 0.  1.
         21   -1    0    0  501  502  0.00000000000E+00 -0.00000000000E+00 -0.61261496795E+02  0.61261496795E+02  0.00000000000E+00 0.  1.
         23    2    1    2    0    0  0.19787887457E+01  0.11682324613E+02  0.25206928903E+03  0.26903616183E+03  0.93279888455E+02 0.  0.
         23    2    1    2    0    0  0.31800282922E+02 -0.16408301624E+02  0.95964242949E+02  0.13578552289E+03  0.89152015943E+02 0.  0.
        -11    1    4    4    0    0  0.38278165377E+02  0.21215698159E+02  0.14986222128E+02  0.46259168244E+02  0.00000000000E+00 0. -1.
         11    1    4    4    0    0 -0.64778824548E+01 -0.37623999783E+02  0.80978020822E+02  0.89526354650E+02  0.00000000000E+00 0.  1.
        -13    1    3    3    0    0  0.40748770964E+02  0.79112353230E+01  0.19854690498E+03  0.20283964962E+03  0.00000000000E+00 0.  1.
         13    1    3    3    0    0 -0.38769982218E+02  0.37710892901E+01  0.53522384047E+02  0.66196512217E+02  0.00000000000E+00 0. -1.
         -1    1    1    2    0  502 -0.33779071668E+02  0.47259770112E+01 -0.24018532017E+02  0.41716308822E+02  0.00000000000E+00 0.  1.
<scales pt_clust_5="13000.00000" pt_clust_6="13000.00000" pt_clust_7="13000.00000" pt_clust_8="13000.00000" pt_clust_9="34.10807"></scales>
<clustering>
<clus scale="   34.108">  2  9  1 -1</clus>
<clus scale="   89.152">  5  6 -1 -1</clus>
<clus scale="   90.473">  2  5  1 -1</clus>
<clus scale="   93.280">  7  8 -1 -1</clus>
<clus scale="   34.108">  2  5  1 -1</clus>
</clustering>
</event>
<event>
 9    1  0.3288491E-005  0.1356155E+03  0.7546771E-02  0.1221769E+00
          1   -1    0    0  502    0 -0.00000000000E+00  0.00000000000E+00  0.60102744227E+03  0.60102744227E+03  0.00000000000E+00 0. -1.
         21   -1    0    0  501  502  0.00000000000E+00 -0.00000000000E+00 -0.84965933739E+02  0.84965933739E+02  0.00000000000E+00 0. -1.
         23    2    1    2    0    0  0.30168880722E+02 -0.98043529042E+02  0.48107153840E+03  0.50026876211E+03  0.91193828349E+02 0.  0.
         23    2    1    2    0    0 -0.65569973328E+02  0.68062242568E+02 -0.49636207880E+01  0.12450040036E+03  0.80893892810E+02 0.  0.
        -11    1    4    4    0    0 -0.11253479891E+02  0.66397706647E+02 -0.15598645671E+02  0.69127519878E+02  0.00000000000E+00 0.  1.
         11    1    4    4    0    0 -0.54316493436E+02  0.16645359210E+01  0.10635024883E+02  0.55372880486E+02  0.00000000000E+00 0. -1.
        -11    1    3    3    0    0 -0.20667352155E+02 -0.35732699292E+02  0.68849119140E+02  0.80275565711E+02  0.00000000000E+00 0.  1.
         11    1    3    3    0    0  0.50836232877E+02 -0.62310829750E+02  0.41222241926E+03  0.41999319640E+03  0.00000000000E+00 0. -1.
          1    1    1    2  501    0  0.35401092606E+02  0.29981286473E+02  0.39953590921E+02  0.61224213541E+02  0.00000000000E+00 0. -1.
<scales pt_clust_5="13000.00000" pt_clust_6="13000.00000" pt_clust_7="13000.00000" pt_clust_8="13000.00000" pt_clust_9="46.39089"></scales>
<clustering>
<clus scale="   46.391">  2  9  1 -1</clus>
<clus scale="   80.894">  5  6 -1 -1</clus>
<clus scale="   91.194">  7  8 -1 -1</clus>
<clus scale="  128.915">  2  5  1 -1</clus>
<clus scale="   46.391">  2  5  1 -1</clus>
</clustering>
</event>
<event>
 9    1  0.3288491E-005  0.1270539E+03  0.7546771E-02  0.1259476E+00
         21   -1    0    0  501  502  0.00000000000E+00  0.00000000000E+00  0.35980964353E+02  0.35980964353E+02  0.00000000000E+00 0. -1.
         -1   -1    0    0    0  501 -0.00000000000E+00 -0.00000000000E+00 -0.59164002237E+03  0.59164002237E+03  0.00000000000E+00 0.  1.
         23    2    1    2    0    0 -0.98002264743E+01 -0.29186373067E+01 -0.17025371667E+03  0.18521907648E+03  0.72216448057E+02 0.  0.
         23    2    1    2    0    0 -0.11752905814E+02 -0.85178064155E+02 -0.20131203557E+03  0.23718029454E+03  0.91293608999E+02 0.  0.
        -13    1    4    4    0    0 -0.37986350772E+02 -0.90438356496E+02 -0.14841902965E+03  0.17790522065E+03  0.00000000000E+00 0. -1.
         13    1    4    4    0    0  0.26233444958E+02  0.52602923409E+01 -0.52893005921E+02  0.59275073894E+02  0.00000000000E+00 0.  1.
        -13    1    3    3    0    0  0.17445863723E+02 -0.27479644644E+02 -0.51455577517E+02  0.60886496766E+02  0.00000000000E+00 0. -1.
         13    1    3    3    0    0 -0.27246090197E+02  0.24561007337E+02 -0.11879813915E+03  0.12433257971E+03  0.00000000000E+00 0.  1.
         -1    1    1    2    0  502  0.21553132288E+02  0.88096701461E+02 -0.18409330577E+03  0.20522161570E+03  0.00000000000E+00 0.  1.
<scales pt_clust_5="13000.00000" pt_clust_6="13000.00000" pt_clust_7="13000.00000" pt_clust_8="13000.00000" pt_clust_9="88.36389"></scales>
<clustering>
<clus scale="   72.216">  7  8 -1 -1</clus>
<clus scale="   72.937">  2  7  1 -1</clus>
<clus scale="   88.364">  1  9  2 -1</clus>
<clus scale="   91.294">  5  6 -1 -1</clus>
<clus scale="   88.364">  1  5  2 -1</clus>
</clustering>
</event>
<event>
 9    1  0.3288491E-005  0.9420660E+02  0.7546771E-02  0.1295471E+00
          2   -1    0    0  502    0 -0.00000000000E+00  0.00000000000E+00  0.38264286752E+03  0.38264286752E+03  0.00000000000E+00 0. -1.
         21   -1    0    0  501  502  0.00000000000E+00 -0.00000000000E+00 -0.88516366913E+02  0.88516366913E+02  0.00000000000E+00 0.  1.
         23    2    1    2    0    0  0.13679572738E+02 -0.10463225241E+01  0.28392975465E+03  0.29766915509E+03  0.88332297683E+02 0.  0.
         23    2    1    2    0    0 -0.28571228383E+02 -0.15465417455E+02  0.62666689934E+02  0.11650329151E+03  0.92684457581E+02 0.  0.
        -11    1    3    3    0    0  0.11899885608E+02  0.43070457018E+02  0.12625066915E+03  0.13392499022E+03  0.00000000000E+00 0.  1.
         11    1    3    3    0    0  0.17796871305E+01 -0.44116779542E+02  0.15767908551E+03  0.16374416487E+03  0.00000000000E+00 0. -1.
        -13    1    4    4    0    0 -0.59392341044E+02 -0.27061199733E+02  0.42654812043E+02  0.77969171447E+02  0.00000000000E+00 0.  1.
         13    1    4    4    0    0  0.30821112662E+02  0.11595782277E+02  0.20011877890E+02  0.38534120063E+02  0.00000000000E+00 0. -1.
          2    1    1    2  501    0  0.14891655644E+02  0.16511739979E+02 -0.52469943985E+02  0.56986787827E+02  0.00000000000E+00 0. -1.
<scales pt_clust_5="13000.00000" pt_clust_6="13000.00000" pt_clust_7="13000.00000" pt_clust_8="13000.00000" pt_clust_9="22.23508"></scales>
<clustering>
<clus scale="   22.235">  2  9  1 -1</clus>
<clus scale="   88.332">  5  6 -1 -1</clus>
<clus scale="   89.928">  1  5  2 -1</clus>
<clus scale="   92.684">  7  8 -1 -1</clus>
<clus scale="   22.235">  2  5  1 -1</clus>
</clustering>
</event>
<event>
 9    1  0.3288491E-005  0.1036083E+03  0.7546771E-02  0.1273248E+00
         21   -1    0    0  501  502  0.00000000000E+00  0.00000000000E+00  0.83020992480E+02  0.83020992480E+02  0.00000000000E+00 0.  1.
         -2   -1    0    0    0  501 -0.00000000000E+00 -0.00000000000E+00 -0.32265548573E+03  0.32265548573E+03  0.00000000000E+00 0.  1.
         23    2    1    2    0    0  0.72018651387E+02  0.93941723834E+01 -0.19113363571E+03  0.22381300400E+03  0.91023389507E+02 0.  0.
         23    2    1    2    0    0 -0.15313475581E+02 -0.15675519203E+02 -0.74634701637E+02  0.11911070465E+03  0.90204195225E+02 0.  0.
        -11    1    3    3    0    0  0.36131620770E+02 -0.33820365650E+02 -0.43633602423E+02  0.65978802752E+02  0.00000000000E+00 0.  1.
         11    1    3    3    0    0  0.35887030617E+02  0.43214538033E+02 -0.14750003329E+03  0.15783420125E+03  0.00000000000E+00 0. -1.
        -13    1    4    4    0    0  0.18677204606E+01 -0.46953244633E+02 -0.68243481044E+02  0.82856914415E+02  0.00000000000E+00 0.  1.
         13    1    4    4    0    0 -0.17181196042E+02  0.31277725430E+02 -0.63912205925E+01  0.36253790232E+02  0.00000000000E+00 0. -1.
         -2    1    1    2    0  502 -0.56705175806E+02  0.62813468192E+01  0.26133844095E+02  0.62752769566E+02  0.00000000000E+00 0.  1.
<scales pt_clust_5="13000.00000" pt_clust_6="13000.00000" pt_clust_7="13000.00000" pt_clust_8="13000.00000" pt_clust_9="57.05201"></scales>
<clustering>
<clus scale="   57.052">  1  9  2 -1</clus>
<clus scale="   90.204">  7  8 -1 -1</clus>
<clus scale="   91.023">  5  6 -1 -1</clus>
<clus scale="  102.889">  1  7  2 -1</clus>
<clus scale="   57.052">  1  5  2 -1</clus>
</clustering>
</event>
<event>
 9    1  0.3288491E-005  0.9145653E+02  0.7546771E-02  0.1301644E+00
          1   -1    0    0  502    0 -0.00000000000E+00  0.00000000000E+00  0.54106839831E+02  0.54106839831E+02  0.00000000000E+00 0. -1.
         21   -1    0    0  501  502  0.00000000000E+00 -0.00000000000E+00 -0.43565233201E+03  0.43565233201E+03  0.00000000000E+00 0.  1.
         23    2    1    2    0    0  0.16300813998E+02  0.57891477989E+01 -0.33785411759E+02  0.98307781736E+02  0.90684812029E+02 0.  0.
         23    2    1    2    0    0  0.20596605795E+02  0.49141204512E+02 -0.13838733273E+03  0.17187062896E+03  0.86887174464E+02 0.  0.
        -11    1    4    4    0    0 -0.19139743341E+02  0.48028716661E+02 -0.38796767409E+02  0.64639589732E+02  0.00000000000E+00 0. -1.
         11    1    4    4    0    0  0.39736349137E+02  0.11124878503E+01 -0.99590565325E+02  0.10723103923E+03  0.00000000000E+00 0.  1.
        -13    1    3    3    0    0 -0.17818920986E+02  0.25899197415E+02 -0.47010166167E+02  0.56552967162E+02  0.00000000000E+00 0. -1.
         13    1    3    3    0    0  0.34119734983E+02 -0.20110049617E+02  0.13224754408E+02  0.41754814573E+02  0.00000000000E+00 0.  1.
          1    1    1    2  501    0 -0.36897419793E+02 -0.54930352311E+02 -0.20937274769E+03  0.21958076115E+03  0.00000000000E+00 0. -1.
<scales pt_clust_5="13000.00000" pt_clust_6="13000.00000" pt_clust_7="13000.00000" pt_clust_8="13000.00000" pt_clust_9="66.17222"></scales>
<clustering>
<clus scale="   66.172">  2  9  1 -1</clus>
<clus scale="   86.887">  5  6 -1 -1</clus>
<clus scale="   87.692">  2  5  1 -1</clus>
<clus scale="   90.685">  7  8 -1 -1</clus>
<clus scale="   66.172">  2  5  1 -1</clus>
</clustering>
</event>
<event>
 9    1  0.3288491E-005  0.9240054E+02  0.7546771E-02  0.1297188E+00
          1   -1    0    0  502    0 -0.00000000000E+00  0.00000000000E+00  0.52778759936E+02  0.52778759936E+02  0.00000000000E+00 0. -1.
         21   -1    0    0  501  502  0.00000000000E+00 -0.00000000000E+00 -0.36820486917E+03  0.36820486917E+03  0.00000000000E+00 0. -1.
         23    2    1    2    0    0 -0.10658448521E+02 -0.12157091880E+02 -0.37671814956E+02  0.10090281833E+03  0.92199868209E+02 0.  0.
         23    2    1    2    0    0 -0.59211179132E+01 -0.14165895710E+02 -0.90159945622E+02  0.12992450310E+03  0.92281246597E+02 0.  0.
        -11    1    4    4    0    0  0.36082214377E+02  0.78554899956E+01 -0.68428690641E+02  0.77756804334E+02  0.00000000000E+00 0.  1.
         11    1    4    4    0    0 -0.42003332290E+02 -0.22021385706E+02 -0.21731254981E+02  0.52167698769E+02  0.00000000000E+00 0. -1.
        -11    1    3    3    0    0 -0.16176106507E+02  0.38406814291E+02 -0.24571535117E+02  0.48378819164E+02  0.00000000000E+00 0.  1.
         11    1    3    3    0    0  0.55176579857E+01 -0.50563906171E+02 -0.13100279839E+02  0.52523999170E+02  0.00000000000E+00 0. -1.
          1    1    1    2  501    0  0.16579566435E+02  0.26322987590E+02 -0.18759434866E+03  0.19015630767E+03  0.00000000000E+00 0. -1.
<scales pt_clust_5="13000.00000" pt_clust_6="13000.00000" pt_clust_7="13000.00000" pt_clust_8="13000.00000" pt_clust_9="31.10919"></scales>
<clustering>
<clus scale="   31.109">  2  9  1 -1</clus>
<clus scale="   92.200">  7  8 -1 -1</clus>
<clus scale="   92.281">  5  6 -1 -1</clus>
<clus scale="   92.319">  1  7  2 -1</clus>
<clus scale="   31.109">  2  5  1 -1</clus>
</clustering>
</event>
<event>
 9    1  0.3288491E-005  0.9030522E+02  0.7546771E-02  0.1323367E+00
          1   -1    0    0  502    0 -0.00000000000E+00  0.00000000000E+00  0.25612492158E+03  0.25612492158E+03  0.00000000000E+00 0. -1.
         21   -1    0    0  501  502  0.00000000000E+00 -0.00000000000E+00 -0.51141973520E+02  0.51141973520E+02  0.00000000000E+00 0.  1.
         23    2    1    2    0    0 -0.21469560681E+02 -0.27051420852E+02  0.11281878606E+03  0.14855760638E+03  0.90269388607E+02 0.  0.
         23    2    1    2    0    0 -0.20202636645E+02 -0.18185005305E+02  0.62783349468E+02  0.90546700546E+02  0.59313700474E+02 0.  0.
        -11    1    4    4    0    0  0.17773115893E+02 -0.15243744500E+02  0.10013311374E+02  0.25466091172E+02  0.00000000000E+00 0.  1.
         11    1    4    4    0    0 -0.37975752538E+02 -0.29412608045E+01  0.52770038094E+02  0.65080609373E+02  0.00000000000E+00 0. -1.
        -11    1    3    3    0    0 -0.17314149333E+02 -0.59469164048E+02  0.58695975308E+02  0.85332167188E+02  0.00000000000E+00 0.  1.
         11    1    3    3    0    0 -0.41554113483E+01  0.32417743196E+02  0.54122810754E+02  0.63225439194E+02  0.00000000000E+00 0. -1.
          1    1    1    2  501    0  0.41672197326E+02  0.45236426157E+02  0.29380812531E+02  0.68162588173E+02  0.00000000000E+00 0. -1.
<scales pt_clust_5="13000.00000" pt_clust_6="13000.00000" pt_clust_7="13000.00000" pt_clust_8="13000.00000" pt_clust_9="61.50534"></scales>
<clustering>
<clus scale="   59.314">  5  6 -1 -1</clus>
<clus scale="   61.505">  2  9  1 -1</clus>
<clus scale="   61.505">  2  5  1 -1</clus>
<clus scale="   90.269">  7  8 -1 -1</clus>
<clus scale="   61.505">  2  5  1 -1</clus>
</clustering>
</event>
<event>
 9    1  0.3288491E-005  0.1520434E+03  0.7546771E-02  0.1198582E+00
          4   -1    0    0  502    0 -0.00000000000E+00  0.00000000000E+00  0.77120223801E+02  0.77120223801E+02  0.00000000000E+00 0. -1.
         21   -1    0    0  501  502  0.00000000000E+00 -0.00000000000E+00 -0.63476863755E+03  0.63476863755E+03  0.00000000000E+00 0. -1.
         23    2    1    2    0    0  0.30346263236E+02  0.72763719670E+02 -0.14588746447E+03  0.19051178318E+03  0.93787699875E+02 0.  0.
         23    2    1    2    0    0 -0.86297117018E+02 -0.16623470325E+03 -0.27031024323E+03  0.34283961697E+03  0.96903077357E+02 0.  0.
        -11    1    3    3    0    0 -0.29198318191E+02  0.45791006364E+02 -0.86836280726E+02  0.10242020162E+03  0.00000000000E+00 0. -1.
         11    1    3    3    0    0  0.59544581427E+02  0.26972713306E+02 -0.59051183749E+02  0.88091581565E+02  0.00000000000E+00 0.  1.
        -13    1    4    4    0    0 -0.35328890671E+02 -0.10465064194E+03 -0.22574241059E+03  0.25131558510E+03  0.00000000000E+00 0. -1.
         13    1    4    4    0    0 -0.50968226348E+02 -0.61584061305E+02 -0.44567832637E+02  0.91524031870E+02  0.00000000000E+00 0.  1.
          4    1    1    2  501    0  0.55950853782E+02  0.93470983579E+02 -0.14145070605E+03  0.17853746120E+03  0.00000000000E+00 0. -1.
<scales pt_clust_5="13000.00000" pt_clust_6="13000.00000" pt_clust_7="13000.00000" pt_clust_8="13000.00000" pt_clust_9="108.93724"></scales>
<clustering>
<clus scale="   93.788">  5  6 -1 -1</clus>
<clus scale="   96.903">  7  8 -1 -1</clus>
<clus scale="  108.937">  2  9  1 -1</clus>
<clus scale="  150.077">  1  5  2 -1</clus>
<clus scale="  108.937">  2  5  1 -1</clus>
</clustering>
</event>
<event>
 9    1  0.3288491E-005  0.1760474E+03  0.7546771E-02  0.1193969E+00
         21   -1    0    0  501  502  0.00000000000E+00  0.00000000000E+00  0.35146945392E+03  0.35146945392E+03  0.00000000000E+00 0. -1.
          2   -1    0    0  502    0 -0.00000000000E+00 -0.00000000000E+00 -0.25220153025E+03  0.25220153025E+03  0.00000000000E+00 0. -1.
         23    2    1    2    0    0 -0.51510861496E+02  0.18311163524E+02 -0.29554449322E+02  0.11094325453E+03  0.91903605416E+02 0.  0.
         23    2    1    2    0    0  0.76306343258E+02  0.13237157199E+03 -0.11061534272E+03  0.20873737347E+03  0.89390413041E+02 0.  0.
        -11    1    4    4    0    0  0.84040678057E+02  0.57977263792E+02 -0.67695033047E+02  0.12250231093E+03  0.00000000000E+00 0. -1.
         11    1    4    4    0    0 -0.77343347992E+01  0.74394308202E+02 -0.42920309672E+02  0.86235062533E+02  0.00000000000E+00 0.  1.
        -13    1    3    3    0    0 -0.35187619409E+02  0.55810672706E+02 -0.16452525341E+02  0.67997686267E+02  0.00000000000E+00 0.  1.
         13    1    3    3    0    0 -0.16323242088E+02 -0.37499509182E+02 -0.13101923981E+02  0.42945568259E+02  0.00000000000E+00 0. -1.
          2    1    1    2  501    0 -0.24795481761E+02 -0.15068273552E+03  0.23943771571E+03  0.28399035618E+03  0.00000000000E+00 0. -1.
<scales pt_clust_5="13000.00000" pt_clust_6="13000.00000" pt_clust_7="13000.00000" pt_clust_8="13000.00000" pt_clust_9="151.66422"></scales>
<clustering>
<clus scale="   89.390">  5  6 -1 -1</clus>
<clus scale="   91.904">  7  8 -1 -1</clus>
<clus scale="  106.934">  2  7  1 -1</clus>
<clus scale="  151.664">  1  9  2 -1</clus>
<clus scale="  151.664">  1  5  2 -1</clus>
</clustering>
</event>
<event>
 9    1  0.3288491E-005  0.1790423E+03  0.7546771E-02  0.1184501E+00
         -1   -1    0    0    0  501 -0.00000000000E+00  0.00000000000E+00  0.34856009557E+03  0.34856009557E+03  0.00000000000E+00 0.  1.
         21   -1    0    0  501  502  0.00000000000E+00 -0.00000000000E+00 -0.30950342822E+03  0.30950342822E+03  0.00000000000E+00 0.  1.
         23    2    1    2    0    0  0.60719937439E+02  0.61157624028E+02 -0.94349611554E+02  0.15688741648E+03  0.91020033343E+02 0.  0.
         23    2    1    2    0    0 -0.52203883556E+02 -0.20579047430E+03  0.23007753538E+03  0.32700229648E+03  0.94445036089E+02 0.  0.
        -13    1    4    4    0    0 -0.11860825522E+01 -0.82578717852E+02  0.15059980981E+03  0.17175841799E+03  0.00000000000E+00 0.  1.
         13    1    4    4    0    0 -0.51017801003E+02 -0.12321175645E+03  0.79477725570E+02  0.15524387849E+03  0.00000000000E+00 0. -1.
        -13    1    3    3    0    0  0.34726167495E+02  0.83903287681E+02 -0.68120244027E+02  0.11351667736E+03  0.00000000000E+00 0. -1.
         13    1    3    3    0    0  0.25993769944E+02 -0.22745663653E+02 -0.26229367527E+02  0.43370739120E+02  0.00000000000E+00 0.  1.
         -1    1    1    2    0  502 -0.85160538834E+01  0.14463285027E+03 -0.96671256473E+02  0.17417381083E+03  0.00000000000E+00 0.  1.
<scales pt_clust_5="13000.00000" pt_clust_6="13000.00000" pt_clust_7="13000.00000" pt_clust_8="13000.00000" pt_clust_9="152.10611"></scales>
<clustering>
<clus scale="   91.020">  7  8 -1 -1</clus>
<clus scale="   94.445">  5  6 -1 -1</clus>
<clus scale="  125.347">  1  7  2 -1</clus>
<clus scale="  152.106">  2  9  1 -1</clus>
<clus scale="  152.106">  2  5  1 -1</clus>
</clustering>
</event>
<event>
 9    1  0.3288491E-005  0.1264976E+03  0.7546771E-02  0.1233025E+00
          1   -1    0    0  502    0 -0.00000000000E+00  0.00000000000E+00  0.28336122414E+03  0.28336122414E+03  0.00000000000E+00 0. -1.
         21   -1    0    0  501  502  0.00000000000E+00 -0.00000000000E+00 -0.39169916005E+03  0.39169916005E+03  0.00000000000E+00 0. -1.
         23    2    1    2    0    0  0.64698996694E+02  0.22488730077E+01  0.82174353663E+02  0.13926683852E+03  0.91932640057E+02 0.  0.
         23    2    1    2    0    0 -0.10250137554E+03  0.55030611893E+02  0.13629870565E+03  0.20185435085E+03  0.92913624202E+02 0.  0.
        -13    1    4    4    0    0 -0.73390604133E+02 -0.83084513316E+01  0.43251557164E+02  0.85591520232E+02  0.00000000000E+00 0.  1.
         13    1    4    4    0    0 -0.29110771410E+02  0.63339063224E+02  0.93047148488E+02  0.11626283062E+03  0.00000000000E+00 0. -1.
        -13    1    3    3    0    0  0.67695875192E+02 -0.33436125754E+02  0.46249881878E+02  0.88542405644E+02  0.00000000000E+00 0.  1.
         13    1    3    3    0    0 -0.29968784982E+01  0.35684998762E+02  0.35924471785E+02  0.50724432874E+02  0.00000000000E+00 0. -1.
          1    1    1    2  501    0  0.37802378849E+02 -0.57279484900E+02 -0.32681099522E+03  0.33393919482E+03  0.00000000000E+00 0. -1.
<scales pt_clust_5="13000.00000" pt_clust_6="13000.00000" pt_clust_7="13000.00000" pt_clust_8="13000.00000" pt_clust_9="68.62914"></scales>
<clustering>
<clus scale="   68.629">  2  9  1 -1</clus>
<clus scale="   91.933">  7  8 -1 -1</clus>
<clus scale="   92.914">  5  6 -1 -1</clus>
<clus scale="  125.779">  1  7  2 -1</clus>
<clus scale="   68.629">  2  5  1 -1</clus>
</clustering>
</event>
<event>
 9    1  0.3288491E-005  0.1118557E+03  0.7546771E-02  0.1264378E+00
          3   -1    0    0  502    0 -0.00000000000E+00  0.00000000000E+00  0.21476437889E+03  0.21476437889E+03  0.00000000000E+00 0. -1.
         21   -1    0    0  501  502  0.00000000000E+00 -0.00000000000E+00 -0.75354543250E+02  0.75354543250E+02  0.00000000000E+00 0.  1.
         23    2    1    2    0    0  0.18428645526E+02  0.46650998494E+02  0.10630941929E+03  0.15749228390E+03  0.10481505723E+03 0.  0.
         23    2    1    2    0    0 -0.56477532803E+01 -0.19538794752E+02  0.46715463506E+01  0.91315338963E+02  0.88898853577E+02 0.  0.
        -11    1    4    4    0    0  0.11764148268E+02 -0.44629110273E+02 -0.21667082514E+02  0.50986421064E+02  0.00000000000E+00 0.  1.
         11    1    4    4    0    0 -0.17411901548E+02  0.25090315522E+02  0.26338628864E+02  0.40328917900E+02  0.00000000000E+00 0. -1.
        -13    1    3    3    0    0  0.39163434457E+02  0.85805302163E+00  0.99287424373E+02  0.10673567113E+03  0.00000000000E+00 0.  1.
         13    1    3    3    0    0 -0.20734788930E+02  0.45792945473E+02  0.70219949170E+01  0.50756612768E+02  0.00000000000E+00 0. -1.
          3    1    1    2  501    0 -0.12780892246E+02 -0.27112203743E+02  0.28428869996E+02  0.41311299273E+02  0.00000000000E+00 0. -1.
<scales pt_clust_5="13000.00000" pt_clust_6="13000.00000" pt_clust_7="13000.00000" pt_clust_8="13000.00000" pt_clust_9="29.97372"></scales>
<clustering>
<clus scale="   29.974">  2  9  1 -1</clus>
<clus scale="   88.899">  5  6 -1 -1</clus>
<clus scale="   97.101">  2  5  1 -1</clus>
<clus scale="  104.815">  7  8 -1 -1</clus>
<clus scale="   29.974">  2  5  1 -1</clus>
</clustering>
</event>
<event>
 9    1  0.3288491E-005  0.1017326E+03  0.7546771E-02  0.1289336E+00
         -2   -1    0    0    0  501 -0.00000000000E+00  0.00000000000E+00  0.49557965326E+02  0.49557965326E+02  0.00000000000E+00 0.  1.
         21   -1    0    0  501  502  0.00000000000E+00 -0.00000000000E+00 -0.38792150856E+03  0.38792150856E+03  0.00000000000E+00 0.  1.
         23    2    1    2    0    0  0.49282736449E+02  0.12365584467E+02 -0.59409492815E+02  0.12066481402E+03  0.91917428791E+02 0.  0.
         23    2    1    2    0    0 -0.37694674512E+02  0.18956190332E+02 -0.71804471699E+02  0.10699024584E+03  0.67162526090E+02 0.  0.
        -13    1    4    4    0    0 -0.27813317477E+01 -0.23701680872E+02 -0.26277023935E+02  0.35496302192E+02  0.00000000000E+00 0.  1.
         13    1    4    4    0    0 -0.34913342764E+02  0.42657871204E+02 -0.45527447764E+02  0.71493943650E+02  0.00000000000E+00 0. -1.
        -13    1    3    3    0    0  0.15987726787E+02  0.45862657389E+02 -0.53237175895E+01  0.48860338922E+02  0.00000000000E+00 0.  1.
         13    1    3    3    0    0  0.33295009662E+02 -0.33497072922E+02 -0.54085775226E+02  0.71804475101E+02  0.00000000000E+00 0. -1.
         -2    1    1    2    0  502 -0.11588061937E+02 -0.31321774800E+02 -0.20714957872E+03  0.20982441403E+03  0.00000000000E+00 0.  1.
<scales pt_clust_5="13000.00000" pt_clust_6="13000.00000" pt_clust_7="13000.00000" pt_clust_8="13000.00000" pt_clust_9="33.39666"></scales>
<clustering>
<clus scale="   33.397">  2  9  1 -1</clus>
<clus scale="   67.163">  5  6 -1 -1</clus>
<clus scale="   80.072">  2  5  1 -1</clus>
<clus scale="   91.917">  7  8 -1 -1</clus>
<clus scale="   33.397">  2  5  1 -1</clus>
</clustering>
</event>
<event>
 9    1  0.3288491E-005  0.1614718E+03  0.7546771E-02  0.1187359E+00
         21   -1    0    0  501  502  0.00000000000E+00  0.00000000000E+00  0.49616740325E+03  0.49616740325E+03  0.00000000000E+00 0. -1.
         -1   -1    0    0    0  501 -0.00000000000E+00 -0.00000000000E+00 -0.32276375317E+03  0.32276375317E+03  0.00000000000E+00 0.  1.
         23    2    1    2    0    0 -0.11160119718E+03  0.73724523330E+02 -0.28241842883E+03  0.32614268880E+03  0.93374257504E+02 0.  0.
         23    2    1    2    0    0  0.81923076668E+02 -0.67399786497E+02  0.26654298378E+03  0.30109243484E+03  0.91418654573E+02 0.  0.
        -11    1    4    4    0    0  0.50625497561E+02 -0.65148377036E+02  0.91276534391E+02  0.12303925294E+03  0.00000000000E+00 0. -1.
         11    1    4    4    0    0  0.31297579107E+02 -0.22514094612E+01  0.17526644939E+03  0.17805318190E+03  0.00000000000E+00 0.  1.
        -11    1    3    3    0    0 -0.33851175438E+02  0.75554238905E+02 -0.17424829248E+03  0.19291659475E+03  0.00000000000E+00 0.  1.
         11    1    3    3    0    0 -0.77750021747E+02 -0.18297155751E+01 -0.10817013634E+03  0.13322609406E+03  0.00000000000E+00 0. -1.
         -1    1    1    2    0  502  0.29678120517E+02 -0.63247368320E+01  0.18927909512E+03  0.19169603278E+03  0.00000000000E+00 0.  1.
<scales pt_clust_5="13000.00000" pt_clust_6="13000.00000" pt_clust_7="13000.00000" pt_clust_8="13000.00000" pt_clust_9="30.34457"></scales>
<clustering>
<clus scale="   30.345">  1  9  2 -1</clus>
<clus scale="   91.419">  5  6 -1 -1</clus>
<clus scale="   93.374">  7  8 -1 -1</clus>
<clus scale="  160.349">  1  5  2 -1</clus>
<clus scale="   30.345">  1  5  2 -1</clus>
</clustering>
</event>
<event>
 9    1  0.3288491E-005  0.1537872E+03  0.7546771E-02  0.1216760E+00
         21   -1    0    0  501  502  0.00000000000E+00  0.00000000000E+00  0.14363229960E+03  0.14363229960E+03  0.00000000000E+00 0. -1.
          1   -1    0    0  502    0 -0.00000000000E+00 -0.00000000000E+00 -0.29078792648E+03  0.29078792648E+03  0.00000000000E+00 0. -1.
         23    2    1    2    0    0 -0.35086716762E+02 -0.17212727238E+02 -0.11701478471E+03  0.15277321676E+03  0.90110156185E+02 0.  0.
         23    2    1    2    0    0  0.11307756600E+03  0.90375396752E+02 -0.20430723273E+02  0.17427087051E+03  0.94861338722E+02 0.  0.
        -13    1    4    4    0    0  0.18553260790E+02 -0.15991941512E+02  0.13520775409E+02  0.27978153030E+02  0.00000000000E+00 0.  1.
         13    1    4    4    0    0  0.94524305209E+02  0.10636733826E+03 -0.33951498682E+02  0.14629271748E+03  0.00000000000E+00 0. -1.
        -13    1    3    3    0    0  0.14158250586E+02  0.25970220608E+02 -0.55642370522E+02  0.63015726731E+02  0.00000000000E+00 0. -1.
         13    1    3    3    0    0 -0.49244967348E+02 -0.43182947846E+02 -0.61372414184E+02  0.89757490031E+02  0.00000000000E+00 0.  1.
          1    1    1    2  501    0 -0.77990849237E+02 -0.73162669513E+02 -0.97101188987E+01  0.10737613880E+03  0.00000000000E+00 0. -1.
<scales pt_clust_5="13000.00000" pt_clust_6="13000.00000" pt_clust_7="13000.00000" pt_clust_8="13000.00000" pt_clust_9="121.04471"></scales>
<clustering>
<clus scale="   90.110">  7  8 -1 -1</clus>
<clus scale="   94.861">  5  6 -1 -1</clus>
<clus scale="   98.220">  2  7  1 -1</clus>
<clus scale="  121.045">  1  9  2 -1</clus>
<clus scale="  121.045">  1  5  2 -1</clus>
</clustering>
</event>
<event>
 9    1  0.3288491E-005  0.1126727E+03  0.7546771E-02  0.1257260E+00
         21   -1    0    0  501  502  0.00000000000E+00  0.00000000000E+00  0.65306371764E+02  0.65306371764E+02  0.00000000000E+00 0. -1.
          2   -1    0    0  502    0 -0.00000000000E+00 -0.00000000000E+00 -0.50235024415E+03  0.50235024415E+03  0.00000000000E+00 0. -1.
         23    2    1    2    0    0  0.66844920904E+02 -0.57180963642E+02 -0.32381650522E+03  0.34839815206E+03  0.93734930815E+02 0.  0.
         23    2    1    2    0    0 -0.32521018160E+02  0.44377056974E+01 -0.12290155073E+03  0.15559080027E+03  0.89590156286E+02 0.  0.
        -11    1    4    4    0    0 -0.17683874516E+02  0.44592533293E+02 -0.40699264522E+02  0.62909805087E+02  0.00000000000E+00 0.  1.
         11    1    4    4    0    0 -0.14837143644E+02 -0.40154827596E+02 -0.82202286205E+02  0.92680995182E+02  0.00000000000E+00 0. -1.
        -11    1    3    3    0    0  0.22296857379E+02  0.24413242404E+02 -0.11831173517E+03  0.12284471064E+03  0.00000000000E+00 0.  1.
         11    1    3    3    0    0  0.44548063525E+02 -0.81594206047E+02 -0.20550477005E+03  0.22555344142E+03  0.00000000000E+00 0. -1.
          2    1    1    2  501    0 -0.34323902745E+02  0.52743257945E+02  0.96741835611E+01  0.63667663581E+02  0.00000000000E+00 0. -1.
<scales pt_clust_5="13000.00000" pt_clust_6="13000.00000" pt_clust_7="13000.00000" pt_clust_8="13000.00000" pt_clust_9="62.92838"></scales>
<clustering>
<clus scale="   62.928">  1  9  2 -1</clus>
<clus scale="   89.590">  5  6 -1 -1</clus>
<clus scale="   93.735">  7  8 -1 -1</clus>
<clus scale="  109.249">  1  5  2 -1</clus>
<clus scale="   62.928">  1  5  2 -1</clus>
</clustering>
</event>
<event>
 9    1  0.3288491E-005  0.8896197E+02  0.7546771E-02  0.1305596E+00
         21   -1    0    0  501  502  0.00000000000E+00  0.00000000000E+00  0.72775145976E+02  0.72775145976E+02  0.00000000000E+00 0.  1.
          1   -1    0    0  502    0 -0.00000000000E+00 -0.00000000000E+00 -0.34462076631E+03  0.34462076631E+03  0.00000000000E+00 0. -1.
         23    2    1    2    0    0 -0.44979449409E+01  0.21632668485E+01 -0.26804487127E+03  0.28226654558E+03  0.88325752235E+02 0.  0.
         23    2    1    2    0    0  0.22957963482E+02  0.31303662914E+02 -0.89794494631E+00  0.96798779126E+02  0.88669103617E+02 0.  0.
        -11    1    3    3    0    0  0.35761658428E+02  0.74199671853E+01 -0.19770049084E+03  0.20104585598E+03  0.00000000000E+00 0. -1.
         11    1    3    3    0    0 -0.40259603368E+02 -0.52567003368E+01 -0.70344380425E+02  0.81220689600E+02  0.00000000000E+00 0.  1.
        -13    1    4    4    0    0  0.45889359469E+02 -0.58085359315E+01  0.17496593312E+02  0.49454051196E+02  0.00000000000E+00 0. -1.
         13    1    4    4    0    0 -0.22931395988E+02  0.37112198845E+02 -0.18394538258E+02  0.47344727930E+02  0.00000000000E+00 0.  1.
          1    1    1    2  501    0 -0.18460018541E+02 -0.33466929762E+02 -0.29028041156E+01  0.38330587577E+02  0.00000000000E+00 0. -1.
<scales pt_clust_5="13000.00000" pt_clust_6="13000.00000" pt_clust_7="13000.00000" pt_clust_8="13000.00000" pt_clust_9="38.22051"></scales>
<clustering>
<clus scale="   38.221">  1  9  2 -1</clus>
<clus scale="   88.326">  5  6 -1 -1</clus>
<clus scale="   88.620">  2  5  1 -1</clus>
<clus scale="   88.669">  7  8 -1 -1</clus>
<clus scale="   38.221">  1  5  2 -1</clus>
</clustering>
</event>
<event>
 9    1  0.3288491E-005  0.1433739E+03  0.7546771E-02  0.1208975E+00
         21   -1    0    0  501  502  0.00000000000E+00  0.00000000000E+00  0.43729699681E+03  0.43729699681E+03  0.00000000000E+00 0. -1.
          3   -1    0    0  502    0 -0.00000000000E+00 -0.00000000000E+00 -0.15804041812E+03  0.15804041812E+03  0.00000000000E+00 0. -1.
         23    2    1    2    0    0 -0.10666154255E+03  0.29378449365E+02 -0.95113850651E+02  0.17123159192E+03  0.89631665939E+02 0.  0.
         23    2    1    2    0    0  0.12124088247E+03  0.28584555157E+01  0.22816841736E+03  0.27368373854E+03  0.90191128800E+02 0.  0.
        -13    1    4    4    0    0  0.36912045007E+02  0.35576325351E+02  0.13226742101E+03  0.14185501279E+03  0.00000000000E+00 0.  1.
         13    1    4    4    0    0  0.84328837460E+02 -0.32717869835E+02  0.95900996343E+02  0.13182872575E+03  0.00000000000E+00 0. -1.
        -13    1    3    3    0    0 -0.61771711515E+02 -0.18364622202E+02 -0.12269086567E+02  0.65601327558E+02  0.00000000000E+00 0.  1.
         13    1    3    3    0    0 -0.44889831038E+02  0.47743071566E+02 -0.82844764084E+02  0.10563026436E+03  0.00000000000E+00 0. -1.
          3    1    1    2  501    0 -0.14579339913E+02 -0.32236904880E+02  0.14620201198E+03  0.15042208447E+03  0.00000000000E+00 0. -1.
<scales pt_clust_5="13000.00000" pt_clust_6="13000.00000" pt_clust_7="13000.00000" pt_clust_8="13000.00000" pt_clust_9="35.38044"></scales>
<clustering>
<clus scale="   35.380">  1  9  2 -1</clus>
<clus scale="   89.632">  7  8 -1 -1</clus>
<clus scale="   90.191">  5  6 -1 -1</clus>
<clus scale="  143.023">  2  7  1 -1</clus>
<clus scale="   35.380">  1  5  2 -1</clus>
</clustering>
</event>
<event>
 9    1  0.3288491E-005  0.1604989E+03  0.7546771E-02  0.1199120E+00
         21   -1    0    0  501  502  0.00000000000E+00  0.00000000000E+00  0.28067412855E+03  0.28067412855E+03  0.00000000000E+00 0. -1.
          2   -1    0    0  502    0 -0.00000000000E+00 -0.00000000000E+00 -0.17703839295E+03  0.17703839295E+03  0.00000000000E+00 0. -1.
         23    2    1    2    0    0 -0.45007386101E+02 -0.75342515097E+02  0.52396397632E+02  0.13655243401E+03  0.90548469700E+02 0.  0.
         23    2    1    2    0    0 -0.10023232422E+03  0.35218708588E+02 -0.39179214432E+02  0.14543300386E+03  0.91262651271E+02 0.  0.
        -11    1    4    4    0    0 -0.72534247919E+01  0.43979060134E+02 -0.24600583067E+02  0.50911281546E+02  0.00000000000E+00 0.  1.
         11    1    4    4    0    0 -0.92978899425E+02 -0.87603515452E+01 -0.14578631365E+02  0.94521722318E+02  0.00000000000E+00 0. -1.
        -13    1    3    3    0    0 -0.64830875270E+02 -0.59858336486E+02  0.63846540814E+02  0.10891484568E+03  0.00000000000E+00 0. -1.
         13    1    3    3    0    0  0.19823489168E+02 -0.15484178611E+02 -0.11450143182E+02  0.27637588335E+02  0.00000000000E+00 0.  1.
          2    1    1    2  501    0  0.14523971032E+03  0.40123806509E+02  0.90418552400E+02  0.17572708363E+03  0.00000000000E+00 0. -1.
<scales pt_clust_5="13000.00000" pt_clust_6="13000.00000" pt_clust_7="13000.00000" pt_clust_8="13000.00000" pt_clust_9="132.02664"></scales>
<clustering>
<clus scale="   90.548">  7  8 -1 -1</clus>
<clus scale="   91.263">  5  6 -1 -1</clus>
<clus scale="  126.100">  2  7  1 -1</clus>
<clus scale="  132.027">  1  9  2 -1</clus>
<clus scale="  132.027">  1  5  2 -1</clus>
</clustering>
</event>
<event>
 9    1  0.3288491E-005  0.1080329E+03  0.7546771E-02  0.1266408E+00
         21   -1    0    0  501  502  0.00000000000E+00  0.00000000000E+00  0.34500733497E+03  0.34500733497E+03  0.00000000000E+00 0. -1.
          3   -1    0    0  502    0 -0.00000000000E+00 -0.00000000000E+00 -0.64645974882E+02  0.64645974882E+02  0.00000000000E+00 0. -1.
         23    2    1    2    0    0 -0.92996102534E+01 -0.42896750072E+02  0.18249280909E+02  0.10307896296E+03  0.91463776616E+02 0.  0.
         23    2    1    2    0    0 -0.17251985972E+02  0.65376995349E+02  0.15991218046E+03  0.19861524358E+03  0.96458939363E+02 0.  0.
        -11    1    4    4    0    0 -0.16044950171E+02  0.89907892019E+02  0.10987591408E+03  0.14287612106E+03  0.00000000000E+00 0. -1.
         11    1    4    4    0    0 -0.12070358011E+01 -0.24530896669E+02  0.50036266372E+02  0.55739122520E+02  0.00000000000E+00 0.  1.
        -13    1    3    3    0    0  0.27513773309E+01  0.28579132041E+02  0.84901668105E+01  0.29940270505E+02  0.00000000000E+00 0. -1.
         13    1    3    3    0    0 -0.12050987584E+02 -0.71475882113E+02  0.97591140983E+01  0.73138692452E+02  0.00000000000E+00 0.  1.
          3    1    1    2  501    0  0.26551596225E+02 -0.22480245278E+02  0.10219989873E+03  0.10795910332E+03  0.00000000000E+00 0. -1.
<scales pt_clust_5="13000.00000" pt_clust_6="13000.00000" pt_clust_7="13000.00000" pt_clust_8="13000.00000" pt_clust_9="34.79007"></scales>
<clustering>
<clus scale="   34.790">  1  9  2 -1</clus>
<clus scale="   91.464">  7  8 -1 -1</clus>
<clus scale="   96.459">  5  6 -1 -1</clus>
<clus scale="  103.597">  2  7  1 -1</clus>
<clus scale="   34.790">  1  5  2 -1</clus>
</clustering>
</event>
<event>
 9    1  0.3288491E-005  0.1143128E+03  0.7546771E-02  0.1263820E+00
         21   -1    0    0  501  502  0.00000000000E+00  0.00000000000E+00  0.14533187159E+03  0.14533187159E+03  0.00000000000E+00 0.  1.
          2   -1    0    0  502    0 -0.00000000000E+00 -0.00000000000E+00 -0.22977349363E+03  0.22977349363E+03  0.00000000000E+00 0. -1.
         23    2    1    2    0    0 -0.29327768905E+01  0.25290470101E+02 -0.13156887285E+03  0.16181224505E+03  0.90689719857E+02 0.  0.
         23    2    1    2    0    0  0.31998970311E+02  0.49541363098E+02  0.27333161712E+02  0.13061027537E+03  0.11328575172E+03 0.  0.
        -11    1    4    4    0    0 -0.31881518072E+02 -0.11884751559E+02 -0.84148540591E+01  0.35049797189E+02  0.00000000000E+00 0. -1.
         11    1    4    4    0    0  0.63880488383E+02  0.61426114657E+02  0.35748015771E+02  0.95560478177E+02  0.00000000000E+00 0.  1.
        -13    1    3    3    0    0  0.31416279411E+02 -0.10351504192E+02 -0.17401158558E+02  0.37375614647E+02  0.00000000000E+00 0.  1.
         13    1    3    3    0    0 -0.34349056301E+02  0.35641974293E+02 -0.11416771429E+03  0.12443663040E+03  0.00000000000E+00 0. -1.
          2    1    1    2  501    0 -0.29066193420E+02 -0.74831833199E+02  0.19794089096E+02  0.82682844793E+02  0.00000000000E+00 0. -1.
<scales pt_clust_5="13000.00000" pt_clust_6="13000.00000" pt_clust_7="13000.00000" pt_clust_8="13000.00000" pt_clust_9="80.27856"></scales>
<clustering>
<clus scale="   80.279">  1  9  2 -1</clus>
<clus scale="   90.690">  7  8 -1 -1</clus>
<clus scale="   91.969">  2  7  1 -1</clus>
<clus scale="  113.286">  5  6 -1 -1</clus>
<clus scale="   80.279">  1  5  2 -1</clus>
</clustering>
</event>
<event>
 9    1  0.3288491E-005  0.1846389E+03  0.7546771E-02  0.1185143E+00
          1   -1    0    0  502    0 -0.00000000000E+00  0.00000000000E+00  0.25835137159E+03  0.25835137159E+03  0.00000000000E+00 0. -1.
         21   -1    0    0  501  502  0.00000000000E+00 -0.00000000000E+00 -0.42241811247E+03  0.42241811247E+03  0.00000000000E+00 0.  1.
         23    2    1    2    0    0  0.39932953751E+02 -0.53962658059E+02  0.16089191194E+03  0.19641796396E+03  0.90483147479E+02 0.  0.
         23    2    1    2    0    0 -0.17142523032E+03  0.69406302900E+02 -0.27339630066E+03  0.34226914566E+03  0.90547150067E+02 0.  0.
        -13    1    4    4    0    0 -0.63233791694E+02  0.45877100578E+02 -0.18422583680E+03  0.20010592124E+03  0.00000000000E+00 0. -1.
         13    1    4    4    0    0 -0.10819143863E+03  0.23529202322E+02 -0.89170463862E+02  0.14216322443E+03  0.00000000000E+00 0.  1.
        -13    1    3    3    0    0  0.43822236786E+02 -0.26647957406E+00  0.25470085019E+02  0.50687125378E+02  0.00000000000E+00 0.  1.
         13    1    3    3    0    0 -0.38892830346E+01 -0.53696178485E+02  0.13542182692E+03  0.14573083858E+03  0.00000000000E+00 0. -1.
          1    1    1    2  501    0  0.13149227657E+03 -0.15443644842E+02 -0.51562352163E+02  0.14208237443E+03  0.00000000000E+00 0. -1.
<scales pt_clust_5="13000.00000" pt_clust_6="13000.00000" pt_clust_7="13000.00000" pt_clust_8="13000.00000" pt_clust_9="160.91229"></scales>
<clustering>
<clus scale="   90.483">  7  8 -1 -1</clus>
<clus scale="   90.547">  5  6 -1 -1</clus>
<clus scale="  112.667">  1  7  2 -1</clus>
<clus scale="  160.912">  2  9  1 -1</clus>
<clus scale="  160.912">  2  5  1 -1</clus>
</clustering>
</event>
<event>
 9    1  0.3288491E-005  0.1040666E+03  0.7546771E-02  0.1272043E+00
          1   -1    0    0  502    0 -0.00000000000E+00  0.00000000000E+00  0.30958539668E+03  0.30958539668E+03  0.00000000000E+00 0. -1.
         21   -1    0    0  501  502  0.00000000000E+00 -0.00000000000E+00 -0.21209179126E+03  0.21209179126E+03  0.00000000000E+00 0. -1.
         23    2    1    2    0    0  0.19315456500E+02 -0.37431872898E+02  0.15974008728E+03  0.18867528317E+03  0.91144034508E+02 0.  0.
         23    2    1    2    0    0  0.25954711047E+02  0.74360592077E+02  0.10258395610E+03  0.15812425712E+03  0.90976194476E+02 0.  0.
        -11    1    4    4    0    0 -0.16454493424E+02  0.35276961934E+02 -0.16918901615E+01  0.38962506201E+02  0.00000000000E+00 0.  1.
         11    1    4    4    0    0  0.42409204471E+02  0.39083630143E+02  0.10427584626E+03  0.11916175092E+03  0.00000000000E+00 0. -1.
        -11    1    3    3    0    0 -0.25011549248E+02 -0.48064539622E+02  0.97255863473E+02  0.11133050141E+03  0.00000000000E+00 0.  1.
         11    1    3    3    0    0  0.44327005748E+02  0.10632666725E+02  0.62484223811E+02  0.77344781760E+02  0.00000000000E+00 0. -1.
          1    1    1    2  501    0 -0.45270167546E+02 -0.36928719180E+02 -0.16483043796E+03  0.17487764765E+03  0.00000000000E+00 0. -1.
<scales pt_clust_5="13000.00000" pt_clust_6="13000.00000" pt_clust_7="13000.00000" pt_clust_8="13000.00000" pt_clust_9="58.42190"></scales>
<clustering>
<clus scale="   58.422">  2  9  1 -1</clus>
<clus scale="   90.976">  5  6 -1 -1</clus>
<clus scale="   91.144">  7  8 -1 -1</clus>
<clus scale="  103.920">  2  5  1 -1</clus>
<clus scale="   58.422">  2  5  1 -1</clus>
</clustering>
</event>
<event>
 9    1  0.3288491E-005  0.1047349E+03  0.7546771E-02  0.1270727E+00
          2   -1    0    0  502    0 -0.00000000000E+00  0.00000000000E+00  0.41443587365E+03  0.41443587365E+03  0.00000000000E+00 0. -1.
         21   -1    0    0  501  502  0.00000000000E+00 -0.00000000000E+00 -0.56596807248E+02  0.56596807248E+02  0.00000000000E+00 0. -1.
         23    2    1    2    0    0  0.59762440429E+02 -0.20642258229E+02  0.30126365299E+03  0.32007462677E+03  0.87694503701E+02 0.  0.
         23    2    1    2    0    0 -0.33114238413E+02  0.26226021181E+02  0.70540388495E+02  0.12035861609E+03  0.87897059590E+02 0.  0.
        -13    1    4    4    0    0  0.17171264525E+02  0.34554168761E+02  0.54783799603E+02  0.67008265185E+02  0.00000000000E+00 0.  1.
         13    1    4    4    0    0 -0.50285502938E+02 -0.83281475799E+01  0.15756588891E+02  0.53350350901E+02  0.00000000000E+00 0. -1.
        -13    1    3    3    0    0  0.37383606418E+02  0.29909891542E+02  0.18854462348E+03  0.19452817452E+03  0.00000000000E+00 0. -1.
         13    1    3    3    0    0  0.22378834012E+02 -0.50552149770E+02  0.11271902951E+03  0.12554645225E+03  0.00000000000E+00 0.  1.
          2    1    1    2  501    0 -0.26648202017E+02 -0.55837629524E+01 -0.13964975081E+02  0.30599438041E+02  0.00000000000E+00 0. -1.
<scales pt_clust_5="13000.00000" pt_clust_6="13000.00000" pt_clust_7="13000.00000" pt_clust_8="13000.00000" pt_clust_9="27.22692"></scales>
<clustering>
<clus scale="   27.227">  2  9  1 -1</clus>
<clus scale="   87.695">  7  8 -1 -1</clus>
<clus scale="   87.897">  5  6 -1 -1</clus>
<clus scale="  104.565">  1  7  2 -1</clus>
<clus scale="   27.227">  2  5  1 -1</clus>
</clustering>
</event>
<event>
 9    1  0.3288491E-005  0.1925878E+03  0.7546771E-02  0.1156274E+00
         21   -1    0    0  501  502  0.00000000000E+00  0.00000000000E+00  0.61516591504E+02  0.61516591504E+02  0.00000000000E+00 0.  1.
          1   -1    0    0  502    0 -0.00000000000E+00 -0.00000000000E+00 -0.10119793532E+04  0.10119793532E+04  0.00000000000E+00 0. -1.
         23    2    1    2    0    0 -0.14045130678E+03  0.10315878993E+03 -0.55168298311E+03  0.58577502957E+03  0.91705866256E+02 0.  0.
         23    2    1    2    0    0  0.14637746636E+03 -0.75382185212E+02 -0.41461771293E+03  0.45520170083E+03  0.90509137964E+02 0.  0.
        -13    1    3    3    0    0 -0.11334130704E+03  0.31852636540E+02 -0.38203455611E+03  0.39976398587E+03  0.00000000000E+00 0.  1.
         13    1    3    3    0    0 -0.27109999732E+02  0.71306153387E+02 -0.16964842700E+03  0.18601104371E+03  0.00000000000E+00 0. -1.
        -13    1    4    4    0    0  0.51920088183E+02  0.13803417103E+02 -0.16916434710E+03  0.17749029892E+03  0.00000000000E+00 0. -1.
         13    1    4    4    0    0  0.94457378176E+02 -0.89185602315E+02 -0.24545336584E+03  0.27771140192E+03  0.00000000000E+00 0.  1.
          1    1    1    2  501    0 -0.59261595836E+01 -0.27776604716E+02  0.15837934319E+02  0.32519214327E+02  0.00000000000E+00 0. -1.
<scales pt_clust_5="13000.00000" pt_clust_6="13000.00000" pt_clust_7="13000.00000" pt_clust_8="13000.00000" pt_clust_9="28.40175"></scales>
<clustering>
<clus scale="   28.402">  1  9  2 -1</clus>
<clus scale="   90.509">  7  8 -1 -1</clus>
<clus scale="   91.706">  5  6 -1 -1</clus>
<clus scale="  192.021">  1  7  2 -1</clus>
<clus scale="   28.402">  1  5  2 -1</clus>
</clustering>
</event>
<event>
 9    1  0.3288491E-005  0.1133467E+03  0.7546771E-02  0.1254702E+00
         21   -1    0    0  501  502  0.00000000000E+00  0.00000000000E+00  0.41544696720E+02  0.41544696720E+02  0.00000000000E+00 0. -1.
         -3   -1    0    0    0  501 -0.00000000000E+00 -0.00000000000E+00 -0.55868726531E+03  0.55868726531E+03  0.00000000000E+00 0.  1.
         23    2    1    2    0    0  0.51184954438E+02  0.53318332311E+02 -0.40169545607E+03  0.41874072015E+03  0.92313634738E+02 0.  0.
         23    2    1    2    0    0 -0.43168575904E+02 -0.19823333215E+02 -0.99872360401E+02  0.14369242983E+03  0.91741678275E+02 0.  0.
        -13    1    3    3    0    0  0.52968148351E+00  0.59674922792E+02 -0.28786866193E+03  0.29398935949E+03  0.00000000000E+00 0.  1.
         13    1    3    3    0    0  0.50655272955E+02 -0.63565904808E+01 -0.11382679414E+03  0.12475136065E+03  0.00000000000E+00 0. -1.
        -13    1    4    4    0    0 -0.66911372193E+02  0.25376685752E+01 -0.83993939741E+02  0.10741765872E+03  0.00000000000E+00 0.  1.
         13    1    4    4    0    0  0.23742796289E+02 -0.22361001790E+02 -0.15878420660E+02  0.36274771114E+02  0.00000000000E+00 0. -1.
         -3    1    1    2    0  502 -0.80163785342E+01 -0.33494999096E+02 -0.15574752116E+02  0.37798812055E+02  0.00000000000E+00 0.  1.
<scales pt_clust_5="13000.00000" pt_clust_6="13000.00000" pt_clust_7="13000.00000" pt_clust_8="13000.00000" pt_clust_9="34.44092"></scales>
<clustering>
<clus scale="   34.441">  1  9  2 -1</clus>
<clus scale="   91.742">  7  8 -1 -1</clus>
<clus scale="   92.314">  5  6 -1 -1</clus>
<clus scale="  112.881">  1  7  2 -1</clus>
<clus scale="   34.441">  1  5  2 -1</clus>
</clustering>
</event>
<event>
 9    1  0.3288491E-005  0.1404561E+03  0.7546771E-02  0.1213042E+00
         21   -1    0    0  501  502  0.00000000000E+00  0.00000000000E+00  0.78955343828E+03  0.78955343828E+03  0.00000000000E+00 0. -1.
          1   -1    0    0  502    0 -0.00000000000E+00 -0.00000000000E+00 -0.11202490792E+03  0.11202490792E+03  0.00000000000E+00 0. -1.
         23    2    1    2    0    0  0.72971155302E+02  0.81743846698E+02 -0.48021642719E+02  0.14974288816E+03  0.90055585088E+02 0.  0.
         23    2    1    2    0    0 -0.71113727053E+02 -0.27198095870E+02  0.63533398195E+03  0.64639519005E+03  0.91545477792E+02 0.  0.
        -11    1    4    4    0    0 -0.86440524385E+02 -0.95878064053E+00  0.51941245839E+03  0.52655691567E+03  0.00000000000E+00 0. -1.
         11    1    4    4    0    0  0.15326797331E+02 -0.26239315230E+02  0.11592152356E+03  0.11983827437E+03  0.00000000000E+00 0.  1.
        -11    1    3    3    0    0 -0.74743573832E+01  0.44755957537E+02  0.63829332982E+01  0.45822522747E+02  0.00000000000E+00 0.  1.
         11    1    3    3    0    0  0.80445512686E+02  0.36987889161E+02 -0.54404576017E+02  0.10392036541E+03  0.00000000000E+00 0. -1.
          1    1    1    2  501    0 -0.18574282490E+01 -0.54545750828E+02  0.90216191133E+02  0.10544026800E+03  0.00000000000E+00 0. -1.
<scales pt_clust_5="13000.00000" pt_clust_6="13000.00000" pt_clust_7="13000.00000" pt_clust_8="13000.00000" pt_clust_9="54.57737"></scales>
<clustering>
<clus scale="   54.577">  1  9  2 -1</clus>
<clus scale="   90.056">  7  8 -1 -1</clus>
<clus scale="   91.545">  5  6 -1 -1</clus>
<clus scale="  139.490">  2  7  1 -1</clus>
<clus scale="   54.577">  1  5  2 -1</clus>
</clustering>
</event>
<event>
 9    1  0.3288491E-005  0.1217729E+03  0.7546771E-02  0.1245830E+00
         -1   -1    0    0    0  501 -0.00000000000E+00  0.00000000000E+00  0.34454883646E+03  0.34454883646E+03  0.00000000000E+00 0.  1.
         21   -1    0    0  501  502  0.00000000000E+00 -0.00000000000E+00 -0.34223911127E+03  0.34223911127E+03  0.00000000000E+00 0.  1.
         23    2    1    2    0    0  0.34051765128E+02  0.10660186581E+02  0.20717286137E+03  0.23739599410E+03  0.11028645083E+03 0.  0.
         23    2    1    2    0    0 -0.67022016109E+02 -0.10633419565E+03  0.57585700657E+02  0.16810927479E+03  0.95633171763E+02 0.  0.
        -11    1    4    4    0    0 -0.51121399624E+02 -0.53381795280E+02  0.79577759205E+02  0.10860770381E+03  0.00000000000E+00 0.  1.
         11    1    4    4    0    0 -0.15900616485E+02 -0.52952400367E+02 -0.21992058549E+02  0.59501570975E+02  0.00000000000E+00 0. -1.
        -13    1    3    3    0    0  0.24835203678E+02  0.60380953807E+02  0.12046496934E+03  0.13701991010E+03  0.00000000000E+00 0.  1.
         13    1    3    3    0    0  0.92165614508E+01 -0.49720767226E+02  0.86707892031E+02  0.10037608400E+03  0.00000000000E+00 0. -1.
         -1    1    1    2    0  502  0.32970250981E+02  0.95674009066E+02 -0.26244883684E+03  0.28128267884E+03  0.00000000000E+00 0.  1.
<scales pt_clust_5="13000.00000" pt_clust_6="13000.00000" pt_clust_7="13000.00000" pt_clust_8="13000.00000" pt_clust_9="101.19562"></scales>
<clustering>
<clus scale="   95.633">  5  6 -1 -1</clus>
<clus scale="  101.196">  2  9  1 -1</clus>
<clus scale="  108.680">  2  5  1 -1</clus>
<clus scale="  110.286">  7  8 -1 -1</clus>
<clus scale="  101.196">  2  5  1 -1</clus>
</clustering>
</event>
<event>
 9    1  0.3288491E-005  0.9618067E+02  0.7546771E-02  0.1290510E+00
         21   -1    0    0  501  502  0.00000000000E+00  0.00000000000E+00  0.70718227302E+02  0.70718227302E+02  0.00000000000E+00 0. -1.
         -4   -1    0    0    0  501 -0.00000000000E+00 -0.00000000000E+00 -0.24127500839E+03  0.24127500839E+03  0.00000000000E+00 0.  1.
         23    2    1    2    0    0  0.13589561279E+02  0.11095702173E+02 -0.14115986372E+03  0.17026790191E+03  0.93580235691E+02 0.  0.
         23    2    1    2    0    0 -0.36653256106E+02  0.19097119944E+01 -0.48941829574E+02  0.10881517715E+03  0.89990732375E+02 0.  0.
        -11    1    4    4    0    0  0.23681574672E+02  0.18833193951E+02 -0.16376793331E+01  0.30301619873E+02  0.00000000000E+00 0.  1.
         11    1    4    4    0    0 -0.60334830777E+02 -0.16923481957E+02 -0.47304150241E+02  0.78513557278E+02  0.00000000000E+00 0. -1.
        -13    1    3    3    0    0  0.51439036674E+02 -0.16319352009E+00 -0.53994068320E+02  0.74574530101E+02  0.00000000000E+00 0.  1.
         13    1    3    3    0    0 -0.37849475395E+02  0.11258895693E+02 -0.87165795397E+02  0.95693371804E+02  0.00000000000E+00 0. -1.
         -4    1    1    2    0  502  0.23063694827E+02 -0.13005414168E+02  0.19544912203E+02  0.32910156635E+02  0.00000000000E+00 0.  1.
<scales pt_clust_5="13000.00000" pt_clust_6="13000.00000" pt_clust_7="13000.00000" pt_clust_8="13000.00000" pt_clust_9="26.47782"></scales>
<clustering>
<clus scale="   26.478">  1  9  2 -1</clus>
<clus scale="   89.991">  5  6 -1 -1</clus>
<clus scale="   92.692">  1  5  2 -1</clus>
<clus scale="   93.580">  7  8 -1 -1</clus>
<clus scale="   26.478">  1  5  2 -1</clus>
</clustering>
</event>
<event>
 9    1  0.3288491E-005  0.1174275E+03  0.7546771E-02  0.1253611E+00
         -2   -1    0    0    0  501 -0.00000000000E+00  0.00000000000E+00  0.19543560269E+03  0.19543560269E+03  0.00000000000E+00 0.  1.
         21   -1    0    0  501  502  0.00000000000E+00 -0.00000000000E+00 -0.14271064848E+03  0.14271064848E+03  0.00000000000E+00 0.  1.
         23    2    1    2    0    0  0.47366533985E+02 -0.11543310872E+02  0.71304307642E+02  0.12893216347E+03  0.95720227333E+02 0.  0.
         23    2    1    2    0    0 -0.10135296390E+03  0.57142803953E+01  0.35020312316E+02  0.13291574971E+03  0.78326866108E+02 0.  0.
        -13    1    3    3    0    0  0.11392165770E+02  0.27890493546E+02  0.69244587391E+02  0.75514726737E+02  0.00000000000E+00 0.  1.
         13    1    3    3    0    0  0.35974368216E+02 -0.39433804418E+02  0.20597202504E+01  0.53417436731E+02  0.00000000000E+00 0. -1.
        -13    1    4    4    0    0 -0.74235672184E+02 -0.21326942471E+02  0.49761964742E+02  0.91880501929E+02  0.00000000000E+00 0.  1.
         13    1    4    4    0    0 -0.27117291718E+02  0.27041222866E+02 -0.14741652426E+02  0.41035247781E+02  0.00000000000E+00 0. -1.
         -2    1    1    2    0  502  0.53986429916E+02  0.58290304766E+01 -0.53599665744E+02  0.76298337985E+02  0.00000000000E+00 0.  1.
<scales pt_clust_5="13000.00000" pt_clust_6="13000.00000" pt_clust_7="13000.00000" pt_clust_8="13000.00000" pt_clust_9="54.30020"></scales>
<clustering>
<clus scale="   54.300">  2  9  1 -1</clus>
<clus scale="   78.327">  7  8 -1 -1</clus>
<clus scale="   95.720">  5  6 -1 -1</clus>
<clus scale="  103.740">  2  7  1 -1</clus>
<clus scale="   54.300">  2  5  1 -1</clus>
</clustering>
</event>
<event>
 9    1  0.3288491E-005  0.1168212E+03  0.7546771E-02  0.1251698E+00
          1   -1    0    0  502    0 -0.00000000000E+00  0.00000000000E+00  0.20988611483E+03  0.20988611483E+03  0.00000000000E+00 0. -1.
         21   -1    0    0  501  502  0.00000000000E+00 -0.00000000000E+00 -0.16247176816E+03  0.16247176816E+03  0.00000000000E+00 0.  1.
         23    2    1    2    0    0  0.37287670506E+02 -0.60419210684E+02  0.10360178397E+03  0.15560982639E+03  0.91870762681E+02 0.  0.
         23    2    1    2    0    0 -0.10908922584E+02  0.77138752180E+02  0.36408917187E+02  0.11902668599E+03  0.82294295351E+02 0.  0.
        -11    1    4    4    0    0  0.84068047362E+01  0.38197326981E+02 -0.23030547517E+02  0.45388503757E+02  0.00000000000E+00 0.  1.
         11    1    4    4    0    0 -0.19315727320E+02  0.38941425199E+02  0.59439464704E+02  0.73638182234E+02  0.00000000000E+00 0. -1.
        -13    1    3    3    0    0 -0.20591971823E+02 -0.45892309113E+02  0.72710265746E+02  0.88413325263E+02  0.00000000000E+00 0.  1.
         13    1    3    3    0    0  0.57879642329E+02 -0.14526901571E+02  0.30891518225E+02  0.67196501126E+02  0.00000000000E+00 0. -1.
          1    1    1    2  501    0 -0.26378747922E+02 -0.16719541496E+02 -0.92596354490E+02  0.97721370613E+02  0.00000000000E+00 0. -1.
<scales pt_clust_5="13000.00000" pt_clust_6="13000.00000" pt_clust_7="13000.00000" pt_clust_8="13000.00000" pt_clust_9="31.23110"></scales>
<clustering>
<clus scale="   31.231">  2  9  1 -1</clus>
<clus scale="   82.294">  5  6 -1 -1</clus>
<clus scale="   91.871">  7  8 -1 -1</clus>
<clus scale="  109.450">  2  5  1 -1</clus>
<clus scale="   31.231">  2  5  1 -1</clus>
</clustering>
</event>
<event>
 9    1  0.3288491E-005  0.9204573E+02  0.7546771E-02  0.1298550E+00
          3   -1    0    0  502    0 -0.00000000000E+00  0.00000000000E+00  0.30487491752E+03  0.30487491752E+03  0.00000000000E+00 0. -1.
         21   -1    0    0  501  502  0.00000000000E+00 -0.00000000000E+00 -0.16504632314E+03  0.16504632314E+03  0.00000000000E+00 0. -1.
         23    2    1    2    0    0 -0.32413583832E+01  0.15137758066E+02  0.13191841709E+03  0.16140713925E+03  0.91706802971E+02 0.  0.
         23    2    1    2    0    0 -0.49256972138E+01  0.31186817055E+02  0.13915633408E+03  0.16909308174E+03  0.90725437038E+02 0.  0.
        -11    1    3    3    0    0 -0.46062509630E+02  0.34454742353E+01  0.48901158106E+02  0.67267743757E+02  0.00000000000E+00 0.  1.
         11    1    3    3    0    0  0.42821151247E+02  0.11692283831E+02  0.83017258981E+02  0.94139395494E+02  0.00000000000E+00 0. -1.
        -13    1    4    4    0    0 -0.61469505794E+01  0.57277123409E+02  0.12861639528E+03  0.14092775101E+03  0.00000000000E+00 0. -1.
         13    1    4    4    0    0  0.12212533656E+01 -0.26090306354E+02  0.10539938795E+02  0.28165330732E+02  0.00000000000E+00 0.  1.
          3    1    1    2  501    0  0.81670555971E+01 -0.46324575121E+02 -0.13124615679E+03  0.13942101968E+03  0.00000000000E+00 0. -1.
<scales pt_clust_5="13000.00000" pt_clust_6="13000.00000" pt_clust_7="13000.00000" pt_clust_8="13000.00000" pt_clust_9="47.03900"></scales>
<clustering>
<clus scale="   47.039">  2  9  1 -1</clus>
<clus scale="   90.725">  7  8 -1 -1</clus>
<clus scale="   91.068">  2  7  1 -1</clus>
<clus scale="   91.707">  5  6 -1 -1</clus>
<clus scale="   47.039">  2  5  1 -1</clus>
</clustering>
</event>
<event>
 9    1  0.3288491E-005  0.1387946E+03  0.7546771E-02  0.1215016E+00
         21   -1    0    0  501  502  0.00000000000E+00  0.00000000000E+00  0.13285075291E+03  0.13285075291E+03  0.00000000000E+00 0.  1.
         -4   -1    0    0    0  501 -0.00000000000E+00 -0.00000000000E+00 -0.25251664971E+03  0.25251664971E+03  0.00000000000E+00 0. -1.
         23    2    1    2    0    0 -0.10427974643E+03  0.26933834799E+02 -0.16620925013E+03  0.21959400636E+03  0.94848910506E+02 0.  0.
         23    2    1    2    0    0  0.82040250115E+02 -0.18542805116E+02  0.16805021375E+02  0.12770276502E+03  0.94610513109E+02 0.  0.
        -11    1    3    3    0    0 -0.10544960706E+03  0.57828474626E+01 -0.84702128279E+02  0.13537913978E+03  0.00000000000E+00 0. -1.
         11    1    3    3    0    0  0.11698606216E+01  0.21150987337E+02 -0.81507121853E+02  0.84214866574E+02  0.00000000000E+00 0.  1.
        -13    1    4    4    0    0  0.90314236189E+02  0.14731472520E+02  0.18557142758E+02  0.93370472250E+02  0.00000000000E+00 0.  1.
         13    1    4    4    0    0 -0.82739860740E+01 -0.33274277636E+02 -0.17521213820E+01  0.34332292773E+02  0.00000000000E+00 0. -1.
         -4    1    1    2    0  502  0.22239496320E+02 -0.83910296832E+01  0.29738331956E+02  0.38070631243E+02  0.00000000000E+00 0. -1.
<scales pt_clust_5="13000.00000" pt_clust_6="13000.00000" pt_clust_7="13000.00000" pt_clust_8="13000.00000" pt_clust_9="23.76982"></scales>
<clustering>
<clus scale="   23.770">  1  9  2 -1</clus>
<clus scale="   94.611">  7  8 -1 -1</clus>
<clus scale="   94.849">  5  6 -1 -1</clus>
<clus scale="  138.632">  1  7  2 -1</clus>
<clus scale="   23.770">  1  5  2 -1</clus>
</clustering>
</event>
<event>
 9    1  0.3288491E-005  0.1012680E+03  0.7546771E-02  0.1279673E+00
          2   -1    0    0  502    0 -0.00000000000E+00  0.00000000000E+00  0.59700365091E+03  0.59700365091E+03  0.00000000000E+00 0. -1.
         21   -1    0    0  501  502  0.00000000000E+00 -0.00000000000E+00 -0.26322344337E+02  0.26322344337E+02  0.00000000000E+00 0.  1.
         23    2    1    2    0    0  0.21182047499E+02  0.38068666390E+02  0.27927478277E+03  0.29731118512E+03  0.92204305785E+02 0.  0.
         23    2    1    2    0    0 -0.49696484654E+02 -0.74905578141E+01  0.23401293477E+03  0.25500693795E+03  0.87980882688E+02 0.  0.
        -11    1    3    3    0    0 -0.18834177707E+02 -0.85887224503E+01  0.13955749737E+02  0.24965082694E+02  0.00000000000E+00 0. -1.
         11    1    3    3    0    0  0.40016225206E+02  0.46657388840E+02  0.26531903304E+03  0.27234610242E+03  0.00000000000E+00 0.  1.
        -13    1    4    4    0    0 -0.21519887462E+02  0.32521207160E+02  0.44003016582E+02  0.58796257873E+02  0.00000000000E+00 0.  1.
         13    1    4    4    0    0 -0.28176597191E+02 -0.40011764974E+02  0.19000991819E+03  0.19621068008E+03  0.00000000000E+00 0. -1.
          2    1    1    2  501    0  0.28514437155E+02 -0.30578108576E+02  0.57393589033E+02  0.71007872186E+02  0.00000000000E+00 0. -1.
<scales pt_clust_5="13000.00000" pt_clust_6="13000.00000" pt_clust_7="13000.00000" pt_clust_8="13000.00000" pt_clust_9="41.81021"></scales>
<clustering>
<clus scale="   41.810">  2  9  1 -1</clus>
<clus scale="   87.981">  7  8 -1 -1</clus>
<clus scale="   92.204">  5  6 -1 -1</clus>
<clus scale="   97.438">  2  7  1 -1</clus>
<clus scale="   41.810">  2  5  1 -1</clus>
</clustering>
</event>
<event>
 9    1  0.3288491E-005  0.1958152E+03  0.7546771E-02  0.1161677E+00
         -1   -1    0    0    0  501 -0.00000000000E+00  0.00000000000E+00  0.16134475578E+03  0.16134475578E+03  0.00000000000E+00 0.  1.
         21   -1    0    0  501  502  0.00000000000E+00 -0.00000000000E+00 -0.70938000050E+03  0.70938000050E+03  0.00000000000E+00 0. -1.
         23    2    1    2    0    0 -0.12574769740E+03  0.46079821786E+02 -0.23701419001E+02  0.16278914189E+03  0.89457889962E+02 0.  0.
         23    2    1    2    0    0 -0.12404760735E+03 -0.92789557035E+02 -0.36807909609E+03  0.40961525945E+03  0.91130285916E+02 0.  0.
        -11    1    3    3    0    0 -0.66149828100E+02 -0.22796029162E+02 -0.10976657920E+02  0.70823341649E+02  0.00000000000E+00 0.  1.
         11    1    3    3    0    0 -0.59597869302E+02  0.68875850948E+02 -0.12724761080E+02  0.91965800239E+02  0.00000000000E+00 0. -1.
        -11    1    4    4    0    0 -0.11692026194E+02  0.17027033623E+02 -0.65491677680E+02  0.68671560313E+02  0.00000000000E+00 0.  1.
         11    1    4    4    0    0 -0.11235558115E+03 -0.10981659066E+03 -0.30258741841E+03  0.34094369914E+03  0.00000000000E+00 0. -1.
         -1    1    1    2    0  502  0.24979530475E+03  0.46709735249E+02 -0.15625472963E+03  0.29832035494E+03  0.00000000000E+00 0.  1.
<scales pt_clust_5="13000.00000" pt_clust_6="13000.00000" pt_clust_7="13000.00000" pt_clust_8="13000.00000" pt_clust_9="173.31728"></scales>
<clustering>
<clus scale="   89.458">  5  6 -1 -1</clus>
<clus scale="   91.130">  7  8 -1 -1</clus>
<clus scale="  161.054">  1  5  2 -1</clus>
<clus scale="  173.317">  2  9  1 -1</clus>
<clus scale="  173.317">  2  5  1 -1</clus>
</clustering>
</event>
<event>
 9    1  0.3288491E-005  0.9368819E+02  0.7546771E-02  0.1295620E+00
         -2   -1    0    0    0  501 -0.00000000000E+00  0.00000000000E+00  0.78672180158E+02  0.78672180158E+02  0.00000000000E+00 0.  1.
         21   -1    0    0  501  502  0.00000000000E+00 -0.00000000000E+00 -0.15593557039E+03  0.15593557039E+03  0.00000000000E+00 0. -1.
         23    2    1    2    0    0  0.86799248225E+01  0.34250766166E+01 -0.23464354617E+02  0.94467907682E+02  0.91030420187E+02 0.  0.
         23    2    1    2    0    0  0.19519195563E+02  0.28799386323E+01 -0.23870549354E+02  0.98538666227E+02  0.93545564157E+02 0.  0.
        -11    1    3    3    0    0 -0.29704070902E+02 -0.23540202505E+02  0.69900445194E+01  0.38540027044E+02  0.00000000000E+00 0.  1.
         11    1    3    3    0    0  0.38383995725E+02  0.26965279122E+02 -0.30454399136E+02  0.55927880638E+02  0.00000000000E+00 0. -1.
        -13    1    4    4    0    0  0.45871309660E+02 -0.28976876838E+02 -0.13161290192E+02  0.55830600934E+02  0.00000000000E+00 0.  1.
         13    1    4    4    0    0 -0.26352114097E+02  0.31856815470E+02 -0.10709259162E+02  0.42708065293E+02  0.00000000000E+00 0. -1.
         -2    1    1    2    0  502 -0.28199120385E+02 -0.63050152489E+01 -0.29928486260E+02  0.41601176637E+02  0.00000000000E+00 0.  1.
<scales pt_clust_5="13000.00000" pt_clust_6="13000.00000" pt_clust_7="13000.00000" pt_clust_8="13000.00000" pt_clust_9="28.89539"></scales>
<clustering>
<clus scale="   28.895">  2  9  1 -1</clus>
<clus scale="   91.030">  5  6 -1 -1</clus>
<clus scale="   91.177">  1  5  2 -1</clus>
<clus scale="   93.546">  7  8 -1 -1</clus>
<clus scale="   28.895">  2  5  1 -1</clus>
</clustering>
</event>
<event>
 9    1  0.3483480E-005  0.1991688E+03  0.7546771E-02  0.1150748E+00
         21   -1    0    0  501  502  0.00000000000E+00  0.00000000000E+00  0.28988750636E+03  0.28988750636E+03  0.00000000000E+00 0.  1.
         -1   -1    0    0    0  501 -0.00000000000E+00 -0.00000000000E+00 -0.75298315796E+03  0.75298315796E+03  0.00000000000E+00 0.  1.
         23    2    1    2    0    0  0.12043094783E+03 -0.12543717233E+03 -0.65375399791E+03  0.68278772664E+03  0.92556428595E+02 0.  0.
         23    2    1    2    0    0 -0.17322222462E+03  0.13664578560E+03  0.19239221629E+03  0.30608702837E+03  0.89423119070E+02 0.  0.
        -11    1    4    4    0    0 -0.13738673982E+03  0.11312438127E+03  0.99766521918E+02  0.20402353004E+03  0.00000000000E+00 0.  1.
         11    1    4    4    0    0 -0.35835484795E+02  0.23521404329E+02  0.92625694376E+02  0.10206349833E+03  0.00000000000E+00 0. -1.
        -11    1    3    3    0    0  0.50999320196E+02 -0.36403352496E+02 -0.10285599816E+03  0.12043874415E+03  0.00000000000E+00 0.  1.
         11    1    3    3    0    0  0.69431627630E+02 -0.89033819834E+02 -0.55089799975E+03  0.56234898250E+03  0.00000000000E+00 0. -1.
         -1    1    1    2    0  502  0.52791276790E+02 -0.11208613268E+02 -0.17338699894E+01  0.53995909304E+02  0.00000000000E+00 0.  1.
<scales pt_clust_5="13000.00000" pt_clust_6="13000.00000" pt_clust_7="13000.00000" pt_clust_8="13000.00000" pt_clust_9="53.96806"></scales>
<clustering>
<clus scale="   53.968">  1  9  2 -1</clus>
<clus scale="   89.423">  5  6 -1 -1</clus>
<clus scale="   92.556">  7  8 -1 -1</clus>
<clus scale="  197.732">  1  5  2 -1</clus>
<clus scale="   53.968">  1  5  2 -1</clus>
</clustering>
</event>
<event>
 9    1  0.3288491E-005  0.1987789E+03  0.7546771E-02  0.1170857E+00
         -1   -1    0    0    0  501 -0.00000000000E+00  0.00000000000E+00  0.25253445540E+03  0.25253445540E+03  0.00000000000E+00 0.  1.
         21   -1    0    0  501  502  0.00000000000E+00 -0.00000000000E+00 -0.26759557968E+03  0.26759557968E+03  0.00000000000E+00 0.  1.
         23    2    1    2    0    0  0.84590602783E+02  0.66938656572E+01  0.22737361283E+02  0.12668308072E+03  0.91275612433E+02 0.  0.
         23    2    1    2    0    0 -0.21725699622E+03  0.60075871203E+02 -0.22825402128E+02  0.24417283425E+03  0.91047577099E+02 0.  0.
        -11    1    3    3    0    0  0.36298619364E+02 -0.40417935839E+02  0.23556222093E+02  0.59212286770E+02  0.00000000000E+00 0.  1.
         11    1    3    3    0    0  0.48291983418E+02  0.47111801496E+02 -0.81886081090E+00  0.67470793946E+02  0.00000000000E+00 0. -1.
        -13    1    4    4    0    0 -0.28756060942E+02  0.40237382422E+02  0.13311569698E+02  0.51216753831E+02  0.00000000000E+00 0.  1.
         13    1    4    4    0    0 -0.18850093528E+03  0.19838488781E+02 -0.36136971827E+02  0.19295608042E+03  0.00000000000E+00 0. -1.
         -1    1    1    2    0  502  0.13266639344E+03 -0.66769736860E+02 -0.14973083434E+02  0.14927412011E+03  0.00000000000E+00 0.  1.
<scales pt_clust_5="13000.00000" pt_clust_6="13000.00000" pt_clust_7="13000.00000" pt_clust_8="13000.00000" pt_clust_9="176.70145"></scales>
<clustering>
<clus scale="   91.048">  7  8 -1 -1</clus>
<clus scale="   91.276">  5  6 -1 -1</clus>
<clus scale="  124.626">  1  5  2 -1</clus>
<clus scale="  176.701">  2  9  1 -1</clus>
<clus scale="  176.701">  2  5  1 -1</clus>
</clustering>
</event>
<event>
 9    1  0.3288491E-005  0.1163833E+03  0.7546771E-02  0.1250646E+00
         21   -1    0    0  501  502  0.00000000000E+00  0.00000000000E+00  0.27313676432E+02  0.27313676432E+02  0.00000000000E+00 0. -1.
          2   -1    0    0  502    0 -0.00000000000E+00 -0.00000000000E+00 -0.83010232339E+03  0.83010232339E+03  0.00000000000E+00 0. -1.
         23    2    1    2    0    0 -0.55205415449E+02 -0.40675601107E+02 -0.40439426316E+03  0.42036963506E+03  0.92053069389E+02 0.  0.
         23    2    1    2    0    0  0.21437430181E+02  0.84840032732E+02 -0.26654158767E+03  0.29395222199E+03  0.87784373820E+02 0.  0.
        -13    1    4    4    0    0  0.46272559720E+02  0.18619236498E+02 -0.14490207527E+03  0.15324632840E+03  0.00000000000E+00 0.  1.
         13    1    4    4    0    0 -0.24835129539E+02  0.66220796234E+02 -0.12163951240E+03  0.14070589359E+03  0.00000000000E+00 0. -1.
        -13    1    3    3    0    0  0.22999111170E+02 -0.26865017873E+02 -0.12670282546E+03  0.13154578777E+03  0.00000000000E+00 0.  1.
         13    1    3    3    0    0 -0.78204526619E+02 -0.13810583234E+02 -0.27769143770E+03  0.28882384729E+03  0.00000000000E+00 0. -1.
          2    1    1    2  501    0  0.33767985268E+02 -0.44164431625E+02 -0.13185279613E+03  0.14309414278E+03  0.00000000000E+00 0. -1.
<scales pt_clust_5="13000.00000" pt_clust_6="13000.00000" pt_clust_7="13000.00000" pt_clust_8="13000.00000" pt_clust_9="55.59473"></scales>
<clustering>
<clus scale="   55.595">  1  9  2 -1</clus>
<clus scale="   87.784">  5  6 -1 -1</clus>
<clus scale="   92.053">  7  8 -1 -1</clus>
<clus scale="  113.037">  1  5  2 -1</clus>
<clus scale="   55.595">  1  5  2 -1</clus>
</clustering>
</event>
<event>
 9    1  0.3288491E-005  0.3247448E+03  0.7546771E-02  0.1073570E+00
         21   -1    0    0  501  502  0.00000000000E+00  0.00000000000E+00  0.29795710007E+03  0.29795710007E+03  0.00000000000E+00 0.  1.
          2   -1    0    0  502    0 -0.00000000000E+00 -0.00000000000E+00 -0.64874492033E+03  0.64874492033E+03  0.00000000000E+00 0. -1.
         23    2    1    2    0    0  0.30961512480E+03 -0.24952113513E+01 -0.47192827800E+03  0.57189705592E+03  0.92098813283E+02 0.  0.
         23    2    1    2    0    0 -0.31985313523E+03 -0.16752310676E+02  0.11752787494E+03  0.35270666779E+03  0.89456828053E+02 0.  0.
        -11    1    4    4    0    0 -0.19722110493E+03 -0.43657975088E+01  0.11718432757E+03  0.22945019296E+03  0.00000000000E+00 0.  1.
         11    1    4    4    0    0 -0.12263203030E+03 -0.12386513167E+02  0.34354736404E+00  0.12325647483E+03  0.00000000000E+00 0. -1.
        -13    1    3    3    0    0  0.29627459428E+03  0.15624864327E+02 -0.41060560776E+03  0.50657648656E+03  0.00000000000E+00 0. -1.
         13    1    3    3    0    0  0.13340530514E+02 -0.18120075679E+02 -0.61322670237E+02  0.65320569364E+02  0.00000000000E+00 0.  1.
          2    1    1    2  501    0  0.10238010434E+02  0.19247522027E+02  0.36125828072E+01  0.22098296685E+02  0.00000000000E+00 0. -1.
<scales pt_clust_5="13000.00000" pt_clust_6="13000.00000" pt_clust_7="13000.00000" pt_clust_8="13000.00000" pt_clust_9="21.80101"></scales>
<clustering>
<clus scale="   21.801">  1  9  2 -1</clus>
<clus scale="   89.457">  5  6 -1 -1</clus>
<clus scale="   92.099">  7  8 -1 -1</clus>
<clus scale="  324.005">  1  5  2 -1</clus>
<clus scale="   21.801">  1  5  2 -1</clus>
</clustering>
</event>
<event>
 9    1  0.3288491E-005  0.1186978E+03  0.7546771E-02  0.1246850E+00
         21   -1    0    0  501  502  0.00000000000E+00  0.00000000000E+00  0.33034837936E+02  0.33034837936E+02  0.00000000000E+00 0.  1.
          3   -1    0    0  502    0 -0.00000000000E+00 -0.00000000000E+00 -0.61603443854E+03  0.61603443854E+03  0.00000000000E+00 0. -1.
         23    2    1    2    0    0  0.50363672558E+02 -0.41381386480E+02 -0.22962721679E+03  0.25370911756E+03  0.85969407241E+02 0.  0.
         23    2    1    2    0    0 -0.89492986378E+02  0.33584677063E+02 -0.22377030072E+03  0.25975561689E+03  0.90900538362E+02 0.  0.
        -11    1    4    4    0    0 -0.96883824076E+02  0.13339130730E+02 -0.21553229776E+03  0.23668244370E+03  0.00000000000E+00 0.  1.
         11    1    4    4    0    0  0.73908376983E+01  0.20245546333E+02 -0.82380029605E+01  0.23073173189E+02  0.00000000000E+00 0. -1.
        -11    1    3    3    0    0 -0.22671097336E+02 -0.43377394889E+01 -0.29372190897E+02  0.37356662544E+02  0.00000000000E+00 0.  1.
         11    1    3    3    0    0  0.73034769894E+02 -0.37043646991E+02 -0.20025502589E+03  0.21635245501E+03  0.00000000000E+00 0. -1.
          3    1    1    2  501    0  0.39129313820E+02  0.77967094166E+01 -0.12960208310E+03  0.13560454204E+03  0.00000000000E+00 0. -1.
<scales pt_clust_5="13000.00000" pt_clust_6="13000.00000" pt_clust_7="13000.00000" pt_clust_8="13000.00000" pt_clust_9="39.89854"></scales>
<clustering>
<clus scale="   39.899">  1  9  2 -1</clus>
<clus scale="   85.969">  7  8 -1 -1</clus>
<clus scale="   90.901">  5  6 -1 -1</clus>
<clus scale="  114.965">  2  7  1 -1</clus>
<clus scale="   39.899">  1  5  2 -1</clus>
</clustering>
</event>
<event>
 9    1  0.3288491E-005  0.9220281E+02  0.7546771E-02  0.1298170E+00
          1   -1    0    0  502    0 -0.00000000000E+00  0.00000000000E+00  0.27051551925E+02  0.27051551925E+02  0.00000000000E+00 0. -1.
         21   -1    0    0  501  502  0.00000000000E+00 -0.00000000000E+00 -0.39591332664E+03  0.39591332664E+03  0.00000000000E+00 0.  1.
         23    2    1    2    0    0  0.19935371281E+02  0.70014657221E+00 -0.13790352145E+03  0.16552256443E+03  0.89344439521E+02 0.  0.
         23    2    1    2    0    0 -0.11446369418E+02 -0.19489877106E+02 -0.18865945867E+03  0.21038591021E+03  0.90326990357E+02 0.  0.
        -13    1    3    3    0    0  0.17052681145E+02 -0.25924251559E+02 -0.13507529110E+03  0.13859363268E+03  0.00000000000E+00 0.  1.
         13    1    3    3    0    0  0.28826901359E+01  0.26624398131E+02 -0.28282303487E+01  0.26928931749E+02  0.00000000000E+00 0. -1.
        -13    1    4    4    0    0  0.11928720948E+01 -0.53905428970E+02 -0.13527038424E+03  0.14562037999E+03  0.00000000000E+00 0.  1.
         13    1    4    4    0    0 -0.12639241513E+02  0.34415551864E+02 -0.53389074431E+02  0.64765530220E+02  0.00000000000E+00 0. -1.
          1    1    1    2  501    0 -0.84890018631E+01  0.18789730534E+02 -0.42298794593E+02  0.47056403923E+02  0.00000000000E+00 0. -1.
<scales pt_clust_5="13000.00000" pt_clust_6="13000.00000" pt_clust_7="13000.00000" pt_clust_8="13000.00000" pt_clust_9="20.61837"></scales>
<clustering>
<clus scale="   20.618">  2  9  1 -1</clus>
<clus scale="   89.344">  5  6 -1 -1</clus>
<clus scale="   90.327">  7  8 -1 -1</clus>
<clus scale="   91.240">  1  5  2 -1</clus>
<clus scale="   20.618">  2  5  1 -1</clus>
</clustering>
</event>
<event>
 9    1  0.3288491E-005  0.1281650E+03  0.7546771E-02  0.1236660E+00
          3   -1    0    0  502    0 -0.00000000000E+00  0.00000000000E+00  0.70494687776E+02  0.70494687776E+02  0.00000000000E+00 0. -1.
         21   -1    0    0  501  502  0.00000000000E+00 -0.00000000000E+00 -0.57055224829E+03  0.57055224829E+03  0.00000000000E+00 0. -1.
         23    2    1    2    0    0  0.53900907084E+01 -0.82635379657E+01 -0.10656696011E+03  0.16422681529E+03  0.12456560815E+03 0.  0.
         23    2    1    2    0    0  0.10671177391E+03  0.14106441667E+02 -0.29735573442E+03  0.32902675140E+03  0.90839286408E+02 0.  0.
        -11    1    4    4    0    0  0.28976703134E+02  0.12901707987E+02 -0.13077207814E+02  0.34309135193E+02  0.00000000000E+00 0.  1.
         11    1    4    4    0    0  0.77735070778E+02  0.12047336793E+01 -0.28427852661E+03  0.29471761621E+03  0.00000000000E+00 0. -1.
        -13    1    3    3    0    0  0.58761804313E+00  0.56992491081E+02 -0.66153612528E+02  0.87320042287E+02  0.00000000000E+00 0. -1.
         13    1    3    3    0    0  0.48024726652E+01 -0.65256029046E+02 -0.40413347583E+02  0.76906773001E+02  0.00000000000E+00 0.  1.
          3    1    1    2  501    0 -0.11210186462E+03 -0.58429037012E+01 -0.96134865983E+02  0.14779336938E+03  0.00000000000E+00 0. -1.
<scales pt_clust_5="13000.00000" pt_clust_6="13000.00000" pt_clust_7="13000.00000" pt_clust_8="13000.00000" pt_clust_9="112.25409"></scales>
<clustering>
<clus scale="   90.839">  5  6 -1 -1</clus>
<clus scale="  112.254">  2  9  1 -1</clus>
<clus scale="  112.254">  2  5  1 -1</clus>
<clus scale="  124.566">  7  8 -1 -1</clus>
<clus scale="  112.254">  2  5  1 -1</clus>
</clustering>
</event>
<event>
 9    1  0.3288491E-005  0.1295155E+03  0.7546771E-02  0.1228652E+00
         21   -1    0    0  501  502  0.00000000000E+00  0.00000000000E+00  0.83443005048E+02  0.83443005048E+02  0.00000000000E+00 0. -1.
         -3   -1    0    0    0  501 -0.00000000000E+00 -0.00000000000E+00 -0.27444860758E+03  0.27444860758E+03  0.00000000000E+00 0.  1.
         23    2    1    2    0    0 -0.80839898700E+02  0.21752832486E+02 -0.97154807618E+02  0.15861372954E+03  0.93332650306E+02 0.  0.
         23    2    1    2    0    0  0.86883016490E+02 -0.42942468216E+02 -0.10926910158E+03  0.17238468478E+03  0.91564342698E+02 0.  0.
        -11    1    4    4    0    0  0.61403733683E+02 -0.24651933134E+02 -0.83358385006E+01  0.66690497980E+02  0.00000000000E+00 0. -1.
         11    1    4    4    0    0  0.25479282808E+02 -0.18290535083E+02 -0.10093326308E+03  0.10569418680E+03  0.00000000000E+00 0.  1.
        -13    1    3    3    0    0 -0.14724656839E+01 -0.30182847142E+02 -0.18838280347E+02  0.35609734950E+02  0.00000000000E+00 0.  1.
         13    1    3    3    0    0 -0.79367433016E+02  0.51935679628E+02 -0.78316527271E+02  0.12300399459E+03  0.00000000000E+00 0. -1.
         -3    1    1    2    0  502 -0.60431177901E+01  0.21189635730E+02  0.15418306666E+02  0.26893198312E+02  0.00000000000E+00 0.  1.
<scales pt_clust_5="13000.00000" pt_clust_6="13000.00000" pt_clust_7="13000.00000" pt_clust_8="13000.00000" pt_clust_9="22.03452"></scales>
<clustering>
<clus scale="   22.035">  1  9  2 -1</clus>
<clus scale="   91.564">  5  6 -1 -1</clus>
<clus scale="   93.333">  7  8 -1 -1</clus>
<clus scale="  128.247">  1  5  2 -1</clus>
<clus scale="   22.035">  1  5  2 -1</clus>
</clustering>
</event>
<event>
 9    1  0.3288491E-005  0.1194715E+03  0.7546771E-02  0.1244679E+00
          1   -1    0    0  502    0 -0.00000000000E+00  0.00000000000E+00  0.19177792694E+03  0.19177792694E+03  0.00000000000E+00 0. -1.
         21   -1    0    0  501  502  0.00000000000E+00 -0.00000000000E+00 -0.22814303969E+03  0.22814303969E+03  0.00000000000E+00 0.  1.
         23    2    1    2    0    0  0.69357100743E+02 -0.34576108747E+02  0.13539261094E+03  0.18095727634E+03  0.91697666513E+02 0.  0.
         23    2    1    2    0    0 -0.43174248703E+02  0.66799343210E+02 -0.15052513040E+03  0.19232999434E+03  0.89480969123E+02 0.  0.
        -11    1    4    4    0    0 -0.20685905648E+02  0.41257321131E+02 -0.15140940633E+03  0.15828733861E+03  0.00000000000E+00 0.  1.
         11    1    4    4    0    0 -0.22488343055E+02  0.25542022079E+02  0.88427592453E+00  0.34042655730E+02  0.00000000000E+00 0. -1.
        -11    1    3    3    0    0  0.21385245659E+02 -0.41041620104E+02  0.12237265256E+03  0.13083122490E+03  0.00000000000E+00 0. -1.
         11    1    3    3    0    0  0.47971855084E+02  0.64655113572E+01  0.13019958379E+02  0.50126051445E+02  0.00000000000E+00 0.  1.
          1    1    1    2  501    0 -0.26182852040E+02 -0.32223234463E+02 -0.21232593283E+02  0.46633695948E+02  0.00000000000E+00 0. -1.
<scales pt_clust_5="13000.00000" pt_clust_6="13000.00000" pt_clust_7="13000.00000" pt_clust_8="13000.00000" pt_clust_9="41.51962"></scales>
<clustering>
<clus scale="   41.520">  2  9  1 -1</clus>
<clus scale="   89.481">  5  6 -1 -1</clus>
<clus scale="   91.698">  7  8 -1 -1</clus>
<clus scale="  117.779">  2  5  1 -1</clus>
<clus scale="   41.520">  2  5  1 -1</clus>
</clustering>
</event>
<event>
 9    1  0.3288491E-005  0.1038045E+03  0.7546771E-02  0.1273034E+00
         21   -1    0    0  501  502  0.00000000000E+00  0.00000000000E+00  0.35941330180E+03  0.35941330180E+03  0.00000000000E+00 0.  1.
          2   -1    0    0  502    0 -0.00000000000E+00 -0.00000000000E+00 -0.41382879253E+02  0.41382879253E+02  0.00000000000E+00 0. -1.
         23    2    1    2    0    0  0.56610726474E+02  0.76539385710E+01  0.95779649084E+02  0.14467770149E+03  0.92165823402E+02 0.  0.
         23    2    1    2    0    0 -0.31757252133E+02  0.11180555351E+01  0.19847422107E+03  0.22062245849E+03  0.90953172862E+02 0.  0.
        -11    1    3    3    0    0  0.53451506049E+02  0.28682459170E+02  0.16884258390E+02  0.62966857507E+02  0.00000000000E+00 0. -1.
         11    1    3    3    0    0  0.31592204247E+01 -0.21028520598E+02  0.78895390694E+02  0.81710843987E+02  0.00000000000E+00 0.  1.
        -13    1    4    4    0    0  0.34263005765E+01 -0.33807924172E+02  0.31113196579E+02  0.46073270709E+02  0.00000000000E+00 0. -1.
         13    1    4    4    0    0 -0.35183552710E+02  0.34925979707E+02  0.16736102449E+03  0.17454918779E+03  0.00000000000E+00 0.  1.
          2    1    1    2  501    0 -0.24853474341E+02 -0.87719941061E+01  0.23776552396E+02  0.35496021062E+02  0.00000000000E+00 0. -1.
<scales pt_clust_5="13000.00000" pt_clust_6="13000.00000" pt_clust_7="13000.00000" pt_clust_8="13000.00000" pt_clust_9="26.35610"></scales>
<clustering>
<clus scale="   26.356">  1  9  2 -1</clus>
<clus scale="   90.953">  7  8 -1 -1</clus>
<clus scale="   92.166">  5  6 -1 -1</clus>
<clus scale="  102.729">  1  7  2 -1</clus>
<clus scale="   26.356">  1  5  2 -1</clus>
</clustering>
</event>
<event>
 9    1  0.3288491E-005  0.1117452E+03  0.7546771E-02  0.1260565E+00
          2   -1    0    0  502    0 -0.00000000000E+00  0.00000000000E+00  0.19013315848E+03  0.19013315848E+03  0.00000000000E+00 0. -1.
         21   -1    0    0  501  502  0.00000000000E+00 -0.00000000000E+00 -0.94727432296E+02  0.94727432296E+02  0.00000000000E+00 0.  1.
         23    2    1    2    0    0 -0.64285411834E+02  0.25088130990E+02  0.73877946216E+02  0.13872947532E+03  0.95004673013E+02 0.  0.
         23    2    1    2    0    0  0.51318532587E+02  0.90253482499E+01  0.35052062744E+02  0.10721099665E+03  0.86893624640E+02 0.  0.
        -11    1    3    3    0    0  0.23274473977E+02 -0.67107730318E+01  0.16800317502E+02  0.29478573265E+02  0.00000000000E+00 0. -1.
         11    1    3    3    0    0 -0.87559885811E+02  0.31798904021E+02  0.57077628714E+02  0.10925090205E+03  0.00000000000E+00 0.  1.
        -13    1    4    4    0    0  0.21830159853E+01 -0.20481961578E+02 -0.19296940107E+02  0.28224957154E+02  0.00000000000E+00 0.  1.
         13    1    4    4    0    0  0.49135516601E+02  0.29507309828E+02  0.54349002851E+02  0.78986039500E+02  0.00000000000E+00 0. -1.
          2    1    1    2  501    0  0.12966879247E+02 -0.34113479240E+02 -0.13524282772E+02  0.38920118804E+02  0.00000000000E+00 0. -1.
<scales pt_clust_5="13000.00000" pt_clust_6="13000.00000" pt_clust_7="13000.00000" pt_clust_8="13000.00000" pt_clust_9="36.49479"></scales>
<clustering>
<clus scale="   36.495">  2  9  1 -1</clus>
<clus scale="   86.894">  7  8 -1 -1</clus>
<clus scale="   95.005">  5  6 -1 -1</clus>
<clus scale="  104.936">  2  7  1 -1</clus>
<clus scale="   36.495">  2  5  1 -1</clus>
</clustering>
</event>
<event>
 9    1  0.4608327E-005  0.9553055E+02  0.7546771E-02  0.1290809E+00
          3   -1    0    0  502    0 -0.00000000000E+00  0.00000000000E+00  0.23920280046E+03  0.23920280046E+03  0.00000000000E+00 0. -1.
         21   -1    0    0  501  502  0.00000000000E+00 -0.00000000000E+00 -0.43649597099E+03  0.43649597099E+03  0.00000000000E+00 0.  1.
         23    2    1    2    0    0  0.16211840941E+02 -0.24990046903E+00  0.20916568107E+03  0.22947618487E+03  0.92984681785E+02 0.  0.
         23    2    1    2    0    0  0.21687968400E+02 -0.43574974733E+02 -0.15337147943E+03  0.18658777923E+03  0.94461856110E+02 0.  0.
        -11    1    4    4    0    0 -0.14146335141E+02 -0.48656364298E+02 -0.31987602551E+02  0.59923011453E+02  0.00000000000E+00 0. -1.
         11    1    4    4    0    0  0.35834303541E+02  0.50813895649E+01 -0.12138387688E+03  0.12666476778E+03  0.00000000000E+00 0.  1.
        -11    1    3    3    0    0  0.27857197048E+02 -0.37405123950E+02  0.16056526565E+03  0.16720158869E+03  0.00000000000E+00 0.  1.
         11    1    3    3    0    0 -0.11645356107E+02  0.37155223481E+02  0.48600415421E+02  0.62274596184E+02  0.00000000000E+00 0. -1.
          3    1    1    2  501    0 -0.37899809341E+02  0.43824875202E+02 -0.25308737218E+03  0.25963480735E+03  0.00000000000E+00 0. -1.
<scales pt_clust_5="13000.00000" pt_clust_6="13000.00000" pt_clust_7="13000.00000" pt_clust_8="13000.00000" pt_clust_9="57.93976"></scales>
<clustering>
<clus scale="   57.940">  2  9  1 -1</clus>
<clus scale="   92.985">  7  8 -1 -1</clus>
<clus scale="   94.070">  1  7  2 -1</clus>
<clus scale="   94.462">  5  6 -1 -1</clus>
<clus scale="   57.940">  2  5  1 -1</clus>
</clustering>
</event>
<event>
 9    1  0.3288491E-005  0.1257002E+03  0.7546771E-02  0.1234170E+00
         -4   -1    0    0    0  501 -0.00000000000E+00  0.00000000000E+00  0.14604822162E+03  0.14604822162E+03  0.00000000000E+00 0.  1.
         21   -1    0    0  501  502  0.00000000000E+00 -0.00000000000E+00 -0.24326371121E+03  0.24326371121E+03  0.00000000000E+00 0.  1.
         23    2    1    2    0    0 -0.86464410925E+02  0.57075252978E+02  0.67324350082E+02  0.15310368745E+03  0.90412898076E+02 0.  0.
         23    2    1    2    0    0  0.48068309576E+02 -0.13426517427E+02 -0.70100223932E+02  0.12531048284E+03  0.91092491233E+02 0.  0.
        -11    1    4    4    0    0  0.68712734969E+02 -0.14667635479E+02 -0.76297493739E+02  0.10372023442E+03  0.00000000000E+00 0. -1.
         11    1    4    4    0    0 -0.20644425393E+02  0.12411180519E+01  0.61972698062E+01  0.21590248421E+02  0.00000000000E+00 0.  1.
        -13    1    3    3    0    0 -0.85553427320E+01 -0.23232993102E+02  0.58545104313E+01  0.25440934537E+02  0.00000000000E+00 0. -1.
         13    1    3    3    0    0 -0.77909068193E+02  0.80308246080E+02  0.61469839651E+02  0.12766275291E+03  0.00000000000E+00 0.  1.
         -4    1    1    2    0  502  0.38396101349E+02 -0.43648735551E+02 -0.94439615736E+02  0.11089776253E+03  0.00000000000E+00 0.  1.
<scales pt_clust_5="13000.00000" pt_clust_6="13000.00000" pt_clust_7="13000.00000" pt_clust_8="13000.00000" pt_clust_9="58.13323"></scales>
<clustering>
<clus scale="   58.133">  2  9  1 -1</clus>
<clus scale="   90.413">  7  8 -1 -1</clus>
<clus scale="   91.092">  5  6 -1 -1</clus>
<clus scale="  125.209">  1  7  2 -1</clus>
<clus scale="   58.133">  2  5  1 -1</clus>
</clustering>
</event>
<event>
 9    1  0.3288491E-005  0.1167958E+03  0.7546771E-02  0.1249746E+00
         21   -1    0    0  501  502  0.00000000000E+00  0.00000000000E+00  0.82459314742E+02  0.82459314742E+02  0.00000000000E+00 0. -1.
          1   -1    0    0  502    0 -0.00000000000E+00 -0.00000000000E+00 -0.30920605156E+03  0.30920605156E+03  0.00000000000E+00 0. -1.
         23    2    1    2    0    0 -0.30270903995E+00 -0.76038227500E+02 -0.19125715480E+03  0.22539366568E+03  0.91875467832E+02 0.  0.
         23    2    1    2    0    0  0.44689116727E+02  0.57618120053E+02 -0.25126623087E+02  0.11711028828E+03  0.88127790862E+02 0.  0.
        -11    1    3    3    0    0  0.37466220009E+02 -0.68909288408E+02 -0.14820159811E+03  0.16767802883E+03  0.00000000000E+00 0. -1.
         11    1    3    3    0    0 -0.37768929049E+02 -0.71289390915E+01 -0.43055556692E+02  0.57715636843E+02  0.00000000000E+00 0.  1.
        -11    1    4    4    0    0 -0.22110841659E+02 -0.80312036504E+00  0.62379527713E+01  0.22987961544E+02  0.00000000000E+00 0.  1.
         11    1    4    4    0    0  0.66799958386E+02  0.58421240418E+02 -0.31364575859E+02  0.94122326741E+02  0.00000000000E+00 0. -1.
          1    1    1    2  501    0 -0.44386407687E+02  0.18420107447E+02 -0.10362958927E+02  0.49161412342E+02  0.00000000000E+00 0. -1.
<scales pt_clust_5="13000.00000" pt_clust_6="13000.00000" pt_clust_7="13000.00000" pt_clust_8="13000.00000" pt_clust_9="48.05677"></scales>
<clustering>
<clus scale="   48.057">  1  9  2 -1</clus>
<clus scale="   88.128">  7  8 -1 -1</clus>
<clus scale="   91.875">  5  6 -1 -1</clus>
<clus scale="  113.871">  1  7  2 -1</clus>
<clus scale="   48.057">  1  5  2 -1</clus>
</clustering>
</event>
<event>
 9    1  0.3288491E-005  0.1013041E+03  0.7546771E-02  0.1281592E+00
          2   -1    0    0  502    0 -0.00000000000E+00  0.00000000000E+00  0.67251378094E+03  0.67251378094E+03  0.00000000000E+00 0. -1.
         21   -1    0    0  501  502  0.00000000000E+00 -0.00000000000E+00 -0.52645505861E+02  0.52645505861E+02  0.00000000000E+00 0. -1.
         23    2    1    2    0    0  0.14072156656E+02  0.34705232302E+02  0.46578613909E+03  0.47586449783E+03  0.89932275564E+02 0.  0.
         23    2    1    2    0    0  0.54983469091E+01 -0.25292876805E+01  0.17908833384E+03  0.20408852886E+03  0.97687599922E+02 0.  0.
        -11    1    4    4    0    0  0.21340019843E+02 -0.39836967478E+02  0.14246670209E+03  0.14946284364E+03  0.00000000000E+00 0. -1.
         11    1    4    4    0    0 -0.15841672934E+02  0.37307679797E+02  0.36621631747E+02  0.54625685213E+02  0.00000000000E+00 0.  1.
        -11    1    3    3    0    0 -0.36036915966E+02 -0.45614824394E+00  0.15949386900E+03  0.16351501959E+03  0.00000000000E+00 0.  1.
         11    1    3    3    0    0  0.50109072622E+02  0.35161380546E+02  0.30629227009E+03  0.31234947824E+03  0.00000000000E+00 0. -1.
          2    1    1    2  501    0 -0.19570503565E+02 -0.32175944621E+02 -0.25006197852E+02  0.45206260110E+02  0.00000000000E+00 0. -1.
<scales pt_clust_5="13000.00000" pt_clust_6="13000.00000" pt_clust_7="13000.00000" pt_clust_8="13000.00000" pt_clust_9="37.66027"></scales>
<clustering>
<clus scale="   37.660">  2  9  1 -1</clus>
<clus scale="   89.932">  7  8 -1 -1</clus>
<clus scale="   93.848">  1  7  2 -1</clus>
<clus scale="   97.688">  5  6 -1 -1</clus>
<clus scale="   37.660">  2  5  1 -1</clus>
</clustering>
</event>
<event>
 9    1  0.3288491E-005  0.1000702E+03  0.7546771E-02  0.1281238E+00
         21   -1    0    0  501  502  0.00000000000E+00  0.00000000000E+00  0.15835228146E+03  0.15835228146E+03  0.00000000000E+00 0.  1.
          1   -1    0    0  502    0 -0.00000000000E+00 -0.00000000000E+00 -0.91476860130E+02  0.91476860130E+02  0.00000000000E+00 0. -1.
         23    2    1    2    0    0 -0.38581389453E+02 -0.16468338077E+02  0.17841896352E+02  0.99864162120E+02  0.88852618641E+02 0.  0.
         23    2    1    2    0    0  0.44475552374E+02 -0.19209251192E+02  0.23884116616E+02  0.10591813766E+03  0.91110541476E+02 0.  0.
        -11    1    4    4    0    0  0.37722658643E+02 -0.54482921080E+02  0.83618353242E+01  0.66793023247E+02  0.00000000000E+00 0.  1.
         11    1    4    4    0    0  0.67528937304E+01  0.35273669888E+02  0.15522281292E+02  0.39125114410E+02  0.00000000000E+00 0. -1.
        -13    1    3    3    0    0 -0.57335585518E+02 -0.36002278820E+02  0.24464956774E+02  0.71986579005E+02  0.00000000000E+00 0.  1.
         13    1    3    3    0    0  0.18754196065E+02  0.19533940743E+02 -0.66230604214E+01  0.27877583115E+02  0.00000000000E+00 0. -1.
          1    1    1    2  501    0 -0.58941629204E+01  0.35677589269E+02  0.25149408356E+02  0.44046841808E+02  0.00000000000E+00 0. -1.
<scales pt_clust_5="13000.00000" pt_clust_6="13000.00000" pt_clust_7="13000.00000" pt_clust_8="13000.00000" pt_clust_9="36.16119"></scales>
<clustering>
<clus scale="   36.161">  1  9  2 -1</clus>
<clus scale="   88.853">  7  8 -1 -1</clus>
<clus scale="   91.111">  5  6 -1 -1</clus>
<clus scale="   98.019">  2  7  1 -1</clus>
<clus scale="   36.161">  1  5  2 -1</clus>
</clustering>
</event>
<event>
 9    1  0.3288491E-005  0.1066117E+03  0.7546771E-02  0.1269773E+00
         -2   -1    0    0    0  501 -0.00000000000E+00  0.00000000000E+00  0.64257554360E+03  0.64257554360E+03  0.00000000000E+00 0.  1.
         21   -1    0    0  501  502  0.00000000000E+00 -0.00000000000E+00 -0.31023636612E+02  0.31023636612E+02  0.00000000000E+00 0. -1.
         23    2    1    2    0    0 -0.23590155912E+02  0.57518260079E+02  0.41403222594E+03  0.42719258357E+03  0.84888006465E+02 0.  0.
         23    2    1    2    0    0  0.20052311404E+02 -0.36263555925E+02  0.20088127362E+03  0.22459882058E+03  0.91510673880E+02 0.  0.
        -11    1    3    3    0    0  0.84420505796E+01  0.64396562089E+02  0.34126233596E+03  0.34738763273E+03  0.00000000000E+00 0.  1.
         11    1    3    3    0    0 -0.32032206492E+02 -0.68783020100E+01  0.72769889978E+02  0.79804950840E+02  0.00000000000E+00 0. -1.
        -13    1    4    4    0    0 -0.18881361110E+02 -0.53542669813E+02  0.13076415426E+03  0.14255731243E+03  0.00000000000E+00 0. -1.
         13    1    4    4    0    0  0.38933672514E+02  0.17279113888E+02  0.70117119363E+02  0.82041508153E+02  0.00000000000E+00 0.  1.
         -2    1    1    2    0  502  0.35378445079E+01 -0.21254704154E+02 -0.33615925657E+01  0.21807776068E+02  0.00000000000E+00 0.  1.
<scales pt_clust_5="13000.00000" pt_clust_6="13000.00000" pt_clust_7="13000.00000" pt_clust_8="13000.00000" pt_clust_9="21.54713"></scales>
<clustering>
<clus scale="   21.547">  2  9  1 -1</clus>
<clus scale="   84.888">  5  6 -1 -1</clus>
<clus scale="   91.511">  7  8 -1 -1</clus>
<clus scale="  100.984">  1  5  2 -1</clus>
<clus scale="   21.547">  2  5  1 -1</clus>
</clustering>
</event>
<event>
 9    1  0.3288491E-005  0.1634251E+03  0.7546771E-02  0.1184889E+00
         21   -1    0    0  501  502  0.00000000000E+00  0.00000000000E+00  0.23038011245E+03  0.23038011245E+03  0.00000000000E+00 0.  1.
          4   -1    0    0  502    0 -0.00000000000E+00 -0.00000000000E+00 -0.26731772513E+03  0.26731772513E+03  0.00000000000E+00 0. -1.
         23    2    1    2    0    0  0.12568113757E+03 -0.13278932599E+02 -0.94852482837E+02  0.18178820976E+03  0.89877034424E+02 0.  0.
         23    2    1    2    0    0 -0.14947528348E+03  0.17207324480E+02 -0.67801855237E+02  0.18790068795E+03  0.89836654946E+02 0.  0.
        -11    1    4    4    0    0 -0.68553137312E+02 -0.13243658270E+02  0.11281606577E+02  0.70726245246E+02  0.00000000000E+00 0.  1.
         11    1    4    4    0    0 -0.80922146172E+02  0.30450982750E+02 -0.79083461814E+02  0.11717444271E+03  0.00000000000E+00 0. -1.
        -13    1    3    3    0    0  0.47837335382E+02 -0.35009173639E+02 -0.28772578456E+01  0.59349233425E+02  0.00000000000E+00 0.  1.
         13    1    3    3    0    0  0.77843802188E+02  0.21730241040E+02 -0.91975224991E+02  0.12243897634E+03  0.00000000000E+00 0. -1.
          4    1    1    2  501    0  0.23794145913E+02 -0.39283918809E+01  0.12571672539E+03  0.12800893987E+03  0.00000000000E+00 0. -1.
<scales pt_clust_5="13000.00000" pt_clust_6="13000.00000" pt_clust_7="13000.00000" pt_clust_8="13000.00000" pt_clust_9="24.11625"></scales>
<clustering>
<clus scale="   24.116">  1  9  2 -1</clus>
<clus scale="   89.837">  5  6 -1 -1</clus>
<clus scale="   89.877">  7  8 -1 -1</clus>
<clus scale="  163.403">  1  5  2 -1</clus>
<clus scale="   24.116">  1  5  2 -1</clus>
</clustering>
</event>
<event>
 9    1  0.5778155E-005  0.1419085E+03  0.7546771E-02  0.1220682E+00
         21   -1    0    0  501  502  0.00000000000E+00  0.00000000000E+00  0.30433357906E+03  0.30433357906E+03  0.00000000000E+00 0. -1.
          2   -1    0    0  502    0 -0.00000000000E+00 -0.00000000000E+00 -0.36752007036E+03  0.36752007036E+03  0.00000000000E+00 0. -1.
         23    2    1    2    0    0  0.68552881297E+02  0.68698627651E+01 -0.28664447798E+03  0.30889251127E+03  0.92210813968E+02 0.  0.
         23    2    1    2    0    0  0.23495117372E+02  0.73008261429E+02  0.12712968091E+02  0.11951337857E+03  0.90772249739E+02 0.  0.
        -11    1    4    4    0    0  0.55172016083E+02  0.64963693397E+02  0.24804775109E+01  0.85266556088E+02  0.00000000000E+00 0. -1.
         11    1    4    4    0    0 -0.31676898711E+02  0.80445680320E+01  0.10232490580E+02  0.34246822484E+02  0.00000000000E+00 0.  1.
        -11    1    3    3    0    0  0.77314853842E+02  0.35149151902E+02 -0.19838832265E+03  0.21580309559E+03  0.00000000000E+00 0. -1.
         11    1    3    3    0    0 -0.87619725448E+01 -0.28279289137E+02 -0.88256155336E+02  0.93089415680E+02  0.00000000000E+00 0.  1.
          2    1    1    2  501    0 -0.92047998668E+02 -0.79878124194E+02  0.21074501859E+03  0.24344775958E+03  0.00000000000E+00 0. -1.
<scales pt_clust_5="13000.00000" pt_clust_6="13000.00000" pt_clust_7="13000.00000" pt_clust_8="13000.00000" pt_clust_9="109.07992"></scales>
<clustering>
<clus scale="   90.772">  5  6 -1 -1</clus>
<clus scale="   92.211">  7  8 -1 -1</clus>
<clus scale="  115.107">  2  7  1 -1</clus>
<clus scale="  109.080">  1  9  2 -1</clus>
<clus scale="  109.080">  1  5  2 -1</clus>
</clustering>
</event>
<event>
 9    1  0.3288491E-005  0.1179641E+03  0.7546771E-02  0.1248890E+00
          1   -1    0    0  502    0 -0.00000000000E+00  0.00000000000E+00  0.52175573105E+03  0.52175573105E+03  0.00000000000E+00 0. -1.
         21   -1    0    0  501  502  0.00000000000E+00 -0.00000000000E+00 -0.87830863139E+02  0.87830863139E+02  0.00000000000E+00 0. -1.
         23    2    1    2    0    0  0.40039871332E+02 -0.57849666778E+02  0.29762650433E+03  0.32170688938E+03  0.99819894544E+02 0.  0.
         23    2    1    2    0    0 -0.81893282862E+02 -0.18875310847E+02  0.15404279062E+03  0.19869845713E+03  0.93215387066E+02 0.  0.
        -11    1    3    3    0    0  0.17272662455E+02 -0.81003027620E+02  0.15843342171E+03  0.17877635321E+03  0.00000000000E+00 0. -1.
         11    1    3    3    0    0  0.22767208877E+02  0.23153360842E+02  0.13919308263E+03  0.14293053617E+03  0.00000000000E+00 0.  1.
        -11    1    4    4    0    0 -0.29983533882E+02 -0.54521477695E+02  0.83585896258E+02  0.10420271536E+03  0.00000000000E+00 0.  1.
         11    1    4    4    0    0 -0.51909748979E+02  0.35646166849E+02  0.70456894359E+02  0.94495741771E+02  0.00000000000E+00 0. -1.
          1    1    1    2  501    0  0.41853411530E+02  0.76724977625E+02 -0.17744427040E+02  0.89181247688E+02  0.00000000000E+00 0. -1.
<scales pt_clust_5="13000.00000" pt_clust_6="13000.00000" pt_clust_7="13000.00000" pt_clust_8="13000.00000" pt_clust_9="87.39811"></scales>
<clustering>
<clus scale="   87.398">  2  9  1 -1</clus>
<clus scale="   93.215">  7  8 -1 -1</clus>
<clus scale="   99.820">  5  6 -1 -1</clus>
<clus scale="  112.431">  2  7  1 -1</clus>
<clus scale="   87.398">  2  5  1 -1</clus>
</clustering>
</event>
<event>
 9    1  0.3288491E-005  0.2287521E+03  0.7546771E-02  0.1144953E+00
         21   -1    0    0  501  502  0.00000000000E+00  0.00000000000E+00  0.51607069810E+03  0.51607069810E+03  0.00000000000E+00 0. -1.
          3   -1    0    0  502    0 -0.00000000000E+00 -0.00000000000E+00 -0.30732877815E+03  0.30732877815E+03  0.00000000000E+00 0. -1.
         23    2    1    2    0    0  0.11723899147E+03 -0.23252411768E+02  0.85704408497E+01  0.15004468421E+03  0.90301157404E+02 0.  0.
         23    2    1    2    0    0 -0.28677340024E+03  0.12837987280E+03 -0.75989364295E+02  0.33268117955E+03  0.78625752233E+02 0.  0.
        -11    1    3    3    0    0  0.95750952660E+02  0.17825797893E+02  0.25520530496E+02  0.10068416699E+03  0.00000000000E+00 0.  1.
         11    1    3    3    0    0  0.21488038809E+02 -0.41078209660E+02 -0.16950089647E+02  0.49360517216E+02  0.00000000000E+00 0. -1.
        -13    1    4    4    0    0 -0.16105643452E+03  0.80349714304E+02 -0.82393535996E+02  0.19794935328E+03  0.00000000000E+00 0. -1.
         13    1    4    4    0    0 -0.12571696572E+03  0.48030158500E+02  0.64041717016E+01  0.13473182627E+03  0.00000000000E+00 0.  1.
          3    1    1    2  501    0  0.16953440877E+03 -0.10512746104E+03  0.27616084340E+03  0.34067361249E+03  0.00000000000E+00 0. -1.
<scales pt_clust_5="13000.00000" pt_clust_6="13000.00000" pt_clust_7="13000.00000" pt_clust_8="13000.00000" pt_clust_9="214.81503"></scales>
<clustering>
<clus scale="   78.626">  7  8 -1 -1</clus>
<clus scale="   90.301">  5  6 -1 -1</clus>
<clus scale="  149.800">  2  5  1 -1</clus>
<clus scale="  214.815">  1  9  2 -1</clus>
<clus scale="  214.815">  1  5  2 -1</clus>
</clustering>
</event>
<event>
 9    1  0.3288491E-005  0.1058200E+03  0.7546771E-02  0.1268636E+00
         21   -1    0    0  501  502  0.00000000000E+00  0.00000000000E+00  0.21240316880E+03  0.21240316880E+03  0.00000000000E+00 0. -1.
         -1   -1    0    0    0  501 -0.00000000000E+00 -0.00000000000E+00 -0.18555426662E+03  0.18555426662E+03  0.00000000000E+00 0.  1.
         23    2    1    2    0    0  0.64833216184E+02 -0.15579956804E+02 -0.12914221953E+03  0.17165745875E+03  0.91337228458E+02 0.  0.
         23    2    1    2    0    0 -0.54355218745E+01 -0.31010650431E+01  0.51836902020E+02  0.10495267284E+03  0.91043053674E+02 0.  0.
        -13    1    3    3    0    0  0.70019551428E+02  0.23345086145E+02 -0.85309934816E+02  0.11280742709E+03  0.00000000000E+00 0.  1.
         13    1    3    3    0    0 -0.51863352438E+01 -0.38925042949E+02 -0.43832284718E+02  0.58850031652E+02  0.00000000000E+00 0. -1.
        -13    1    4    4    0    0  0.33740095621E+02  0.20379669514E+02  0.43180454537E+02  0.58466029761E+02  0.00000000000E+00 0.  1.
         13    1    4    4    0    0 -0.39175617496E+02 -0.23480734557E+02  0.86564474835E+01  0.46486643077E+02  0.00000000000E+00 0. -1.
         -1    1    1    2    0  502 -0.59397694310E+02  0.18681021847E+02  0.10415421970E+03  0.12134730383E+03  0.00000000000E+00 0.  1.
<scales pt_clust_5="13000.00000" pt_clust_6="13000.00000" pt_clust_7="13000.00000" pt_clust_8="13000.00000" pt_clust_9="62.26610"></scales>
<clustering>
<clus scale="   62.266">  1  9  2 -1</clus>
<clus scale="   91.043">  7  8 -1 -1</clus>
<clus scale="   91.337">  5  6 -1 -1</clus>
<clus scale="  105.566">  1  7  2 -1</clus>
<clus scale="   62.266">  1  5  2 -1</clus>
</clustering>
</event>
<event>
 9    1  0.3288491E-005  0.3301585E+03  0.7546771E-02  0.1071243E+00
          1   -1    0    0  502    0 -0.00000000000E+00  0.00000000000E+00  0.29976127103E+04  0.29976127103E+04  0.00000000000E+00 0. -1.
         21   -1    0    0  501  502  0.00000000000E+00 -0.00000000000E+00 -0.96197303572E+02  0.96197303572E+02  0.00000000000E+00 0.  1.
         23    2    1    2    0    0  0.11592358645E+03  0.23833060614E+03  0.11621765969E+04  0.11953436974E+04  0.89175987876E+02 0.  0.
         23    2    1    2    0    0 -0.17213191134E+03 -0.35048988876E+03  0.17268544943E+04  0.17724010487E+04  0.83105210704E+02 0.  0.
        -11    1    3    3    0    0 -0.14745420797E+02  0.16772563279E+02  0.10063920834E+03  0.10308732497E+03  0.00000000000E+00 0.  1.
         11    1    3    3    0    0  0.13066900724E+03  0.22155804286E+03  0.10615373886E+04  0.10922563724E+04  0.00000000000E+00 0. -1.
        -11    1    4    4    0    0 -0.12821099768E+03 -0.21060071712E+03  0.92757234746E+03  0.95978184070E+03  0.00000000000E+00 0.  1.
         11    1    4    4    0    0 -0.43920913653E+02 -0.13988917164E+03  0.79928214679E+03  0.81261920798E+03  0.00000000000E+00 0. -1.
          1    1    1    2  501    0  0.56208324890E+02  0.11215928262E+03  0.12384315552E+02  0.12606526776E+03  0.00000000000E+00 0. -1.
<scales pt_clust_5="13000.00000" pt_clust_6="13000.00000" pt_clust_7="13000.00000" pt_clust_8="13000.00000" pt_clust_9="125.45549"></scales>
<clustering>
<clus scale="   83.105">  7  8 -1 -1</clus>
<clus scale="   89.176">  5  6 -1 -1</clus>
<clus scale="  125.455">  2  9  1 -1</clus>
<clus scale="  328.571">  2  7  1 -1</clus>
<clus scale="  125.455">  2  5  1 -1</clus>
</clustering>
</event>
<event>
 9    1  0.3288491E-005  0.9675831E+02  0.7546771E-02  0.1288668E+00
          1   -1    0    0  502    0 -0.00000000000E+00  0.00000000000E+00  0.38763257916E+03  0.38763257916E+03  0.00000000000E+00 0. -1.
         21   -1    0    0  501  502  0.00000000000E+00 -0.00000000000E+00 -0.42470444906E+02  0.42470444906E+02  0.00000000000E+00 0. -1.
         23    2    1    2    0    0 -0.24768961743E+02 -0.12033270006E+02  0.23251937467E+03  0.25042166142E+03  0.88811304784E+02 0.  0.
         23    2    1    2    0    0  0.48945012465E+02 -0.31125458092E+01  0.60227824779E+02  0.12000555050E+03  0.91480266102E+02 0.  0.
        -11    1    3    3    0    0  0.92403140622E+01 -0.44787115868E+02  0.11096094712E+03  0.12001500296E+03  0.00000000000E+00 0. -1.
         11    1    3    3    0    0 -0.34009275805E+02  0.32753845861E+02  0.12155842756E+03  0.13040665846E+03  0.00000000000E+00 0.  1.
        -11    1    4    4    0    0  0.28659311292E+02 -0.21684640845E+02  0.78943028395E+02  0.86738581407E+02  0.00000000000E+00 0. -1.
         11    1    4    4    0    0  0.20285701174E+02  0.18572095036E+02 -0.18715203616E+02  0.33266969091E+02  0.00000000000E+00 0.  1.
          1    1    1    2  501    0 -0.24176050722E+02  0.15145815816E+02  0.52414934800E+02  0.59675812146E+02  0.00000000000E+00 0. -1.
<scales pt_clust_5="13000.00000" pt_clust_6="13000.00000" pt_clust_7="13000.00000" pt_clust_8="13000.00000" pt_clust_9="28.52855"></scales>
<clustering>
<clus scale="   28.529">  2  9  1 -1</clus>
<clus scale="   88.811">  5  6 -1 -1</clus>
<clus scale="   91.480">  7  8 -1 -1</clus>
<clus scale="   94.239">  1  5  2 -1</clus>
<clus scale="   28.529">  2  5  1 -1</clus>
</clustering>
</event>
<event>
 9    1  0.3288491E-005  0.1373219E+03  0.7546771E-02  0.1217898E+00
         -3   -1    0    0    0  501 -0.00000000000E+00  0.00000000000E+00  0.15209482464E+03  0.15209482464E+03  0.00000000000E+00 0.  1.
         21   -1    0    0  501  502  0.00000000000E+00 -0.00000000000E+00 -0.20835949604E+03  0.20835949604E+03  0.00000000000E+00 0.  1.
         23    2    1    2    0    0 -0.64320098106E+02 -0.55081750964E+02  0.20615239212E+02  0.12893851807E+03  0.95021466236E+02 0.  0.
         23    2    1    2    0    0  0.11754894583E+03  0.49298805062E+02 -0.28364381950E+02  0.15926271121E+03  0.91169875360E+02 0.  0.
        -11    1    3    3    0    0 -0.86363039181E+02 -0.27465846073E+02  0.23080091164E+02  0.93518115065E+02  0.00000000000E+00 0.  1.
         11    1    3    3    0    0  0.22042941075E+02 -0.27615904891E+02 -0.24648519513E+01  0.35420403009E+02  0.00000000000E+00 0. -1.
        -13    1    4    4    0    0  0.85609675471E+02  0.25189853114E+02 -0.60605990999E+02  0.10787321901E+03  0.00000000000E+00 0.  1.
         13    1    4    4    0    0  0.31939270360E+02  0.24108951949E+02  0.32241609048E+02  0.51389492206E+02  0.00000000000E+00 0. -1.
         -3    1    1    2    0  502 -0.53228847724E+02  0.57829459018E+01 -0.48515528663E+02  0.72253091386E+02  0.00000000000E+00 0.  1.
<scales pt_clust_5="13000.00000" pt_clust_6="13000.00000" pt_clust_7="13000.00000" pt_clust_8="13000.00000" pt_clust_9="53.54206"></scales>
<clustering>
<clus scale="   53.542">  2  9  1 -1</clus>
<clus scale="   91.170">  7  8 -1 -1</clus>
<clus scale="   95.021">  5  6 -1 -1</clus>
<clus scale="  134.685">  2  7  1 -1</clus>
<clus scale="   53.542">  2  5  1 -1</clus>
</clustering>
</event>
<event>
 9    1  0.3288491E-005  0.9663733E+02  0.7546771E-02  0.1287668E+00
         -1   -1    0    0    0  501 -0.00000000000E+00  0.00000000000E+00  0.25686693452E+03  0.25686693452E+03  0.00000000000E+00 0.  1.
         21   -1    0    0  501  502  0.00000000000E+00 -0.00000000000E+00 -0.18126342923E+03  0.18126342923E+03  0.00000000000E+00 0. -1.
         23    2    1    2    0    0  0.29156610494E+02 -0.10631548951E+02  0.19759275563E+03  0.21962538202E+03  0.90715343715E+02 0.  0.
         23    2    1    2    0    0 -0.47759618450E+02 -0.19731224349E+02 -0.14945725922E+02  0.10569413992E+03  0.90981174547E+02 0.  0.
        -11    1    3    3    0    0  0.39105051656E+01  0.36248279663E+02  0.12077924679E+03  0.12616202394E+03  0.00000000000E+00 0.  1.
         11    1    3    3    0    0  0.25246105328E+02 -0.46879828614E+02  0.76813508836E+02  0.93463358087E+02  0.00000000000E+00 0. -1.
        -13    1    4    4    0    0  0.16195860928E+02 -0.19000132760E+02  0.20736156302E+02  0.32454570315E+02  0.00000000000E+00 0.  1.
         13    1    4    4    0    0 -0.63955479378E+02 -0.73109158897E+00 -0.35681882224E+02  0.73239569608E+02  0.00000000000E+00 0. -1.
         -1    1    1    2    0  502  0.18603007956E+02  0.30362773301E+02 -0.10704352442E+03  0.11281084180E+03  0.00000000000E+00 0.  1.
<scales pt_clust_5="13000.00000" pt_clust_6="13000.00000" pt_clust_7="13000.00000" pt_clust_8="13000.00000" pt_clust_9="35.60857"></scales>
<clustering>
<clus scale="   35.609">  2  9  1 -1</clus>
<clus scale="   90.715">  5  6 -1 -1</clus>
<clus scale="   90.981">  7  8 -1 -1</clus>
<clus scale="   96.387">  1  5  2 -1</clus>
<clus scale="   35.609">  2  5  1 -1</clus>
</clustering>
</event>
<event>
 9    1  0.3288491E-005  0.9489250E+02  0.7546771E-02  0.1293440E+00
         21   -1    0    0  501  502  0.00000000000E+00  0.00000000000E+00  0.38690659870E+03  0.38690659870E+03  0.00000000000E+00 0. -1.
          1   -1    0    0  502    0 -0.00000000000E+00 -0.00000000000E+00 -0.53145265194E+02  0.53145265194E+02  0.00000000000E+00 0. -1.
         23    2    1    2    0    0  0.83274165862E+01  0.56015980992E+01  0.79092307051E+02  0.12172603271E+03  0.91983206271E+02 0.  0.
         23    2    1    2    0    0  0.61014947346E+02  0.10144096181E+02  0.95750814471E+02  0.14422445720E+03  0.88355809632E+02 0.  0.
        -13    1    4    4    0    0  0.28058542751E+02  0.48707266009E+02  0.40923778620E+02  0.69530103121E+02  0.00000000000E+00 0. -1.
         13    1    4    4    0    0  0.32956404594E+02 -0.38563169829E+02  0.54827035850E+02  0.74694354078E+02  0.00000000000E+00 0.  1.
        -13    1    3    3    0    0  0.47441674240E+02 -0.89869565299E+01  0.28255422969E+02  0.55945033466E+02  0.00000000000E+00 0. -1.
         13    1    3    3    0    0 -0.39114257654E+02  0.14588554629E+02  0.50836884082E+02  0.65780999241E+02  0.00000000000E+00 0.  1.
          1    1    1    2  501    0 -0.69342363932E+02 -0.15745694280E+02  0.15891821198E+03  0.17410137398E+03  0.00000000000E+00 0. -1.
<scales pt_clust_5="13000.00000" pt_clust_6="13000.00000" pt_clust_7="13000.00000" pt_clust_8="13000.00000" pt_clust_9="71.10760"></scales>
<clustering>
<clus scale="   71.108">  1  9  2 -1</clus>
<clus scale="   88.356">  5  6 -1 -1</clus>
<clus scale="   91.381">  1  5  2 -1</clus>
<clus scale="   91.983">  7  8 -1 -1</clus>
<clus scale="   71.108">  1  5  2 -1</clus>
</clustering>
</event>
<event>
 9    1  0.3288491E-005  0.1101713E+03  0.7546771E-02  0.1266837E+00
         21   -1    0    0  501  502  0.00000000000E+00  0.00000000000E+00  0.15839727375E+03  0.15839727375E+03  0.00000000000E+00 0.  1.
          1   -1    0    0  502    0 -0.00000000000E+00 -0.00000000000E+00 -0.22856135842E+03  0.22856135842E+03  0.00000000000E+00 0. -1.
         23    2    1    2    0    0  0.26010618954E+01  0.37117877201E+02 -0.13335231788E+03  0.17367191306E+03  0.10485509225E+03 0.  0.
         23    2    1    2    0    0  0.76200262051E+02 -0.70039934279E+01  0.28681442823E+02  0.12214280415E+03  0.90778321100E+02 0.  0.
        -11    1    3    3    0    0  0.45925773563E+02  0.44441732246E+01 -0.24968725413E+02  0.52462983157E+02  0.00000000000E+00 0.  1.
         11    1    3    3    0    0 -0.43324711668E+02  0.32673703976E+02 -0.10838359246E+03  0.12120892990E+03  0.00000000000E+00 0. -1.
        -13    1    4    4    0    0  0.27980860125E+02  0.15734525346E+02 -0.29239549066E+02  0.43421826894E+02  0.00000000000E+00 0. -1.
         13    1    4    4    0    0  0.48219401926E+02 -0.22738518774E+02  0.57920991890E+02  0.78720977253E+02  0.00000000000E+00 0.  1.
          1    1    1    2  501    0 -0.78801323947E+02 -0.30113883773E+02  0.34506790386E+02  0.91143914961E+02  0.00000000000E+00 0. -1.
<scales pt_clust_5="13000.00000" pt_clust_6="13000.00000" pt_clust_7="13000.00000" pt_clust_8="13000.00000" pt_clust_9="84.35932"></scales>
<clustering>
<clus scale="   84.359">  1  9  2 -1</clus>
<clus scale="   90.778">  7  8 -1 -1</clus>
<clus scale="   96.870">  1  7  2 -1</clus>
<clus scale="  104.855">  5  6 -1 -1</clus>
<clus scale="   84.359">  1  5  2 -1</clus>
</clustering>
</event>
<event>
 9    1  0.3288491E-005  0.1016132E+03  0.7546771E-02  0.1277484E+00
          2   -1    0    0  502    0 -0.00000000000E+00  0.00000000000E+00  0.46287544578E+03  0.46287544578E+03  0.00000000000E+00 0. -1.
         21   -1    0    0  501  502  0.00000000000E+00 -0.00000000000E+00 -0.61545552050E+02  0.61545552050E+02  0.00000000000E+00 0. -1.
         23    2    1    2    0    0 -0.55402247286E+02  0.16716429322E+02  0.25174943965E+03  0.27420865112E+03  0.91998673740E+02 0.  0.
         23    2    1    2    0    0  0.25012990464E+02 -0.12973493463E+02  0.18216586848E+03  0.20549852635E+03  0.90836553595E+02 0.  0.
        -13    1    3    3    0    0 -0.62256257621E+02 -0.21169618325E+02  0.11865859040E+03  0.13566081022E+03  0.00000000000E+00 0. -1.
         13    1    3    3    0    0  0.68540103352E+01  0.37886047648E+02  0.13309084925E+03  0.13854784090E+03  0.00000000000E+00 0.  1.
        -13    1    4    4    0    0 -0.16533153156E+02 -0.40024480014E+02  0.10726462813E+03  0.11567629231E+03  0.00000000000E+00 0. -1.
         13    1    4    4    0    0  0.41546143620E+02  0.27050986551E+02  0.74901240352E+02  0.89822234048E+02  0.00000000000E+00 0.  1.
          2    1    1    2  501    0  0.30389256822E+02 -0.37429358586E+01 -0.32585414404E+02  0.44713820357E+02  0.00000000000E+00 0. -1.
<scales pt_clust_5="13000.00000" pt_clust_6="13000.00000" pt_clust_7="13000.00000" pt_clust_8="13000.00000" pt_clust_9="30.61889"></scales>
<clustering>
<clus scale="   30.619">  2  9  1 -1</clus>
<clus scale="   90.837">  7  8 -1 -1</clus>
<clus scale="   91.999">  5  6 -1 -1</clus>
<clus scale="  100.562">  2  7  1 -1</clus>
<clus scale="   30.619">  2  5  1 -1</clus>
</clustering>
</event>
<event>
 9    1  0.3288491E-005  0.2080704E+03  0.7546771E-02  0.1143259E+00
          2   -1    0    0  502    0 -0.00000000000E+00  0.00000000000E+00  0.10473560360E+04  0.10473560360E+04  0.00000000000E+00 0.  1.
         21   -1    0    0  501  502  0.00000000000E+00 -0.00000000000E+00 -0.12600063092E+03  0.12600063092E+03  0.00000000000E+00 0.  1.
         23    2    1    2    0    0  0.93151891390E+02 -0.10277314381E+03  0.31548181739E+03  0.35666093818E+03  0.91862145443E+02 0.  0.
         23    2    1    2    0    0 -0.17264606182E+03  0.17169167434E+03  0.65167806278E+03  0.70194758317E+03  0.93602448201E+02 0.  0.
        -11    1    3    3    0    0  0.85951165271E+02 -0.26870473437E+02  0.17601652292E+03  0.19771555704E+03  0.00000000000E+00 0. -1.
         11    1    3    3    0    0  0.72007261185E+01 -0.75902670371E+02  0.13946529446E+03  0.15894538114E+03  0.00000000000E+00 0.  1.
        -13    1    4    4    0    0 -0.48589568802E+02  0.11316298644E+02  0.70113291178E+02  0.86051603188E+02  0.00000000000E+00 0. -1.
         13    1    4    4    0    0 -0.12405649302E+03  0.16037537569E+03  0.58156477160E+03  0.61589597998E+03  0.00000000000E+00 0.  1.
          2    1    1    2  501    0  0.79494170434E+02 -0.68918530528E+02 -0.45804475056E+02  0.11474814560E+03  0.00000000000E+00 0.  1.
<scales pt_clust_5="13000.00000" pt_clust_6="13000.00000" pt_clust_7="13000.00000" pt_clust_8="13000.00000" pt_clust_9="105.20973"></scales>
<clustering>
<clus scale="   91.862">  5  6 -1 -1</clus>
<clus scale="   93.602">  7  8 -1 -1</clus>
<clus scale="  105.210">  2  9  1 -1</clus>
<clus scale="  207.293">  1  5  2 -1</clus>
<clus scale="  105.210">  2  5  1 -1</clus>
</clustering>
</event>
<event>
 9    1  0.3461915E-005  0.9582295E+02  0.7546771E-02  0.1290894E+00
         -1   -1    0    0    0  501 -0.00000000000E+00  0.00000000000E+00  0.39934903045E+03  0.39934903045E+03  0.00000000000E+00 0.  1.
         21   -1    0    0  501  502  0.00000000000E+00 -0.00000000000E+00 -0.10044849835E+03  0.10044849835E+03  0.00000000000E+00 0.  1.
         23    2    1    2    0    0 -0.24350972873E+02 -0.71179355352E+01  0.30939648325E+03  0.32353869641E+03  0.91145319905E+02 0.  0.
         23    2    1    2    0    0 -0.44809530645E+02  0.18407479956E+02 -0.99438806438E+01  0.10618077704E+03  0.93961413866E+02 0.  0.
        -11    1    3    3    0    0 -0.27214791091E+02  0.35599460366E+02  0.21871976136E+03  0.22326285056E+03  0.00000000000E+00 0. -1.
         11    1    3    3    0    0  0.28638182180E+01 -0.42717395901E+02  0.90676721892E+02  0.10027584585E+03  0.00000000000E+00 0.  1.
        -13    1    4    4    0    0 -0.71341937821E+02 -0.13334790069E+01 -0.14454841914E+02  0.72803796007E+02  0.00000000000E+00 0.  1.
         13    1    4    4    0    0  0.26532407175E+02  0.19740958963E+02  0.45109612698E+01  0.33376981033E+02  0.00000000000E+00 0. -1.
         -1    1    1    2    0  502  0.69160503519E+02 -0.11289544421E+02 -0.55207050624E+00  0.70078055353E+02  0.00000000000E+00 0.  1.
<scales pt_clust_5="13000.00000" pt_clust_6="13000.00000" pt_clust_7="13000.00000" pt_clust_8="13000.00000" pt_clust_9="70.07588"></scales>
<clustering>
<clus scale="   70.076">  2  9  1 -1</clus>
<clus scale="   91.145">  5  6 -1 -1</clus>
<clus scale="   93.063">  1  5  2 -1</clus>
<clus scale="   93.961">  7  8 -1 -1</clus>
<clus scale="   70.076">  2  5  1 -1</clus>
</clustering>
</event>
<event>
 9    1  0.3288491E-005  0.1419049E+03  0.7546771E-02  0.1211859E+00
         21   -1    0    0  501  502  0.00000000000E+00  0.00000000000E+00  0.52394593401E+03  0.52394593401E+03  0.00000000000E+00 0.  1.
         -2   -1    0    0    0  501 -0.00000000000E+00 -0.00000000000E+00 -0.10489526947E+03  0.10489526947E+03  0.00000000000E+00 0.  1.
         23    2    1    2    0    0 -0.12874502237E+03  0.85654128440E+01 -0.10131538195E+02  0.15763447128E+03  0.89985173145E+02 0.  0.
         23    2    1    2    0    0  0.37762597907E+02 -0.45257601819E+01  0.19999220226E+03  0.22458520704E+03  0.94842701104E+02 0.  0.
        -11    1    3    3    0    0 -0.12241554526E+03  0.33622895446E+02 -0.22590877907E+02  0.12894344723E+03  0.00000000000E+00 0.  1.
         11    1    3    3    0    0 -0.63294771151E+01 -0.25057482602E+02  0.12459339712E+02  0.28691024048E+02  0.00000000000E+00 0. -1.
        -13    1    4    4    0    0 -0.15858064715E+02 -0.34484343159E+02  0.52225873370E+02  0.64561520962E+02  0.00000000000E+00 0.  1.
         13    1    4    4    0    0  0.53620662622E+02  0.29958582977E+02  0.14776632889E+03  0.16002368608E+03  0.00000000000E+00 0. -1.
         -2    1    1    2    0  502  0.90982424465E+02 -0.40396526620E+01  0.22919000047E+03  0.24662152516E+03  0.00000000000E+00 0.  1.
<scales pt_clust_5="13000.00000" pt_clust_6="13000.00000" pt_clust_7="13000.00000" pt_clust_8="13000.00000" pt_clust_9="91.07206"></scales>
<clustering>
<clus scale="   89.985">  5  6 -1 -1</clus>
<clus scale="   91.072">  1  9  2 -1</clus>
<clus scale="   94.843">  7  8 -1 -1</clus>
<clus scale="  138.705">  2  5  1 -1</clus>
<clus scale="   91.072">  1  5  2 -1</clus>
</clustering>
</event>
<event>
 9    1  0.3288491E-005  0.1082769E+03  0.7546771E-02  0.1265521E+00
         21   -1    0    0  501  502  0.00000000000E+00  0.00000000000E+00  0.15891300179E+02  0.15891300179E+02  0.00000000000E+00 0.  1.
          2   -1    0    0  502    0 -0.00000000000E+00 -0.00000000000E+00 -0.93434596481E+03  0.93434596481E+03  0.00000000000E+00 0. -1.
         23    2    1    2    0    0  0.33700308809E+02 -0.52126012042E+02 -0.53390531495E+03  0.54433301932E+03  0.85969288986E+02 0.  0.
         23    2    1    2    0    0 -0.13941957437E+02  0.55787334153E+02 -0.28724721093E+03  0.30654880327E+03  0.90302844746E+02 0.  0.
        -13    1    4    4    0    0 -0.13926708995E-01  0.79514322771E+02 -0.21020613037E+03  0.22474239690E+03  0.00000000000E+00 0. -1.
         13    1    4    4    0    0 -0.13928030728E+02 -0.23726988619E+02 -0.77041080563E+02  0.81806406371E+02  0.00000000000E+00 0.  1.
        -13    1    3    3    0    0 -0.18015122897E+02  0.13287282512E+02 -0.12944106979E+03  0.13136242643E+03  0.00000000000E+00 0. -1.
         13    1    3    3    0    0  0.51715431706E+02 -0.65413294554E+02 -0.40446424516E+03  0.41297059289E+03  0.00000000000E+00 0.  1.
          2    1    1    2  501    0 -0.19758351372E+02 -0.36613221104E+01 -0.97302138748E+02  0.99355442395E+02  0.00000000000E+00 0. -1.
<scales pt_clust_5="13000.00000" pt_clust_6="13000.00000" pt_clust_7="13000.00000" pt_clust_8="13000.00000" pt_clust_9="20.09473"></scales>
<clustering>
<clus scale="   20.095">  1  9  2 -1</clus>
<clus scale="   85.969">  7  8 -1 -1</clus>
<clus scale="   90.303">  5  6 -1 -1</clus>
<clus scale="  104.690">  2  7  1 -1</clus>
<clus scale="   20.095">  1  5  2 -1</clus>
</clustering>
</event>
<event>
 9    1  0.3288491E-005  0.1718123E+03  0.7546771E-02  0.1193802E+00
          1   -1    0    0  502    0 -0.00000000000E+00  0.00000000000E+00  0.21092250013E+03  0.21092250013E+03  0.00000000000E+00 0. -1.
         21   -1    0    0  501  502  0.00000000000E+00 -0.00000000000E+00 -0.23797238829E+03  0.23797238829E+03  0.00000000000E+00 0. -1.
         23    2    1    2    0    0  0.49813636739E+02 -0.63012285872E+01 -0.27929434481E+01  0.11549367441E+03  0.10397059396E+03 0.  0.
         23    2    1    2    0    0  0.35471940722E+02 -0.12416641938E+03  0.42718462841E+02  0.16375115623E+03  0.91181225154E+02 0.  0.
        -13    1    3    3    0    0 -0.13059673319E+02 -0.22985582267E+02  0.32173772091E+02  0.41641849982E+02  0.00000000000E+00 0. -1.
         13    1    3    3    0    0  0.62873310059E+02  0.16684353680E+02 -0.34966715539E+02  0.73851824426E+02  0.00000000000E+00 0.  1.
        -13    1    4    4    0    0 -0.29175870390E+02 -0.44836372136E+02  0.27950721482E+02  0.60355401670E+02  0.00000000000E+00 0.  1.
         13    1    4    4    0    0  0.64647811112E+02 -0.79330047241E+02  0.14767741358E+02  0.10339575456E+03  0.00000000000E+00 0. -1.
          1    1    1    2  501    0 -0.85285577462E+02  0.13046764796E+03 -0.66975407556E+02  0.16965005778E+03  0.00000000000E+00 0. -1.
<scales pt_clust_5="13000.00000" pt_clust_6="13000.00000" pt_clust_7="13000.00000" pt_clust_8="13000.00000" pt_clust_9="145.62093"></scales>
<clustering>
<clus scale="   91.181">  7  8 -1 -1</clus>
<clus scale="  103.971">  5  6 -1 -1</clus>
<clus scale="  115.460">  1  5  2 -1</clus>
<clus scale="  145.621">  2  9  1 -1</clus>
<clus scale="  145.621">  2  5  1 -1</clus>
</clustering>
</event>
<event>
 9    1  0.3725607E-005  0.1429973E+03  0.7546771E-02  0.1223377E+00
          1   -1    0    0  502    0 -0.00000000000E+00  0.00000000000E+00  0.43471940007E+03  0.43471940007E+03  0.00000000000E+00 0. -1.
         21   -1    0    0  501  502  0.00000000000E+00 -0.00000000000E+00 -0.18060034863E+03  0.18060034863E+03  0.00000000000E+00 0. -1.
         23    2    1    2    0    0 -0.12805727745E+01  0.26862187885E+02 -0.12035690426E+02  0.10700750968E+03  0.10287143569E+03 0.  0.
         23    2    1    2    0    0  0.90386654995E+02 -0.88232390906E+02  0.34209957882E+03  0.37612368441E+03  0.92098870439E+02 0.  0.
        -11    1    4    4    0    0 -0.13916510882E+02 -0.15998491877E+02  0.17109246877E+02  0.27246051937E+02  0.00000000000E+00 0.  1.
         11    1    4    4    0    0  0.10430316588E+03 -0.72233899029E+02  0.32499033194E+03  0.34887763247E+03  0.00000000000E+00 0. -1.
        -13    1    3    3    0    0  0.33571955518E+02 -0.25640782805E+02 -0.12268598370E+02  0.43989140093E+02  0.00000000000E+00 0. -1.
         13    1    3    3    0    0 -0.34852528293E+02  0.52502970690E+02  0.23290794480E+00  0.63018369590E+02  0.00000000000E+00 0.  1.
          1    1    1    2  501    0 -0.89106082220E+02  0.61370203021E+02 -0.75944836959E+02  0.13218855460E+03  0.00000000000E+00 0. -1.
<scales pt_clust_5="13000.00000" pt_clust_6="13000.00000" pt_clust_7="13000.00000" pt_clust_8="13000.00000" pt_clust_9="109.38933"></scales>
<clustering>
<clus scale="   92.099">  5  6 -1 -1</clus>
<clus scale="  102.871">  7  8 -1 -1</clus>
<clus scale="  106.329">  1  7  2 -1</clus>
<clus scale="  109.389">  2  9  1 -1</clus>
<clus scale="  109.389">  2  5  1 -1</clus>
</clustering>
</event>
<event>
 9    1  0.3288491E-005  0.1128356E+03  0.7546771E-02  0.1258959E+00
         -4   -1    0    0    0  501 -0.00000000000E+00  0.00000000000E+00  0.39761481572E+03  0.39761481572E+03  0.00000000000E+00 0.  1.
         21   -1    0    0  501  502  0.00000000000E+00 -0.00000000000E+00 -0.67024891939E+02  0.67024891939E+02  0.00000000000E+00 0. -1.
         23    2    1    2    0    0  0.57384408896E+02 -0.38843454381E+00  0.28614348151E+03  0.30498356270E+03  0.88565005744E+02 0.  0.
         23    2    1    2    0    0 -0.51545702936E+02  0.36872766736E+02  0.36084240918E+02  0.12177312245E+03  0.97519539023E+02 0.  0.
        -11    1    3    3    0    0  0.29014806261E+02  0.30389743541E+02  0.50696871770E+02  0.65845032479E+02  0.00000000000E+00 0. -1.
         11    1    3    3    0    0  0.28369602636E+02 -0.30778178085E+02  0.23544660974E+03  0.23913853022E+03  0.00000000000E+00 0.  1.
        -11    1    4    4    0    0 -0.21079233671E+02  0.52389554714E+02  0.58167897842E+02  0.81070980472E+02  0.00000000000E+00 0.  1.
         11    1    4    4    0    0 -0.30466469265E+02 -0.15516787978E+02 -0.22083656925E+02  0.40702141980E+02  0.00000000000E+00 0. -1.
         -4    1    1    2    0  502 -0.58387059600E+01 -0.36484332192E+02  0.83622013580E+01  0.37883022508E+02  0.00000000000E+00 0.  1.
<scales pt_clust_5="13000.00000" pt_clust_6="13000.00000" pt_clust_7="13000.00000" pt_clust_8="13000.00000" pt_clust_9="36.94857"></scales>
<clustering>
<clus scale="   36.949">  2  9  1 -1</clus>
<clus scale="   88.565">  5  6 -1 -1</clus>
<clus scale="   97.520">  7  8 -1 -1</clus>
<clus scale="  105.193">  1  5  2 -1</clus>
<clus scale="   36.949">  2  5  1 -1</clus>
</clustering>
</event>
<event>
 9    1  0.3288491E-005  0.9838389E+02  0.7546771E-02  0.1285291E+00
         21   -1    0    0  501  502  0.00000000000E+00  0.00000000000E+00  0.15213869905E+03  0.15213869905E+03  0.00000000000E+00 0.  1.
         -1   -1    0    0    0  501 -0.00000000000E+00 -0.00000000000E+00 -0.20664603533E+03  0.20664603533E+03  0.00000000000E+00 0.  1.
         23    2    1    2    0    0 -0.26863018631E+02 -0.29358337917E+02 -0.11851078987E+03  0.15466451800E+03  0.91064658546E+02 0.  0.
         23    2    1    2    0    0  0.50565404648E+01  0.36635810087E+02 -0.35634350796E+02  0.10186477079E+03  0.87970866702E+02 0.  0.
        -11    1    4    4    0    0  0.32915118971E+02  0.27400626622E+02 -0.52705071741E+02  0.67911883963E+02  0.00000000000E+00 0.  1.
         11    1    4    4    0    0 -0.27858578506E+02  0.92351834651E+01  0.17070720945E+02  0.33952886823E+02  0.00000000000E+00 0. -1.
        -13    1    3    3    0    0  0.12947843229E+02 -0.37950259572E+02 -0.10394443021E+03  0.11141056242E+03  0.00000000000E+00 0. -1.
         13    1    3    3    0    0 -0.39810861859E+02  0.85919216555E+01 -0.14566359662E+02  0.43253955582E+02  0.00000000000E+00 0.  1.
         -1    1    1    2    0  502  0.21806478166E+02 -0.72774721705E+01  0.99637804389E+02  0.10225544560E+03  0.00000000000E+00 0.  1.
<scales pt_clust_5="13000.00000" pt_clust_6="13000.00000" pt_clust_7="13000.00000" pt_clust_8="13000.00000" pt_clust_9="22.98878"></scales>
<clustering>
<clus scale="   22.989">  1  9  2 -1</clus>
<clus scale="   87.971">  5  6 -1 -1</clus>
<clus scale="   91.065">  7  8 -1 -1</clus>
<clus scale="   95.527">  1  5  2 -1</clus>
<clus scale="   22.989">  1  5  2 -1</clus>
</clustering>
</event>
<event>
 9    1  0.3288491E-005  0.1030374E+03  0.7546771E-02  0.1277401E+00
         21   -1    0    0  501  502  0.00000000000E+00  0.00000000000E+00  0.20777038630E+03  0.20777038630E+03  0.00000000000E+00 0. -1.
         -1   -1    0    0    0  501 -0.00000000000E+00 -0.00000000000E+00 -0.16156687431E+03  0.16156687431E+03  0.00000000000E+00 0.  1.
         23    2    1    2    0    0  0.23649701126E+02 -0.32149624075E+02 -0.11941215887E+03  0.15830129850E+03  0.95953794762E+02 0.  0.
         23    2    1    2    0    0  0.10428873822E+02  0.30029081694E+02  0.13725667496E+03  0.16665039442E+03  0.89008156844E+02 0.  0.
        -13    1    3    3    0    0  0.21464382410E+02  0.22509701045E+02 -0.50245131463E+01  0.31506381667E+02  0.00000000000E+00 0. -1.
         13    1    3    3    0    0  0.21853187165E+01 -0.54659325120E+02 -0.11438764572E+03  0.12679491683E+03  0.00000000000E+00 0.  1.
        -13    1    4    4    0    0  0.23733119148E+02 -0.25396315146E+02  0.72360591555E+02  0.80276328875E+02  0.00000000000E+00 0.  1.
         13    1    4    4    0    0 -0.13304245326E+02  0.55425396839E+02  0.64896083403E+02  0.86374065549E+02  0.00000000000E+00 0. -1.
         -1    1    1    2    0  502 -0.34078574948E+02  0.21205423816E+01  0.28358995901E+02  0.44385567689E+02  0.00000000000E+00 0.  1.
<scales pt_clust_5="13000.00000" pt_clust_6="13000.00000" pt_clust_7="13000.00000" pt_clust_8="13000.00000" pt_clust_9="34.14449"></scales>
<clustering>
<clus scale="   34.144">  1  9  2 -1</clus>
<clus scale="   89.008">  7  8 -1 -1</clus>
<clus scale="   95.954">  5  6 -1 -1</clus>
<clus scale="   96.602">  1  7  2 -1</clus>
<clus scale="   34.144">  1  5  2 -1</clus>
</clustering>
</event>
<event>
 9    1  0.3288491E-005  0.1614333E+03  0.7546771E-02  0.1187106E+00
          1   -1    0    0  502    0 -0.00000000000E+00  0.00000000000E+00  0.80961375523E+03  0.80961375523E+03  0.00000000000E+00 0. -1.
         21   -1    0    0  501  502  0.00000000000E+00 -0.00000000000E+00 -0.67116645411E+02  0.67116645411E+02  0.00000000000E+00 0. -1.
         23    2    1    2    0    0  0.85367126820E+01 -0.13901154605E+03  0.47346350239E+03  0.50176392094E+03  0.90566323017E+02 0.  0.
         23    2    1    2    0    0  0.44394123060E+02  0.12382042755E+03  0.27655488772E+03  0.31938758883E+03  0.90683457896E+02 0.  0.
        -11    1    3    3    0    0 -0.39064028130E+02 -0.38707043474E+02  0.16558099347E+03  0.17447435028E+03  0.00000000000E+00 0. -1.
         11    1    3    3    0    0  0.47600740812E+02 -0.10030450258E+03  0.30788250892E+03  0.32728957066E+03  0.00000000000E+00 0.  1.
        -13    1    4    4    0    0  0.67011255545E+02  0.11894966310E+03  0.23225944418E+03  0.26941414241E+03  0.00000000000E+00 0. -1.
         13    1    4    4    0    0 -0.22617132485E+02  0.48707644429E+01  0.44295443540E+02  0.49973446414E+02  0.00000000000E+00 0.  1.
          1    1    1    2  501    0 -0.52930835742E+02  0.15191118503E+02 -0.75212802864E+01  0.55578890875E+02  0.00000000000E+00 0. -1.
<scales pt_clust_5="13000.00000" pt_clust_6="13000.00000" pt_clust_7="13000.00000" pt_clust_8="13000.00000" pt_clust_9="55.06763"></scales>
<clustering>
<clus scale="   55.068">  2  9  1 -1</clus>
<clus scale="   90.566">  5  6 -1 -1</clus>
<clus scale="   90.683">  7  8 -1 -1</clus>
<clus scale="  161.368">  1  5  2 -1</clus>
<clus scale="   55.068">  2  5  1 -1</clus>
</clustering>
</event>
<event>
 9    1  0.3288491E-005  0.1633107E+03  0.7546771E-02  0.1211330E+00
         -3   -1    0    0    0  501 -0.00000000000E+00  0.00000000000E+00  0.11222581831E+03  0.11222581831E+03  0.00000000000E+00 0.  1.
         21   -1    0    0  501  502  0.00000000000E+00 -0.00000000000E+00 -0.42439685635E+03  0.42439685635E+03  0.00000000000E+00 0. -1.
         23    2    1    2    0    0 -0.11957800592E+02  0.21343883924E+02  0.45911201788E+00  0.92032825987E+02  0.88720233878E+02 0.  0.
         23    2    1    2    0    0  0.13278920248E+03  0.37695490994E+02 -0.10180862370E+03  0.19452667376E+03  0.91769867641E+02 0.  0.
        -11    1    3    3    0    0 -0.18284533252E+02 -0.28965156998E+02  0.17597524482E+02  0.38509444868E+02  0.00000000000E+00 0. -1.
         11    1    3    3    0    0  0.63267326598E+01  0.50309040922E+02 -0.17138412464E+02  0.53523381119E+02  0.00000000000E+00 0.  1.
        -13    1    4    4    0    0  0.62500904796E+02 -0.22952478610E+02 -0.16845338034E+02  0.68680017386E+02  0.00000000000E+00 0.  1.
         13    1    4    4    0    0  0.70288297683E+02  0.60647969604E+02 -0.84963285669E+02  0.12584665637E+03  0.00000000000E+00 0. -1.
         -3    1    1    2    0  502 -0.12083140189E+03 -0.59039374918E+02 -0.21082152636E+03  0.25006317492E+03  0.00000000000E+00 0.  1.
<scales pt_clust_5="13000.00000" pt_clust_6="13000.00000" pt_clust_7="13000.00000" pt_clust_8="13000.00000" pt_clust_9="135.08770"></scales>
<clustering>
<clus scale="   88.720">  5  6 -1 -1</clus>
<clus scale="   91.770">  7  8 -1 -1</clus>
<clus scale="   92.032">  1  5  2 -1</clus>
<clus scale="  135.088">  2  9  1 -1</clus>
<clus scale="  135.088">  2  5  1 -1</clus>
</clustering>
</event>
<event>
 9    1  0.3288491E-005  0.9435138E+02  0.7546771E-02  0.1292889E+00
         21   -1    0    0  501  502  0.00000000000E+00  0.00000000000E+00  0.10282408864E+03  0.10282408864E+03  0.00000000000E+00 0. -1.
          1   -1    0    0  502    0 -0.00000000000E+00 -0.00000000000E+00 -0.22751102446E+03  0.22751102446E+03  0.00000000000E+00 0. -1.
         23    2    1    2    0    0 -0.18178190551E+02 -0.89367720208E+01 -0.16632561646E+03  0.19077435079E+03  0.91215841407E+02 0.  0.
         23    2    1    2    0    0  0.44842361748E+02  0.18415891536E+02  0.42287503594E+02  0.11125435484E+03  0.90770678321E+02 0.  0.
        -11    1    4    4    0    0 -0.23890745912E+02  0.21022354094E+02  0.28074102476E+01  0.31946653411E+02  0.00000000000E+00 0.  1.
         11    1    4    4    0    0  0.68733107660E+02 -0.26064625583E+01  0.39480093346E+02  0.79307701431E+02  0.00000000000E+00 0. -1.
        -13    1    3    3    0    0 -0.20092794643E+02 -0.46549947690E+02 -0.12484252627E+03  0.13474522029E+03  0.00000000000E+00 0.  1.
         13    1    3    3    0    0  0.19146040923E+01  0.37613175669E+02 -0.41483090191E+02  0.56029130500E+02  0.00000000000E+00 0. -1.
          1    1    1    2  501    0 -0.26664171197E+02 -0.94791195148E+01 -0.64882295024E+00  0.28306407466E+02  0.00000000000E+00 0. -1.
<scales pt_clust_5="13000.00000" pt_clust_6="13000.00000" pt_clust_7="13000.00000" pt_clust_8="13000.00000" pt_clust_9="28.29897"></scales>
<clustering>
<clus scale="   28.299">  1  9  2 -1</clus>
<clus scale="   90.771">  5  6 -1 -1</clus>
<clus scale="   91.216">  7  8 -1 -1</clus>
<clus scale="   93.921">  1  5  2 -1</clus>
<clus scale="   28.299">  1  5  2 -1</clus>
</clustering>
</event>
<event>
 9    1  0.3288491E-005  0.1289634E+03  0.7546771E-02  0.1229870E+00
         21   -1    0    0  501  502  0.00000000000E+00  0.00000000000E+00  0.11725119263E+03  0.11725119263E+03  0.00000000000E+00 0. -1.
          3   -1    0    0  502    0 -0.00000000000E+00 -0.00000000000E+00 -0.51812954137E+03  0.51812954137E+03  0.00000000000E+00 0. -1.
         23    2    1    2    0    0 -0.55747907716E+02  0.51961921402E+02 -0.31724410272E+02  0.12555565270E+03  0.94603981032E+02 0.  0.
         23    2    1    2    0    0  0.11361871297E+03 -0.14996473280E+02 -0.13096707093E+02  0.14720651246E+03  0.91455603591E+02 0.  0.
        -11    1    4    4    0    0  0.39940509509E+02 -0.34551085096E+02 -0.40127574850E+02  0.66326797333E+02  0.00000000000E+00 0.  1.
         11    1    4    4    0    0  0.73678203456E+02  0.19554611817E+02  0.27030867756E+02  0.80879715130E+02  0.00000000000E+00 0. -1.
        -11    1    3    3    0    0 -0.34328118515E+02  0.23098458259E+02  0.32058698467E+02  0.52342321711E+02  0.00000000000E+00 0. -1.
         11    1    3    3    0    0 -0.21419789201E+02  0.28863463143E+02 -0.63783108739E+02  0.73213330989E+02  0.00000000000E+00 0.  1.
          3    1    1    2  501    0 -0.57870805249E+02 -0.36965448122E+02 -0.35605723137E+03  0.36261856884E+03  0.00000000000E+00 0. -1.
<scales pt_clust_5="13000.00000" pt_clust_6="13000.00000" pt_clust_7="13000.00000" pt_clust_8="13000.00000" pt_clust_9="68.66935"></scales>
<clustering>
<clus scale="   68.669">  1  9  2 -1</clus>
<clus scale="   91.456">  5  6 -1 -1</clus>
<clus scale="   94.604">  7  8 -1 -1</clus>
<clus scale="  126.672">  1  5  2 -1</clus>
<clus scale="   68.669">  1  5  2 -1</clus>
</clustering>
</event>
<event>
 9    1  0.3288491E-005  0.9822527E+02  0.7546771E-02  0.1285900E+00
          1   -1    0    0  502    0 -0.00000000000E+00  0.00000000000E+00  0.41253921015E+03  0.41253921015E+03  0.00000000000E+00 0. -1.
         21   -1    0    0  501  502  0.00000000000E+00 -0.00000000000E+00 -0.59393907262E+02  0.59393907262E+02  0.00000000000E+00 0.  1.
         23    2    1    2    0    0 -0.24930347196E+02  0.31470588771E+02  0.28004019887E+03  0.29606219368E+03  0.87283385440E+02 0.  0.
         23    2    1    2    0    0 -0.13709965820E+02 -0.41651258487E+02  0.87327728613E+02  0.13345626971E+03  0.90893636984E+02 0.  0.
        -13    1    3    3    0    0  0.74335056213E+01 -0.23445258179E+02  0.34413630712E+02  0.42299351244E+02  0.00000000000E+00 0.  1.
         13    1    3    3    0    0 -0.32363852817E+02  0.54915846950E+02  0.24562656816E+03  0.25376284243E+03  0.00000000000E+00 0. -1.
        -13    1    4    4    0    0 -0.42565438718E+02  0.81673702927E+01  0.36912559645E+02  0.56930304498E+02  0.00000000000E+00 0. -1.
         13    1    4    4    0    0  0.28855472898E+02 -0.49818628780E+02  0.50415168969E+02  0.76525965213E+02  0.00000000000E+00 0.  1.
          1    1    1    2  501    0  0.38640313016E+02  0.10180669716E+02 -0.14222624591E+02  0.42414654026E+02  0.00000000000E+00 0. -1.
<scales pt_clust_5="13000.00000" pt_clust_6="13000.00000" pt_clust_7="13000.00000" pt_clust_8="13000.00000" pt_clust_9="39.95898"></scales>
<clustering>
<clus scale="   39.959">  2  9  1 -1</clus>
<clus scale="   87.283">  5  6 -1 -1</clus>
<clus scale="   90.894">  7  8 -1 -1</clus>
<clus scale="   94.894">  1  5  2 -1</clus>
<clus scale="   39.959">  2  5  1 -1</clus>
</clustering>
</event>
<event>
 9    1  0.3288491E-005  0.2280398E+03  0.7546771E-02  0.1156732E+00
          2   -1    0    0  502    0 -0.00000000000E+00  0.00000000000E+00  0.13245050097E+04  0.13245050097E+04  0.00000000000E+00 0. -1.
         21   -1    0    0  501  502  0.00000000000E+00 -0.00000000000E+00 -0.61228970654E+02  0.61228970654E+02  0.00000000000E+00 0.  1.
         23    2    1    2    0    0 -0.26757477348E+01  0.68934382047E+02  0.39957623385E+03  0.41563848199E+03  0.91296617666E+02 0.  0.
         23    2    1    2    0    0 -0.18889770387E+03 -0.11975748601E+03  0.43873040211E+03  0.50117933441E+03  0.93124441057E+02 0.  0.
        -11    1    4    4    0    0 -0.95001440535E+02 -0.11309273351E+03  0.25304058898E+03  0.29299279812E+03  0.00000000000E+00 0.  1.
         11    1    4    4    0    0 -0.93896263331E+02 -0.66647525002E+01  0.18568981313E+03  0.20818653629E+03  0.00000000000E+00 0. -1.
        -13    1    3    3    0    0  0.37035382995E+02  0.21078058358E+02  0.25070495207E+03  0.25430076117E+03  0.00000000000E+00 0. -1.
         13    1    3    3    0    0 -0.39711130730E+02  0.47856323689E+02  0.14887128178E+03  0.16133772083E+03  0.00000000000E+00 0.  1.
          2    1    1    2  501    0  0.19157345160E+03  0.50823103968E+02  0.42496940304E+03  0.46891616391E+03  0.00000000000E+00 0. -1.
<scales pt_clust_5="13000.00000" pt_clust_6="13000.00000" pt_clust_7="13000.00000" pt_clust_8="13000.00000" pt_clust_9="208.15863"></scales>
<clustering>
<clus scale="   91.297">  7  8 -1 -1</clus>
<clus scale="   93.124">  5  6 -1 -1</clus>
<clus scale="  114.430">  1  7  2 -1</clus>
<clus scale="  208.159">  2  9  1 -1</clus>
<clus scale="  208.159">  2  5  1 -1</clus>
</clustering>
</event>
<event>
 9    1  0.3288491E-005  0.9921908E+02  0.7546771E-02  0.1284642E+00
         21   -1    0    0  501  502  0.00000000000E+00  0.00000000000E+00  0.17030216973E+03  0.17030216973E+03  0.00000000000E+00 0. -1.
          1   -1    0    0  502    0 -0.00000000000E+00 -0.00000000000E+00 -0.31549922049E+03  0.31549922049E+03  0.00000000000E+00 0. -1.
         23    2    1    2    0    0 -0.10436152380E+02 -0.25917854293E+02 -0.26758022820E+03  0.28556224699E+03  0.95739072141E+02 0.  0.
         23    2    1    2    0    0 -0.98992919914E+01  0.18361894276E+02  0.19388175862E+02  0.94984247005E+02  0.90614296181E+02 0.  0.
        -11    1    3    3    0    0  0.38704461434E+01 -0.47504195696E+02 -0.24941871657E+03  0.25393173322E+03  0.00000000000E+00 0. -1.
         11    1    3    3    0    0 -0.14306598523E+02  0.21586341402E+02 -0.18161511629E+02  0.31630513766E+02  0.00000000000E+00 0.  1.
        -11    1    4    4    0    0 -0.31588924245E+02  0.46397097091E+02  0.19847132790E+02  0.59535362881E+02  0.00000000000E+00 0.  1.
         11    1    4    4    0    0  0.21689632253E+02 -0.28035202815E+02 -0.45895692787E+00  0.35448884124E+02  0.00000000000E+00 0. -1.
          1    1    1    2  501    0  0.20335444371E+02  0.75559600174E+01  0.10299500158E+03  0.10525489623E+03  0.00000000000E+00 0. -1.
<scales pt_clust_5="13000.00000" pt_clust_6="13000.00000" pt_clust_7="13000.00000" pt_clust_8="13000.00000" pt_clust_9="21.69384"></scales>
<clustering>
<clus scale="   21.694">  1  9  2 -1</clus>
<clus scale="   90.614">  7  8 -1 -1</clus>
<clus scale="   94.284">  1  7  2 -1</clus>
<clus scale="   95.739">  5  6 -1 -1</clus>
<clus scale="   21.694">  1  5  2 -1</clus>
</clustering>
</event>
<event>
 9    1  0.3288491E-005  0.1032192E+03  0.7546771E-02  0.1273751E+00
          1   -1    0    0  502    0 -0.00000000000E+00  0.00000000000E+00  0.12755757312E+03  0.12755757312E+03  0.00000000000E+00 0. -1.
         21   -1    0    0  501  502  0.00000000000E+00 -0.00000000000E+00 -0.56021529042E+03  0.56021529042E+03  0.00000000000E+00 0. -1.
         23    2    1    2    0    0  0.55999520587E+02 -0.15251197826E+01  0.64034742831E+02  0.12398501099E+03  0.90186264825E+02 0.  0.
         23    2    1    2    0    0 -0.23656570492E+02  0.50883668945E+02 -0.58034342317E+02  0.12117823097E+03  0.90373655895E+02 0.  0.
        -11    1    3    3    0    0  0.21399929440E+02  0.56447348166E+01  0.81583764200E+02  0.84532423320E+02  0.00000000000E+00 0. -1.
         11    1    3    3    0    0  0.34599591147E+02 -0.71698545991E+01 -0.17549021369E+02  0.39452587666E+02  0.00000000000E+00 0.  1.
        -13    1    4    4    0    0 -0.20313005624E+02 -0.50339377216E+01 -0.61589678555E+02  0.65048037872E+02  0.00000000000E+00 0.  1.
         13    1    4    4    0    0 -0.33435648675E+01  0.55917606667E+02  0.35553362378E+01  0.56130193097E+02  0.00000000000E+00 0. -1.
          1    1    1    2  501    0 -0.32342950096E+02 -0.49358549162E+02 -0.43865811782E+03  0.44260962159E+03  0.00000000000E+00 0. -1.
<scales pt_clust_5="13000.00000" pt_clust_6="13000.00000" pt_clust_7="13000.00000" pt_clust_8="13000.00000" pt_clust_9="59.01129"></scales>
<clustering>
<clus scale="   59.011">  2  9  1 -1</clus>
<clus scale="   90.186">  5  6 -1 -1</clus>
<clus scale="   90.374">  7  8 -1 -1</clus>
<clus scale="  103.055">  1  5  2 -1</clus>
<clus scale="   59.011">  2  5  1 -1</clus>
</clustering>
</event>
<event>
 9    1  0.3288491E-005  0.1755155E+03  0.7546771E-02  0.1173139E+00
          1   -1    0    0  502    0 -0.00000000000E+00  0.00000000000E+00  0.95535561662E+03  0.95535561662E+03  0.00000000000E+00 0. -1.
         21   -1    0    0  501  502  0.00000000000E+00 -0.00000000000E+00 -0.38182964490E+02  0.38182964490E+02  0.00000000000E+00 0. -1.
         23    2    1    2    0    0  0.32115153380E+02 -0.13842913817E+03  0.47490324709E+03  0.50320652755E+03  0.86543086944E+02 0.  0.
         23    2    1    2    0    0 -0.56015704626E+02  0.14791410023E+03  0.40806609878E+03  0.44754108472E+03  0.93588147386E+02 0.  0.
        -11    1    4    4    0    0 -0.54790744125E+02  0.80388851611E+02  0.13597313545E+03  0.16719176615E+03  0.00000000000E+00 0. -1.
         11    1    4    4    0    0 -0.12249605007E+01  0.67525248615E+02  0.27209296334E+03  0.28034931857E+03  0.00000000000E+00 0.  1.
        -13    1    3    3    0    0  0.37269844841E+02 -0.51936343018E+02  0.31415978260E+03  0.32059755780E+03  0.00000000000E+00 0. -1.
         13    1    3    3    0    0 -0.51546914617E+01 -0.86492795156E+02  0.16074346449E+03  0.18260896975E+03  0.00000000000E+00 0.  1.
          1    1    1    2  501    0  0.23900551246E+02 -0.94849620523E+01  0.34203306258E+02  0.42790968837E+02  0.00000000000E+00 0. -1.
<scales pt_clust_5="13000.00000" pt_clust_6="13000.00000" pt_clust_7="13000.00000" pt_clust_8="13000.00000" pt_clust_9="25.71383"></scales>
<clustering>
<clus scale="   25.714">  2  9  1 -1</clus>
<clus scale="   86.543">  7  8 -1 -1</clus>
<clus scale="   93.588">  5  6 -1 -1</clus>
<clus scale="  171.862">  1  7  2 -1</clus>
<clus scale="   25.714">  2  5  1 -1</clus>
</clustering>
</event>
<event>
 9    1  0.3288491E-005  0.1098768E+03  0.7546771E-02  0.1261314E+00
          1   -1    0    0  502    0 -0.00000000000E+00  0.00000000000E+00  0.65812837932E+03  0.65812837932E+03  0.00000000000E+00 0. -1.
         21   -1    0    0  501  502  0.00000000000E+00 -0.00000000000E+00 -0.54246879682E+02  0.54246879682E+02  0.00000000000E+00 0. -1.
         23    2    1    2    0    0 -0.17556690535E+02 -0.66302402351E+02  0.40138759736E+03  0.41714273071E+03  0.90508610239E+02 0.  0.
         23    2    1    2    0    0  0.38846426738E+02  0.36573651332E+02  0.22740680659E+03  0.25098657588E+03  0.91835334950E+02 0.  0.
        -11    1    4    4    0    0  0.69754570734E+01  0.45382250580E+02  0.40646292362E+02  0.61321503177E+02  0.00000000000E+00 0. -1.
         11    1    4    4    0    0  0.31870969665E+02 -0.88085992478E+01  0.18676051423E+03  0.18966507270E+03  0.00000000000E+00 0.  1.
        -11    1    3    3    0    0 -0.19473137585E+02  0.10600874391E+02  0.27015854881E+02  0.34949077816E+02  0.00000000000E+00 0.  1.
         11    1    3    3    0    0  0.19164470502E+01 -0.76903276743E+02  0.37437174248E+03  0.38219365289E+03  0.00000000000E+00 0. -1.
          1    1    1    2  501    0 -0.21289736203E+02  0.29728751019E+02 -0.24912904306E+02  0.44245952422E+02  0.00000000000E+00 0. -1.
<scales pt_clust_5="13000.00000" pt_clust_6="13000.00000" pt_clust_7="13000.00000" pt_clust_8="13000.00000" pt_clust_9="36.56571"></scales>
<clustering>
<clus scale="   36.566">  2  9  1 -1</clus>
<clus scale="   90.509">  7  8 -1 -1</clus>
<clus scale="   91.835">  5  6 -1 -1</clus>
<clus scale="  108.770">  1  7  2 -1</clus>
<clus scale="   36.566">  2  5  1 -1</clus>
</clustering>
</event>
<event>
 9    1  0.3288491E-005  0.1084172E+03  0.7546771E-02  0.1263877E+00
         21   -1    0    0  501  502  0.00000000000E+00  0.00000000000E+00  0.33226521323E+02  0.33226521323E+02  0.00000000000E+00 0.  1.
          1   -1    0    0  502    0 -0.00000000000E+00 -0.00000000000E+00 -0.57890137783E+03  0.57890137783E+03  0.00000000000E+00 0. -1.
         23    2    1    2    0    0  0.49267726858E+02 -0.23796687440E+02 -0.33564625810E+03  0.35178593587E+03  0.90007460022E+02 0.  0.
         23    2    1    2    0    0 -0.59922454660E+02  0.41365825973E+02 -0.11702591777E+03  0.16509650953E+03  0.90884321528E+02 0.  0.
        -11    1    4    4    0    0 -0.22863477623E+02  0.37972102290E+02 -0.21864981152E+01  0.44377921710E+02  0.00000000000E+00 0.  1.
         11    1    4    4    0    0 -0.37058977037E+02  0.33937236832E+01 -0.11483941966E+03  0.12071858782E+03  0.00000000000E+00 0. -1.
        -13    1    3    3    0    0  0.14246817542E+02 -0.51948537516E+02 -0.12041393377E+03  0.13191337235E+03  0.00000000000E+00 0. -1.
         13    1    3    3    0    0  0.35020909316E+02  0.28151850075E+02 -0.21523232433E+03  0.21987256352E+03  0.00000000000E+00 0.  1.
          1    1    1    2  501    0  0.10654727802E+02 -0.17569138533E+02 -0.93002680640E+02  0.95245453747E+02  0.00000000000E+00 0. -1.
<scales pt_clust_5="13000.00000" pt_clust_6="13000.00000" pt_clust_7="13000.00000" pt_clust_8="13000.00000" pt_clust_9="20.54746"></scales>
<clustering>
<clus scale="   20.547">  1  9  2 -1</clus>
<clus scale="   90.007">  7  8 -1 -1</clus>
<clus scale="   90.884">  5  6 -1 -1</clus>
<clus scale="  107.683">  2  7  1 -1</clus>
<clus scale="   20.547">  1  5  2 -1</clus>
</clustering>
</event>
<event>
 9    1  0.3288491E-005  0.9961713E+02  0.7546771E-02  0.1283514E+00
         21   -1    0    0  501  502  0.00000000000E+00  0.00000000000E+00  0.81329581225E+02  0.81329581225E+02  0.00000000000E+00 0. -1.
          1   -1    0    0  502    0 -0.00000000000E+00 -0.00000000000E+00 -0.41806215816E+03  0.41806215816E+03  0.00000000000E+00 0. -1.
         23    2    1    2    0    0  0.19722836850E+02  0.62687896131E+02 -0.24417491942E+03  0.26719023228E+03  0.86316083887E+02 0.  0.
         23    2    1    2    0    0  0.17546090409E+02 -0.97691278841E+01 -0.12797133016E+03  0.15842144760E+03  0.91199739963E+02 0.  0.
        -11    1    4    4    0    0 -0.33306699167E+02 -0.69216375156E+01 -0.21091249780E+02  0.40026067663E+02  0.00000000000E+00 0. -1.
         11    1    4    4    0    0  0.50852789576E+02 -0.28474903685E+01 -0.10688008038E+03  0.11839537994E+03  0.00000000000E+00 0.  1.
        -13    1    3    3    0    0  0.34759339568E+02  0.16296097654E+02 -0.33521153792E+02  0.50965108040E+02  0.00000000000E+00 0.  1.
         13    1    3    3    0    0 -0.15036502718E+02  0.46391798478E+02 -0.21065376562E+03  0.21622512424E+03  0.00000000000E+00 0. -1.
          1    1    1    2  501    0 -0.37268927259E+02 -0.52918768247E+02  0.35413672636E+02  0.73780059511E+02  0.00000000000E+00 0. -1.
<scales pt_clust_5="13000.00000" pt_clust_6="13000.00000" pt_clust_7="13000.00000" pt_clust_8="13000.00000" pt_clust_9="64.72533"></scales>
<clustering>
<clus scale="   64.725">  1  9  2 -1</clus>
<clus scale="   86.316">  7  8 -1 -1</clus>
<clus scale="   91.200">  5  6 -1 -1</clus>
<clus scale="   95.166">  2  7  1 -1</clus>
<clus scale="   64.725">  1  5  2 -1</clus>
</clustering>
</event>
<event>
 9    1  0.7614399E-005  0.9222904E+02  0.7546771E-02  0.1297625E+00
         21   -1    0    0  501  502  0.00000000000E+00  0.00000000000E+00  0.19543635439E+03  0.19543635439E+03  0.00000000000E+00 0. -1.
         -3   -1    0    0    0  501 -0.00000000000E+00 -0.00000000000E+00 -0.34502926327E+03  0.34502926327E+03  0.00000000000E+00 0.  1.
         23    2    1    2    0    0 -0.18025235599E+02  0.47760454185E+01 -0.31155731085E+03  0.32499430093E+03  0.90584866090E+02 0.  0.
         23    2    1    2    0    0 -0.16612514843E+02 -0.31800326078E+02  0.10010475212E+03  0.13959838494E+03  0.90440650666E+02 0.  0.
        -13    1    3    3    0    0 -0.38126328577E+02  0.37672947500E+02 -0.19462739285E+03  0.20187295498E+03  0.00000000000E+00 0.  1.
         13    1    3    3    0    0  0.20101092978E+02 -0.32896902081E+02 -0.11692991800E+03  0.12312134595E+03  0.00000000000E+00 0. -1.
        -13    1    4    4    0    0 -0.38148105256E+02 -0.46694040520E+02  0.95604791189E+02  0.11303047135E+03  0.00000000000E+00 0.  1.
         13    1    4    4    0    0  0.21535590413E+02  0.14893714442E+02  0.44999609324E+01  0.26567913594E+02  0.00000000000E+00 0. -1.
         -3    1    1    2    0  502  0.34637750442E+02  0.27024280659E+02  0.61859649847E+02  0.75872931800E+02  0.00000000000E+00 0.  1.
<scales pt_clust_5="13000.00000" pt_clust_6="13000.00000" pt_clust_7="13000.00000" pt_clust_8="13000.00000" pt_clust_9="43.93274"></scales>
<clustering>
<clus scale="   43.933">  1  9  2 -1</clus>
<clus scale="   90.441">  7  8 -1 -1</clus>
<clus scale="   90.585">  5  6 -1 -1</clus>
<clus scale="   92.087">  1  7  2 -1</clus>
<clus scale="   43.933">  1  5  2 -1</clus>
</clustering>
</event>
<event>
 9    1  0.3289471E-005  0.1732553E+03  0.7546771E-02  0.1190187E+00
         21   -1    0    0  501  502  0.00000000000E+00  0.00000000000E+00  0.12849031671E+03  0.12849031671E+03  0.00000000000E+00 0. -1.
          2   -1    0    0  502    0 -0.00000000000E+00 -0.00000000000E+00 -0.65030066491E+03  0.65030066491E+03  0.00000000000E+00 0. -1.
         23    2    1    2    0    0 -0.62811074993E+02 -0.49780576125E+02 -0.97932681793E+02  0.15638907982E+03  0.91887960162E+02 0.  0.
         23    2    1    2    0    0  0.18454720806E+03 -0.25925958208E+02 -0.43151950064E+03  0.47884159020E+03  0.91380313842E+02 0.  0.
        -13    1    3    3    0    0 -0.75064030161E+02 -0.88093919757E+01 -0.43627452652E+02  0.87267225439E+02  0.00000000000E+00 0.  1.
         13    1    3    3    0    0  0.12252955168E+02 -0.40971184149E+02 -0.54305229142E+02  0.69121854381E+02  0.00000000000E+00 0. -1.
        -13    1    4    4    0    0  0.29135952653E+02  0.22598802707E+02 -0.37889427462E+02  0.52869824420E+02  0.00000000000E+00 0.  1.
         13    1    4    4    0    0  0.15541125541E+03 -0.48524760914E+02 -0.39363007318E+03  0.42597176578E+03  0.00000000000E+00 0. -1.
          2    1    1    2  501    0 -0.12173613307E+03  0.75706534333E+02  0.76418342444E+01  0.14356031160E+03  0.00000000000E+00 0. -1.
<scales pt_clust_5="13000.00000" pt_clust_6="13000.00000" pt_clust_7="13000.00000" pt_clust_8="13000.00000" pt_clust_9="147.19725"></scales>
<clustering>
<clus scale="   91.380">  7  8 -1 -1</clus>
<clus scale="   91.888">  5  6 -1 -1</clus>
<clus scale="  121.929">  2  5  1 -1</clus>
<clus scale="  147.197">  1  9  2 -1</clus>
<clus scale="  147.197">  1  5  2 -1</clus>
</clustering>
</event>
<event>
 9    1  0.3288491E-005  0.1897183E+03  0.7546771E-02  0.1158988E+00
         21   -1    0    0  501  502  0.00000000000E+00  0.00000000000E+00  0.10099331929E+03  0.10099331929E+03  0.00000000000E+00 0.  1.
         -1   -1    0    0    0  501 -0.00000000000E+00 -0.00000000000E+00 -0.53051608907E+03  0.53051608907E+03  0.00000000000E+00 0.  1.
         23    2    1    2    0    0 -0.43584165586E+02 -0.15073001327E+03 -0.25767394074E+03  0.31544580307E+03  0.92147048519E+02 0.  0.
         23    2    1    2    0    0  0.44646119432E+02  0.17310674680E+03 -0.19813999648E+03  0.28152273914E+03  0.89645817976E+02 0.  0.
        -11    1    3    3    0    0  0.14228514100E+02 -0.11007113723E+03 -0.14855231528E+03  0.18543434483E+03  0.00000000000E+00 0.  1.
         11    1    3    3    0    0 -0.57812679686E+02 -0.40658876031E+02 -0.10912162546E+03  0.13001145825E+03  0.00000000000E+00 0. -1.
        -13    1    4    4    0    0  0.67292315549E+02  0.13103257878E+03 -0.17403749747E+03  0.22800623447E+03  0.00000000000E+00 0.  1.
         13    1    4    4    0    0 -0.22646196116E+02  0.42074168020E+02 -0.24102499006E+02  0.53516504664E+02  0.00000000000E+00 0. -1.
         -1    1    1    2    0  502 -0.10619538463E+01 -0.22376733530E+02  0.26291167439E+02  0.34540866155E+02  0.00000000000E+00 0.  1.
<scales pt_clust_5="13000.00000" pt_clust_6="13000.00000" pt_clust_7="13000.00000" pt_clust_8="13000.00000" pt_clust_9="22.40192"></scales>
<clustering>
<clus scale="   22.402">  1  9  2 -1</clus>
<clus scale="   89.646">  7  8 -1 -1</clus>
<clus scale="   92.147">  5  6 -1 -1</clus>
<clus scale="  188.516">  1  7  2 -1</clus>
<clus scale="   22.402">  1  5  2 -1</clus>
</clustering>
</event>
<event>
 9    1  0.3288491E-005  0.1154962E+03  0.7546771E-02  0.1251097E+00
         21   -1    0    0  501  502  0.00000000000E+00  0.00000000000E+00  0.39220278357E+03  0.39220278357E+03  0.00000000000E+00 0.  1.
         -1   -1    0    0    0  501 -0.00000000000E+00 -0.00000000000E+00 -0.88217919792E+02  0.88217919792E+02  0.00000000000E+00 0.  1.
         23    2    1    2    0    0 -0.29368124776E+02  0.30499310889E+02  0.44866717272E+02  0.11056352662E+03  0.91752800404E+02 0.  0.
         23    2    1    2    0    0  0.67692657257E+02 -0.71910295789E+02  0.36745430479E+02  0.14043776978E+03  0.92839399133E+02 0.  0.
        -11    1    4    4    0    0  0.54383441197E+02 -0.87590463871E+02  0.57770334911E+01  0.10326191047E+03  0.00000000000E+00 0.  1.
         11    1    4    4    0    0  0.13309216060E+02  0.15680168082E+02  0.30968396988E+02  0.37175859307E+02  0.00000000000E+00 0. -1.
        -13    1    3    3    0    0 -0.62262338864E+02  0.18304042947E+02  0.21310049955E+02  0.68306332489E+02  0.00000000000E+00 0.  1.
         13    1    3    3    0    0  0.32894214088E+02  0.12195267942E+02  0.23556667316E+02  0.42257194129E+02  0.00000000000E+00 0. -1.
         -1    1    1    2    0  502 -0.38324532481E+02  0.41410984899E+02  0.22237271603E+03  0.22941940697E+03  0.00000000000E+00 0.  1.
<scales pt_clust_5="13000.00000" pt_clust_6="13000.00000" pt_clust_7="13000.00000" pt_clust_8="13000.00000" pt_clust_9="56.42375"></scales>
<clustering>
<clus scale="   56.424">  1  9  2 -1</clus>
<clus scale="   91.753">  7  8 -1 -1</clus>
<clus scale="   92.839">  5  6 -1 -1</clus>
<clus scale="  114.625">  2  7  1 -1</clus>
<clus scale="   56.424">  1  5  2 -1</clus>
</clustering>
</event>
<event>
 9    1  0.3288491E-005  0.1104497E+03  0.7546771E-02  0.1265135E+00
          2   -1    0    0  502    0 -0.00000000000E+00  0.00000000000E+00  0.29936199150E+03  0.29936199150E+03  0.00000000000E+00 0. -1.
         21   -1    0    0  501  502  0.00000000000E+00 -0.00000000000E+00 -0.86848842875E+02  0.86848842875E+02  0.00000000000E+00 0.  1.
         23    2    1    2    0    0 -0.39060596891E+02  0.16395166919E+02  0.22090978550E+03  0.24267281954E+03  0.91073773843E+02 0.  0.
         23    2    1    2    0    0  0.19450962619E+02 -0.26329422665E+02  0.17549144642E+02  0.10953197461E+03  0.10304223668E+03 0.  0.
        -11    1    3    3    0    0 -0.68567550220E+01  0.51932919134E+02  0.12076967256E+03  0.13164101560E+03  0.00000000000E+00 0.  1.
         11    1    3    3    0    0 -0.32203841869E+02 -0.35537752215E+02  0.10014011295E+03  0.11103180393E+03  0.00000000000E+00 0. -1.
        -13    1    4    4    0    0 -0.17212587294E+02 -0.36847206035E+02  0.46404936198E+02  0.61704196433E+02  0.00000000000E+00 0. -1.
         13    1    4    4    0    0  0.36663549913E+02  0.10517783370E+02 -0.28855791555E+02  0.47827778179E+02  0.00000000000E+00 0.  1.
          2    1    1    2  501    0  0.19609634273E+02  0.99342557459E+01 -0.25945781519E+02  0.34006040230E+02  0.00000000000E+00 0. -1.
<scales pt_clust_5="13000.00000" pt_clust_6="13000.00000" pt_clust_7="13000.00000" pt_clust_8="13000.00000" pt_clust_9="21.98243"></scales>
<clustering>
<clus scale="   21.982">  2  9  1 -1</clus>
<clus scale="   91.074">  5  6 -1 -1</clus>
<clus scale="   99.377">  1  5  2 -1</clus>
<clus scale="  103.042">  7  8 -1 -1</clus>
<clus scale="   21.982">  2  5  1 -1</clus>
</clustering>
</event>
<event>
 9    1  0.3288491E-005  0.1063360E+03  0.7546771E-02  0.1267523E+00
          1   -1    0    0  502    0 -0.00000000000E+00  0.00000000000E+00  0.20332879991E+03  0.20332879991E+03  0.00000000000E+00 0. -1.
         21   -1    0    0  501  502  0.00000000000E+00 -0.00000000000E+00 -0.39041687759E+03  0.39041687759E+03  0.00000000000E+00 0.  1.
         23    2    1    2    0    0 -0.14431684724E+01  0.52093180277E+02  0.16954110931E+03  0.20000778675E+03  0.92429134187E+02 0.  0.
         23    2    1    2    0    0  0.48368876723E+02 -0.56656012875E+02 -0.23507246797E+03  0.26335814740E+03  0.92460783990E+02 0.  0.
        -11    1    4    4    0    0 -0.57771843802E+01 -0.31821238478E+02 -0.17781628076E+03  0.18073349656E+03  0.00000000000E+00 0.  1.
         11    1    4    4    0    0  0.54146061103E+02 -0.24834774397E+02 -0.57256187211E+02  0.82624650839E+02  0.00000000000E+00 0. -1.
        -13    1    3    3    0    0 -0.35891087239E+02  0.13368167586E+02  0.23244715017E+02  0.44801727913E+02  0.00000000000E+00 0.  1.
         13    1    3    3    0    0  0.34447918766E+02  0.38725012691E+02  0.14629639430E+03  0.15520605884E+03  0.00000000000E+00 0. -1.
          1    1    1    2  501    0 -0.46925708251E+02  0.45628325982E+01 -0.12155671903E+03  0.13037974335E+03  0.00000000000E+00 0. -1.
<scales pt_clust_5="13000.00000" pt_clust_6="13000.00000" pt_clust_7="13000.00000" pt_clust_8="13000.00000" pt_clust_9="47.14702"></scales>
<clustering>
<clus scale="   47.147">  2  9  1 -1</clus>
<clus scale="   92.429">  7  8 -1 -1</clus>
<clus scale="   92.461">  5  6 -1 -1</clus>
<clus scale="  106.308">  1  7  2 -1</clus>
<clus scale="   47.147">  2  5  1 -1</clus>
</clustering>
</event>
<event>
 9    1  0.3288491E-005  0.9868727E+02  0.7546771E-02  0.1283090E+00
          3   -1    0    0  502    0 -0.00000000000E+00  0.00000000000E+00  0.38349270768E+03  0.38349270768E+03  0.00000000000E+00 0. -1.
         21   -1    0    0  501  502  0.00000000000E+00 -0.00000000000E+00 -0.72007070118E+02  0.72007070118E+02  0.00000000000E+00 0. -1.
         23    2    1    2    0    0  0.75742667373E+01 -0.59675187946E+02  0.15418357633E+03  0.18810356990E+03  0.89397316661E+02 0.  0.
         23    2    1    2    0    0  0.65214922203E+02  0.11087452339E+01  0.12858373603E+03  0.16965657192E+03  0.89416776002E+02 0.  0.
        -11    1    3    3    0    0 -0.11588586105E+02 -0.21214051234E+02 -0.37200552276E+01  0.24457516402E+02  0.00000000000E+00 0.  1.
         11    1    3    3    0    0  0.19162852842E+02 -0.38461136713E+02  0.15790363156E+03  0.16364605350E+03  0.00000000000E+00 0. -1.
        -11    1    4    4    0    0 -0.42632736254E+01  0.32304684154E+02  0.24912742044E+02  0.41017226094E+02  0.00000000000E+00 0.  1.
         11    1    4    4    0    0  0.69478195828E+02 -0.31195938920E+02  0.10367099399E+03  0.12863934583E+03  0.00000000000E+00 0. -1.
          3    1    1    2  501    0 -0.72789188940E+02  0.58566442713E+02  0.28718325199E+02  0.97739635976E+02  0.00000000000E+00 0. -1.
<scales pt_clust_5="13000.00000" pt_clust_6="13000.00000" pt_clust_7="13000.00000" pt_clust_8="13000.00000" pt_clust_9="93.42534"></scales>
<clustering>
<clus scale="   89.397">  5  6 -1 -1</clus>
<clus scale="   89.417">  7  8 -1 -1</clus>
<clus scale="   93.425">  2  9  1 -1</clus>
<clus scale="   98.670">  1  5  2 -1</clus>
<clus scale="   93.425">  2  5  1 -1</clus>
</clustering>
</event>
<event>
 9    1  0.3288491E-005  0.9771724E+02  0.7546771E-02  0.1286655E+00
          2   -1    0    0  502    0 -0.00000000000E+00  0.00000000000E+00  0.42161397337E+03  0.42161397337E+03  0.00000000000E+00 0. -1.
         21   -1    0    0  501  502  0.00000000000E+00 -0.00000000000E+00 -0.76595320414E+02  0.76595320414E+02  0.00000000000E+00 0. -1.
         23    2    1    2    0    0 -0.19645103275E+02  0.18134608300E+02  0.23760938701E+03  0.25650850378E+03  0.92863327596E+02 0.  0.
         23    2    1    2    0    0  0.49560579237E+02  0.23761754283E+02  0.14403260028E+03  0.17852239561E+03  0.90022129552E+02 0.  0.
        -13    1    4    4    0    0  0.35531002436E+02 -0.32089155049E+02  0.64057402625E+02  0.79971975322E+02  0.00000000000E+00 0.  1.
         13    1    4    4    0    0  0.14029576801E+02  0.55850909332E+02  0.79975197658E+02  0.98550420288E+02  0.00000000000E+00 0. -1.
        -13    1    3    3    0    0 -0.66471385014E+01  0.54693608497E+02  0.16815228855E+03  0.17694848800E+03  0.00000000000E+00 0. -1.
         13    1    3    3    0    0 -0.12997964774E+02 -0.36559000197E+02  0.69457098466E+02  0.79560015781E+02  0.00000000000E+00 0.  1.
          2    1    1    2  501    0 -0.29915475962E+02 -0.41896362583E+02 -0.36623334344E+02  0.63178394394E+02  0.00000000000E+00 0. -1.
<scales pt_clust_5="13000.00000" pt_clust_6="13000.00000" pt_clust_7="13000.00000" pt_clust_8="13000.00000" pt_clust_9="51.48049"></scales>
<clustering>
<clus scale="   51.480">  2  9  1 -1</clus>
<clus scale="   90.022">  5  6 -1 -1</clus>
<clus scale="   92.863">  7  8 -1 -1</clus>
<clus scale="   95.021">  2  5  1 -1</clus>
<clus scale="   51.480">  2  5  1 -1</clus>
</clustering>
</event>
<event>
 9    1  0.3288491E-005  0.1275119E+03  0.7546771E-02  0.1231883E+00
         21   -1    0    0  501  502  0.00000000000E+00  0.00000000000E+00  0.83802627792E+02  0.83802627792E+02  0.00000000000E+00 0. -1.
          1   -1    0    0  502    0 -0.00000000000E+00 -0.00000000000E+00 -0.44468976337E+03  0.44468976337E+03  0.00000000000E+00 0. -1.
         23    2    1    2    0    0 -0.43436973034E+02 -0.89382582192E+02 -0.31869134955E+03  0.34614752343E+03  0.91530951446E+02 0.  0.
         23    2    1    2    0    0  0.43889950714E+02  0.39179707157E+02 -0.63537804509E+02  0.12779199793E+03  0.93980662406E+02 0.  0.
        -11    1    4    4    0    0  0.20941433130E+01  0.37922684792E+02  0.13359102590E+02  0.40261409316E+02  0.00000000000E+00 0.  1.
         11    1    4    4    0    0  0.41795807401E+02  0.12570223644E+01 -0.76896907099E+02  0.87530588613E+02  0.00000000000E+00 0. -1.
        -13    1    3    3    0    0 -0.24125453029E+02 -0.96523541546E+02 -0.30644449530E+03  0.32219103069E+03  0.00000000000E+00 0. -1.
         13    1    3    3    0    0 -0.19311520005E+02  0.71409593534E+01 -0.12246854248E+02  0.23956492739E+02  0.00000000000E+00 0.  1.
          1    1    1    2  501    0 -0.45297768001E+00  0.50202875035E+02  0.21342018483E+02  0.54552869801E+02  0.00000000000E+00 0. -1.
<scales pt_clust_5="13000.00000" pt_clust_6="13000.00000" pt_clust_7="13000.00000" pt_clust_8="13000.00000" pt_clust_9="50.20492"></scales>
<clustering>
<clus scale="   50.205">  1  9  2 -1</clus>
<clus scale="   91.531">  7  8 -1 -1</clus>
<clus scale="   93.981">  5  6 -1 -1</clus>
<clus scale="  125.717">  2  7  1 -1</clus>
<clus scale="   50.205">  1  5  2 -1</clus>
</clustering>
</event>
<event>
 9    1  0.3288491E-005  0.1058404E+03  0.7546771E-02  0.1268968E+00
         21   -1    0    0  501  502  0.00000000000E+00  0.00000000000E+00  0.20115885043E+02  0.20115885043E+02  0.00000000000E+00 0. -1.
          2   -1    0    0  502    0 -0.00000000000E+00 -0.00000000000E+00 -0.90848788174E+03  0.90848788174E+03  0.00000000000E+00 0. -1.
         23    2    1    2    0    0 -0.42488447512E+02 -0.45091547166E+02 -0.56157551481E+03  0.57252454970E+03  0.92621732775E+02 0.  0.
         23    2    1    2    0    0  0.27802227443E+02  0.23493648935E+02 -0.30943674648E+03  0.32471817945E+03  0.91465187931E+02 0.  0.
        -11    1    4    4    0    0  0.17271459337E+02 -0.30300510406E+02 -0.19169498016E+03  0.19484196071E+03  0.00000000000E+00 0. -1.
         11    1    4    4    0    0  0.10530768106E+02  0.53794159341E+02 -0.11774176632E+03  0.12987621874E+03  0.00000000000E+00 0.  1.
        -11    1    3    3    0    0  0.22258030728E+02  0.11695876681E+02 -0.14050232905E+03  0.14273443148E+03  0.00000000000E+00 0.  1.
         11    1    3    3    0    0 -0.64746478240E+02 -0.56787423847E+02 -0.42107318576E+03  0.42979011822E+03  0.00000000000E+00 0. -1.
          2    1    1    2  501    0  0.14686220069E+02  0.21597898231E+02 -0.17359735415E+02  0.31361037635E+02  0.00000000000E+00 0. -1.
<scales pt_clust_5="13000.00000" pt_clust_6="13000.00000" pt_clust_7="13000.00000" pt_clust_8="13000.00000" pt_clust_9="26.11808"></scales>
<clustering>
<clus scale="   26.118">  1  9  2 -1</clus>
<clus scale="   91.465">  5  6 -1 -1</clus>
<clus scale="   92.622">  7  8 -1 -1</clus>
<clus scale="  104.830">  1  5  2 -1</clus>
<clus scale="   26.118">  1  5  2 -1</clus>
</clustering>
</event>
<event>
 9    1  0.3288491E-005  0.1169106E+03  0.7546771E-02  0.1248435E+00
         21   -1    0    0  501  502  0.00000000000E+00  0.00000000000E+00  0.28353252579E+02  0.28353252579E+02  0.00000000000E+00 0.  1.
          2   -1    0    0  502    0 -0.00000000000E+00 -0.00000000000E+00 -0.70430434082E+03  0.70430434082E+03  0.00000000000E+00 0. -1.
         23    2    1    2    0    0  0.73092221372E+02  0.25634609649E+02 -0.36540580957E+03  0.38479452710E+03  0.92443584874E+02 0.  0.
         23    2    1    2    0    0 -0.65448971749E+02 -0.35731579883E+01 -0.30251422382E+03  0.32317248598E+03  0.92893835759E+02 0.  0.
        -11    1    3    3    0    0  0.23569384601E+02  0.48130662505E+02 -0.26729635761E+03  0.27261588243E+03  0.00000000000E+00 0.  1.
         11    1    3    3    0    0  0.49522836771E+02 -0.22496052856E+02 -0.98109451956E+02  0.11217864467E+03  0.00000000000E+00 0. -1.
        -13    1    4    4    0    0  0.38051322792E+01  0.23039130735E+02 -0.18978767385E+02  0.30091098154E+02  0.00000000000E+00 0.  1.
         13    1    4    4    0    0 -0.69254104028E+02 -0.26612288723E+02 -0.28353545643E+03  0.29308138783E+03  0.00000000000E+00 0. -1.
          2    1    1    2  501    0 -0.76432496231E+01 -0.22061451661E+02 -0.80310548527E+01  0.24690580314E+02  0.00000000000E+00 0. -1.
<scales pt_clust_5="13000.00000" pt_clust_6="13000.00000" pt_clust_7="13000.00000" pt_clust_8="13000.00000" pt_clust_9="23.34795"></scales>
<clustering>
<clus scale="   23.348">  1  9  2 -1</clus>
<clus scale="   92.444">  5  6 -1 -1</clus>
<clus scale="   92.894">  7  8 -1 -1</clus>
<clus scale="  116.553">  2  5  1 -1</clus>
<clus scale="   23.348">  1  5  2 -1</clus>
</clustering>
</event>
<event>
 9    1  0.3288491E-005  0.1060874E+03  0.7546771E-02  0.1268204E+00
         -1   -1    0    0    0  501 -0.00000000000E+00  0.00000000000E+00  0.55987737699E+03  0.55987737699E+03  0.00000000000E+00 0.  1.
         21   -1    0    0  501  502  0.00000000000E+00 -0.00000000000E+00 -0.36952539637E+02  0.36952539637E+02  0.00000000000E+00 0. -1.
         23    2    1    2    0    0 -0.53483965419E+02 -0.52392995827E+02  0.30951453407E+03  0.33111325052E+03  0.90725835928E+02 0.  0.
         23    2    1    2    0    0  0.35699075483E+02  0.22001050766E+01  0.17316120341E+03  0.19896624564E+03  0.91233218091E+02 0.  0.
        -11    1    3    3    0    0 -0.43215998414E+02  0.15985650196E+02  0.92359403392E+02  0.10321542000E+03  0.00000000000E+00 0.  1.
         11    1    3    3    0    0 -0.10267967006E+02 -0.68378646022E+02  0.21715513068E+03  0.22789783052E+03  0.00000000000E+00 0. -1.
        -11    1    4    4    0    0  0.13686868105E+02  0.45191548373E+02  0.10787023183E+03  0.11775225399E+03  0.00000000000E+00 0.  1.
         11    1    4    4    0    0  0.22012207378E+02 -0.42991443296E+02  0.65290971576E+02  0.81213991650E+02  0.00000000000E+00 0. -1.
         -1    1    1    2    0  502  0.17784889936E+02  0.50192890750E+02  0.40249099879E+02  0.66750420470E+02  0.00000000000E+00 0.  1.
<scales pt_clust_5="13000.00000" pt_clust_6="13000.00000" pt_clust_7="13000.00000" pt_clust_8="13000.00000" pt_clust_9="53.25062"></scales>
<clustering>
<clus scale="   53.251">  2  9  1 -1</clus>
<clus scale="   90.726">  5  6 -1 -1</clus>
<clus scale="   91.233">  7  8 -1 -1</clus>
<clus scale="  105.651">  1  5  2 -1</clus>
<clus scale="   53.251">  2  5  1 -1</clus>
</clustering>
</event>
<event>
 9    1  0.3288491E-005  0.1239273E+03  0.7546771E-02  0.1237338E+00
          2   -1    0    0  502    0 -0.00000000000E+00  0.00000000000E+00  0.10252018341E+04  0.10252018341E+04  0.00000000000E+00 0. -1.
         21   -1    0    0  501  502  0.00000000000E+00 -0.00000000000E+00 -0.20105897760E+02  0.20105897760E+02  0.00000000000E+00 0.  1.
         23    2    1    2    0    0 -0.41925737601E+02  0.82517653125E+02  0.51652932661E+03  0.53275488484E+03  0.91968970386E+02 0.  0.
         23    2    1    2    0    0  0.57937440664E+02 -0.49363733151E+02  0.38500895761E+03  0.40264495669E+03  0.89986324119E+02 0.  0.
        -11    1    4    4    0    0 -0.17119910716E+02 -0.37003309308E+02  0.16057252059E+03  0.16566795288E+03  0.00000000000E+00 0. -1.
         11    1    4    4    0    0  0.75057351380E+02 -0.12360423843E+02  0.22443643702E+03  0.23697700381E+03  0.00000000000E+00 0.  1.
        -13    1    3    3    0    0  0.17693129369E+02  0.17027121301E+02  0.32735330430E+02  0.40921529114E+02  0.00000000000E+00 0.  1.
         13    1    3    3    0    0 -0.59618866969E+02  0.65490531824E+02  0.48379399618E+03  0.49183335572E+03  0.00000000000E+00 0. -1.
          2    1    1    2  501    0 -0.16011703064E+02 -0.33153919974E+02  0.10355765207E+03  0.10990789029E+03  0.00000000000E+00 0. -1.
<scales pt_clust_5="13000.00000" pt_clust_6="13000.00000" pt_clust_7="13000.00000" pt_clust_8="13000.00000" pt_clust_9="36.81789"></scales>
<clustering>
<clus scale="   36.818">  2  9  1 -1</clus>
<clus scale="   89.986">  5  6 -1 -1</clus>
<clus scale="   91.969">  7  8 -1 -1</clus>
<clus scale="  122.463">  2  5  1 -1</clus>
<clus scale="   36.818">  2  5  1 -1</clus>
</clustering>
</event>
<event>
 9    1  0.3288491E-005  0.1294745E+03  0.7546771E-02  0.1228567E+00
          1   -1    0    0  502    0 -0.00000000000E+00  0.00000000000E+00  0.17514735074E+03  0.17514735074E+03  0.00000000000E+00 0. -1.
         21   -1    0    0  501  502  0.00000000000E+00 -0.00000000000E+00 -0.37424932998E+03  0.37424932998E+03  0.00000000000E+00 0. -1.
         23    2    1    2    0    0 -0.92153460329E+02 -0.41108925719E+00  0.10532160802E+03  0.16675224974E+03  0.90671067229E+02 0.  0.
         23    2    1    2    0    0  0.91998594782E+02 -0.38223873274E+02 -0.82195033664E+02  0.15708243430E+03  0.89409516709E+02 0.  0.
        -11    1    3    3    0    0 -0.56981247830E+02  0.54059031029E+00  0.13622616920E+01  0.57000092974E+02  0.00000000000E+00 0.  1.
         11    1    3    3    0    0 -0.35172212499E+02 -0.95167956748E+00  0.10395934632E+03  0.10975215676E+03  0.00000000000E+00 0. -1.
        -13    1    4    4    0    0  0.42852083123E+02 -0.63007054163E+02 -0.32193002237E+02  0.82719884522E+02  0.00000000000E+00 0.  1.
         13    1    4    4    0    0  0.49146511659E+02  0.24783180890E+02 -0.50002031427E+02  0.74362549782E+02  0.00000000000E+00 0. -1.
          1    1    1    2  501    0  0.15486554708E+00  0.38634962531E+02 -0.22222855360E+03  0.22556199668E+03  0.00000000000E+00 0. -1.
<scales pt_clust_5="13000.00000" pt_clust_6="13000.00000" pt_clust_7="13000.00000" pt_clust_8="13000.00000" pt_clust_9="38.63527"></scales>
<clustering>
<clus scale="   38.635">  2  9  1 -1</clus>
<clus scale="   89.410">  7  8 -1 -1</clus>
<clus scale="   90.671">  5  6 -1 -1</clus>
<clus scale="  128.594">  2  7  1 -1</clus>
<clus scale="   38.635">  2  5  1 -1</clus>
</clustering>
</event>
<event>
 9    1  0.3288491E-005  0.1058607E+03  0.7546771E-02  0.1269068E+00
         21   -1    0    0  501  502  0.00000000000E+00  0.00000000000E+00  0.36902197875E+02  0.36902197875E+02  0.00000000000E+00 0. -1.
         -1   -1    0    0    0  501 -0.00000000000E+00 -0.00000000000E+00 -0.57307407055E+03  0.57307407055E+03  0.00000000000E+00 0.  1.
         23    2    1    2    0    0 -0.55204015383E+02  0.34873034715E+02 -0.19452060253E+03  0.22451374173E+03  0.91129268349E+02 0.  0.
         23    2    1    2    0    0  0.43089378693E+02  0.16332095918E+02 -0.12370738703E+03  0.16125667037E+03  0.92610821290E+02 0.  0.
        -11    1    4    4    0    0  0.21241919636E+02  0.24899190366E+02 -0.13228300260E+03  0.13627171976E+03  0.00000000000E+00 0.  1.
         11    1    4    4    0    0  0.21847459057E+02 -0.85670944481E+01  0.85756155682E+01  0.24984950608E+02  0.00000000000E+00 0. -1.
        -11    1    3    3    0    0 -0.30549774805E+01 -0.24192790628E+02 -0.15430391182E+02  0.28856905202E+02  0.00000000000E+00 0.  1.
         11    1    3    3    0    0 -0.52149037902E+02  0.59065825343E+02 -0.17909021135E+03  0.19565683652E+03  0.00000000000E+00 0. -1.
         -1    1    1    2    0  502  0.12114636690E+02 -0.51205130633E+02 -0.21794388312E+03  0.22420585633E+03  0.00000000000E+00 0.  1.
<scales pt_clust_5="13000.00000" pt_clust_6="13000.00000" pt_clust_7="13000.00000" pt_clust_8="13000.00000" pt_clust_9="52.61875"></scales>
<clustering>
<clus scale="   52.619">  1  9  2 -1</clus>
<clus scale="   91.129">  7  8 -1 -1</clus>
<clus scale="   92.611">  5  6 -1 -1</clus>
<clus scale="  104.567">  2  7  1 -1</clus>
<clus scale="   52.619">  1  5  2 -1</clus>
</clustering>
</event>
<event>
 9    1  0.3288491E-005  0.1158929E+03  0.7546771E-02  0.1250201E+00
         21   -1    0    0  501  502  0.00000000000E+00  0.00000000000E+00  0.52486685659E+02  0.52486685659E+02  0.00000000000E+00 0. -1.
          2   -1    0    0  502    0 -0.00000000000E+00 -0.00000000000E+00 -0.87375198251E+03  0.87375198251E+03  0.00000000000E+00 0. -1.
         23    2    1    2    0    0  0.37556512221E+02  0.69456066172E+02 -0.53387657389E+03  0.54741898920E+03  0.91699055843E+02 0.  0.
         23    2    1    2    0    0 -0.38059971664E+02 -0.47216021796E+02 -0.32063072491E+03  0.33882088226E+03  0.91200955818E+02 0.  0.
        -11    1    3    3    0    0 -0.12650018786E+02 -0.16903619709E+02 -0.94718610562E+02  0.97043137426E+02  0.00000000000E+00 0.  1.
         11    1    3    3    0    0  0.50206531007E+02  0.86359685881E+02 -0.43915796333E+03  0.45037585177E+03  0.00000000000E+00 0. -1.
        -13    1    4    4    0    0  0.27676717961E+02 -0.31420023181E+02 -0.11795175857E+03  0.12516323711E+03  0.00000000000E+00 0. -1.
         13    1    4    4    0    0 -0.65736689625E+02 -0.15795998615E+02 -0.20267896634E+03  0.21365764515E+03  0.00000000000E+00 0.  1.
          2    1    1    2  501    0  0.50345944260E+00 -0.22240044376E+02  0.33242001948E+02  0.39998796716E+02  0.00000000000E+00 0. -1.
<scales pt_clust_5="13000.00000" pt_clust_6="13000.00000" pt_clust_7="13000.00000" pt_clust_8="13000.00000" pt_clust_9="22.24574"></scales>
<clustering>
<clus scale="   22.246">  1  9  2 -1</clus>
<clus scale="   91.201">  7  8 -1 -1</clus>
<clus scale="   91.699">  5  6 -1 -1</clus>
<clus scale="  115.499">  1  7  2 -1</clus>
<clus scale="   22.246">  1  5  2 -1</clus>
</clustering>
</event>
<event>
 9    1  0.3410219E-005  0.1088088E+03  0.7546771E-02  0.1263892E+00
         -2   -1    0    0    0  501 -0.00000000000E+00  0.00000000000E+00  0.42860992334E+03  0.42860992334E+03  0.00000000000E+00 0.  1.
         21   -1    0    0  501  502  0.00000000000E+00 -0.00000000000E+00 -0.11956549712E+03  0.11956549712E+03  0.00000000000E+00 0.  1.
         23    2    1    2    0    0  0.39185639098E+02  0.42602807391E+02  0.37872546549E+03  0.39327353084E+03  0.88772621566E+02 0.  0.
         23    2    1    2    0    0 -0.37404362384E+02 -0.62873267444E+02 -0.65083410285E+02  0.13404037746E+03  0.91535995171E+02 0.  0.
        -11    1    3    3    0    0  0.78960882202E+01  0.64544419942E+02  0.27897240717E+03  0.28645057919E+03  0.00000000000E+00 0.  1.
         11    1    3    3    0    0  0.31289550878E+02 -0.21941612551E+02  0.99753058313E+02  0.10682295165E+03  0.00000000000E+00 0. -1.
        -13    1    4    4    0    0 -0.45695295265E+02  0.33554190095E+01 -0.45283603055E+02  0.64419900277E+02  0.00000000000E+00 0. -1.
         13    1    4    4    0    0  0.82909328807E+01 -0.66228686454E+02 -0.19799807230E+02  0.69620477187E+02  0.00000000000E+00 0.  1.
         -2    1    1    2    0  502 -0.17812767137E+01  0.20270460054E+02 -0.45976289809E+01  0.20861512164E+02  0.00000000000E+00 0.  1.
<scales pt_clust_5="13000.00000" pt_clust_6="13000.00000" pt_clust_7="13000.00000" pt_clust_8="13000.00000" pt_clust_9="20.34857"></scales>
<clustering>
<clus scale="   20.349">  2  9  1 -1</clus>
<clus scale="   88.773">  5  6 -1 -1</clus>
<clus scale="   91.536">  7  8 -1 -1</clus>
<clus scale="  106.495">  1  5  2 -1</clus>
<clus scale="   20.349">  2  5  1 -1</clus>
</clustering>
</event>
<event>
 9    1  0.3288491E-005  0.1284236E+03  0.7546771E-02  0.1230048E+00
         21   -1    0    0  501  502  0.00000000000E+00  0.00000000000E+00  0.15302501046E+03  0.15302501046E+03  0.00000000000E+00 0. -1.
         -1   -1    0    0    0  501 -0.00000000000E+00 -0.00000000000E+00 -0.52981550466E+03  0.52981550466E+03  0.00000000000E+00 0.  1.
         23    2    1    2    0    0  0.60528160627E+02  0.71407893847E+02 -0.47903305865E+03  0.49668963188E+03  0.92006378072E+02 0.  0.
         23    2    1    2    0    0 -0.15786829234E+02 -0.43644890880E+02  0.75275173839E+02  0.12699168088E+03  0.91139644167E+02 0.  0.
        -11    1    4    4    0    0  0.33668203708E+02  0.30615055562E+01  0.19521910754E+02  0.39038772480E+02  0.00000000000E+00 0.  1.
         11    1    4    4    0    0 -0.49455032942E+02 -0.46706396436E+02  0.55753263085E+02  0.87952908400E+02  0.00000000000E+00 0. -1.
        -13    1    3    3    0    0  0.71348691613E+02  0.26034034361E+02 -0.20299447495E+03  0.21673754543E+03  0.00000000000E+00 0.  1.
         13    1    3    3    0    0 -0.10820530986E+02  0.45373859486E+02 -0.27603858370E+03  0.27995208645E+03  0.00000000000E+00 0. -1.
         -1    1    1    2    0  502 -0.44741331393E+02 -0.27763002967E+02  0.26967390607E+02  0.59159202367E+02  0.00000000000E+00 0.  1.
<scales pt_clust_5="13000.00000" pt_clust_6="13000.00000" pt_clust_7="13000.00000" pt_clust_8="13000.00000" pt_clust_9="52.65521"></scales>
<clustering>
<clus scale="   52.655">  1  9  2 -1</clus>
<clus scale="   91.140">  5  6 -1 -1</clus>
<clus scale="   92.006">  7  8 -1 -1</clus>
<clus scale="  127.804">  1  5  2 -1</clus>
<clus scale="   52.655">  1  5  2 -1</clus>
</clustering>
</event>
<event>
 9    1  0.3288491E-005  0.9478373E+02  0.7546771E-02  0.1292706E+00
          1   -1    0    0  502    0 -0.00000000000E+00  0.00000000000E+00  0.27680380515E+02  0.27680380515E+02  0.00000000000E+00 0. -1.
         21   -1    0    0  501  502  0.00000000000E+00 -0.00000000000E+00 -0.46894764422E+03  0.46894764422E+03  0.00000000000E+00 0.  1.
         23    2    1    2    0    0  0.94794230279E+01 -0.34073935068E+02 -0.15725356276E+03  0.18462655597E+03  0.90041044291E+02 0.  0.
         23    2    1    2    0    0 -0.16207616734E+02 -0.17083614182E+00 -0.22232672596E+03  0.24112653788E+03  0.91924524289E+02 0.  0.
        -11    1    4    4    0    0 -0.35366791580E+02 -0.37165953214E+02 -0.13336013026E+03  0.14288821634E+03  0.00000000000E+00 0.  1.
         11    1    4    4    0    0  0.19159174846E+02  0.36995117072E+02 -0.88966595703E+02  0.98238321540E+02  0.00000000000E+00 0. -1.
        -11    1    3    3    0    0 -0.13376560820E+02 -0.57273070447E+02 -0.12793565408E+03  0.14080720352E+03  0.00000000000E+00 0.  1.
         11    1    3    3    0    0  0.22855983848E+02  0.23199135379E+02 -0.29317908682E+02  0.43819352454E+02  0.00000000000E+00 0. -1.
          1    1    1    2  501    0  0.67281937057E+01  0.34244771210E+02 -0.61686974978E+02  0.70874930883E+02  0.00000000000E+00 0. -1.
<scales pt_clust_5="13000.00000" pt_clust_6="13000.00000" pt_clust_7="13000.00000" pt_clust_8="13000.00000" pt_clust_9="34.89949"></scales>
<clustering>
<clus scale="   34.899">  2  9  1 -1</clus>
<clus scale="   90.041">  7  8 -1 -1</clus>
<clus scale="   91.925">  5  6 -1 -1</clus>
<clus scale="   92.958">  1  7  2 -1</clus>
<clus scale="   34.899">  2  5  1 -1</clus>
</clustering>
</event>
<event>
 9    1  0.3288491E-005  0.9843442E+02  0.7546771E-02  0.1289700E+00
         21   -1    0    0  501  502  0.00000000000E+00  0.00000000000E+00  0.66212832135E+02  0.66212832135E+02  0.00000000000E+00 0.  1.
         -1   -1    0    0    0  501 -0.00000000000E+00 -0.00000000000E+00 -0.38595079359E+03  0.38595079359E+03  0.00000000000E+00 0.  1.
         23    2    1    2    0    0  0.27451002873E+01  0.23502877236E+00 -0.29159366896E+03  0.30447397658E+03  0.87578215463E+02 0.  0.
         23    2    1    2    0    0 -0.27588231956E+02 -0.22586757189E+02 -0.81130674893E+00  0.10451705292E+03  0.98244002313E+02 0.  0.
        -11    1    4    4    0    0  0.52145280768E+01  0.34889232879E+02  0.11701033926E+02  0.37166706457E+02  0.00000000000E+00 0. -1.
         11    1    4    4    0    0 -0.32802760033E+02 -0.57475990067E+02 -0.12512340675E+02  0.67350346467E+02  0.00000000000E+00 0.  1.
        -13    1    3    3    0    0  0.38867296332E+02 -0.21601757385E+02 -0.17180274581E+03  0.17746404175E+03  0.00000000000E+00 0. -1.
         13    1    3    3    0    0 -0.36122196045E+02  0.21836786158E+02 -0.11979092315E+03  0.12700993483E+03  0.00000000000E+00 0.  1.
         -1    1    1    2    0  502  0.24843131669E+02  0.22351728416E+02 -0.27332985739E+02  0.43172596213E+02  0.00000000000E+00 0.  1.
<scales pt_clust_5="13000.00000" pt_clust_6="13000.00000" pt_clust_7="13000.00000" pt_clust_8="13000.00000" pt_clust_9="33.41827"></scales>
<clustering>
<clus scale="   33.418">  1  9  2 -1</clus>
<clus scale="   87.578">  7  8 -1 -1</clus>
<clus scale="   87.792">  2  7  1 -1</clus>
<clus scale="   98.244">  5  6 -1 -1</clus>
<clus scale="   33.418">  1  5  2 -1</clus>
</clustering>
</event>
<event>
 9    1  0.3288491E-005  0.1679741E+03  0.7546771E-02  0.1204943E+00
         21   -1    0    0  501  502  0.00000000000E+00  0.00000000000E+00  0.19322558909E+03  0.19322558909E+03  0.00000000000E+00 0.  1.
         -1   -1    0    0    0  501 -0.00000000000E+00 -0.00000000000E+00 -0.27976906495E+03  0.27976906495E+03  0.00000000000E+00 0.  1.
         23    2    1    2    0    0  0.12026883687E+02 -0.10375826573E+02 -0.69999501735E+02  0.11960205187E+03  0.95668264649E+02 0.  0.
         23    2    1    2    0    0 -0.50342935279E+02  0.11122611885E+03 -0.11239240701E+03  0.20908105257E+03  0.12718951507E+03 0.  0.
        -11    1    4    4    0    0 -0.18594300697E+02  0.22421376861E+02 -0.11100326071E+03  0.11476144843E+03  0.00000000000E+00 0. -1.
         11    1    4    4    0    0 -0.31748634582E+02  0.88804741987E+02 -0.13891463068E+01  0.94319604138E+02  0.00000000000E+00 0.  1.
        -13    1    3    3    0    0 -0.40633708938E+02 -0.16687120869E+02 -0.30709345899E+02  0.53596849072E+02  0.00000000000E+00 0. -1.
         13    1    3    3    0    0  0.52660592624E+02  0.63112942964E+01 -0.39290155837E+02  0.66005202802E+02  0.00000000000E+00 0.  1.
         -1    1    1    2    0  502  0.38316051592E+02 -0.10085029228E+03  0.95848432889E+02  0.14431154960E+03  0.00000000000E+00 0.  1.
<scales pt_clust_5="13000.00000" pt_clust_6="13000.00000" pt_clust_7="13000.00000" pt_clust_8="13000.00000" pt_clust_9="109.71844"></scales>
<clustering>
<clus scale="   95.668">  7  8 -1 -1</clus>
<clus scale="   96.978">  2  7  1 -1</clus>
<clus scale="  109.718">  1  9  2 -1</clus>
<clus scale="  127.190">  5  6 -1 -1</clus>
<clus scale="  109.718">  1  5  2 -1</clus>
</clustering>
</event>
<event>
 9    1  0.3288491E-005  0.1029952E+03  0.7546771E-02  0.1274636E+00
          2   -1    0    0  502    0 -0.00000000000E+00  0.00000000000E+00  0.69358131327E+02  0.69358131327E+02  0.00000000000E+00 0. -1.
         21   -1    0    0  501  502  0.00000000000E+00 -0.00000000000E+00 -0.42040689115E+03  0.42040689115E+03  0.00000000000E+00 0.  1.
         23    2    1    2    0    0 -0.38664295950E+02 -0.22322727275E+02 -0.29423409544E+02  0.10570729536E+03  0.91186969079E+02 0.  0.
         23    2    1    2    0    0  0.81609145158E+01  0.68042654472E+02 -0.86049087640E+02  0.14215497074E+03  0.90039918198E+02 0.  0.
        -11    1    4    4    0    0  0.40015434673E+02  0.57135693733E+02 -0.28238049231E+02  0.75253637352E+02  0.00000000000E+00 0.  1.
         11    1    4    4    0    0 -0.31854520157E+02  0.10906960739E+02 -0.57811038410E+02  0.66901333388E+02  0.00000000000E+00 0. -1.
        -13    1    3    3    0    0 -0.30338360386E+02  0.32861517963E+02 -0.20463454824E+02  0.49183823124E+02  0.00000000000E+00 0.  1.
         13    1    3    3    0    0 -0.83259355635E+01 -0.55184245238E+02 -0.89599547200E+01  0.56523472241E+02  0.00000000000E+00 0. -1.
          2    1    1    2  501    0  0.30503381434E+02 -0.45719927197E+02 -0.23557626263E+03  0.24190275637E+03  0.00000000000E+00 0. -1.
<scales pt_clust_5="13000.00000" pt_clust_6="13000.00000" pt_clust_7="13000.00000" pt_clust_8="13000.00000" pt_clust_9="54.96151"></scales>
<clustering>
<clus scale="   54.962">  2  9  1 -1</clus>
<clus scale="   90.040">  5  6 -1 -1</clus>
<clus scale="   91.187">  7  8 -1 -1</clus>
<clus scale="  101.981">  2  5  1 -1</clus>
<clus scale="   54.962">  2  5  1 -1</clus>
</clustering>
</event>
<event>
 9    1  0.3288491E-005  0.1147612E+03  0.7546771E-02  0.1252327E+00
         21   -1    0    0  501  502  0.00000000000E+00  0.00000000000E+00  0.83385810110E+02  0.83385810110E+02  0.00000000000E+00 0.  1.
         -3   -1    0    0    0  501 -0.00000000000E+00 -0.00000000000E+00 -0.35408743070E+03  0.35408743070E+03  0.00000000000E+00 0.  1.
         23    2    1    2    0    0 -0.62700132365E+02 -0.91002754855E+01 -0.16811037917E+03  0.20211569243E+03  0.92604167976E+02 0.  0.
         23    2    1    2    0    0  0.74120605257E+02 -0.12544979095E+02 -0.14444746870E+03  0.18687159155E+03  0.91677041229E+02 0.  0.
        -11    1    4    4    0    0 -0.73532772303E+01 -0.27006613162E+02 -0.70666872013E+02  0.76008122202E+02  0.00000000000E+00 0. -1.
         11    1    4    4    0    0  0.81473882487E+02  0.14461634067E+02 -0.73780596689E+02  0.11086346935E+03  0.00000000000E+00 0.  1.
        -13    1    3    3    0    0 -0.69366270494E+02 -0.40312015267E+02 -0.12317865745E+03  0.14700244797E+03  0.00000000000E+00 0.  1.
         13    1    3    3    0    0  0.66661381288E+01  0.31211739782E+02 -0.44931721723E+02  0.55113244458E+02  0.00000000000E+00 0. -1.
         -3    1    1    2    0  502 -0.11420472892E+02  0.21645254581E+02  0.41856227290E+02  0.48485956832E+02  0.00000000000E+00 0.  1.
<scales pt_clust_5="13000.00000" pt_clust_6="13000.00000" pt_clust_7="13000.00000" pt_clust_8="13000.00000" pt_clust_9="24.47334"></scales>
<clustering>
<clus scale="   24.473">  1  9  2 -1</clus>
<clus scale="   91.677">  5  6 -1 -1</clus>
<clus scale="   92.604">  7  8 -1 -1</clus>
<clus scale="  114.014">  1  5  2 -1</clus>
<clus scale="   24.473">  1  5  2 -1</clus>
</clustering>
</event>
<event>
 9    1  0.3288491E-005  0.1430355E+03  0.7546771E-02  0.1212172E+00
         21   -1    0    0  501  502  0.00000000000E+00  0.00000000000E+00  0.35283595043E+02  0.35283595043E+02  0.00000000000E+00 0.  1.
          2   -1    0    0  502    0 -0.00000000000E+00 -0.00000000000E+00 -0.70729969827E+03  0.70729969827E+03  0.00000000000E+00 0. -1.
         23    2    1    2    0    0 -0.57463948263E+01  0.10141764498E+03 -0.33741084792E+03  0.36543697845E+03  0.96848051898E+02 0.  0.
         23    2    1    2    0    0  0.39246827570E+02 -0.10538940170E+03 -0.26710620629E+03  0.30168655431E+03  0.83796253768E+02 0.  0.
        -11    1    4    4    0    0 -0.11439637805E+02 -0.62371897683E+02 -0.73978338940E+02  0.97436715698E+02  0.00000000000E+00 0.  1.
         11    1    4    4    0    0  0.50686465375E+02 -0.43017504014E+02 -0.19312786735E+03  0.20424983861E+03  0.00000000000E+00 0. -1.
        -13    1    3    3    0    0  0.19466510985E+02  0.10019571687E+03 -0.31683732033E+03  0.33287236935E+03  0.00000000000E+00 0. -1.
         13    1    3    3    0    0 -0.25212905811E+02  0.12219281111E+01 -0.20573527595E+02  0.32564609094E+02  0.00000000000E+00 0.  1.
          2    1    1    2  501    0 -0.33500432744E+02  0.39717567184E+01 -0.67499049016E+02  0.75459760558E+02  0.00000000000E+00 0. -1.
<scales pt_clust_5="13000.00000" pt_clust_6="13000.00000" pt_clust_7="13000.00000" pt_clust_8="13000.00000" pt_clust_9="33.73505"></scales>
<clustering>
<clus scale="   33.735">  1  9  2 -1</clus>
<clus scale="   83.796">  5  6 -1 -1</clus>
<clus scale="   96.848">  7  8 -1 -1</clus>
<clus scale="  134.542">  1  5  2 -1</clus>
<clus scale="   33.735">  1  5  2 -1</clus>
</clustering>
</event>
<event>
 9    1  0.3288491E-005  0.9714666E+02  0.7546771E-02  0.1287323E+00
          1   -1    0    0  502    0 -0.00000000000E+00  0.00000000000E+00  0.30581304644E+03  0.30581304644E+03  0.00000000000E+00 0. -1.
         21   -1    0    0  501  502  0.00000000000E+00 -0.00000000000E+00 -0.10135853006E+03  0.10135853006E+03  0.00000000000E+00 0. -1.
         23    2    1    2    0    0 -0.79475327390E+01  0.25421667876E+02  0.17637184203E+03  0.20085332663E+03  0.92334217289E+02 0.  0.
         23    2    1    2    0    0  0.52990624579E+02 -0.90790142886E+01  0.82502994330E+02  0.13380939747E+03  0.90596776895E+02 0.  0.
        -11    1    3    3    0    0 -0.26508097435E+02 -0.28192934668E+02  0.60164102875E+02  0.71534887080E+02  0.00000000000E+00 0.  1.
         11    1    3    3    0    0  0.18560564696E+02  0.53614602543E+02  0.11620773916E+03  0.12931843955E+03  0.00000000000E+00 0. -1.
        -13    1    4    4    0    0  0.46906212801E+02  0.35050386064E+02  0.33000716618E+02  0.67214356055E+02  0.00000000000E+00 0. -1.
         13    1    4    4    0    0  0.60844117778E+01 -0.44129400353E+02  0.49502277713E+02  0.66595041414E+02  0.00000000000E+00 0.  1.
          1    1    1    2  501    0 -0.45043091840E+02 -0.16342653587E+02 -0.54420319980E+02  0.72508852394E+02  0.00000000000E+00 0. -1.
<scales pt_clust_5="13000.00000" pt_clust_6="13000.00000" pt_clust_7="13000.00000" pt_clust_8="13000.00000" pt_clust_9="47.91620"></scales>
<clustering>
<clus scale="   47.916">  2  9  1 -1</clus>
<clus scale="   90.597">  7  8 -1 -1</clus>
<clus scale="   92.334">  5  6 -1 -1</clus>
<clus scale="   95.497">  2  7  1 -1</clus>
<clus scale="   47.916">  2  5  1 -1</clus>
</clustering>
</event>
<event>
 9    1  0.3288491E-005  0.9460088E+02  0.7546771E-02  0.1293565E+00
          2   -1    0    0  502    0 -0.00000000000E+00  0.00000000000E+00  0.32733737969E+03  0.32733737969E+03  0.00000000000E+00 0. -1.
         21   -1    0    0  501  502  0.00000000000E+00 -0.00000000000E+00 -0.12566209676E+03  0.12566209676E+03  0.00000000000E+00 0. -1.
         23    2    1    2    0    0  0.58719473525E+01  0.25388115102E+02  0.22189011957E+03  0.24093293689E+03  0.90191012632E+02 0.  0.
         23    2    1    2    0    0  0.17096750517E+02 -0.11798989286E+00  0.68749538522E+02  0.11677330603E+03  0.92828837949E+02 0.  0.
        -13    1    3    3    0    0 -0.22670383423E+02  0.33421579164E+02  0.20010360241E+03  0.20413818834E+03  0.00000000000E+00 0.  1.
         13    1    3    3    0    0  0.28542330776E+02 -0.80334640619E+01  0.21786517154E+02  0.36794748548E+02  0.00000000000E+00 0. -1.
        -13    1    4    4    0    0  0.48540321423E+02  0.18657134410E+02  0.19809361431E+02  0.55647661843E+02  0.00000000000E+00 0. -1.
         13    1    4    4    0    0 -0.31443570907E+02 -0.18775124302E+02  0.48940177091E+02  0.61125644190E+02  0.00000000000E+00 0.  1.
          2    1    1    2  501    0 -0.22968697869E+02 -0.25270125209E+02 -0.88964375154E+02  0.95293233529E+02  0.00000000000E+00 0. -1.
<scales pt_clust_5="13000.00000" pt_clust_6="13000.00000" pt_clust_7="13000.00000" pt_clust_8="13000.00000" pt_clust_9="34.14880"></scales>
<clustering>
<clus scale="   34.149">  2  9  1 -1</clus>
<clus scale="   90.191">  5  6 -1 -1</clus>
<clus scale="   92.014">  1  5  2 -1</clus>
<clus scale="   92.829">  7  8 -1 -1</clus>
<clus scale="   34.149">  2  5  1 -1</clus>
</clustering>
</event>
<event>
 9    1  0.3288491E-005  0.1088331E+03  0.7546771E-02  0.1262767E+00
          1   -1    0    0  502    0 -0.00000000000E+00  0.00000000000E+00  0.10582311911E+03  0.10582311911E+03  0.00000000000E+00 0. -1.
         21   -1    0    0  501  502  0.00000000000E+00 -0.00000000000E+00 -0.29961769104E+03  0.29961769104E+03  0.00000000000E+00 0. -1.
         23    2    1    2    0    0 -0.28996370835E+02 -0.39283335020E+02  0.27077191815E+02  0.10730283728E+03  0.91633807293E+02 0.  0.
         23    2    1    2    0    0  0.64723204471E+02  0.58603202185E+02 -0.75827867188E+02  0.14751461532E+03  0.91582027650E+02 0.  0.
        -11    1    4    4    0    0  0.48827036671E+02 -0.10098507776E+02 -0.96043452942E+01  0.50776991029E+02  0.00000000000E+00 0. -1.
         11    1    4    4    0    0  0.15896167799E+02  0.68701709960E+02 -0.66223521894E+02  0.96737624295E+02  0.00000000000E+00 0.  1.
        -13    1    3    3    0    0  0.33042787613E+02 -0.73998703619E+01  0.12117949091E+02  0.35964268167E+02  0.00000000000E+00 0. -1.
         13    1    3    3    0    0 -0.62039158449E+02 -0.31883464658E+02  0.14959242723E+02  0.71338569109E+02  0.00000000000E+00 0.  1.
          1    1    1    2  501    0 -0.35726833635E+02 -0.19319867165E+02 -0.14504389656E+03  0.15062335755E+03  0.00000000000E+00 0. -1.
<scales pt_clust_5="13000.00000" pt_clust_6="13000.00000" pt_clust_7="13000.00000" pt_clust_8="13000.00000" pt_clust_9="40.61605"></scales>
<clustering>
<clus scale="   40.616">  2  9  1 -1</clus>
<clus scale="   91.582">  5  6 -1 -1</clus>
<clus scale="   91.634">  7  8 -1 -1</clus>
<clus scale="  108.789">  2  5  1 -1</clus>
<clus scale="   40.616">  2  5  1 -1</clus>
</clustering>
</event>
<event>
 9    1  0.3288491E-005  0.1198630E+03  0.7546771E-02  0.1252426E+00
         -1   -1    0    0    0  501 -0.00000000000E+00  0.00000000000E+00  0.33319737917E+03  0.33319737917E+03  0.00000000000E+00 0.  1.
         21   -1    0    0  501  502  0.00000000000E+00 -0.00000000000E+00 -0.81030821575E+02  0.81030821575E+02  0.00000000000E+00 0. -1.
         23    2    1    2    0    0 -0.32818367167E+02 -0.48182220053E+02  0.12358191222E+03  0.16442300224E+03  0.91454158381E+02 0.  0.
         23    2    1    2    0    0  0.66419736683E+02  0.67791619970E+02  0.16232319706E+03  0.19830888341E+03  0.63010378325E+02 0.  0.
        -11    1    4    4    0    0  0.10314686547E+02  0.47864583217E+02  0.10406754788E+03  0.11501071953E+03  0.00000000000E+00 0.  1.
         11    1    4    4    0    0  0.56105050136E+02  0.19927036753E+02  0.58255649178E+02  0.83298163879E+02  0.00000000000E+00 0. -1.
        -13    1    3    3    0    0 -0.48979823850E+02 -0.19102752935E+02  0.21053438227E+02  0.56632018993E+02  0.00000000000E+00 0.  1.
         13    1    3    3    0    0  0.16161456684E+02 -0.29079467118E+02  0.10252847399E+03  0.10779098325E+03  0.00000000000E+00 0. -1.
         -1    1    1    2    0  502 -0.33601369516E+02 -0.19609399918E+02 -0.33738551684E+02  0.51496315094E+02  0.00000000000E+00 0.  1.
<scales pt_clust_5="13000.00000" pt_clust_6="13000.00000" pt_clust_7="13000.00000" pt_clust_8="13000.00000" pt_clust_9="38.90476"></scales>
<clustering>
<clus scale="   38.905">  2  9  1 -1</clus>
<clus scale="   63.010">  5  6 -1 -1</clus>
<clus scale="   91.454">  7  8 -1 -1</clus>
<clus scale="   99.868">  2  5  1 -1</clus>
<clus scale="   38.905">  2  5  1 -1</clus>
</clustering>
</event>
<event>
 9    1  0.3288491E-005  0.2022148E+03  0.7546771E-02  0.1178658E+00
          2   -1    0    0  502    0 -0.00000000000E+00  0.00000000000E+00  0.96429306314E+03  0.96429306314E+03  0.00000000000E+00 0. -1.
         21   -1    0    0  501  502  0.00000000000E+00 -0.00000000000E+00 -0.62063791952E+02  0.62063791952E+02  0.00000000000E+00 0.  1.
         23    2    1    2    0    0  0.15626240394E+02 -0.41912690533E+02  0.27978752989E+03  0.29684634407E+03  0.88520263735E+02 0.  0.
         23    2    1    2    0    0 -0.16037070960E+03  0.10915899424E+03  0.31888847869E+03  0.38655627213E+03  0.10050591605E+03 0.  0.
        -13    1    3    3    0    0 -0.27587034623E+00  0.27728273348E+02  0.75795258403E+02  0.80708453359E+02  0.00000000000E+00 0.  1.
         13    1    3    3    0    0  0.15902110740E+02 -0.69640963880E+02  0.20399227148E+03  0.21613789071E+03  0.00000000000E+00 0. -1.
        -13    1    4    4    0    0 -0.62186733419E+02  0.94123348470E+02  0.21515253959E+03  0.24293416769E+03  0.00000000000E+00 0. -1.
         13    1    4    4    0    0 -0.98183976182E+02  0.15035645774E+02  0.10373593910E+03  0.14362210444E+03  0.00000000000E+00 0.  1.
          2    1    1    2  501    0  0.14474446921E+03 -0.67246303712E+02  0.30355326261E+03  0.34295423889E+03  0.00000000000E+00 0. -1.
<scales pt_clust_5="13000.00000" pt_clust_6="13000.00000" pt_clust_7="13000.00000" pt_clust_8="13000.00000" pt_clust_9="175.46915"></scales>
<clustering>
<clus scale="   88.520">  5  6 -1 -1</clus>
<clus scale="   99.180">  1  5  2 -1</clus>
<clus scale="  100.506">  7  8 -1 -1</clus>
<clus scale="  175.469">  2  9  1 -1</clus>
<clus scale="  175.469">  2  5  1 -1</clus>
</clustering>
</event>
<event>
 9    1  0.3288491E-005  0.1033759E+03  0.7546771E-02  0.1274008E+00
         21   -1    0    0  501  502  0.00000000000E+00  0.00000000000E+00  0.51840839895E+02  0.51840839895E+02  0.00000000000E+00 0. -1.
         -1   -1    0    0    0  501 -0.00000000000E+00 -0.00000000000E+00 -0.42468064548E+03  0.42468064548E+03  0.00000000000E+00 0.  1.
         23    2    1    2    0    0 -0.41004188340E+02  0.15840366948E+02 -0.29479473296E+03  0.31139712485E+03  0.90177458925E+02 0.  0.
         23    2    1    2    0    0  0.58399879451E+02 -0.32910615794E+02 -0.40870887570E+02  0.12067299947E+03  0.91639995629E+02 0.  0.
        -13    1    4    4    0    0  0.59363607535E+01 -0.48353784263E+02 -0.44339994189E+02  0.65873848500E+02  0.00000000000E+00 0. -1.
         13    1    4    4    0    0  0.52463518697E+02  0.15443168469E+02  0.34691066185E+01  0.54799150972E+02  0.00000000000E+00 0.  1.
        -13    1    3    3    0    0 -0.73215710868E+01  0.42756035102E+02 -0.68852293513E+02  0.81377652109E+02  0.00000000000E+00 0.  1.
         13    1    3    3    0    0 -0.33682617254E+02 -0.26915668153E+02 -0.22594243945E+03  0.23001947274E+03  0.00000000000E+00 0. -1.
         -1    1    1    2    0  502 -0.17395691110E+02  0.17070248846E+02 -0.37174185053E+02  0.44451361050E+02  0.00000000000E+00 0.  1.
<scales pt_clust_5="13000.00000" pt_clust_6="13000.00000" pt_clust_7="13000.00000" pt_clust_8="13000.00000" pt_clust_9="24.37220"></scales>
<clustering>
<clus scale="   24.372">  1  9  2 -1</clus>
<clus scale="   90.177">  7  8 -1 -1</clus>
<clus scale="   91.640">  5  6 -1 -1</clus>
<clus scale="  102.082">  2  7  1 -1</clus>
<clus scale="   24.372">  1  5  2 -1</clus>
</clustering>
</event>
<event>
 9    1  0.3288491E-005  0.2147882E+03  0.7546771E-02  0.1138818E+00
         21   -1    0    0  501  502  0.00000000000E+00  0.00000000000E+00  0.45622447316E+02  0.45622447316E+02  0.00000000000E+00 0.  1.
          2   -1    0    0  502    0 -0.00000000000E+00 -0.00000000000E+00 -0.15931779318E+04  0.15931779318E+04  0.00000000000E+00 0. -1.
         23    2    1    2    0    0 -0.14513267657E+02  0.20373783561E+03 -0.86949546827E+03  0.89785143311E+03  0.91624701942E+02 0.  0.
         23    2    1    2    0    0  0.31470252518E+01 -0.18429156154E+03 -0.68777868725E+03  0.71641730091E+03  0.78999639212E+02 0.  0.
        -11    1    3    3    0    0 -0.37169645543E+02  0.19622642679E+03 -0.78967594861E+03  0.81453943854E+03  0.00000000000E+00 0. -1.
         11    1    3    3    0    0  0.22656377886E+02  0.75114088145E+01 -0.79819519655E+02  0.83311994570E+02  0.00000000000E+00 0.  1.
        -13    1    4    4    0    0 -0.24779859729E+02 -0.15035228562E+03 -0.58729683668E+03  0.60674329466E+03  0.00000000000E+00 0.  1.
         13    1    4    4    0    0  0.27926884981E+02 -0.33939275921E+02 -0.10048185056E+03  0.10967400625E+03  0.00000000000E+00 0. -1.
          2    1    1    2  501    0  0.11366242405E+02 -0.19446274065E+02  0.97186710703E+01  0.24531645049E+02  0.00000000000E+00 0. -1.
<scales pt_clust_5="13000.00000" pt_clust_6="13000.00000" pt_clust_7="13000.00000" pt_clust_8="13000.00000" pt_clust_9="22.52441"></scales>
<clustering>
<clus scale="   22.524">  1  9  2 -1</clus>
<clus scale="   79.000">  7  8 -1 -1</clus>
<clus scale="   91.625">  5  6 -1 -1</clus>
<clus scale="  209.714">  1  7  2 -1</clus>
<clus scale="   22.524">  1  5  2 -1</clus>
</clustering>
</event>
<event>
 9    1  0.3288491E-005  0.9548360E+02  0.7546771E-02  0.1291174E+00
          1   -1    0    0  502    0 -0.00000000000E+00  0.00000000000E+00  0.12999224765E+03  0.12999224765E+03  0.00000000000E+00 0. -1.
         21   -1    0    0  501  502  0.00000000000E+00 -0.00000000000E+00 -0.42796007858E+03  0.42796007858E+03  0.00000000000E+00 0. -1.
         23    2    1    2    0    0 -0.38718896297E+02  0.14287036381E+02  0.81064103348E+02  0.12860234636E+03  0.90906008044E+02 0.  0.
         23    2    1    2    0    0 -0.26374223546E+02  0.34020524484E+02 -0.10752508409E+03  0.14600089413E+03  0.88891066069E+02 0.  0.
        -11    1    3    3    0    0  0.24084603470E+02  0.10488352036E+02  0.54118014380E+02  0.60156738053E+02  0.00000000000E+00 0. -1.
         11    1    3    3    0    0 -0.62803499767E+02  0.37986843443E+01  0.26946088968E+02  0.68445608306E+02  0.00000000000E+00 0.  1.
        -11    1    4    4    0    0  0.52850006942E+01  0.58448400884E+02 -0.60859485592E+02  0.84545986213E+02  0.00000000000E+00 0.  1.
         11    1    4    4    0    0 -0.31659224240E+02 -0.24427876400E+02 -0.46665598493E+02  0.61454907922E+02  0.00000000000E+00 0. -1.
          1    1    1    2  501    0  0.65093119843E+02 -0.48307560865E+02 -0.27150685019E+03  0.28334908573E+03  0.00000000000E+00 0. -1.
<scales pt_clust_5="13000.00000" pt_clust_6="13000.00000" pt_clust_7="13000.00000" pt_clust_8="13000.00000" pt_clust_9="81.06007"></scales>
<clustering>
<clus scale="   81.060">  2  9  1 -1</clus>
<clus scale="   88.891">  7  8 -1 -1</clus>
<clus scale="   90.906">  5  6 -1 -1</clus>
<clus scale="   93.567">  2  7  1 -1</clus>
<clus scale="   81.060">  2  5  1 -1</clus>
</clustering>
</event>
<event>
 9    1  0.3288491E-005  0.8942840E+02  0.7546771E-02  0.1310279E+00
         21   -1    0    0  501  502  0.00000000000E+00  0.00000000000E+00  0.29578242428E+03  0.29578242428E+03  0.00000000000E+00 0. -1.
          2   -1    0    0  502    0 -0.00000000000E+00 -0.00000000000E+00 -0.80169086910E+02  0.80169086910E+02  0.00000000000E+00 0. -1.
         23    2    1    2    0    0 -0.35749276113E+02  0.25087850459E+02 -0.32864466187E+01  0.97663880422E+02  0.87292736379E+02 0.  0.
         23    2    1    2    0    0 -0.78157736563E+01  0.27389410474E+02  0.51400244193E+02  0.97434451896E+02  0.77718859932E+02 0.  0.
        -11    1    4    4    0    0 -0.15991163580E+00 -0.26503761072E+02  0.26823973517E+02  0.37709421607E+02  0.00000000000E+00 0. -1.
         11    1    4    4    0    0 -0.76558620205E+01  0.53893171546E+02  0.24576270676E+02  0.59725030289E+02  0.00000000000E+00 0.  1.
        -13    1    3    3    0    0 -0.23270660989E+02 -0.16034396317E+02  0.31541004434E+02  0.42349267867E+02  0.00000000000E+00 0.  1.
         13    1    3    3    0    0 -0.12478615123E+02  0.41122246776E+02 -0.34827451053E+02  0.55314612555E+02  0.00000000000E+00 0. -1.
          2    1    1    2  501    0  0.43565049769E+02 -0.52477260933E+02  0.16749953980E+03  0.18085317887E+03  0.00000000000E+00 0. -1.
<scales pt_clust_5="13000.00000" pt_clust_6="13000.00000" pt_clust_7="13000.00000" pt_clust_8="13000.00000" pt_clust_9="68.20393"></scales>
<clustering>
<clus scale="   68.204">  1  9  2 -1</clus>
<clus scale="   77.719">  5  6 -1 -1</clus>
<clus scale="   80.110">  1  5  2 -1</clus>
<clus scale="   87.293">  7  8 -1 -1</clus>
<clus scale="   68.204">  1  5  2 -1</clus>
</clustering>
</event>
<event>
 9    1  0.3288491E-005  0.1227419E+03  0.7546771E-02  0.1243784E+00
         21   -1    0    0  501  502  0.00000000000E+00  0.00000000000E+00  0.57513815797E+03  0.57513815797E+03  0.00000000000E+00 0. -1.
         -1   -1    0    0    0  501 -0.00000000000E+00 -0.00000000000E+00 -0.86196059610E+02  0.86196059610E+02  0.00000000000E+00 0.  1.
         23    2    1    2    0    0  0.72158480725E+02  0.36252730395E+02 -0.56787807502E+01  0.12271843732E+03  0.92230469511E+02 0.  0.
         23    2    1    2    0    0 -0.51003883384E+02 -0.79630492172E+02  0.46828397209E+03  0.48363596690E+03  0.75309086846E+02 0.  0.
        -11    1    3    3    0    0  0.40685476096E+02  0.42745882670E+02 -0.43334144235E+02  0.73214523880E+02  0.00000000000E+00 0.  1.
         11    1    3    3    0    0  0.31473004629E+02 -0.64931522746E+01  0.37655363485E+02  0.49503913442E+02  0.00000000000E+00 0. -1.
        -13    1    4    4    0    0 -0.31636438596E+02 -0.87169092596E+02  0.43182286059E+03  0.44166763282E+03  0.00000000000E+00 0. -1.
         13    1    4    4    0    0 -0.19367444789E+02  0.75386004243E+01  0.36461111499E+02  0.41968334083E+02  0.00000000000E+00 0.  1.
         -1    1    1    2    0  502 -0.21154597341E+02  0.43377761777E+02  0.26336907023E+02  0.54979813358E+02  0.00000000000E+00 0.  1.
<scales pt_clust_5="13000.00000" pt_clust_6="13000.00000" pt_clust_7="13000.00000" pt_clust_8="13000.00000" pt_clust_9="48.26126"></scales>
<clustering>
<clus scale="   48.261">  1  9  2 -1</clus>
<clus scale="   75.309">  7  8 -1 -1</clus>
<clus scale="   92.230">  5  6 -1 -1</clus>
<clus scale="  110.592">  1  7  2 -1</clus>
<clus scale="   48.261">  1  5  2 -1</clus>
</clustering>
</event>
<event>
 9    1  0.3288491E-005  0.1188339E+03  0.7546771E-02  0.1245780E+00
          1   -1    0    0  502    0 -0.00000000000E+00  0.00000000000E+00  0.69255799602E+03  0.69255799602E+03  0.00000000000E+00 0. -1.
         21   -1    0    0  501  502  0.00000000000E+00 -0.00000000000E+00 -0.10184616085E+03  0.10184616085E+03  0.00000000000E+00 0. -1.
         23    2    1    2    0    0 -0.60998723848E+02  0.36893865707E+02  0.52156393527E+03  0.53394328999E+03  0.89356011017E+02 0.  0.
         23    2    1    2    0    0  0.88814992073E+02 -0.10418715484E+03  0.72956325328E+01  0.16492116562E+03  0.91666234593E+02 0.  0.
        -11    1    3    3    0    0  0.21948490140E+02  0.19427948966E+02  0.11969580412E+03  0.12323257258E+03  0.00000000000E+00 0.  1.
         11    1    3    3    0    0 -0.82947213988E+02  0.17465916740E+02  0.40186813115E+03  0.41071071741E+03  0.00000000000E+00 0. -1.
        -11    1    4    4    0    0  0.77996622455E+02 -0.22925646111E+02 -0.74138798397E+01  0.81633473393E+02  0.00000000000E+00 0.  1.
         11    1    4    4    0    0  0.10818369618E+02 -0.81261508726E+02  0.14709512373E+02  0.83287692224E+02  0.00000000000E+00 0. -1.
          1    1    1    2  501    0 -0.27816268225E+02  0.67293289131E+02  0.61852267364E+02  0.95539701266E+02  0.00000000000E+00 0. -1.
<scales pt_clust_5="13000.00000" pt_clust_6="13000.00000" pt_clust_7="13000.00000" pt_clust_8="13000.00000" pt_clust_9="72.81574"></scales>
<clustering>
<clus scale="   72.816">  2  9  1 -1</clus>
<clus scale="   89.356">  5  6 -1 -1</clus>
<clus scale="   91.666">  7  8 -1 -1</clus>
<clus scale="  117.061">  1  5  2 -1</clus>
<clus scale="   72.816">  2  5  1 -1</clus>
</clustering>
</event>
<event>
 9    1  0.3288491E-005  0.1075407E+03  0.7546771E-02  0.1265548E+00
         21   -1    0    0  501  502  0.00000000000E+00  0.00000000000E+00  0.11875474779E+03  0.11875474779E+03  0.00000000000E+00 0. -1.
          1   -1    0    0  502    0 -0.00000000000E+00 -0.00000000000E+00 -0.16039398364E+03  0.16039398364E+03  0.00000000000E+00 0. -1.
         23    2    1    2    0    0  0.19166038667E+02 -0.65930806213E+02 -0.78447209768E+02  0.13825461808E+03  0.90808405197E+02 0.  0.
         23    2    1    2    0    0 -0.23255794481E+02  0.30934293203E+02  0.13942073474E+02  0.98890167956E+02  0.89928423942E+02 0.  0.
        -13    1    3    3    0    0  0.91078374812E+01 -0.36159738546E+02  0.14599108694E+02  0.40045141652E+02  0.00000000000E+00 0.  1.
         13    1    3    3    0    0  0.10058201185E+02 -0.29771067667E+02 -0.93046318463E+02  0.98209476430E+02  0.00000000000E+00 0. -1.
        -13    1    4    4    0    0 -0.53530386698E+02  0.38920050074E+02  0.52266951121E+01  0.66389690010E+02  0.00000000000E+00 0.  1.
         13    1    4    4    0    0  0.30274592217E+02 -0.79857568715E+01  0.87153783620E+01  0.32500477946E+02  0.00000000000E+00 0. -1.
          1    1    1    2  501    0  0.40897558145E+01  0.34996513010E+02  0.22865900449E+02  0.42003945396E+02  0.00000000000E+00 0. -1.
<scales pt_clust_5="13000.00000" pt_clust_6="13000.00000" pt_clust_7="13000.00000" pt_clust_8="13000.00000" pt_clust_9="35.23467"></scales>
<clustering>
<clus scale="   35.235">  1  9  2 -1</clus>
<clus scale="   89.928">  7  8 -1 -1</clus>
<clus scale="   90.808">  5  6 -1 -1</clus>
<clus scale="  106.799">  1  7  2 -1</clus>
<clus scale="   35.235">  1  5  2 -1</clus>
</clustering>
</event>
<event>
 9    1  0.3288491E-005  0.1025452E+03  0.7546771E-02  0.1276004E+00
          2   -1    0    0  502    0 -0.00000000000E+00  0.00000000000E+00  0.21229336866E+03  0.21229336866E+03  0.00000000000E+00 0. -1.
         21   -1    0    0  501  502  0.00000000000E+00 -0.00000000000E+00 -0.26675968133E+03  0.26675968133E+03  0.00000000000E+00 0.  1.
         23    2    1    2    0    0 -0.24513015195E+02 -0.36527962817E+02  0.17731981268E+03  0.20372537774E+03  0.90147288290E+02 0.  0.
         23    2    1    2    0    0  0.47835989479E+02  0.31542929564E+02 -0.12355155618E+03  0.16449656809E+03  0.92254515239E+02 0.  0.
        -11    1    3    3    0    0  0.29523295661E+02 -0.10615639911E+02  0.25247746771E+02  0.40271149902E+02  0.00000000000E+00 0.  1.
         11    1    3    3    0    0 -0.54036310856E+02 -0.25912322906E+02  0.15207206591E+03  0.16345422784E+03  0.00000000000E+00 0. -1.
        -13    1    4    4    0    0 -0.16755910797E+02  0.16533419633E+02 -0.84107249768E+02  0.87339246475E+02  0.00000000000E+00 0. -1.
         13    1    4    4    0    0  0.64591900275E+02  0.15009509931E+02 -0.39444306415E+02  0.77157321610E+02  0.00000000000E+00 0.  1.
          2    1    1    2  501    0 -0.23322974283E+02  0.49850332532E+01 -0.10823456917E+03  0.11083110416E+03  0.00000000000E+00 0. -1.
<scales pt_clust_5="13000.00000" pt_clust_6="13000.00000" pt_clust_7="13000.00000" pt_clust_8="13000.00000" pt_clust_9="23.84977"></scales>
<clustering>
<clus scale="   23.850">  2  9  1 -1</clus>
<clus scale="   90.147">  5  6 -1 -1</clus>
<clus scale="   92.255">  7  8 -1 -1</clus>
<clus scale="  100.654">  1  5  2 -1</clus>
<clus scale="   23.850">  2  5  1 -1</clus>
</clustering>
</event>
<event>
 9    1  0.3288491E-005  0.1432756E+03  0.7546771E-02  0.1209257E+00
         21   -1    0    0  501  502  0.00000000000E+00  0.00000000000E+00  0.25549287561E+03  0.25549287561E+03  0.00000000000E+00 0.  1.
          1   -1    0    0  502    0 -0.00000000000E+00 -0.00000000000E+00 -0.28241894032E+03  0.28241894032E+03  0.00000000000E+00 0. -1.
         23    2    1    2    0    0 -0.58646431799E+02  0.82980576407E+02 -0.17841777863E+03  0.22523575524E+03  0.92590829364E+02 0.  0.
         23    2    1    2    0    0  0.53504378281E+02 -0.13349518444E+03  0.19763975253E+02  0.17150112143E+03  0.91314495956E+02 0.  0.
        -11    1    3    3    0    0  0.25123132353E+02  0.22881955771E+02 -0.51824323631E+02  0.61971898462E+02  0.00000000000E+00 0. -1.
         11    1    3    3    0    0 -0.83769564152E+02  0.60098620636E+02 -0.12659345500E+03  0.16326385678E+03  0.00000000000E+00 0.  1.
        -13    1    4    4    0    0  0.51485598485E+02 -0.62881532910E+02 -0.28301652241E+02  0.86057176064E+02  0.00000000000E+00 0. -1.
         13    1    4    4    0    0  0.20187797961E+01 -0.70613651528E+02  0.48065627494E+02  0.85443945370E+02  0.00000000000E+00 0.  1.
          1    1    1    2  501    0  0.51420535180E+01  0.50514608031E+02  0.13172773867E+03  0.14117493925E+03  0.00000000000E+00 0. -1.
<scales pt_clust_5="13000.00000" pt_clust_6="13000.00000" pt_clust_7="13000.00000" pt_clust_8="13000.00000" pt_clust_9="50.77565"></scales>
<clustering>
<clus scale="   50.776">  1  9  2 -1</clus>
<clus scale="   91.314">  7  8 -1 -1</clus>
<clus scale="   92.591">  5  6 -1 -1</clus>
<clus scale="  142.454">  1  7  2 -1</clus>
<clus scale="   50.776">  1  5  2 -1</clus>
</clustering>
</event>
<event>
 9    1  0.3288491E-005  0.1424670E+03  0.7546771E-02  0.1212357E+00
          1   -1    0    0  502    0 -0.00000000000E+00  0.00000000000E+00  0.34043082289E+03  0.34043082289E+03  0.00000000000E+00 0. -1.
         21   -1    0    0  501  502  0.00000000000E+00 -0.00000000000E+00 -0.86461305195E+02  0.86461305195E+02  0.00000000000E+00 0.  1.
         23    2    1    2    0    0  0.60435411231E+02 -0.52560480910E+02  0.77134224158E+02  0.15019284014E+03  0.10096116881E+03 0.  0.
         23    2    1    2    0    0 -0.11673613231E+03  0.45298194491E+02  0.11573306955E+03  0.19329668743E+03  0.91050617630E+02 0.  0.
        -11    1    4    4    0    0 -0.44776321167E+02 -0.20491776444E+02  0.11496337116E+02  0.50566763849E+02  0.00000000000E+00 0.  1.
         11    1    4    4    0    0 -0.71959811145E+02  0.65789970934E+02  0.10423673244E+03  0.14272992358E+03  0.00000000000E+00 0. -1.
        -13    1    3    3    0    0  0.60778121530E+01 -0.55838272500E+02  0.77526481366E+02  0.95735091734E+02  0.00000000000E+00 0.  1.
         13    1    3    3    0    0  0.54357599078E+02  0.32777915906E+01 -0.39225720811E+00  0.54457748402E+02  0.00000000000E+00 0. -1.
          1    1    1    2  501    0  0.56300721080E+02  0.72622864190E+01  0.61102223989E+02  0.83402600527E+02  0.00000000000E+00 0. -1.
<scales pt_clust_5="13000.00000" pt_clust_6="13000.00000" pt_clust_7="13000.00000" pt_clust_8="13000.00000" pt_clust_9="56.76720"></scales>
<clustering>
<clus scale="   56.767">  2  9  1 -1</clus>
<clus scale="   91.051">  5  6 -1 -1</clus>
<clus scale="  100.961">  7  8 -1 -1</clus>
<clus scale="  135.624">  2  5  1 -1</clus>
<clus scale="   56.767">  2  5  1 -1</clus>
</clustering>
</event>
<event>
 9    1  0.3288491E-005  0.9187474E+02  0.7546771E-02  0.1298554E+00
         -1   -1    0    0    0  501 -0.00000000000E+00  0.00000000000E+00  0.30243596769E+02  0.30243596769E+02  0.00000000000E+00 0.  1.
         21   -1    0    0  501  502  0.00000000000E+00 -0.00000000000E+00 -0.47552703333E+03  0.47552703333E+03  0.00000000000E+00 0. -1.
         23    2    1    2    0    0  0.10549962799E+02  0.61360772834E-01 -0.91874443902E+02  0.12941411452E+03  0.90530625285E+02 0.  0.
         23    2    1    2    0    0 -0.21019430839E+02 -0.19049314438E+02 -0.19783652997E+03  0.21928028156E+03  0.90221152944E+02 0.  0.
        -11    1    3    3    0    0  0.10584238556E+02  0.36465948865E+02 -0.91855322604E+01  0.39066168680E+02  0.00000000000E+00 0.  1.
         11    1    3    3    0    0 -0.34275756721E-01 -0.36404588092E+02 -0.82688911641E+02  0.90347945840E+02  0.00000000000E+00 0. -1.
        -13    1    4    4    0    0 -0.31713039602E+02 -0.50807017624E+02 -0.14270561316E+03  0.15476421405E+03  0.00000000000E+00 0. -1.
         13    1    4    4    0    0  0.10693608763E+02  0.31757703186E+02 -0.55130916802E+02  0.64516067514E+02  0.00000000000E+00 0.  1.
         -1    1    1    2    0  502  0.10469468040E+02  0.18987953665E+02 -0.15557246270E+03  0.15707623402E+03  0.00000000000E+00 0.  1.
<scales pt_clust_5="13000.00000" pt_clust_6="13000.00000" pt_clust_7="13000.00000" pt_clust_8="13000.00000" pt_clust_9="21.68299"></scales>
<clustering>
<clus scale="   21.683">  2  9  1 -1</clus>
<clus scale="   90.221">  7  8 -1 -1</clus>
<clus scale="   90.531">  5  6 -1 -1</clus>
<clus scale="   91.570">  2  7  1 -1</clus>
<clus scale="   21.683">  2  5  1 -1</clus>
</clustering>
</event>
<event>
 9    1  0.3288491E-005  0.1099473E+03  0.7546771E-02  0.1263697E+00
         -1   -1    0    0    0  501 -0.00000000000E+00  0.00000000000E+00  0.50867167097E+03  0.50867167097E+03  0.00000000000E+00 0.  1.
         21   -1    0    0  501  502  0.00000000000E+00 -0.00000000000E+00 -0.48383156772E+02  0.48383156772E+02  0.00000000000E+00 0.  1.
         23    2    1    2    0    0 -0.41919266330E+02  0.41405138281E+02  0.27629186931E+03  0.29691824390E+03  0.91387286578E+02 0.  0.
         23    2    1    2    0    0  0.37905533033E+02 -0.10240048171E+02  0.19886518342E+03  0.22537386911E+03  0.98510566337E+02 0.  0.
        -13    1    3    3    0    0 -0.23356532792E+02  0.58550926930E+02  0.25834353947E+03  0.26592315253E+03  0.00000000000E+00 0.  1.
         13    1    3    3    0    0 -0.18562733538E+02 -0.17145788649E+02  0.17948329846E+02  0.30995091370E+02  0.00000000000E+00 0. -1.
        -13    1    4    4    0    0 -0.64976447225E+01  0.31340410299E+02  0.23359661935E+02  0.39624670477E+02  0.00000000000E+00 0.  1.
         13    1    4    4    0    0  0.44403177755E+02 -0.41580458470E+02  0.17550552149E+03  0.18574919864E+03  0.00000000000E+00 0. -1.
         -1    1    1    2    0  502  0.40137332973E+01 -0.31165090110E+02 -0.14868538542E+02  0.34762714723E+02  0.00000000000E+00 0.  1.
<scales pt_clust_5="13000.00000" pt_clust_6="13000.00000" pt_clust_7="13000.00000" pt_clust_8="13000.00000" pt_clust_9="31.42249"></scales>
<clustering>
<clus scale="   31.422">  2  9  1 -1</clus>
<clus scale="   91.387">  5  6 -1 -1</clus>
<clus scale="   98.511">  7  8 -1 -1</clus>
<clus scale="  103.613">  1  5  2 -1</clus>
<clus scale="   31.422">  2  5  1 -1</clus>
</clustering>
</event>
<event>
 9    1  0.3288491E-005  0.1388104E+03  0.7546771E-02  0.1231846E+00
          1   -1    0    0  502    0 -0.00000000000E+00  0.00000000000E+00  0.14052867008E+03  0.14052867008E+03  0.00000000000E+00 0. -1.
         21   -1    0    0  501  502  0.00000000000E+00 -0.00000000000E+00 -0.55996307968E+03  0.55996307968E+03  0.00000000000E+00 0. -1.
         23    2    1    2    0    0  0.33267742944E+02  0.10116398536E+02 -0.18060183489E+03  0.20525139268E+03  0.91115460763E+02 0.  0.
         23    2    1    2    0    0  0.72747119352E+02 -0.27541606691E+02  0.89941750485E+02  0.14935692901E+03  0.90373061747E+02 0.  0.
        -11    1    4    4    0    0  0.54756849311E+02 -0.18008202276E+02  0.51773919014E+00  0.57644392178E+02  0.00000000000E+00 0.  1.
         11    1    4    4    0    0  0.17990270041E+02 -0.95334044142E+01  0.89424011295E+02  0.91712536830E+02  0.00000000000E+00 0. -1.
        -13    1    3    3    0    0 -0.18679662643E+02 -0.24814354525E+02 -0.35183073196E+02  0.46931126414E+02  0.00000000000E+00 0.  1.
         13    1    3    3    0    0  0.51947405587E+02  0.34930753062E+02 -0.14541876170E+03  0.15832026627E+03  0.00000000000E+00 0. -1.
          1    1    1    2  501    0 -0.10601486230E+03  0.17425208154E+02 -0.32877432519E+03  0.34588342807E+03  0.00000000000E+00 0. -1.
<scales pt_clust_5="13000.00000" pt_clust_6="13000.00000" pt_clust_7="13000.00000" pt_clust_8="13000.00000" pt_clust_9="105.36141"></scales>
<clustering>
<clus scale="   90.373">  5  6 -1 -1</clus>
<clus scale="   91.115">  7  8 -1 -1</clus>
<clus scale="   97.525">  1  7  2 -1</clus>
<clus scale="  105.361">  2  9  1 -1</clus>
<clus scale="  105.361">  2  5  1 -1</clus>
</clustering>
</event>
<event>
 9    1  0.3288491E-005  0.1833185E+03  0.7546771E-02  0.1164894E+00
          1   -1    0    0  502    0 -0.00000000000E+00  0.00000000000E+00  0.89244010524E+03  0.89244010524E+03  0.00000000000E+00 0. -1.
         21   -1    0    0  501  502  0.00000000000E+00 -0.00000000000E+00 -0.89650843919E+02  0.89650843919E+02  0.00000000000E+00 0. -1.
         23    2    1    2    0    0 -0.86763278643E+02  0.16538232527E+03  0.57993715814E+03  0.61599051805E+03  0.90763599043E+02 0.  0.
         23    2    1    2    0    0  0.43139926639E+02 -0.11922620216E+03  0.25244707465E+03  0.29603441313E+03  0.88492416091E+02 0.  0.
        -11    1    3    3    0    0 -0.62863294490E+01  0.47433397503E+02  0.27682957218E+03  0.28093425774E+03  0.00000000000E+00 0.  1.
         11    1    3    3    0    0 -0.80476949194E+02  0.11794892777E+03  0.30310758596E+03  0.33505626032E+03  0.00000000000E+00 0. -1.
        -11    1    4    4    0    0  0.50896981138E+02 -0.45964164094E+02  0.64425980291E+02  0.94095239020E+02  0.00000000000E+00 0.  1.
         11    1    4    4    0    0 -0.77570544985E+01 -0.73262038069E+02  0.18802109436E+03  0.20193917411E+03  0.00000000000E+00 0. -1.
          1    1    1    2  501    0  0.43623352004E+02 -0.46156123106E+02 -0.29594971458E+02  0.70066017982E+02  0.00000000000E+00 0. -1.
<scales pt_clust_5="13000.00000" pt_clust_6="13000.00000" pt_clust_7="13000.00000" pt_clust_8="13000.00000" pt_clust_9="63.50893"></scales>
<clustering>
<clus scale="   63.509">  2  9  1 -1</clus>
<clus scale="   88.492">  7  8 -1 -1</clus>
<clus scale="   90.764">  5  6 -1 -1</clus>
<clus scale="  182.205">  2  7  1 -1</clus>
<clus scale="   63.509">  2  5  1 -1</clus>
</clustering>
</event>
<event>
 9    1  0.3288491E-005  0.9552725E+02  0.7546771E-02  0.1290929E+00
         21   -1    0    0  501  502  0.00000000000E+00  0.00000000000E+00  0.28321357518E+03  0.28321357518E+03  0.00000000000E+00 0.  1.
         -3   -1    0    0    0  501 -0.00000000000E+00 -0.00000000000E+00 -0.73776106178E+02  0.73776106178E+02  0.00000000000E+00 0.  1.
         23    2    1    2    0    0  0.19481558654E+02  0.11136477977E+02 -0.17470345135E+02  0.96633531452E+02  0.92354069604E+02 0.  0.
         23    2    1    2    0    0 -0.40613426441E+02  0.71808289204E+01  0.18168949503E+03  0.20718871672E+03  0.90637062082E+02 0.  0.
        -11    1    4    4    0    0 -0.58904640421E+02 -0.12401919619E+01  0.17695132871E+03  0.18650219160E+03  0.00000000000E+00 0.  1.
         11    1    4    4    0    0  0.18291213981E+02  0.84210208823E+01  0.47381663159E+01  0.20686525122E+02  0.00000000000E+00 0. -1.
        -13    1    3    3    0    0 -0.18821186555E+02 -0.77149641049E+01  0.27775273249E+02  0.34427075660E+02  0.00000000000E+00 0. -1.
         13    1    3    3    0    0  0.38302745209E+02  0.18851442082E+02 -0.45245618385E+02  0.62206455791E+02  0.00000000000E+00 0.  1.
         -3    1    1    2    0  502  0.21131867786E+02 -0.18317306897E+02  0.45218319108E+02  0.53167433181E+02  0.00000000000E+00 0.  1.
<scales pt_clust_5="13000.00000" pt_clust_6="13000.00000" pt_clust_7="13000.00000" pt_clust_8="13000.00000" pt_clust_9="27.96569"></scales>
<clustering>
<clus scale="   27.966">  1  9  2 -1</clus>
<clus scale="   90.637">  5  6 -1 -1</clus>
<clus scale="   92.354">  7  8 -1 -1</clus>
<clus scale="   93.868">  1  5  2 -1</clus>
<clus scale="   27.966">  1  5  2 -1</clus>
</clustering>
</event>
<event>
 9    1  0.3288491E-005  0.1083627E+03  0.7546771E-02  0.1265609E+00
         -2   -1    0    0    0  501 -0.00000000000E+00  0.00000000000E+00  0.37902412286E+03  0.37902412286E+03  0.00000000000E+00 0.  1.
         21   -1    0    0  501  502  0.00000000000E+00 -0.00000000000E+00 -0.66305665043E+02  0.66305665043E+02  0.00000000000E+00 0.  1.
         23    2    1    2    0    0 -0.97952882867E+01 -0.16850147517E+02  0.74719496569E+02  0.11630051588E+03  0.86965117615E+02 0.  0.
         23    2    1    2    0    0  0.15106472160E+02  0.10257846532E+03  0.17122921369E+03  0.22023702811E+03  0.91838760238E+02 0.  0.
        -13    1    4    4    0    0 -0.16321462144E+02  0.25736596385E+02  0.59868246785E+00  0.30481485212E+02  0.00000000000E+00 0.  1.
         13    1    4    4    0    0  0.31427934304E+02  0.76841868935E+02  0.17063053122E+03  0.18975554290E+03  0.00000000000E+00 0. -1.
        -13    1    3    3    0    0  0.26475781573E+02  0.12559878156E+01  0.70768436986E+02  0.75569280722E+02  0.00000000000E+00 0.  1.
         13    1    3    3    0    0 -0.36271069860E+02 -0.18106135333E+02  0.39510595827E+01  0.40731235156E+02  0.00000000000E+00 0. -1.
         -2    1    1    2    0  502 -0.53111838728E+01 -0.85728317803E+02  0.66769747562E+02  0.10879224392E+03  0.00000000000E+00 0.  1.
<scales pt_clust_5="13000.00000" pt_clust_6="13000.00000" pt_clust_7="13000.00000" pt_clust_8="13000.00000" pt_clust_9="85.89268"></scales>
<clustering>
<clus scale="   85.893">  2  9  1 -1</clus>
<clus scale="   86.965">  7  8 -1 -1</clus>
<clus scale="   91.839">  5  6 -1 -1</clus>
<clus scale="  104.264">  1  7  2 -1</clus>
<clus scale="   85.893">  2  5  1 -1</clus>
</clustering>
</event>
<event>
 9    1  0.3288491E-005  0.9258622E+02  0.7546771E-02  0.1298599E+00
          3   -1    0    0  502    0 -0.00000000000E+00  0.00000000000E+00  0.42394051157E+03  0.42394051157E+03  0.00000000000E+00 0. -1.
         21   -1    0    0  501  502  0.00000000000E+00 -0.00000000000E+00 -0.18007140320E+03  0.18007140320E+03  0.00000000000E+00 0. -1.
         23    2    1    2    0    0 -0.14264762894E+02 -0.16705737169E+02  0.34547019084E+03  0.35805424458E+03  0.91491115347E+02 0.  0.
         23    2    1    2    0    0 -0.31076619144E+02 -0.10460436410E+02  0.34242416968E+02  0.10019314002E+03  0.88266331068E+02 0.  0.
        -11    1    3    3    0    0  0.30862335981E+02 -0.25430232025E+02  0.23540657426E+03  0.23877905202E+03  0.00000000000E+00 0.  1.
         11    1    3    3    0    0 -0.45127098875E+02  0.87244948556E+01  0.11006361659E+03  0.11927519256E+03  0.00000000000E+00 0. -1.
        -13    1    4    4    0    0  0.25279519333E+02 -0.66593134219E+01 -0.10463134336E+02  0.28158084684E+02  0.00000000000E+00 0.  1.
         13    1    4    4    0    0 -0.56356138477E+02 -0.38011229885E+01  0.44705551305E+02  0.72035055337E+02  0.00000000000E+00 0. -1.
          3    1    1    2  501    0  0.45341382038E+02  0.27166173580E+02 -0.13584349945E+03  0.14576453017E+03  0.00000000000E+00 0. -1.
<scales pt_clust_5="13000.00000" pt_clust_6="13000.00000" pt_clust_7="13000.00000" pt_clust_8="13000.00000" pt_clust_9="52.85681"></scales>
<clustering>
<clus scale="   52.857">  2  9  1 -1</clus>
<clus scale="   88.266">  7  8 -1 -1</clus>
<clus scale="   89.401">  2  7  1 -1</clus>
<clus scale="   91.491">  5  6 -1 -1</clus>
<clus scale="   52.857">  2  5  1 -1</clus>
</clustering>
</event>
<event>
 9    1  0.3288491E-005  0.9322942E+02  0.7546771E-02  0.1298468E+00
         -1   -1    0    0    0  501 -0.00000000000E+00  0.00000000000E+00  0.54986782334E+03  0.54986782334E+03  0.00000000000E+00 0.  1.
         21   -1    0    0  501  502  0.00000000000E+00 -0.00000000000E+00 -0.30543901042E+02  0.30543901042E+02  0.00000000000E+00 0. -1.
         23    2    1    2    0    0  0.15244814626E+02 -0.21461517734E+02  0.37139353562E+03  0.38189915892E+03  0.84975338586E+02 0.  0.
         23    2    1    2    0    0  0.43171933210E+01  0.15756994800E+02  0.15202767739E+03  0.17772791901E+03  0.90597336935E+02 0.  0.
        -11    1    3    3    0    0  0.26588038547E+02 -0.50658147426E+02  0.22163859538E+03  0.22890355754E+03  0.00000000000E+00 0. -1.
         11    1    3    3    0    0 -0.11343223921E+02  0.29196629692E+02  0.14975494024E+03  0.15299560138E+03  0.00000000000E+00 0.  1.
        -11    1    4    4    0    0  0.39369655955E+02  0.77863830163E+01  0.12885256273E+03  0.13495769890E+03  0.00000000000E+00 0.  1.
         11    1    4    4    0    0 -0.35052462634E+02  0.79706117836E+01  0.23175114666E+02  0.42770220114E+02  0.00000000000E+00 0. -1.
         -1    1    1    2    0  502 -0.19562007947E+02  0.57045229339E+01 -0.40972907139E+01  0.20784646449E+02  0.00000000000E+00 0.  1.
<scales pt_clust_5="13000.00000" pt_clust_6="13000.00000" pt_clust_7="13000.00000" pt_clust_8="13000.00000" pt_clust_9="20.37679"></scales>
<clustering>
<clus scale="   20.377">  2  9  1 -1</clus>
<clus scale="   84.975">  5  6 -1 -1</clus>
<clus scale="   87.776">  1  5  2 -1</clus>
<clus scale="   90.597">  7  8 -1 -1</clus>
<clus scale="   20.377">  2  5  1 -1</clus>
</clustering>
</event>
<event>
 9    1  0.3288491E-005  0.9819578E+02  0.7546771E-02  0.1284415E+00
         21   -1    0    0  501  502  0.00000000000E+00  0.00000000000E+00  0.20785831564E+03  0.20785831564E+03  0.00000000000E+00 0.  1.
          4   -1    0    0  502    0 -0.00000000000E+00 -0.00000000000E+00 -0.94236677639E+02  0.94236677639E+02  0.00000000000E+00 0. -1.
         23    2    1    2    0    0  0.24430739134E+02  0.67796245558E+01 -0.80279768371E+01  0.95409410771E+02  0.91627959313E+02 0.  0.
         23    2    1    2    0    0 -0.54912186529E+02  0.25763470485E+02  0.45635585896E+02  0.11855894484E+03  0.91074211835E+02 0.  0.
        -11    1    3    3    0    0 -0.64191214974E+01  0.42008394648E+02  0.12476727548E+02  0.44289717452E+02  0.00000000000E+00 0.  1.
         11    1    3    3    0    0  0.30849860631E+02 -0.35228770092E+02 -0.20504704385E+02  0.51119693319E+02  0.00000000000E+00 0. -1.
        -13    1    4    4    0    0 -0.63241217785E+02  0.48141215578E+02  0.50533571009E+02  0.94184234685E+02  0.00000000000E+00 0.  1.
         13    1    4    4    0    0  0.83290312562E+01 -0.22377745093E+02 -0.48979851132E+01  0.24374710158E+02  0.00000000000E+00 0. -1.
          4    1    1    2  501    0  0.30481447395E+02 -0.32543095041E+02  0.76014028937E+02  0.88126637661E+02  0.00000000000E+00 0. -1.
<scales pt_clust_5="13000.00000" pt_clust_6="13000.00000" pt_clust_7="13000.00000" pt_clust_8="13000.00000" pt_clust_9="44.58892"></scales>
<clustering>
<clus scale="   44.589">  1  9  2 -1</clus>
<clus scale="   91.074">  7  8 -1 -1</clus>
<clus scale="   91.628">  5  6 -1 -1</clus>
<clus scale="   97.679">  1  7  2 -1</clus>
<clus scale="   44.589">  1  5  2 -1</clus>
</clustering>
</event>
<event>
 9    1  0.3288491E-005  0.9731972E+02  0.7546771E-02  0.1286610E+00
         -1   -1    0    0    0  501 -0.00000000000E+00  0.00000000000E+00  0.17382760456E+03  0.17382760456E+03  0.00000000000E+00 0.  1.
         21   -1    0    0  501  502  0.00000000000E+00 -0.00000000000E+00 -0.16022860676E+03  0.16022860676E+03  0.00000000000E+00 0.  1.
         23    2    1    2    0    0 -0.75421475276E+01 -0.23906808332E+02  0.84305782310E+02  0.12663658908E+03  0.91109501644E+02 0.  0.
         23    2    1    2    0    0 -0.23047407363E+02  0.57056120209E+02  0.15511931616E+02  0.11011461334E+03  0.89989022715E+02 0.  0.
        -11    1    4    4    0    0  0.24445388816E+02  0.40481314066E+02  0.32091787940E+02  0.57150648956E+02  0.00000000000E+00 0.  1.
         11    1    4    4    0    0 -0.47492796179E+02  0.16574806143E+02 -0.16579856324E+02  0.52963964384E+02  0.00000000000E+00 0. -1.
        -13    1    3    3    0    0  0.10056876397E+02 -0.40647219176E+02  0.92063436122E+02  0.10113858542E+03  0.00000000000E+00 0. -1.
         13    1    3    3    0    0 -0.17599023924E+02  0.16740410844E+02 -0.77576538116E+01  0.25498003667E+02  0.00000000000E+00 0.  1.
         -1    1    1    2    0  502  0.30589554890E+02 -0.33149311877E+02 -0.86218716122E+02  0.97305008895E+02  0.00000000000E+00 0.  1.
<scales pt_clust_5="13000.00000" pt_clust_6="13000.00000" pt_clust_7="13000.00000" pt_clust_8="13000.00000" pt_clust_9="45.10652"></scales>
<clustering>
<clus scale="   45.107">  2  9  1 -1</clus>
<clus scale="   89.989">  5  6 -1 -1</clus>
<clus scale="   91.110">  7  8 -1 -1</clus>
<clus scale="   96.272">  2  5  1 -1</clus>
<clus scale="   45.107">  2  5  1 -1</clus>
</clustering>
</event>
<event>
 9    1  0.3288491E-005  0.1178745E+03  0.7546771E-02  0.1249656E+00
         21   -1    0    0  501  502  0.00000000000E+00  0.00000000000E+00  0.16723500869E+03  0.16723500869E+03  0.00000000000E+00 0. -1.
          2   -1    0    0  502    0 -0.00000000000E+00 -0.00000000000E+00 -0.51160705808E+03  0.51160705808E+03  0.00000000000E+00 0. -1.
         23    2    1    2    0    0  0.62059811202E+02 -0.33927042757E+02 -0.40068185611E+03  0.41725935812E+03  0.92503825453E+02 0.  0.
         23    2    1    2    0    0 -0.91023259977E+02  0.43854029003E+01 -0.60523066900E+02  0.13764114899E+03  0.83531902012E+02 0.  0.
        -11    1    4    4    0    0 -0.78897401846E+02  0.27439540592E+02 -0.70935841033E+02  0.10958842069E+03  0.00000000000E+00 0.  1.
         11    1    4    4    0    0 -0.12125858130E+02 -0.23054137692E+02  0.10412774133E+02  0.28052728304E+02  0.00000000000E+00 0. -1.
        -13    1    3    3    0    0  0.46740786087E+02 -0.63940800373E+02 -0.32327186607E+03  0.33283303086E+03  0.00000000000E+00 0. -1.
         13    1    3    3    0    0  0.15319025115E+02  0.30013757616E+02 -0.77409990043E+02  0.84426327263E+02  0.00000000000E+00 0.  1.
          2    1    1    2  501    0  0.28963448774E+02  0.29541639856E+02  0.11683287362E+03  0.12394155965E+03  0.00000000000E+00 0. -1.
<scales pt_clust_5="13000.00000" pt_clust_6="13000.00000" pt_clust_7="13000.00000" pt_clust_8="13000.00000" pt_clust_9="41.37137"></scales>
<clustering>
<clus scale="   41.371">  1  9  2 -1</clus>
<clus scale="   83.532">  5  6 -1 -1</clus>
<clus scale="   92.504">  7  8 -1 -1</clus>
<clus scale="  110.973">  1  5  2 -1</clus>
<clus scale="   41.371">  1  5  2 -1</clus>
</clustering>
</event>
<event>
 9    1  0.3288491E-005  0.9535605E+02  0.7546771E-02  0.1293357E+00
         21   -1    0    0  501  502  0.00000000000E+00  0.00000000000E+00  0.81662062973E+02  0.81662062973E+02  0.00000000000E+00 0. -1.
         -3   -1    0    0    0  501 -0.00000000000E+00 -0.00000000000E+00 -0.19177335367E+03  0.19177335367E+03  0.00000000000E+00 0.  1.
         23    2    1    2    0    0 -0.11095749088E+02 -0.31080068636E+02 -0.79889966582E+02  0.12592606602E+03  0.91574456201E+02 0.  0.
         23    2    1    2    0    0 -0.25936859910E+02  0.16754455627E+02  0.86309401755E+01  0.91956351085E+02  0.86186106138E+02 0.  0.
        -13    1    4    4    0    0 -0.34685701333E+02 -0.28827470778E+02  0.55289790534E+01  0.45438866159E+02  0.00000000000E+00 0. -1.
         13    1    4    4    0    0  0.87488414230E+01  0.45581926405E+02  0.31019611221E+01  0.46517484926E+02  0.00000000000E+00 0.  1.
        -13    1    3    3    0    0  0.21080726824E+02  0.19582098586E+02 -0.38104900850E+01  0.29023705193E+02  0.00000000000E+00 0.  1.
         13    1    3    3    0    0 -0.32176475912E+02 -0.50662167222E+02 -0.76079476497E+02  0.96902360826E+02  0.00000000000E+00 0. -1.
         -3    1    1    2    0  502  0.37032608998E+02  0.14325613009E+02 -0.38852264293E+02  0.55552999540E+02  0.00000000000E+00 0.  1.
<scales pt_clust_5="13000.00000" pt_clust_6="13000.00000" pt_clust_7="13000.00000" pt_clust_8="13000.00000" pt_clust_9="39.70691"></scales>
<clustering>
<clus scale="   39.707">  1  9  2 -1</clus>
<clus scale="   86.186">  5  6 -1 -1</clus>
<clus scale="   90.194">  1  5  2 -1</clus>
<clus scale="   91.574">  7  8 -1 -1</clus>
<clus scale="   39.707">  1  5  2 -1</clus>
</clustering>
</event>
<event>
 9    1  0.3288491E-005  0.1215565E+03  0.7546771E-02  0.1243055E+00
          1   -1    0    0  502    0 -0.00000000000E+00  0.00000000000E+00  0.24089432628E+03  0.24089432628E+03  0.00000000000E+00 0. -1.
         21   -1    0    0  501  502  0.00000000000E+00 -0.00000000000E+00 -0.94218130841E+02  0.94218130841E+02  0.00000000000E+00 0. -1.
         23    2    1    2    0    0  0.68114602719E+02  0.61440971314E+02  0.13841817697E+03  0.18952498082E+03  0.91353897438E+02 0.  0.
         23    2    1    2    0    0 -0.52497773020E+02 -0.34476621049E+02  0.28950699923E+02  0.10818228121E+03  0.83190199963E+02 0.  0.
        -11    1    4    4    0    0  0.19003638383E+02 -0.25826374252E+02  0.11606249042E+02  0.34100511662E+02  0.00000000000E+00 0. -1.
         11    1    4    4    0    0 -0.71501411404E+02 -0.86502467971E+01  0.17344450882E+02  0.74081769544E+02  0.00000000000E+00 0.  1.
        -11    1    3    3    0    0  0.30451372780E+02  0.79713142687E+02  0.10867486878E+03  0.13817271194E+03  0.00000000000E+00 0. -1.
         11    1    3    3    0    0  0.37663229939E+02 -0.18272171373E+02  0.29743308190E+02  0.51352268871E+02  0.00000000000E+00 0.  1.
          1    1    1    2  501    0 -0.15616829699E+02 -0.26964350265E+02 -0.20692681453E+02  0.37405195104E+02  0.00000000000E+00 0. -1.
<scales pt_clust_5="13000.00000" pt_clust_6="13000.00000" pt_clust_7="13000.00000" pt_clust_8="13000.00000" pt_clust_9="31.16026"></scales>
<clustering>
<clus scale="   31.160">  2  9  1 -1</clus>
<clus scale="   83.190">  5  6 -1 -1</clus>
<clus scale="   91.354">  7  8 -1 -1</clus>
<clus scale="  115.547">  2  5  1 -1</clus>
<clus scale="   31.160">  2  5  1 -1</clus>
</clustering>
</event>
<event>
 9    1  0.3288491E-005  0.1288718E+03  0.7546771E-02  0.1234599E+00
          2   -1    0    0  502    0 -0.00000000000E+00  0.00000000000E+00  0.41981121988E+03  0.41981121988E+03  0.00000000000E+00 0. -1.
         21   -1    0    0  501  502  0.00000000000E+00 -0.00000000000E+00 -0.22750140827E+03  0.22750140827E+03  0.00000000000E+00 0. -1.
         23    2    1    2    0    0 -0.94777918618E+02 -0.23785377121E+02  0.24524141250E+03  0.27923293162E+03  0.90989459155E+02 0.  0.
         23    2    1    2    0    0  0.86157536148E+02 -0.80495306612E+01  0.13625632022E+03  0.17603844617E+03  0.70255489104E+02 0.  0.
        -11    1    4    4    0    0  0.14145362006E+02 -0.32454045498E+02  0.41596530873E+02  0.54622593459E+02  0.00000000000E+00 0. -1.
         11    1    4    4    0    0  0.72012174143E+02  0.24404514837E+02  0.94659789350E+02  0.12141585271E+03  0.00000000000E+00 0.  1.
        -11    1    3    3    0    0 -0.38629899259E+02  0.49903296733E+01  0.17119622114E+02  0.42547079434E+02  0.00000000000E+00 0.  1.
         11    1    3    3    0    0 -0.56148019359E+02 -0.28775706794E+02  0.22812179038E+03  0.23668585219E+03  0.00000000000E+00 0. -1.
          2    1    1    2  501    0  0.86203824697E+01  0.31834907782E+02 -0.18918792111E+03  0.19204125037E+03  0.00000000000E+00 0. -1.
<scales pt_clust_5="13000.00000" pt_clust_6="13000.00000" pt_clust_7="13000.00000" pt_clust_8="13000.00000" pt_clust_9="32.98139"></scales>
<clustering>
<clus scale="   32.981">  2  9  1 -1</clus>
<clus scale="   70.255">  5  6 -1 -1</clus>
<clus scale="   90.989">  7  8 -1 -1</clus>
<clus scale="  115.172">  2  5  1 -1</clus>
<clus scale="   32.981">  2  5  1 -1</clus>
</clustering>
</event>
<event>
 9    1  0.3288491E-005  0.1137754E+03  0.7546771E-02  0.1256891E+00
         21   -1    0    0  501  502  0.00000000000E+00  0.00000000000E+00  0.86876730683E+02  0.86876730683E+02  0.00000000000E+00 0. -1.
          1   -1    0    0  502    0 -0.00000000000E+00 -0.00000000000E+00 -0.46031674027E+03  0.46031674027E+03  0.00000000000E+00 0. -1.
         23    2    1    2    0    0  0.46952138728E+02 -0.15003670829E+02 -0.23598195526E+03  0.26157664491E+03  0.10151475007E+03 0.  0.
         23    2    1    2    0    0 -0.21084562565E+02  0.65961316418E+02 -0.17996222183E+03  0.21439592043E+03  0.93721691015E+02 0.  0.
        -13    1    4    4    0    0 -0.44941748963E+02  0.32651875971E+00 -0.89132888802E+02  0.99822538940E+02  0.00000000000E+00 0.  1.
         13    1    4    4    0    0  0.23857186398E+02  0.65634797658E+02 -0.90829333031E+02  0.11457338149E+03  0.00000000000E+00 0. -1.
        -13    1    3    3    0    0  0.63369863925E+02 -0.42792472128E+02 -0.19468409669E+03  0.20916221654E+03  0.00000000000E+00 0.  1.
         13    1    3    3    0    0 -0.16417725197E+02  0.27788801299E+02 -0.41297858574E+02  0.52414428368E+02  0.00000000000E+00 0. -1.
          1    1    1    2  501    0 -0.25867576163E+02 -0.50957645589E+02  0.42504167512E+02  0.71220905613E+02  0.00000000000E+00 0. -1.
<scales pt_clust_5="13000.00000" pt_clust_6="13000.00000" pt_clust_7="13000.00000" pt_clust_8="13000.00000" pt_clust_9="57.14729"></scales>
<clustering>
<clus scale="   57.147">  1  9  2 -1</clus>
<clus scale="   93.722">  5  6 -1 -1</clus>
<clus scale="  101.515">  7  8 -1 -1</clus>
<clus scale="  106.880">  1  5  2 -1</clus>
<clus scale="   57.147">  1  5  2 -1</clus>
</clustering>
</event>
<event>
 9    1  0.3288491E-005  0.1075491E+03  0.7546771E-02  0.1268572E+00
         -3   -1    0    0    0  501 -0.00000000000E+00  0.00000000000E+00  0.38914055636E+03  0.38914055636E+03  0.00000000000E+00 0.  1.
         21   -1    0    0  501  502  0.00000000000E+00 -0.00000000000E+00 -0.14209042618E+03  0.14209042618E+03  0.00000000000E+00 0.  1.
         23    2    1    2    0    0  0.45567523865E+02 -0.22954957393E+02  0.22517974573E+03  0.25056409986E+03  0.97329959169E+02 0.  0.
         23    2    1    2    0    0 -0.25988340304E+02  0.32073278877E+02  0.13401876255E+03  0.16645765834E+03  0.89682965249E+02 0.  0.
        -13    1    4    4    0    0 -0.42122020114E+02  0.55378336314E+02  0.10440655915E+03  0.12546614805E+03  0.00000000000E+00 0.  1.
         13    1    4    4    0    0  0.16133679810E+02 -0.23305057437E+02  0.29612203398E+02  0.40991510297E+02  0.00000000000E+00 0. -1.
        -13    1    3    3    0    0 -0.20171327791E+02  0.20347447662E+01  0.71908555343E+01  0.21511184403E+02  0.00000000000E+00 0.  1.
         13    1    3    3    0    0  0.65738851656E+02 -0.24989702160E+02  0.21798889019E+03  0.22905291545E+03  0.00000000000E+00 0. -1.
         -3    1    1    2    0  502 -0.19579183561E+02 -0.91183214836E+01 -0.11214837810E+03  0.11420922435E+03  0.00000000000E+00 0.  1.
<scales pt_clust_5="13000.00000" pt_clust_6="13000.00000" pt_clust_7="13000.00000" pt_clust_8="13000.00000" pt_clust_9="21.59834"></scales>
<clustering>
<clus scale="   21.598">  2  9  1 -1</clus>
<clus scale="   89.683">  5  6 -1 -1</clus>
<clus scale="   97.330">  7  8 -1 -1</clus>
<clus scale="  100.681">  2  5  1 -1</clus>
<clus scale="   21.598">  2  5  1 -1</clus>
</clustering>
</event>
<event>
 9    1  0.3288491E-005  0.3130634E+03  0.7546771E-02  0.1078940E+00
          1   -1    0    0  502    0 -0.00000000000E+00  0.00000000000E+00  0.31683139803E+03  0.31683139803E+03  0.00000000000E+00 0. -1.
         21   -1    0    0  501  502  0.00000000000E+00 -0.00000000000E+00 -0.49258582490E+03  0.49258582490E+03  0.00000000000E+00 0. -1.
         23    2    1    2    0    0  0.20502676659E+03 -0.25331324110E+03  0.58752296153E+02  0.34390986630E+03  0.92836365181E+02 0.  0.
         23    2    1    2    0    0 -0.85397572212E+02  0.25200696283E+03 -0.14799310142E+03  0.31786773718E+03  0.91310928257E+02 0.  0.
        -11    1    3    3    0    0  0.56032782931E+02 -0.69026805469E+02 -0.25344088741E+02  0.92448339468E+02  0.00000000000E+00 0.  1.
         11    1    3    3    0    0  0.14899398366E+03 -0.18428643563E+03  0.84096384894E+02  0.25146152683E+03  0.00000000000E+00 0. -1.
        -11    1    4    4    0    0 -0.80595699812E+02  0.15752222631E+03 -0.55209261281E+02  0.18535636256E+03  0.00000000000E+00 0.  1.
         11    1    4    4    0    0 -0.48018723994E+01  0.94484736518E+02 -0.92783840135E+02  0.13251137462E+03  0.00000000000E+00 0. -1.
          1    1    1    2  501    0 -0.11962919438E+03  0.13062782701E+01 -0.86513621603E+02  0.14763961946E+03  0.00000000000E+00 0. -1.
<scales pt_clust_5="13000.00000" pt_clust_6="13000.00000" pt_clust_7="13000.00000" pt_clust_8="13000.00000" pt_clust_9="119.63633"></scales>
<clustering>
<clus scale="   91.311">  7  8 -1 -1</clus>
<clus scale="   92.836">  5  6 -1 -1</clus>
<clus scale="  119.636">  2  9  1 -1</clus>
<clus scale="  312.614">  2  7  1 -1</clus>
<clus scale="  119.636">  2  5  1 -1</clus>
</clustering>
</event>
<event>
 9    1  0.3288491E-005  0.9884197E+02  0.7546771E-02  0.1282830E+00
          2   -1    0    0  502    0 -0.00000000000E+00  0.00000000000E+00  0.12216883866E+03  0.12216883866E+03  0.00000000000E+00 0. -1.
         21   -1    0    0  501  502  0.00000000000E+00 -0.00000000000E+00 -0.33010827291E+03  0.33010827291E+03  0.00000000000E+00 0. -1.
         23    2    1    2    0    0  0.12096062397E+02 -0.27274592309E+02  0.48014367030E+02  0.10770401862E+03  0.91676376867E+02 0.  0.
         23    2    1    2    0    0 -0.40586264903E+02  0.35645302824E+02 -0.22064156759E+02  0.10880599124E+03  0.91837270233E+02 0.  0.
        -11    1    3    3    0    0  0.22490149166E+02  0.29384749590E+02  0.88521676770E+01  0.38047748824E+02  0.00000000000E+00 0.  1.
         11    1    3    3    0    0 -0.10394086770E+02 -0.56659341900E+02  0.39162199353E+02  0.69656269800E+02  0.00000000000E+00 0. -1.
        -13    1    4    4    0    0 -0.24843458264E+02  0.56638406221E+02 -0.42925137915E+02  0.75283955414E+02  0.00000000000E+00 0.  1.
         13    1    4    4    0    0 -0.15742806639E+02 -0.20993103396E+02  0.20860981156E+02  0.33522035825E+02  0.00000000000E+00 0. -1.
          2    1    1    2  501    0  0.28490202506E+02 -0.83707105152E+01 -0.23388964452E+03  0.23576710170E+03  0.00000000000E+00 0. -1.
<scales pt_clust_5="13000.00000" pt_clust_6="13000.00000" pt_clust_7="13000.00000" pt_clust_8="13000.00000" pt_clust_9="29.69445"></scales>
<clustering>
<clus scale="   29.694">  2  9  1 -1</clus>
<clus scale="   91.676">  5  6 -1 -1</clus>
<clus scale="   91.837">  7  8 -1 -1</clus>
<clus scale="   98.693">  1  5  2 -1</clus>
<clus scale="   29.694">  2  5  1 -1</clus>
</clustering>
</event>
<event>
 9    1  0.3288491E-005  0.1061638E+03  0.7546771E-02  0.1267970E+00
          1   -1    0    0  502    0 -0.00000000000E+00  0.00000000000E+00  0.67316848436E+03  0.67316848436E+03  0.00000000000E+00 0. -1.
         21   -1    0    0  501  502  0.00000000000E+00 -0.00000000000E+00 -0.65948724447E+02  0.65948724447E+02  0.00000000000E+00 0. -1.
         23    2    1    2    0    0 -0.35602344988E+02 -0.52884358979E+02  0.49027512940E+03  0.50246947597E+03  0.89674909435E+02 0.  0.
         23    2    1    2    0    0  0.26557480585E+02  0.29495618114E+02  0.15942455570E+03  0.18731836212E+03  0.89981601259E+02 0.  0.
        -11    1    4    4    0    0  0.35800286166E+02 -0.64460240027E+01  0.17025927658E+02  0.40163340593E+02  0.00000000000E+00 0.  1.
         11    1    4    4    0    0 -0.92428055806E+01  0.35941642117E+02  0.14239862804E+03  0.14715502153E+03  0.00000000000E+00 0. -1.
        -11    1    3    3    0    0 -0.57157028075E+02 -0.63146596653E+02  0.40829087081E+03  0.41708015263E+03  0.00000000000E+00 0. -1.
         11    1    3    3    0    0  0.21554683087E+02  0.10262237674E+02  0.81984258590E+02  0.85389323347E+02  0.00000000000E+00 0.  1.
          1    1    1    2  501    0  0.90448644031E+01  0.23388740865E+02 -0.42479925185E+02  0.49329370714E+02  0.00000000000E+00 0. -1.
<scales pt_clust_5="13000.00000" pt_clust_6="13000.00000" pt_clust_7="13000.00000" pt_clust_8="13000.00000" pt_clust_9="25.07674"></scales>
<clustering>
<clus scale="   25.077">  2  9  1 -1</clus>
<clus scale="   89.675">  7  8 -1 -1</clus>
<clus scale="   89.982">  5  6 -1 -1</clus>
<clus scale="  105.904">  1  7  2 -1</clus>
<clus scale="   25.077">  2  5  1 -1</clus>
</clustering>
</event>
<event>
 9    1  0.4520804E-005  0.1508182E+03  0.7546771E-02  0.1217016E+00
          1   -1    0    0  502    0 -0.00000000000E+00  0.00000000000E+00  0.30005569064E+03  0.30005569064E+03  0.00000000000E+00 0. -1.
         21   -1    0    0  501  502  0.00000000000E+00 -0.00000000000E+00 -0.20780271108E+03  0.20780271108E+03  0.00000000000E+00 0. -1.
         23    2    1    2    0    0  0.25749400067E+02  0.10433954275E+02  0.18973016555E+03  0.21616010090E+03  0.99778527240E+02 0.  0.
         23    2    1    2    0    0  0.95616395147E+02 -0.11535228064E+02 -0.37698764235E+01  0.13836230074E+03  0.99269118014E+02 0.  0.
        -11    1    4    4    0    0 -0.13996843813E+02  0.17974782085E+02 -0.95426352827E+01  0.24699520559E+02  0.00000000000E+00 0.  1.
         11    1    4    4    0    0  0.10961323896E+03 -0.29510010148E+02  0.57727588591E+01  0.11366278018E+03  0.00000000000E+00 0. -1.
        -13    1    3    3    0    0 -0.32049650496E+02 -0.15800063571E+02  0.40607402796E+02  0.54090509959E+02  0.00000000000E+00 0.  1.
         13    1    3    3    0    0  0.57799050563E+02  0.26234017846E+02  0.14912276275E+03  0.16206959094E+03  0.00000000000E+00 0. -1.
          1    1    1    2  501    0 -0.12136579521E+03  0.11012737889E+01 -0.93707309561E+02  0.15333600007E+03  0.00000000000E+00 0. -1.
<scales pt_clust_5="13000.00000" pt_clust_6="13000.00000" pt_clust_7="13000.00000" pt_clust_8="13000.00000" pt_clust_9="113.54199"></scales>
<clustering>
<clus scale="   99.269">  5  6 -1 -1</clus>
<clus scale="   99.779">  7  8 -1 -1</clus>
<clus scale="  103.574">  1  7  2 -1</clus>
<clus scale="  113.542">  2  9  1 -1</clus>
<clus scale="  113.542">  2  5  1 -1</clus>
</clustering>
</event>
<event>
 9    1  0.3288491E-005  0.1367694E+03  0.7546771E-02  0.1218023E+00
         -4   -1    0    0    0  501 -0.00000000000E+00  0.00000000000E+00  0.37108241342E+03  0.37108241342E+03  0.00000000000E+00 0.  1.
         21   -1    0    0  501  502  0.00000000000E+00 -0.00000000000E+00 -0.77284868501E+02  0.77284868501E+02  0.00000000000E+00 0.  1.
         23    2    1    2    0    0 -0.50704229363E+01  0.96713816473E+02  0.19478171403E+03  0.23651529119E+03  0.92845545717E+02 0.  0.
         23    2    1    2    0    0 -0.27840711348E+02 -0.10623304662E+03  0.10450706154E+03  0.17715455399E+03  0.91659394964E+02 0.  0.
        -11    1    3    3    0    0 -0.46537630347E+02  0.63960658569E+02  0.13714959702E+03  0.15832475753E+03  0.00000000000E+00 0.  1.
         11    1    3    3    0    0  0.41467207411E+02  0.32753157904E+02  0.57632117009E+02  0.78190533661E+02  0.00000000000E+00 0. -1.
        -13    1    4    4    0    0 -0.53243612711E+02 -0.91354185625E+02  0.10309849956E+03  0.14768131275E+03  0.00000000000E+00 0.  1.
         13    1    4    4    0    0  0.25402901362E+02 -0.14878860992E+02  0.14085619833E+01  0.29473241235E+02  0.00000000000E+00 0. -1.
         -4    1    1    2    0  502  0.32911134285E+02  0.95192301437E+01 -0.54912306530E+01  0.34697436743E+02  0.00000000000E+00 0.  1.
<scales pt_clust_5="13000.00000" pt_clust_6="13000.00000" pt_clust_7="13000.00000" pt_clust_8="13000.00000" pt_clust_9="34.26016"></scales>
<clustering>
<clus scale="   34.260">  2  9  1 -1</clus>
<clus scale="   91.659">  7  8 -1 -1</clus>
<clus scale="   92.846">  5  6 -1 -1</clus>
<clus scale="  135.967">  2  7  1 -1</clus>
<clus scale="   34.260">  2  5  1 -1</clus>
</clustering>
</event>
<event>
 9    1  0.3288491E-005  0.1498796E+03  0.7546771E-02  0.1201533E+00
         21   -1    0    0  501  502  0.00000000000E+00  0.00000000000E+00  0.16754027398E+03  0.16754027398E+03  0.00000000000E+00 0. -1.
          2   -1    0    0  502    0 -0.00000000000E+00 -0.00000000000E+00 -0.25266872960E+03  0.25266872960E+03  0.00000000000E+00 0. -1.
         23    2    1    2    0    0  0.88477185263E+02  0.59553535611E+02 -0.81506716827E+02  0.16541319589E+03  0.96660977490E+02 0.  0.
         23    2    1    2    0    0 -0.85503519140E+02 -0.91363767631E+02 -0.78016857558E+02  0.17383058523E+03  0.92044839493E+02 0.  0.
        -11    1    4    4    0    0 -0.94834541285E+02 -0.44405366312E+02 -0.37883815639E+02  0.11135802740E+03  0.00000000000E+00 0.  1.
         11    1    4    4    0    0  0.93310221453E+01 -0.46958401319E+02 -0.40133041919E+02  0.62472557835E+02  0.00000000000E+00 0. -1.
        -11    1    3    3    0    0 -0.13062961411E+02  0.34397496903E+02 -0.35518675901E+02  0.51141031392E+02  0.00000000000E+00 0. -1.
         11    1    3    3    0    0  0.10154014667E+03  0.25156038708E+02 -0.45988040926E+02  0.11427216449E+03  0.00000000000E+00 0.  1.
          2    1    1    2  501    0 -0.29736661226E+01  0.31810232020E+02  0.74395118769E+02  0.80965222460E+02  0.00000000000E+00 0. -1.
<scales pt_clust_5="13000.00000" pt_clust_6="13000.00000" pt_clust_7="13000.00000" pt_clust_8="13000.00000" pt_clust_9="31.94892"></scales>
<clustering>
<clus scale="   31.949">  1  9  2 -1</clus>
<clus scale="   92.045">  5  6 -1 -1</clus>
<clus scale="   96.661">  7  8 -1 -1</clus>
<clus scale="  146.945">  1  5  2 -1</clus>
<clus scale="   31.949">  1  5  2 -1</clus>
</clustering>
</event>
<event>
 9    1  0.3288491E-005  0.2099153E+03  0.7546771E-02  0.1178540E+00
          2   -1    0    0  502    0 -0.00000000000E+00  0.00000000000E+00  0.13138777364E+04  0.13138777364E+04  0.00000000000E+00 0. -1.
         21   -1    0    0  501  502  0.00000000000E+00 -0.00000000000E+00 -0.53618517749E+02  0.53618517749E+02  0.00000000000E+00 0. -1.
         23    2    1    2    0    0  0.19566783273E+02 -0.11841893554E+02  0.15548901402E+03  0.17910711230E+03  0.85903636382E+02 0.  0.
         23    2    1    2    0    0 -0.14811982596E+03 -0.12411582591E+03  0.82107036652E+03  0.84854214039E+03  0.92320074451E+02 0.  0.
        -11    1    3    3    0    0  0.47282767047E+02  0.13267350708E+02  0.67269694299E+02  0.83288020900E+02  0.00000000000E+00 0.  1.
         11    1    3    3    0    0 -0.27715983773E+02 -0.25109244262E+02  0.88219319722E+02  0.95819091397E+02  0.00000000000E+00 0. -1.
        -13    1    4    4    0    0 -0.22074828797E+02 -0.10234208431E+02  0.26335033644E+02  0.35854861395E+02  0.00000000000E+00 0.  1.
         13    1    4    4    0    0 -0.12604499717E+03 -0.11388161748E+03  0.79473533288E+03  0.81268727899E+03  0.00000000000E+00 0. -1.
          2    1    1    2  501    0  0.12855304269E+03  0.13595771946E+03  0.28369983815E+03  0.33984700151E+03  0.00000000000E+00 0. -1.
<scales pt_clust_5="13000.00000" pt_clust_6="13000.00000" pt_clust_7="13000.00000" pt_clust_8="13000.00000" pt_clust_9="188.52436"></scales>
<clustering>
<clus scale="   85.904">  5  6 -1 -1</clus>
<clus scale="   88.896">  1  5  2 -1</clus>
<clus scale="   92.320">  7  8 -1 -1</clus>
<clus scale="  188.524">  2  9  1 -1</clus>
<clus scale="  188.524">  2  5  1 -1</clus>
</clustering>
</event>
<event>
 9    1  0.3288491E-005  0.1127653E+03  0.7546771E-02  0.1256655E+00
          2   -1    0    0  502    0 -0.00000000000E+00  0.00000000000E+00  0.80184450934E+03  0.80184450934E+03  0.00000000000E+00 0. -1.
         21   -1    0    0  501  502  0.00000000000E+00 -0.00000000000E+00 -0.67512690457E+02  0.67512690457E+02  0.00000000000E+00 0.  1.
         23    2    1    2    0    0  0.55218442757E+02  0.13519675436E+02  0.53889771055E+03  0.54992304707E+03  0.93662998134E+02 0.  0.
         23    2    1    2    0    0 -0.11171382447E+03 -0.51868245471E+02  0.53674512152E+02  0.16208700757E+03  0.90669461791E+02 0.  0.
        -11    1    4    4    0    0 -0.66266591299E+02 -0.25368448807E+02  0.76851470710E+02  0.10459908158E+03  0.00000000000E+00 0. -1.
         11    1    4    4    0    0 -0.45447233175E+02 -0.26499796665E+02 -0.23176958558E+02  0.57487925989E+02  0.00000000000E+00 0.  1.
        -13    1    3    3    0    0  0.13870736478E+02 -0.39453092298E+02  0.23401451306E+03  0.23772197237E+03  0.00000000000E+00 0. -1.
         13    1    3    3    0    0  0.41347706279E+02  0.52972767735E+02  0.30488319748E+03  0.31220107470E+03  0.00000000000E+00 0.  1.
          2    1    1    2  501    0  0.56495381717E+02  0.38348570035E+02  0.14175959618E+03  0.15734714516E+03  0.00000000000E+00 0. -1.
<scales pt_clust_5="13000.00000" pt_clust_6="13000.00000" pt_clust_7="13000.00000" pt_clust_8="13000.00000" pt_clust_9="68.28137"></scales>
<clustering>
<clus scale="   68.281">  2  9  1 -1</clus>
<clus scale="   90.669">  5  6 -1 -1</clus>
<clus scale="   93.663">  7  8 -1 -1</clus>
<clus scale="  110.291">  2  5  1 -1</clus>
<clus scale="   68.281">  2  5  1 -1</clus>
</clustering>
</event>
<event>
 9    1  0.3288491E-005  0.9537086E+02  0.7546771E-02  0.1290904E+00
         -1   -1    0    0    0  501 -0.00000000000E+00  0.00000000000E+00  0.37633825787E+03  0.37633825787E+03  0.00000000000E+00 0.  1.
         21   -1    0    0  501  502  0.00000000000E+00 -0.00000000000E+00 -0.52493222135E+02  0.52493222135E+02  0.00000000000E+00 0.  1.
         23    2    1    2    0    0 -0.24685307840E+02  0.10659708355E+02  0.25113273922E+03  0.26796658974E+03  0.89529027148E+02 0.  0.
         23    2    1    2    0    0  0.25861165240E+02 -0.30968937229E+02  0.90193815133E+02  0.13404230815E+03  0.90578922190E+02 0.  0.
        -11    1    3    3    0    0 -0.26405002809E+02 -0.35603188664E+02  0.90129734339E+02  0.10043993344E+03  0.00000000000E+00 0. -1.
         11    1    3    3    0    0  0.17196949689E+01  0.46262897019E+02  0.16100300488E+03  0.16752665630E+03  0.00000000000E+00 0.  1.
        -13    1    4    4    0    0  0.57448432798E+02 -0.19248675204E+02  0.36740000208E+02  0.70856626672E+02  0.00000000000E+00 0. -1.
         13    1    4    4    0    0 -0.31587267558E+02 -0.11720262025E+02  0.53453814925E+02  0.63185681478E+02  0.00000000000E+00 0.  1.
         -1    1    1    2    0  502 -0.11758573996E+01  0.20309228874E+02 -0.17481518621E+02  0.26822582116E+02  0.00000000000E+00 0.  1.
<scales pt_clust_5="13000.00000" pt_clust_6="13000.00000" pt_clust_7="13000.00000" pt_clust_8="13000.00000" pt_clust_9="20.34324"></scales>
<clustering>
<clus scale="   20.343">  2  9  1 -1</clus>
<clus scale="   89.529">  5  6 -1 -1</clus>
<clus scale="   90.579">  7  8 -1 -1</clus>
<clus scale="   94.374">  1  5  2 -1</clus>
<clus scale="   20.343">  2  5  1 -1</clus>
</clustering>
</event>
<event>
 9    1  0.3288491E-005  0.1208351E+03  0.7546771E-02  0.1242548E+00
          2   -1    0    0  502    0 -0.00000000000E+00  0.00000000000E+00  0.51008956046E+03  0.51008956046E+03  0.00000000000E+00 0. -1.
         21   -1    0    0  501  502  0.00000000000E+00 -0.00000000000E+00 -0.49553104086E+02  0.49553104086E+02  0.00000000000E+00 0.  1.
         23    2    1    2    0    0  0.86180176108E+01 -0.67530655507E+02  0.26566769530E+03  0.28881513076E+03  0.90554932334E+02 0.  0.
         23    2    1    2    0    0 -0.13212360631E+02  0.90497312998E+02  0.20678729086E+03  0.24454775645E+03  0.93157347486E+02 0.  0.
        -11    1    4    4    0    0  0.25335106798E+02  0.80850881894E+02  0.10273414585E+03  0.13316545146E+03  0.00000000000E+00 0.  1.
         11    1    4    4    0    0 -0.38547467430E+02  0.96464311039E+01  0.10405314501E+03  0.11138230499E+03  0.00000000000E+00 0. -1.
        -13    1    3    3    0    0  0.21981356727E+02 -0.83842185914E+02  0.16965102027E+03  0.19051026445E+03  0.00000000000E+00 0. -1.
         13    1    3    3    0    0 -0.13363339116E+02  0.16311530407E+02  0.96016675031E+02  0.98304866312E+02  0.00000000000E+00 0.  1.
          2    1    1    2  501    0  0.45943430207E+01 -0.22966657491E+02 -0.11918529790E+02  0.26279777329E+02  0.00000000000E+00 0. -1.
<scales pt_clust_5="13000.00000" pt_clust_6="13000.00000" pt_clust_7="13000.00000" pt_clust_8="13000.00000" pt_clust_9="23.42169"></scales>
<clustering>
<clus scale="   23.422">  2  9  1 -1</clus>
<clus scale="   90.555">  7  8 -1 -1</clus>
<clus scale="   93.157">  5  6 -1 -1</clus>
<clus scale="  118.840">  1  7  2 -1</clus>
<clus scale="   23.422">  2  5  1 -1</clus>
</clustering>
</event>
<event>
 9    1  0.3288491E-005  0.9640422E+02  0.7546771E-02  0.1288673E+00
         21   -1    0    0  501  502  0.00000000000E+00  0.00000000000E+00  0.48352544815E+02  0.48352544815E+02  0.00000000000E+00 0. -1.
          1   -1    0    0  502    0 -0.00000000000E+00 -0.00000000000E+00 -0.64639327433E+03  0.64639327433E+03  0.00000000000E+00 0. -1.
         23    2    1    2    0    0 -0.14770489349E+02  0.30652112807E+02 -0.31899232204E+03  0.33336913810E+03  0.90670620081E+02 0.  0.
         23    2    1    2    0    0 -0.18771708782E+02 -0.27685389504E+02 -0.30408691744E+03  0.31941470439E+03  0.91858816554E+02 0.  0.
        -11    1    4    4    0    0  0.32494192238E+02 -0.24974219416E+02 -0.84601368347E+02  0.94005189701E+02  0.00000000000E+00 0.  1.
         11    1    4    4    0    0 -0.51265901020E+02 -0.27111700882E+01 -0.21948554910E+03  0.22540951469E+03  0.00000000000E+00 0. -1.
        -11    1    3    3    0    0 -0.38234203961E+02 -0.15861562196E+02 -0.99257984556E+02  0.10754343776E+03  0.00000000000E+00 0. -1.
         11    1    3    3    0    0  0.23463714612E+02  0.46513675003E+02 -0.21973433748E+03  0.22582570034E+03  0.00000000000E+00 0.  1.
          1    1    1    2  501    0  0.33542198131E+02 -0.29667233034E+01  0.25038509970E+02  0.41961976647E+02  0.00000000000E+00 0. -1.
<scales pt_clust_5="13000.00000" pt_clust_6="13000.00000" pt_clust_7="13000.00000" pt_clust_8="13000.00000" pt_clust_9="33.67314"></scales>
<clustering>
<clus scale="   33.673">  1  9  2 -1</clus>
<clus scale="   90.671">  7  8 -1 -1</clus>
<clus scale="   91.859">  5  6 -1 -1</clus>
<clus scale="   95.273">  2  7  1 -1</clus>
<clus scale="   33.673">  1  5  2 -1</clus>
</clustering>
</event>
<event>
 9    1  0.3288491E-005  0.1091504E+03  0.7546771E-02  0.1262411E+00
         21   -1    0    0  501  502  0.00000000000E+00  0.00000000000E+00  0.51038311250E+02  0.51038311250E+02  0.00000000000E+00 0.  1.
          1   -1    0    0  502    0 -0.00000000000E+00 -0.00000000000E+00 -0.29635873174E+03  0.29635873174E+03  0.00000000000E+00 0. -1.
         23    2    1    2    0    0 -0.26283315034E+02 -0.41216957087E+02 -0.10114898064E+03  0.14529570659E+03  0.92141607689E+02 0.  0.
         23    2    1    2    0    0  0.24164028063E+02  0.63902999186E+02 -0.10074593149E+03  0.15306132559E+03  0.92792958376E+02 0.  0.
        -11    1    3    3    0    0  0.30947563389E+02 -0.31994365844E+02 -0.30750843302E+02  0.54101806710E+02  0.00000000000E+00 0.  1.
         11    1    3    3    0    0 -0.57230878423E+02 -0.92225912424E+01 -0.70398137336E+02  0.91193899876E+02  0.00000000000E+00 0. -1.
        -11    1    4    4    0    0  0.43808950269E+01  0.73464297304E+02 -0.30860801600E+02  0.79803410296E+02  0.00000000000E+00 0.  1.
         11    1    4    4    0    0  0.19783133036E+02 -0.95612981172E+01 -0.69885129888E+02  0.73257915298E+02  0.00000000000E+00 0. -1.
          1    1    1    2  501    0  0.21192869709E+01 -0.22686042100E+02 -0.43425508364E+02  0.49040010809E+02  0.00000000000E+00 0. -1.
<scales pt_clust_5="13000.00000" pt_clust_6="13000.00000" pt_clust_7="13000.00000" pt_clust_8="13000.00000" pt_clust_9="22.78483"></scales>
<clustering>
<clus scale="   22.785">  1  9  2 -1</clus>
<clus scale="   92.142">  5  6 -1 -1</clus>
<clus scale="   92.793">  7  8 -1 -1</clus>
<clus scale="  108.597">  2  5  1 -1</clus>
<clus scale="   22.785">  1  5  2 -1</clus>
</clustering>
</event>
<event>
 9    1  0.3288491E-005  0.9644865E+02  0.7546771E-02  0.1290620E+00
         -1   -1    0    0    0  501 -0.00000000000E+00  0.00000000000E+00  0.30075607329E+03  0.30075607329E+03  0.00000000000E+00 0.  1.
         21   -1    0    0  501  502  0.00000000000E+00 -0.00000000000E+00 -0.65906015511E+02  0.65906015511E+02  0.00000000000E+00 0.  1.
         23    2    1    2    0    0  0.16964683004E+02  0.51991633339E+02  0.12205024677E+03  0.15902901373E+03  0.86040886002E+02 0.  0.
         23    2    1    2    0    0  0.25938057705E+02  0.51959171056E+01  0.32766299841E+02  0.10031847217E+03  0.91051551669E+02 0.  0.
        -13    1    3    3    0    0  0.47189219216E+02  0.42501633532E+02  0.10586910424E+03  0.12345638297E+03  0.00000000000E+00 0.  1.
         13    1    3    3    0    0 -0.30224536212E+02  0.94899998071E+01  0.16181142530E+02  0.35572630759E+02  0.00000000000E+00 0. -1.
        -13    1    4    4    0    0  0.24817356242E+02 -0.33308135769E+02  0.43685258695E+02  0.60280468698E+02  0.00000000000E+00 0. -1.
         13    1    4    4    0    0  0.11207014630E+01  0.38504052875E+02 -0.10918958854E+02  0.40038003472E+02  0.00000000000E+00 0.  1.
         -1    1    1    2    0  502 -0.42902740709E+02 -0.57187550445E+02  0.80033511171E+02  0.10731460290E+03  0.00000000000E+00 0.  1.
<scales pt_clust_5="13000.00000" pt_clust_6="13000.00000" pt_clust_7="13000.00000" pt_clust_8="13000.00000" pt_clust_9="71.49172"></scales>
<clustering>
<clus scale="   71.492">  2  9  1 -1</clus>
<clus scale="   86.041">  5  6 -1 -1</clus>
<clus scale="   91.052">  7  8 -1 -1</clus>
<clus scale="   91.733">  1  5  2 -1</clus>
<clus scale="   71.492">  2  5  1 -1</clus>
</clustering>
</event>
<event>
 9    1  0.3288491E-005  0.1424450E+03  0.7546771E-02  0.1210112E+00
          1   -1    0    0  502    0 -0.00000000000E+00  0.00000000000E+00  0.65831821995E+03  0.65831821995E+03  0.00000000000E+00 0. -1.
         21   -1    0    0  501  502  0.00000000000E+00 -0.00000000000E+00 -0.42541173043E+02  0.42541173043E+02  0.00000000000E+00 0.  1.
         23    2    1    2    0    0 -0.37035408051E+02 -0.95903547247E+02  0.36579020944E+03  0.39086855007E+03  0.91687699788E+02 0.  0.
         23    2    1    2    0    0  0.62376832807E+02  0.10347204003E+03  0.23454041068E+03  0.27936304522E+03  0.91854093283E+02 0.  0.
        -13    1    3    3    0    0 -0.17107670822E+02  0.14033347315E+02  0.32237675294E+02  0.39100830505E+02  0.00000000000E+00 0.  1.
         13    1    3    3    0    0 -0.19927737229E+02 -0.10993689456E+03  0.33355253414E+03  0.35176771957E+03  0.00000000000E+00 0. -1.
        -13    1    4    4    0    0 -0.19500630173E+02  0.98887981537E+01  0.68622200113E+02  0.72021311113E+02  0.00000000000E+00 0. -1.
         13    1    4    4    0    0  0.81877462981E+02  0.93583241872E+02  0.16591821057E+03  0.20734173410E+03  0.00000000000E+00 0.  1.
          1    1    1    2  501    0 -0.25341424756E+02 -0.75684927788E+01  0.15446426794E+02  0.30627797706E+02  0.00000000000E+00 0. -1.
<scales pt_clust_5="13000.00000" pt_clust_6="13000.00000" pt_clust_7="13000.00000" pt_clust_8="13000.00000" pt_clust_9="26.44749"></scales>
<clustering>
<clus scale="   26.447">  2  9  1 -1</clus>
<clus scale="   91.688">  5  6 -1 -1</clus>
<clus scale="   91.854">  7  8 -1 -1</clus>
<clus scale="  142.338">  1  5  2 -1</clus>
<clus scale="   26.447">  2  5  1 -1</clus>
</clustering>
</event>
<event>
 9    1  0.3288491E-005  0.1290083E+03  0.7546771E-02  0.1229416E+00
          2   -1    0    0  502    0 -0.00000000000E+00  0.00000000000E+00  0.16211880019E+03  0.16211880019E+03  0.00000000000E+00 0. -1.
         21   -1    0    0  501  502  0.00000000000E+00 -0.00000000000E+00 -0.22341469575E+03  0.22341469575E+03  0.00000000000E+00 0. -1.
         23    2    1    2    0    0 -0.53831429392E+02 -0.72736937596E+02  0.29545166556E+02  0.13153052013E+03  0.90768254235E+02 0.  0.
         23    2    1    2    0    0  0.77997439161E+02  0.54850312865E+02  0.26337146073E+02  0.13302917762E+03  0.88943574803E+02 0.  0.
        -11    1    4    4    0    0  0.37287501228E+02  0.72017779558E+02  0.34444456510E+02  0.88109811625E+02  0.00000000000E+00 0. -1.
         11    1    4    4    0    0  0.40709937933E+02 -0.17167466693E+02 -0.81073104365E+01  0.44919365999E+02  0.00000000000E+00 0.  1.
        -11    1    3    3    0    0  0.19814327828E+02 -0.41212327096E+02  0.22912013603E+02  0.51147080653E+02  0.00000000000E+00 0. -1.
         11    1    3    3    0    0 -0.73645757220E+02 -0.31524610499E+02  0.66331529529E+01  0.80383439474E+02  0.00000000000E+00 0.  1.
          2    1    1    2  501    0 -0.24166009769E+02  0.17886624731E+02 -0.11717820819E+03  0.12097379818E+03  0.00000000000E+00 0. -1.
<scales pt_clust_5="13000.00000" pt_clust_6="13000.00000" pt_clust_7="13000.00000" pt_clust_8="13000.00000" pt_clust_9="30.06538"></scales>
<clustering>
<clus scale="   30.065">  2  9  1 -1</clus>
<clus scale="   88.944">  5  6 -1 -1</clus>
<clus scale="   90.768">  7  8 -1 -1</clus>
<clus scale="  127.731">  2  5  1 -1</clus>
<clus scale="   30.065">  2  5  1 -1</clus>
</clustering>
</event>
<event>
 9    1  0.3288491E-005  0.1060884E+03  0.7546771E-02  0.1268973E+00
         -3   -1    0    0    0  501 -0.00000000000E+00  0.00000000000E+00  0.26419719043E+03  0.26419719043E+03  0.00000000000E+00 0.  1.
         21   -1    0    0  501  502  0.00000000000E+00 -0.00000000000E+00 -0.11851088276E+03  0.11851088276E+03  0.00000000000E+00 0.  1.
         23    2    1    2    0    0 -0.71206430719E+02 -0.23965825736E+01  0.99877012946E+02  0.15397810507E+03  0.93046975988E+02 0.  0.
         23    2    1    2    0    0 -0.64401497242E+01 -0.33110834072E+02 -0.42639499127E+02  0.10579519996E+03  0.90756237181E+02 0.  0.
        -11    1    3    3    0    0 -0.25440611028E+02 -0.41518733394E+02  0.73682337764E+02  0.88318269970E+02  0.00000000000E+00 0. -1.
         11    1    3    3    0    0 -0.45765819691E+02  0.39122150821E+02  0.26194675183E+02  0.65659835095E+02  0.00000000000E+00 0.  1.
        -13    1    4    4    0    0 -0.10629611304E+02 -0.62612782211E+02 -0.15232433611E+02  0.65309847392E+02  0.00000000000E+00 0.  1.
         13    1    4    4    0    0  0.41894615800E+01  0.29501948139E+02 -0.27407065516E+02  0.40485352568E+02  0.00000000000E+00 0. -1.
         -3    1    1    2    0  502  0.77646580443E+02  0.35507416645E+02  0.88448793844E+02  0.12293476816E+03  0.00000000000E+00 0.  1.
<scales pt_clust_5="13000.00000" pt_clust_6="13000.00000" pt_clust_7="13000.00000" pt_clust_8="13000.00000" pt_clust_9="85.38018"></scales>
<clustering>
<clus scale="   85.380">  2  9  1 -1</clus>
<clus scale="   90.756">  7  8 -1 -1</clus>
<clus scale="   93.047">  5  6 -1 -1</clus>
<clus scale="  104.085">  2  7  1 -1</clus>
<clus scale="   85.380">  2  5  1 -1</clus>
</clustering>
</event>
<event>
 9    1  0.3288491E-005  0.9830435E+02  0.7546771E-02  0.1289340E+00
          1   -1    0    0  502    0 -0.00000000000E+00  0.00000000000E+00  0.34134584103E+03  0.34134584103E+03  0.00000000000E+00 0. -1.
         21   -1    0    0  501  502  0.00000000000E+00 -0.00000000000E+00 -0.74866602986E+02  0.74866602986E+02  0.00000000000E+00 0. -1.
         23    2    1    2    0    0  0.45023361671E+01  0.44783339822E+01  0.20023001795E+03  0.21874361023E+03  0.87842930411E+02 0.  0.
         23    2    1    2    0    0  0.56896947303E+02 -0.30310173453E+02  0.57573095607E+02  0.13029420259E+03  0.97498454666E+02 0.  0.
        -11    1    4    4    0    0  0.81563043098E+02 -0.16622012412E+02  0.24386750390E+02  0.86738312704E+02  0.00000000000E+00 0. -1.
         11    1    4    4    0    0 -0.24666095796E+02 -0.13688161041E+02  0.33186345217E+02  0.43555889881E+02  0.00000000000E+00 0.  1.
        -13    1    3    3    0    0 -0.39125092528E+02 -0.11100009461E+02  0.76742254409E+02  0.86852499602E+02  0.00000000000E+00 0.  1.
         13    1    3    3    0    0  0.43627428696E+02  0.15578343443E+02  0.12348776354E+03  0.13189111063E+03  0.00000000000E+00 0. -1.
          1    1    1    2  501    0 -0.61399283470E+02  0.25831839471E+02  0.86761244913E+01  0.67174631203E+02  0.00000000000E+00 0. -1.
<scales pt_clust_5="13000.00000" pt_clust_6="13000.00000" pt_clust_7="13000.00000" pt_clust_8="13000.00000" pt_clust_9="66.61198"></scales>
<clustering>
<clus scale="   66.612">  2  9  1 -1</clus>
<clus scale="   87.843">  7  8 -1 -1</clus>
<clus scale="   88.737">  1  7  2 -1</clus>
<clus scale="   97.498">  5  6 -1 -1</clus>
<clus scale="   66.612">  2  5  1 -1</clus>
</clustering>
</event>
<event>
 9    1  0.3288491E-005  0.9848088E+02  0.7546771E-02  0.1285419E+00
         21   -1    0    0  501  502  0.00000000000E+00  0.00000000000E+00  0.46535949874E+02  0.46535949874E+02  0.00000000000E+00 0.  1.
          1   -1    0    0  502    0 -0.00000000000E+00 -0.00000000000E+00 -0.60562222028E+03  0.60562222028E+03  0.00000000000E+00 0. -1.
         23    2    1    2    0    0 -0.22266958804E+02 -0.12804839720E+02 -0.46532631856E+03  0.47520301706E+03  0.92895335226E+02 0.  0.
         23    2    1    2    0    0  0.46501541332E+00 -0.33576038446E+01 -0.10920362842E+03  0.14572925897E+03  0.96436998685E+02 0.  0.
        -11    1    4    4    0    0  0.64392894018E+01  0.44855382392E+02 -0.69592690862E+02  0.83045845164E+02  0.00000000000E+00 0. -1.
         11    1    4    4    0    0 -0.59742739884E+01 -0.48212986237E+02 -0.39610937563E+02  0.62683413804E+02  0.00000000000E+00 0.  1.
        -13    1    3    3    0    0  0.17347355935E+02  0.31741807318E+02 -0.20200677408E+03  0.20521990611E+03  0.00000000000E+00 0. -1.
         13    1    3    3    0    0 -0.39614314739E+02 -0.44546647038E+02 -0.26331954447E+03  0.26998311095E+03  0.00000000000E+00 0.  1.
          1    1    1    2  501    0  0.21801943390E+02  0.16162443565E+02  0.15443676578E+02  0.31225894124E+02  0.00000000000E+00 0. -1.
<scales pt_clust_5="13000.00000" pt_clust_6="13000.00000" pt_clust_7="13000.00000" pt_clust_8="13000.00000" pt_clust_9="27.13944"></scales>
<clustering>
<clus scale="   27.139">  1  9  2 -1</clus>
<clus scale="   92.895">  7  8 -1 -1</clus>
<clus scale="   95.015">  2  7  1 -1</clus>
<clus scale="   96.437">  5  6 -1 -1</clus>
<clus scale="   27.139">  1  5  2 -1</clus>
</clustering>
</event>
<event>
 9    1  0.3288491E-005  0.1184605E+03  0.7546771E-02  0.1249121E+00
         21   -1    0    0  501  502  0.00000000000E+00  0.00000000000E+00  0.76440638116E+03  0.76440638116E+03  0.00000000000E+00 0. -1.
         -2   -1    0    0    0  501 -0.00000000000E+00 -0.00000000000E+00 -0.27053302116E+02  0.27053302116E+02  0.00000000000E+00 0.  1.
         23    2    1    2    0    0 -0.30625028732E+01  0.53381275591E+02  0.18660156559E+03  0.21455113473E+03  0.91395326067E+02 0.  0.
         23    2    1    2    0    0 -0.25897060158E+02 -0.77358616901E+02  0.36439111203E+03  0.38679340342E+03  0.10086248593E+03 0.  0.
        -11    1    3    3    0    0  0.23412644002E+02 -0.18005071448E+02  0.46200056211E+02  0.54834110651E+02  0.00000000000E+00 0.  1.
         11    1    3    3    0    0 -0.26475146875E+02  0.71386347039E+02  0.14040150938E+03  0.15971702408E+03  0.00000000000E+00 0. -1.
        -13    1    4    4    0    0 -0.45752364397E+02 -0.55739575378E+02  0.34293367751E+03  0.35043356900E+03  0.00000000000E+00 0. -1.
         13    1    4    4    0    0  0.19855304239E+02 -0.21619041523E+02  0.21457434522E+02  0.36359834421E+02  0.00000000000E+00 0.  1.
         -2    1    1    2    0  502  0.28959563031E+02  0.23977341310E+02  0.18636040142E+03  0.19011514512E+03  0.00000000000E+00 0.  1.
<scales pt_clust_5="13000.00000" pt_clust_6="13000.00000" pt_clust_7="13000.00000" pt_clust_8="13000.00000" pt_clust_9="37.59746"></scales>
<clustering>
<clus scale="   37.597">  1  9  2 -1</clus>
<clus scale="   91.395">  5  6 -1 -1</clus>
<clus scale="  100.862">  7  8 -1 -1</clus>
<clus scale="  110.511">  2  5  1 -1</clus>
<clus scale="   37.597">  1  5  2 -1</clus>
</clustering>
</event>
<event>
 9    1  0.3288491E-005  0.9290423E+02  0.7546771E-02  0.1296948E+00
          1   -1    0    0  502    0 -0.00000000000E+00  0.00000000000E+00  0.10763905812E+03  0.10763905812E+03  0.00000000000E+00 0. -1.
         21   -1    0    0  501  502  0.00000000000E+00 -0.00000000000E+00 -0.24868108194E+03  0.24868108194E+03  0.00000000000E+00 0. -1.
         23    2    1    2    0    0 -0.15983957580E+02 -0.22275593291E+02  0.24396389771E+02  0.98758864155E+02  0.91686642751E+02 0.  0.
         23    2    1    2    0    0 -0.10005094823E+02  0.44932651740E+01 -0.15433055114E+01  0.90668350680E+02  0.89989314192E+02 0.  0.
        -11    1    4    4    0    0 -0.44761931914E+02 -0.77734046264E+01  0.18097677740E+02  0.48903806679E+02  0.00000000000E+00 0. -1.
         11    1    4    4    0    0  0.34756837091E+02  0.12266669800E+02 -0.19640983251E+02  0.41764544001E+02  0.00000000000E+00 0.  1.
        -13    1    3    3    0    0 -0.10137563362E+02 -0.56531083587E+02  0.27864460388E+02  0.63835427117E+02  0.00000000000E+00 0. -1.
         13    1    3    3    0    0 -0.58463942173E+01  0.34255490296E+02 -0.34680706177E+01  0.34923437038E+02  0.00000000000E+00 0.  1.
          1    1    1    2  501    0  0.25989052402E+02  0.17782328117E+02 -0.16389510807E+03  0.16689292522E+03  0.00000000000E+00 0. -1.
<scales pt_clust_5="13000.00000" pt_clust_6="13000.00000" pt_clust_7="13000.00000" pt_clust_8="13000.00000" pt_clust_9="31.49035"></scales>
<clustering>
<clus scale="   31.490">  2  9  1 -1</clus>
<clus scale="   89.989">  5  6 -1 -1</clus>
<clus scale="   91.230">  2  5  1 -1</clus>
<clus scale="   91.687">  7  8 -1 -1</clus>
<clus scale="   31.490">  2  5  1 -1</clus>
</clustering>
</event>
<event>
 9    1  0.3288491E-005  0.1190996E+03  0.7546771E-02  0.1251622E+00
          1   -1    0    0  502    0 -0.00000000000E+00  0.00000000000E+00  0.58395203786E+03  0.58395203786E+03  0.00000000000E+00 0. -1.
         21   -1    0    0  501  502  0.00000000000E+00 -0.00000000000E+00 -0.35075575376E+02  0.35075575376E+02  0.00000000000E+00 0. -1.
         23    2    1    2    0    0 -0.47168189413E+02 -0.28293155441E+02  0.38019014210E+03  0.39504123528E+03  0.92128674570E+02 0.  0.
         23    2    1    2    0    0  0.14899014338E+02  0.24813118255E+02  0.14429588789E+03  0.18338707358E+03  0.10941592219E+03 0.  0.
        -11    1    3    3    0    0 -0.12133347126E+02 -0.57690107856E+02  0.25593207197E+03  0.26263395081E+03  0.00000000000E+00 0. -1.
         11    1    3    3    0    0 -0.35034842287E+02  0.29396952416E+02  0.12425807014E+03  0.13240728447E+03  0.00000000000E+00 0.  1.
        -11    1    4    4    0    0 -0.49161771168E+01  0.37876568573E+02  0.15331227482E+03  0.15799828117E+03  0.00000000000E+00 0. -1.
         11    1    4    4    0    0  0.19815191454E+02 -0.13063450318E+02 -0.90163869291E+01  0.25388792406E+02  0.00000000000E+00 0.  1.
          1    1    1    2  501    0  0.32269175075E+02  0.34800371858E+01  0.24390432488E+02  0.40599304376E+02  0.00000000000E+00 0. -1.
<scales pt_clust_5="13000.00000" pt_clust_6="13000.00000" pt_clust_7="13000.00000" pt_clust_8="13000.00000" pt_clust_9="32.45628"></scales>
<clustering>
<clus scale="   32.456">  2  9  1 -1</clus>
<clus scale="   92.129">  5  6 -1 -1</clus>
<clus scale="  103.444">  1  5  2 -1</clus>
<clus scale="  109.416">  7  8 -1 -1</clus>
<clus scale="   32.456">  2  5  1 -1</clus>
</clustering>
</event>
<event>
 9    1  0.3288491E-005  0.1135073E+03  0.7546771E-02  0.1258529E+00
         21   -1    0    0  501  502  0.00000000000E+00  0.00000000000E+00  0.26712652924E+02  0.26712652924E+02  0.00000000000E+00 0. -1.
         -1   -1    0    0    0  501 -0.00000000000E+00 -0.00000000000E+00 -0.73402913790E+03  0.73402913790E+03  0.00000000000E+00 0.  1.
         23    2    1    2    0    0 -0.34816899218E+01 -0.47458189240E+02 -0.32854993532E+03  0.34602719195E+03  0.97597928661E+02 0.  0.
         23    2    1    2    0    0  0.43679378496E+02  0.59435493953E+02 -0.33631672855E+03  0.35503799285E+03  0.86617367870E+02 0.  0.
        -11    1    3    3    0    0 -0.55009930985E+01 -0.77229273635E+02 -0.21125492664E+03  0.22499614588E+03  0.00000000000E+00 0.  1.
         11    1    3    3    0    0  0.20193031767E+01  0.29771084395E+02 -0.11729500867E+03  0.12103104606E+03  0.00000000000E+00 0. -1.
        -13    1    4    4    0    0  0.57801228807E+02  0.24958059508E+02 -0.11977279640E+03  0.13531226679E+03  0.00000000000E+00 0. -1.
         13    1    4    4    0    0 -0.14121850311E+02  0.34477434445E+02 -0.21654393215E+03  0.21972572606E+03  0.00000000000E+00 0.  1.
         -1    1    1    2    0  502 -0.40197688574E+02 -0.11977304713E+02 -0.42449821107E+02  0.59676606027E+02  0.00000000000E+00 0.  1.
<scales pt_clust_5="13000.00000" pt_clust_6="13000.00000" pt_clust_7="13000.00000" pt_clust_8="13000.00000" pt_clust_9="41.94413"></scales>
<clustering>
<clus scale="   41.944">  1  9  2 -1</clus>
<clus scale="   86.617">  7  8 -1 -1</clus>
<clus scale="   97.598">  5  6 -1 -1</clus>
<clus scale="  104.217">  1  7  2 -1</clus>
<clus scale="   41.944">  1  5  2 -1</clus>
</clustering>
</event>
<event>
 9    1  0.3288491E-005  0.1152976E+03  0.7546771E-02  0.1255918E+00
          3   -1    0    0  502    0 -0.00000000000E+00  0.00000000000E+00  0.38473028967E+03  0.38473028967E+03  0.00000000000E+00 0. -1.
         21   -1    0    0  501  502  0.00000000000E+00 -0.00000000000E+00 -0.50779057058E+02  0.50779057058E+02  0.00000000000E+00 0. -1.
         23    2    1    2    0    0  0.68548228014E+02 -0.39526393111E+02  0.23050687272E+03  0.26064188520E+03  0.92409840574E+02 0.  0.
         23    2    1    2    0    0 -0.55432168430E+02  0.15459664018E+02  0.10964123983E+03  0.14676693148E+03  0.78788350633E+02 0.  0.
        -11    1    4    4    0    0 -0.10638062163E+02  0.42605609790E+02  0.61911064144E+02  0.75903795792E+02  0.00000000000E+00 0.  1.
         11    1    4    4    0    0 -0.44794106267E+02 -0.27145945773E+02  0.47730175684E+02  0.70863135684E+02  0.00000000000E+00 0. -1.
        -13    1    3    3    0    0  0.66375339135E+02 -0.66875323670E+02  0.17872629942E+03  0.20204228435E+03  0.00000000000E+00 0. -1.
         13    1    3    3    0    0  0.21728888795E+01  0.27348930559E+02  0.51780573296E+02  0.58599600849E+02  0.00000000000E+00 0.  1.
          3    1    1    2  501    0 -0.13116059585E+02  0.24066729093E+02 -0.61968799334E+01  0.28100530052E+02  0.00000000000E+00 0. -1.
<scales pt_clust_5="13000.00000" pt_clust_6="13000.00000" pt_clust_7="13000.00000" pt_clust_8="13000.00000" pt_clust_9="27.40873"></scales>
<clustering>
<clus scale="   27.409">  2  9  1 -1</clus>
<clus scale="   78.788">  5  6 -1 -1</clus>
<clus scale="   92.410">  7  8 -1 -1</clus>
<clus scale="  104.697">  2  5  1 -1</clus>
<clus scale="   27.409">  2  5  1 -1</clus>
</clustering>
</event>
<event>
 9    1  0.3588687E-005  0.1064583E+03  0.7546771E-02  0.1267609E+00
         21   -1    0    0  501  502  0.00000000000E+00  0.00000000000E+00  0.14831244436E+03  0.14831244436E+03  0.00000000000E+00 0. -1.
          1   -1    0    0  502    0 -0.00000000000E+00 -0.00000000000E+00 -0.46551025948E+03  0.46551025948E+03  0.00000000000E+00 0. -1.
         23    2    1    2    0    0  0.51806137507E+01 -0.52325674978E+02 -0.41547702736E+03  0.42869509737E+03  0.91616107881E+02 0.  0.
         23    2    1    2    0    0  0.10804344438E+02  0.79511895548E+02  0.59083553922E+02  0.13481946490E+03  0.90810497075E+02 0.  0.
        -13    1    4    4    0    0 -0.23171191623E+02 -0.97270749690E+01  0.17766257581E+02  0.30775964926E+02  0.00000000000E+00 0.  1.
         13    1    4    4    0    0  0.33975536061E+02  0.89238970518E+02  0.41317296341E+02  0.10404349997E+03  0.00000000000E+00 0. -1.
        -13    1    3    3    0    0  0.29025941810E+02 -0.69545050767E+02 -0.32195381128E+03  0.33065582708E+03  0.00000000000E+00 0. -1.
         13    1    3    3    0    0 -0.23845328059E+02  0.17219375789E+02 -0.93523216079E+02  0.98039270288E+02  0.00000000000E+00 0.  1.
          1    1    1    2  501    0 -0.15984958189E+02 -0.27186220570E+02  0.39195658316E+02  0.50308141568E+02  0.00000000000E+00 0. -1.
<scales pt_clust_5="13000.00000" pt_clust_6="13000.00000" pt_clust_7="13000.00000" pt_clust_8="13000.00000" pt_clust_9="31.53743"></scales>
<clustering>
<clus scale="   31.537">  1  9  2 -1</clus>
<clus scale="   90.810">  5  6 -1 -1</clus>
<clus scale="   91.616">  7  8 -1 -1</clus>
<clus scale="  105.766">  1  5  2 -1</clus>
<clus scale="   31.537">  1  5  2 -1</clus>
</clustering>
</event>
<event>
 9    1  0.3288491E-005  0.1324146E+03  0.7546771E-02  0.1226625E+00
          1   -1    0    0  502    0 -0.00000000000E+00  0.00000000000E+00  0.36995011555E+03  0.36995011555E+03  0.00000000000E+00 0. -1.
         21   -1    0    0  501  502  0.00000000000E+00 -0.00000000000E+00 -0.12829921701E+03  0.12829921701E+03  0.00000000000E+00 0.  1.
         23    2    1    2    0    0 -0.83991119345E+02  0.23217320923E+02  0.30116298102E+03  0.32637665922E+03  0.90714003504E+02 0.  0.
         23    2    1    2    0    0  0.82083985288E+02  0.32887811387E+01 -0.64330768996E+02  0.14486470513E+03  0.10049247848E+03 0.  0.
        -11    1    3    3    0    0  0.45731164520E+01 -0.21042344027E+02  0.98447309971E+02  0.10077483057E+03  0.00000000000E+00 0.  1.
         11    1    3    3    0    0 -0.88564235797E+02  0.44259664950E+02  0.20271567104E+03  0.22560182865E+03  0.00000000000E+00 0. -1.
        -13    1    4    4    0    0  0.14753871511E+02  0.18737401422E+02  0.23258509959E+02  0.33312538512E+02  0.00000000000E+00 0. -1.
         13    1    4    4    0    0  0.67330113777E+02 -0.15448620283E+02 -0.87589278954E+02  0.11155216662E+03  0.00000000000E+00 0.  1.
          1    1    1    2  501    0  0.19071340577E+01 -0.26506102062E+02  0.48186865255E+01  0.27007968207E+02  0.00000000000E+00 0. -1.
<scales pt_clust_5="13000.00000" pt_clust_6="13000.00000" pt_clust_7="13000.00000" pt_clust_8="13000.00000" pt_clust_9="26.57462"></scales>
<clustering>
<clus scale="   26.575">  2  9  1 -1</clus>
<clus scale="   90.714">  5  6 -1 -1</clus>
<clus scale="  100.492">  7  8 -1 -1</clus>
<clus scale="  125.156">  1  5  2 -1</clus>
<clus scale="   26.575">  2  5  1 -1</clus>
</clustering>
</event>
<event>
 9    1  0.3288491E-005  0.1080505E+03  0.7546771E-02  0.1265786E+00
         21   -1    0    0  501  502  0.00000000000E+00  0.00000000000E+00  0.11543060449E+03  0.11543060449E+03  0.00000000000E+00 0. -1.
         -1   -1    0    0    0  501 -0.00000000000E+00 -0.00000000000E+00 -0.34885086728E+03  0.34885086728E+03  0.00000000000E+00 0.  1.
         23    2    1    2    0    0  0.33809678549E+02 -0.47722682628E+02 -0.16592681244E+03  0.19796670653E+03  0.90766519196E+02 0.  0.
         23    2    1    2    0    0 -0.50930102356E+02  0.33404484421E+02 -0.14837530516E+03  0.18241009226E+03  0.86881964027E+02 0.  0.
        -11    1    3    3    0    0  0.24229471501E+02 -0.95818779277E+01 -0.15496745661E+03  0.15714258584E+03  0.00000000000E+00 0.  1.
         11    1    3    3    0    0  0.95802070485E+01 -0.38140804700E+02 -0.10959355825E+02  0.40824120693E+02  0.00000000000E+00 0. -1.
        -11    1    4    4    0    0 -0.26466257866E+02 -0.28888045276E+02 -0.55292964918E+02  0.67766466152E+02  0.00000000000E+00 0. -1.
         11    1    4    4    0    0 -0.24463844490E+02  0.62292529697E+02 -0.93082340242E+02  0.11464362611E+03  0.00000000000E+00 0.  1.
         -1    1    1    2    0  502  0.17120423806E+02  0.14318198207E+02  0.80881854806E+02  0.83904672981E+02  0.00000000000E+00 0.  1.
<scales pt_clust_5="13000.00000" pt_clust_6="13000.00000" pt_clust_7="13000.00000" pt_clust_8="13000.00000" pt_clust_9="22.31860"></scales>
<clustering>
<clus scale="   22.319">  1  9  2 -1</clus>
<clus scale="   86.882">  7  8 -1 -1</clus>
<clus scale="   90.767">  5  6 -1 -1</clus>
<clus scale="  104.809">  1  7  2 -1</clus>
<clus scale="   22.319">  1  5  2 -1</clus>
</clustering>
</event>
<event>
 9    1  0.3288491E-005  0.1172148E+03  0.7546771E-02  0.1247839E+00
         21   -1    0    0  501  502  0.00000000000E+00  0.00000000000E+00  0.36684554827E+03  0.36684554827E+03  0.00000000000E+00 0.  1.
          1   -1    0    0  502    0 -0.00000000000E+00 -0.00000000000E+00 -0.70416418109E+02  0.70416418109E+02  0.00000000000E+00 0. -1.
         23    2    1    2    0    0  0.76542708637E+02  0.59960023772E+01  0.11296877278E+02  0.11923788515E+03  0.90527982023E+02 0.  0.
         23    2    1    2    0    0 -0.65118243510E+02  0.18844457809E+02  0.23658803222E+03  0.26230955686E+03  0.90757409631E+02 0.  0.
        -11    1    3    3    0    0  0.54159485634E+02 -0.20331103347E+02  0.43205211088E+02  0.72203143371E+02  0.00000000000E+00 0.  1.
         11    1    3    3    0    0  0.22383223003E+02  0.26327105724E+02 -0.31908333810E+02  0.47034741780E+02  0.00000000000E+00 0. -1.
        -11    1    4    4    0    0 -0.84720050576E+02  0.11469657337E+02  0.21852315729E+03  0.23465167863E+03  0.00000000000E+00 0.  1.
         11    1    4    4    0    0  0.19601807066E+02  0.73748004722E+01  0.18064874923E+02  0.27657878231E+02  0.00000000000E+00 0. -1.
          1    1    1    2  501    0 -0.11424465127E+02 -0.24840460186E+02  0.48544220665E+02  0.55714524369E+02  0.00000000000E+00 0. -1.
<scales pt_clust_5="13000.00000" pt_clust_6="13000.00000" pt_clust_7="13000.00000" pt_clust_8="13000.00000" pt_clust_9="27.34167"></scales>
<clustering>
<clus scale="   27.342">  1  9  2 -1</clus>
<clus scale="   90.528">  5  6 -1 -1</clus>
<clus scale="   90.757">  7  8 -1 -1</clus>
<clus scale="  117.037">  2  5  1 -1</clus>
<clus scale="   27.342">  1  5  2 -1</clus>
</clustering>
</event>
<event>
 9    1  0.3288491E-005  0.1146803E+03  0.7546771E-02  0.1253214E+00
          2   -1    0    0  502    0 -0.00000000000E+00  0.00000000000E+00  0.32290891244E+03  0.32290891244E+03  0.00000000000E+00 0. -1.
         21   -1    0    0  501  502  0.00000000000E+00 -0.00000000000E+00 -0.74052474719E+02  0.74052474719E+02  0.00000000000E+00 0. -1.
         23    2    1    2    0    0  0.43375349222E+02  0.54252264550E+02  0.17045593637E+03  0.20471368747E+03  0.89597647660E+02 0.  0.
         23    2    1    2    0    0 -0.71786300706E+02 -0.17492812548E+02  0.24314782826E+02  0.12094759854E+03  0.92616637103E+02 0.  0.
        -11    1    3    3    0    0  0.57068077949E+02  0.71390825656E+02  0.13542193622E+03  0.16337844509E+03  0.00000000000E+00 0. -1.
         11    1    3    3    0    0 -0.13692728727E+02 -0.17138561107E+02  0.35034000145E+02  0.41335242384E+02  0.00000000000E+00 0.  1.
        -13    1    4    4    0    0  0.12102979065E+02 -0.30109641933E+02 -0.84639450242E+00  0.32462116740E+02  0.00000000000E+00 0.  1.
         13    1    4    4    0    0 -0.83889279772E+02  0.12616829385E+02  0.25161177328E+02  0.88485481797E+02  0.00000000000E+00 0. -1.
          2    1    1    2  501    0  0.28410951484E+02 -0.36759452002E+02  0.54085718533E+02  0.71300101157E+02  0.00000000000E+00 0. -1.
<scales pt_clust_5="13000.00000" pt_clust_6="13000.00000" pt_clust_7="13000.00000" pt_clust_8="13000.00000" pt_clust_9="46.45903"></scales>
<clustering>
<clus scale="   46.459">  2  9  1 -1</clus>
<clus scale="   89.598">  5  6 -1 -1</clus>
<clus scale="   92.617">  7  8 -1 -1</clus>
<clus scale="  112.256">  1  5  2 -1</clus>
<clus scale="   46.459">  2  5  1 -1</clus>
</clustering>
</event>
<event>
 9    1  0.3288491E-005  0.1187451E+03  0.7546771E-02  0.1245584E+00
          2   -1    0    0  502    0 -0.00000000000E+00  0.00000000000E+00  0.37345138163E+03  0.37345138163E+03  0.00000000000E+00 0. -1.
         21   -1    0    0  501  502  0.00000000000E+00 -0.00000000000E+00 -0.54508731335E+02  0.54508731335E+02  0.00000000000E+00 0.  1.
         23    2    1    2    0    0 -0.44571351294E+02  0.54775193337E+02  0.18996498814E+03  0.22267209444E+03  0.92245529763E+02 0.  0.
         23    2    1    2    0    0  0.67066515930E+02 -0.48024455089E+02  0.13345822149E+03  0.18137818141E+03  0.91009241094E+02 0.  0.
        -11    1    3    3    0    0 -0.15552339347E+02  0.43344347847E+02  0.18554150228E+03  0.19117075304E+03  0.00000000000E+00 0. -1.
         11    1    3    3    0    0 -0.29019011947E+02  0.11430845489E+02  0.44234858646E+01  0.31501341403E+02  0.00000000000E+00 0.  1.
        -13    1    4    4    0    0  0.27204625781E+02 -0.57275122998E+01 -0.75951405528E+01  0.28819823404E+02  0.00000000000E+00 0. -1.
         13    1    4    4    0    0  0.39861890149E+02 -0.42296942790E+02  0.14105336204E+03  0.15255835801E+03  0.00000000000E+00 0.  1.
          2    1    1    2  501    0 -0.22495164636E+02 -0.67507382475E+01 -0.44805593313E+01  0.23909837114E+02  0.00000000000E+00 0. -1.
<scales pt_clust_5="13000.00000" pt_clust_6="13000.00000" pt_clust_7="13000.00000" pt_clust_8="13000.00000" pt_clust_9="23.48627"></scales>
<clustering>
<clus scale="   23.486">  2  9  1 -1</clus>
<clus scale="   91.009">  7  8 -1 -1</clus>
<clus scale="   92.246">  5  6 -1 -1</clus>
<clus scale="  117.787">  2  7  1 -1</clus>
<clus scale="   23.486">  2  5  1 -1</clus>
</clustering>
</event>
<event>
 9    1  0.3288491E-005  0.1103609E+03  0.7546771E-02  0.1261193E+00
         -2   -1    0    0    0  501 -0.00000000000E+00  0.00000000000E+00  0.96653230184E+02  0.96653230184E+02  0.00000000000E+00 0.  1.
         21   -1    0    0  501  502  0.00000000000E+00 -0.00000000000E+00 -0.24330684665E+03  0.24330684665E+03  0.00000000000E+00 0. -1.
         23    2    1    2    0    0 -0.53658575057E+02  0.12179294717E+02  0.16054851982E+02  0.11034419726E+03  0.94289478205E+02 0.  0.
         23    2    1    2    0    0  0.55293080374E+02 -0.45944269259E+02 -0.15719580145E+03  0.19536482688E+03  0.91042270247E+02 0.  0.
        -13    1    4    4    0    0 -0.13153331593E+02  0.17781102109E+02 -0.36494888963E+02  0.42673816851E+02  0.00000000000E+00 0.  1.
         13    1    4    4    0    0  0.68446411967E+02 -0.63725371369E+02 -0.12070091249E+03  0.15269101002E+03  0.00000000000E+00 0. -1.
        -13    1    3    3    0    0 -0.72108748257E+02 -0.17462701970E+02  0.91811074806E+01  0.74759014640E+02  0.00000000000E+00 0. -1.
         13    1    3    3    0    0  0.18450173201E+02  0.29641996687E+02  0.68737445017E+01  0.35585182621E+02  0.00000000000E+00 0.  1.
         -2    1    1    2    0  502 -0.16345053176E+01  0.33764974543E+02 -0.55126670014E+01  0.34251052699E+02  0.00000000000E+00 0.  1.
<scales pt_clust_5="13000.00000" pt_clust_6="13000.00000" pt_clust_7="13000.00000" pt_clust_8="13000.00000" pt_clust_9="33.80453"></scales>
<clustering>
<clus scale="   33.805">  2  9  1 -1</clus>
<clus scale="   91.042">  5  6 -1 -1</clus>
<clus scale="   94.289">  7  8 -1 -1</clus>
<clus scale="  107.600">  2  5  1 -1</clus>
<clus scale="   33.805">  2  5  1 -1</clus>
</clustering>
</event>
<event>
 9    1  0.3288491E-005  0.1250254E+03  0.7546771E-02  0.1235738E+00
         -1   -1    0    0    0  501 -0.00000000000E+00  0.00000000000E+00  0.85454500609E+02  0.85454500609E+02  0.00000000000E+00 0.  1.
         21   -1    0    0  501  502  0.00000000000E+00 -0.00000000000E+00 -0.46200790957E+03  0.46200790957E+03  0.00000000000E+00 0. -1.
         23    2    1    2    0    0  0.62383293291E+02  0.52578072628E+02  0.88630987095E+01  0.12212646891E+03  0.90444407709E+02 0.  0.
         23    2    1    2    0    0 -0.80685903808E+02 -0.71689360041E+02 -0.23938806921E+03  0.27692929824E+03  0.87940941120E+02 0.  0.
        -11    1    3    3    0    0  0.70731965502E+02  0.10609473533E+02  0.25900579770E+02  0.76068468532E+02  0.00000000000E+00 0.  1.
         11    1    3    3    0    0 -0.83486722108E+01  0.41968599094E+02 -0.17037481060E+02  0.46058000375E+02  0.00000000000E+00 0. -1.
        -13    1    4    4    0    0  0.64804043934E+01 -0.29243164781E+02 -0.11710818504E+03  0.12087797703E+03  0.00000000000E+00 0.  1.
         13    1    4    4    0    0 -0.87166308201E+02 -0.42446195260E+02 -0.12227988417E+03  0.15605132121E+03  0.00000000000E+00 0. -1.
         -1    1    1    2    0  502  0.18302610517E+02  0.19111287413E+02 -0.14602843846E+03  0.14840664304E+03  0.00000000000E+00 0.  1.
<scales pt_clust_5="13000.00000" pt_clust_6="13000.00000" pt_clust_7="13000.00000" pt_clust_8="13000.00000" pt_clust_9="26.46180"></scales>
<clustering>
<clus scale="   26.462">  2  9  1 -1</clus>
<clus scale="   87.941">  7  8 -1 -1</clus>
<clus scale="   90.444">  5  6 -1 -1</clus>
<clus scale="  123.226">  2  7  1 -1</clus>
<clus scale="   26.462">  2  5  1 -1</clus>
</clustering>
</event>
<event>
 9    1  0.3288491E-005  0.9753919E+02  0.7546771E-02  0.1285873E+00
         -3   -1    0    0    0  501 -0.00000000000E+00  0.00000000000E+00  0.73845531658E+02  0.73845531658E+02  0.00000000000E+00 0.  1.
         21   -1    0    0  501  502  0.00000000000E+00 -0.00000000000E+00 -0.26033098906E+03  0.26033098906E+03  0.00000000000E+00 0.  1.
         23    2    1    2    0    0  0.94984785510E+01  0.23975190337E+02 -0.27686473715E+02  0.97680719483E+02  0.90055267950E+02 0.  0.
         23    2    1    2    0    0  0.10767727521E+01 -0.66774126946E+02 -0.15589143155E+03  0.19231391836E+03  0.90678339738E+02 0.  0.
        -13    1    3    3    0    0  0.34201606369E+02  0.40228487687E+02  0.56680525056E+01  0.53105629824E+02  0.00000000000E+00 0. -1.
         13    1    3    3    0    0 -0.24703127818E+02 -0.16253297350E+02 -0.33354526221E+02  0.44575089659E+02  0.00000000000E+00 0.  1.
        -13    1    4    4    0    0  0.37170647524E+02 -0.19327614647E+01 -0.39470363849E+02  0.54252209417E+02  0.00000000000E+00 0. -1.
         13    1    4    4    0    0 -0.36093874771E+02 -0.64841365481E+02 -0.11642106770E+03  0.13806170895E+03  0.00000000000E+00 0.  1.
         -3    1    1    2    0  502 -0.10575251303E+02  0.42798936609E+02 -0.29075521446E+01  0.44181882875E+02  0.00000000000E+00 0.  1.
<scales pt_clust_5="13000.00000" pt_clust_6="13000.00000" pt_clust_7="13000.00000" pt_clust_8="13000.00000" pt_clust_9="44.08613"></scales>
<clustering>
<clus scale="   44.086">  2  9  1 -1</clus>
<clus scale="   90.055">  5  6 -1 -1</clus>
<clus scale="   90.678">  7  8 -1 -1</clus>
<clus scale="   96.960">  1  5  2 -1</clus>
<clus scale="   44.086">  2  5  1 -1</clus>
</clustering>
</event>
<event>
 9    1  0.3288491E-005  0.2546136E+03  0.7546771E-02  0.1138894E+00
         21   -1    0    0  501  502  0.00000000000E+00  0.00000000000E+00  0.28058603227E+03  0.28058603227E+03  0.00000000000E+00 0. -1.
          1   -1    0    0  502    0 -0.00000000000E+00 -0.00000000000E+00 -0.74106392688E+03  0.74106392688E+03  0.00000000000E+00 0. -1.
         23    2    1    2    0    0 -0.86420321672E+02  0.11282823637E+02 -0.50375806093E+03  0.51919556403E+03  0.90532180226E+02 0.  0.
         23    2    1    2    0    0 -0.14398473609E+03  0.14157475294E+03 -0.69628345160E+01  0.22142719271E+03  0.90589766042E+02 0.  0.
        -13    1    4    4    0    0 -0.13549039577E+03  0.99300571614E+02 -0.32806445610E+02  0.17115640141E+03  0.00000000000E+00 0. -1.
         13    1    4    4    0    0 -0.84943403195E+01  0.42274181328E+02  0.25843611094E+02  0.50270791309E+02  0.00000000000E+00 0.  1.
        -13    1    3    3    0    0 -0.33143053639E+02 -0.37394565026E+02 -0.14848870879E+03  0.15667071244E+03  0.00000000000E+00 0. -1.
         13    1    3    3    0    0 -0.53277268033E+02  0.48677388663E+02 -0.35526935214E+03  0.36252485160E+03  0.00000000000E+00 0.  1.
          1    1    1    2  501    0  0.23040505776E+03 -0.15285757658E+03  0.50243000838E+02  0.28102720241E+03  0.00000000000E+00 0. -1.
<scales pt_clust_5="13000.00000" pt_clust_6="13000.00000" pt_clust_7="13000.00000" pt_clust_8="13000.00000" pt_clust_9="237.95299"></scales>
<clustering>
<clus scale="   90.532">  7  8 -1 -1</clus>
<clus scale="   90.590">  5  6 -1 -1</clus>
<clus scale="  125.666">  2  7  1 -1</clus>
<clus scale="  237.953">  1  9  2 -1</clus>
<clus scale="  237.953">  1  5  2 -1</clus>
</clustering>
</event>
<event>
 9    1  0.3288491E-005  0.1843191E+03  0.7546771E-02  0.1186689E+00
         21   -1    0    0  501  502  0.00000000000E+00  0.00000000000E+00  0.11213839522E+03  0.11213839522E+03  0.00000000000E+00 0.  1.
          1   -1    0    0  502    0 -0.00000000000E+00 -0.00000000000E+00 -0.50744405980E+03  0.50744405980E+03  0.00000000000E+00 0. -1.
         23    2    1    2    0    0  0.45903244210E+02  0.37581122406E+02 -0.61134823255E+02  0.12534314497E+03  0.91945575127E+02 0.  0.
         23    2    1    2    0    0  0.51764998575E+02 -0.16405181016E+03 -0.24162558156E+03  0.30958139494E+03  0.88685438121E+02 0.  0.
        -13    1    4    4    0    0  0.50140944476E+02 -0.13342690908E+03 -0.23966868087E+03  0.27885109103E+03  0.00000000000E+00 0. -1.
         13    1    4    4    0    0  0.16240540994E+01 -0.30624901078E+02 -0.19569006863E+01  0.30730303905E+02  0.00000000000E+00 0.  1.
        -13    1    3    3    0    0 -0.65935101744E+01  0.53942025816E+02 -0.27810967734E+02  0.61046428658E+02  0.00000000000E+00 0.  1.
         13    1    3    3    0    0  0.52496754385E+02 -0.16360903410E+02 -0.33323855520E+02  0.64296716309E+02  0.00000000000E+00 0. -1.
          1    1    1    2  501    0 -0.97668242786E+02  0.12647068775E+03 -0.92545259764E+02  0.18465791511E+03  0.00000000000E+00 0. -1.
<scales pt_clust_5="13000.00000" pt_clust_6="13000.00000" pt_clust_7="13000.00000" pt_clust_8="13000.00000" pt_clust_9="161.58106"></scales>
<clustering>
<clus scale="   88.685">  5  6 -1 -1</clus>
<clus scale="   91.946">  7  8 -1 -1</clus>
<clus scale="  109.423">  2  7  1 -1</clus>
<clus scale="  161.581">  1  9  2 -1</clus>
<clus scale="  161.581">  1  5  2 -1</clus>
</clustering>
</event>
<event>
 9    1  0.3288491E-005  0.1088967E+03  0.7546771E-02  0.1263826E+00
         21   -1    0    0  501  502  0.00000000000E+00  0.00000000000E+00  0.22491839425E+03  0.22491839425E+03  0.00000000000E+00 0.  1.
         -3   -1    0    0    0  501 -0.00000000000E+00 -0.00000000000E+00 -0.65134408908E+03  0.65134408908E+03  0.00000000000E+00 0.  1.
         23    2    1    2    0    0 -0.53841995913E+02  0.19909176971E+02 -0.58000142497E+03  0.59018540425E+03  0.92853769803E+02 0.  0.
         23    2    1    2    0    0  0.53007304871E+02  0.40024694230E+02  0.18669959645E+03  0.21759382460E+03  0.89880936082E+02 0.  0.
        -11    1    4    4    0    0  0.13707031064E+02  0.61304002293E+02  0.13724199829E+03  0.15093518308E+03  0.00000000000E+00 0.  1.
         11    1    4    4    0    0  0.39300273806E+02 -0.21279308063E+02  0.49457598156E+02  0.66658641512E+02  0.00000000000E+00 0. -1.
        -11    1    3    3    0    0 -0.80255081899E+02  0.10713499938E+02 -0.41373348721E+03  0.42158161214E+03  0.00000000000E+00 0.  1.
         11    1    3    3    0    0  0.26413085985E+02  0.91956770333E+01 -0.16626793776E+03  0.16860379211E+03  0.00000000000E+00 0. -1.
         -3    1    1    2    0  502  0.83469104262E+00 -0.59933871201E+02 -0.33123866304E+02  0.68483254487E+02  0.00000000000E+00 0.  1.
<scales pt_clust_5="13000.00000" pt_clust_6="13000.00000" pt_clust_7="13000.00000" pt_clust_8="13000.00000" pt_clust_9="59.93968"></scales>
<clustering>
<clus scale="   59.940">  1  9  2 -1</clus>
<clus scale="   89.881">  5  6 -1 -1</clus>
<clus scale="   92.854">  7  8 -1 -1</clus>
<clus scale="  106.373">  1  5  2 -1</clus>
<clus scale="   59.940">  1  5  2 -1</clus>
</clustering>
</event>
<event>
 9    1  0.3288491E-005  0.1292885E+03  0.7546771E-02  0.1229662E+00
         -2   -1    0    0    0  501 -0.00000000000E+00  0.00000000000E+00  0.41049690087E+03  0.41049690087E+03  0.00000000000E+00 0.  1.
         21   -1    0    0  501  502  0.00000000000E+00 -0.00000000000E+00 -0.69909633214E+02  0.69909633214E+02  0.00000000000E+00 0. -1.
         23    2    1    2    0    0  0.47918000972E+02  0.99016634965E+02  0.18413887089E+03  0.23254280900E+03  0.89825416395E+02 0.  0.
         23    2    1    2    0    0  0.16480932916E+02 -0.74570984331E+02  0.11734002263E+03  0.16865338832E+03  0.94036331431E+02 0.  0.
        -11    1    3    3    0    0  0.40292376896E+02  0.61031632705E+02  0.40141738698E+02  0.83424786558E+02  0.00000000000E+00 0. -1.
         11    1    3    3    0    0  0.76256240758E+01  0.37985002261E+02  0.14399713219E+03  0.14911802244E+03  0.00000000000E+00 0.  1.
        -13    1    4    4    0    0 -0.23629718266E+02 -0.36915113713E+02  0.10279091403E+03  0.11174551988E+03  0.00000000000E+00 0.  1.
         13    1    4    4    0    0  0.40110651182E+02 -0.37655870617E+02  0.14549108601E+02  0.56907868448E+02  0.00000000000E+00 0. -1.
         -2    1    1    2    0  502 -0.64398933888E+02 -0.24445650635E+02  0.39108374136E+02  0.79210336753E+02  0.00000000000E+00 0.  1.
<scales pt_clust_5="13000.00000" pt_clust_6="13000.00000" pt_clust_7="13000.00000" pt_clust_8="13000.00000" pt_clust_9="68.88260"></scales>
<clustering>
<clus scale="   68.883">  2  9  1 -1</clus>
<clus scale="   89.825">  5  6 -1 -1</clus>
<clus scale="   94.036">  7  8 -1 -1</clus>
<clus scale="  126.259">  1  5  2 -1</clus>
<clus scale="   68.883">  2  5  1 -1</clus>
</clustering>
</event>
<event>
 9    1  0.3288491E-005  0.1687368E+03  0.7546771E-02  0.1197824E+00
         -1   -1    0    0    0  501 -0.00000000000E+00  0.00000000000E+00  0.76485203830E+03  0.76485203830E+03  0.00000000000E+00 0.  1.
         21   -1    0    0  501  502  0.00000000000E+00 -0.00000000000E+00 -0.60255356176E+02  0.60255356176E+02  0.00000000000E+00 0.  1.
         23    2    1    2    0    0  0.50942029808E+02 -0.34456177602E+02  0.16206262492E+03  0.19678409115E+03  0.93152378165E+02 0.  0.
         23    2    1    2    0    0  0.48420524903E+02  0.13552669058E+03  0.33819565797E+03  0.37964208716E+03  0.95077758609E+02 0.  0.
        -11    1    4    4    0    0 -0.22886692175E+02  0.22410726809E+02  0.30865672844E+02  0.44482930602E+02  0.00000000000E+00 0. -1.
         11    1    4    4    0    0  0.71307217078E+02  0.11311596377E+03  0.30732998512E+03  0.33515915656E+03  0.00000000000E+00 0.  1.
        -11    1    3    3    0    0 -0.83670647042E+01  0.25765493911E+02  0.40440711046E+02  0.48675656730E+02  0.00000000000E+00 0.  1.
         11    1    3    3    0    0  0.59309094512E+02 -0.60221671513E+02  0.12162191388E+03  0.14810843442E+03  0.00000000000E+00 0. -1.
         -1    1    1    2    0  502 -0.99362554711E+02 -0.10107051298E+03  0.20433839923E+03  0.24868121616E+03  0.00000000000E+00 0.  1.
<scales pt_clust_5="13000.00000" pt_clust_6="13000.00000" pt_clust_7="13000.00000" pt_clust_8="13000.00000" pt_clust_9="139.39992"></scales>
<clustering>
<clus scale="   93.152">  7  8 -1 -1</clus>
<clus scale="   95.078">  5  6 -1 -1</clus>
<clus scale="  111.623">  1  7  2 -1</clus>
<clus scale="  139.400">  2  9  1 -1</clus>
<clus scale="  139.400">  2  5  1 -1</clus>
</clustering>
</event>
<event>
 9    1  0.3288491E-005  0.1034151E+03  0.7546771E-02  0.1274654E+00
          1   -1    0    0  502    0 -0.00000000000E+00  0.00000000000E+00  0.66900072298E+02  0.66900072298E+02  0.00000000000E+00 0. -1.
         21   -1    0    0  501  502  0.00000000000E+00 -0.00000000000E+00 -0.21206868650E+03  0.21206868650E+03  0.00000000000E+00 0.  1.
         23    2    1    2    0    0  0.53269354325E+01 -0.35077969859E+02 -0.33482993976E+02  0.10262693128E+03  0.90290287011E+02 0.  0.
         23    2    1    2    0    0 -0.15607783154E+02  0.57404284838E+02 -0.81563171753E+02  0.13746352930E+03  0.93299603896E+02 0.  0.
        -11    1    3    3    0    0 -0.30303665737E+02 -0.23675817290E+02  0.15095702805E+02  0.41312670268E+02  0.00000000000E+00 0. -1.
         11    1    3    3    0    0  0.35630601170E+02 -0.11402152568E+02 -0.48578696781E+02  0.61314261015E+02  0.00000000000E+00 0.  1.
        -13    1    4    4    0    0 -0.59031214893E+00  0.79135129994E+02 -0.41185462854E+02  0.89213001396E+02  0.00000000000E+00 0.  1.
         13    1    4    4    0    0 -0.15017471005E+02 -0.21730845157E+02 -0.40377708899E+02  0.48250527899E+02  0.00000000000E+00 0. -1.
          1    1    1    2  501    0  0.10280847722E+02 -0.22326314979E+02 -0.30122448468E+02  0.38878298215E+02  0.00000000000E+00 0. -1.
<scales pt_clust_5="13000.00000" pt_clust_6="13000.00000" pt_clust_7="13000.00000" pt_clust_8="13000.00000" pt_clust_9="24.57967"></scales>
<clustering>
<clus scale="   24.580">  2  9  1 -1</clus>
<clus scale="   90.290">  5  6 -1 -1</clus>
<clus scale="   93.300">  7  8 -1 -1</clus>
<clus scale="  100.709">  1  5  2 -1</clus>
<clus scale="   24.580">  2  5  1 -1</clus>
</clustering>
</event>
<event>
 9    1  0.3288491E-005  0.1536474E+03  0.7546771E-02  0.1198480E+00
         21   -1    0    0  501  502  0.00000000000E+00  0.00000000000E+00  0.21712916639E+03  0.21712916639E+03  0.00000000000E+00 0.  1.
         -2   -1    0    0    0  501 -0.00000000000E+00 -0.00000000000E+00 -0.40360163699E+03  0.40360163699E+03  0.00000000000E+00 0.  1.
         23    2    1    2    0    0  0.48091998890E+00 -0.11788165564E+03 -0.19851949588E+03  0.24938215160E+03  0.94261080367E+02 0.  0.
         23    2    1    2    0    0  0.38804666764E+02  0.99760100906E+02 -0.14459364149E+03  0.20884312400E+03  0.10606719280E+03 0.  0.
        -11    1    3    3    0    0 -0.18191726534E+02 -0.40227067137E+02 -0.10906515468E+02  0.45476454616E+02  0.00000000000E+00 0. -1.
         11    1    3    3    0    0  0.18672646523E+02 -0.77654588507E+02 -0.18761298041E+03  0.20390569699E+03  0.00000000000E+00 0.  1.
        -11    1    4    4    0    0  0.72958641155E+01  0.11191294786E+03 -0.86447427860E+02  0.14160118402E+03  0.00000000000E+00 0. -1.
         11    1    4    4    0    0  0.31508802649E+02 -0.12152846954E+02 -0.58146213626E+02  0.67241939982E+02  0.00000000000E+00 0.  1.
         -2    1    1    2    0  502 -0.39285586753E+02  0.18121554737E+02  0.15664066677E+03  0.16250552778E+03  0.00000000000E+00 0.  1.
<scales pt_clust_5="13000.00000" pt_clust_6="13000.00000" pt_clust_7="13000.00000" pt_clust_8="13000.00000" pt_clust_9="43.26370"></scales>
<clustering>
<clus scale="   43.264">  1  9  2 -1</clus>
<clus scale="   94.261">  5  6 -1 -1</clus>
<clus scale="  106.067">  7  8 -1 -1</clus>
<clus scale="  145.748">  2  5  1 -1</clus>
<clus scale="   43.264">  1  5  2 -1</clus>
</clustering>
</event>
<event>
 9    1  0.3288491E-005  0.1031595E+03  0.7546771E-02  0.1276634E+00
         21   -1    0    0  501  502  0.00000000000E+00  0.00000000000E+00  0.12620833946E+03  0.12620833946E+03  0.00000000000E+00 0.  1.
         -2   -1    0    0    0  501 -0.00000000000E+00 -0.00000000000E+00 -0.10262731438E+03  0.10262731438E+03  0.00000000000E+00 0.  1.
         23    2    1    2    0    0  0.55766703455E+01 -0.39028427995E+02 -0.54588920293E+00  0.10176781125E+03  0.93819358171E+02 0.  0.
         23    2    1    2    0    0  0.15729605458E+02  0.47455941334E+02  0.25311205077E+02  0.10412480630E+03  0.87760078213E+02 0.  0.
        -11    1    4    4    0    0  0.46860784928E+02  0.79255584474E+01  0.25229430009E+02  0.53807729736E+02  0.00000000000E+00 0.  1.
         11    1    4    4    0    0 -0.31131179470E+02  0.39530382887E+02  0.81775068099E-01  0.50317076560E+02  0.00000000000E+00 0. -1.
        -13    1    3    3    0    0 -0.31181998055E+02  0.36047568904E+01  0.24827631548E+02  0.40021526249E+02  0.00000000000E+00 0. -1.
         13    1    3    3    0    0  0.36758668401E+02 -0.42633184885E+02 -0.25373520751E+02  0.61746285000E+02  0.00000000000E+00 0.  1.
         -2    1    1    2    0  502 -0.21306275803E+02 -0.84275133398E+01 -0.11842907860E+01  0.22943036294E+02  0.00000000000E+00 0.  1.
<scales pt_clust_5="13000.00000" pt_clust_6="13000.00000" pt_clust_7="13000.00000" pt_clust_8="13000.00000" pt_clust_9="22.91246"></scales>
<clustering>
<clus scale="   22.912">  1  9  2 -1</clus>
<clus scale="   87.760">  5  6 -1 -1</clus>
<clus scale="   93.819">  7  8 -1 -1</clus>
<clus scale="   97.681">  1  5  2 -1</clus>
<clus scale="   22.912">  1  5  2 -1</clus>
</clustering>
</event>
<event>
 9    1  0.3288491E-005  0.1694434E+03  0.7546771E-02  0.1178988E+00
         21   -1    0    0  501  502  0.00000000000E+00  0.00000000000E+00  0.12450362996E+03  0.12450362996E+03  0.00000000000E+00 0.  1.
          2   -1    0    0  502    0 -0.00000000000E+00 -0.00000000000E+00 -0.41049032678E+03  0.41049032678E+03  0.00000000000E+00 0. -1.
         23    2    1    2    0    0  0.17396698274E+03  0.27927288013E+02 -0.23760830438E+03  0.30994407615E+03  0.92537449340E+02 0.  0.
         23    2    1    2    0    0 -0.10059168876E+03 -0.13067720171E+02 -0.63133728872E+02  0.14874483176E+03  0.88598555836E+02 0.  0.
        -13    1    4    4    0    0 -0.10833848622E+03 -0.32597122144E+02 -0.57907676827E+02  0.12709484256E+03  0.00000000000E+00 0. -1.
         13    1    4    4    0    0  0.77467974670E+01  0.19529401973E+02 -0.52260520444E+01  0.21649989200E+02  0.00000000000E+00 0.  1.
        -13    1    3    3    0    0  0.11352163504E+03  0.60485414858E+02 -0.13484986711E+03  0.18636022562E+03  0.00000000000E+00 0. -1.
         13    1    3    3    0    0  0.60445347701E+02 -0.32558126845E+02 -0.10275843727E+03  0.12358385053E+03  0.00000000000E+00 0.  1.
          2    1    1    2  501    0 -0.73375293981E+02 -0.14859567842E+02  0.14755336432E+02  0.76305048827E+02  0.00000000000E+00 0. -1.
<scales pt_clust_5="13000.00000" pt_clust_6="13000.00000" pt_clust_7="13000.00000" pt_clust_8="13000.00000" pt_clust_9="74.86481"></scales>
<clustering>
<clus scale="   74.865">  1  9  2 -1</clus>
<clus scale="   88.599">  5  6 -1 -1</clus>
<clus scale="   92.537">  7  8 -1 -1</clus>
<clus scale="  167.325">  1  5  2 -1</clus>
<clus scale="   74.865">  1  5  2 -1</clus>
</clustering>
</event>
<event>
 9    1  0.3288491E-005  0.1077100E+03  0.7546771E-02  0.1265048E+00
          1   -1    0    0  502    0 -0.00000000000E+00  0.00000000000E+00  0.32139212398E+03  0.32139212398E+03  0.00000000000E+00 0. -1.
         21   -1    0    0  501  502  0.00000000000E+00 -0.00000000000E+00 -0.17292830968E+03  0.17292830968E+03  0.00000000000E+00 0.  1.
         23    2    1    2    0    0 -0.22802355130E+01 -0.58959967325E+02  0.23237495475E+03  0.25613559872E+03  0.90143486263E+02 0.  0.
         23    2    1    2    0    0  0.45691648853E+02  0.50324950173E+02  0.29001404449E+02  0.11690681909E+03  0.90585846056E+02 0.  0.
        -13    1    3    3    0    0 -0.35187779943E+02 -0.11489046268E+02  0.15626417545E+03  0.16058851320E+03  0.00000000000E+00 0.  1.
         13    1    3    3    0    0  0.32907544430E+02 -0.47470921057E+02  0.76110779301E+02  0.95547085524E+02  0.00000000000E+00 0. -1.
        -13    1    4    4    0    0 -0.91927393616E+01  0.19791121922E+02  0.46791415229E+02  0.51629754048E+02  0.00000000000E+00 0. -1.
         13    1    4    4    0    0  0.54884388215E+02  0.30533828251E+02 -0.17790010780E+02  0.65277065045E+02  0.00000000000E+00 0.  1.
          1    1    1    2  501    0 -0.43411413340E+02  0.86350171515E+01 -0.11291254490E+03  0.12127801584E+03  0.00000000000E+00 0. -1.
<scales pt_clust_5="13000.00000" pt_clust_6="13000.00000" pt_clust_7="13000.00000" pt_clust_8="13000.00000" pt_clust_9="44.26188"></scales>
<clustering>
<clus scale="   44.262">  2  9  1 -1</clus>
<clus scale="   90.143">  5  6 -1 -1</clus>
<clus scale="   90.586">  7  8 -1 -1</clus>
<clus scale="  107.338">  1  5  2 -1</clus>
<clus scale="   44.262">  2  5  1 -1</clus>
</clustering>
</event>
<event>
 9    1  0.3288491E-005  0.1759621E+03  0.7546771E-02  0.1172266E+00
         21   -1    0    0  501  502  0.00000000000E+00  0.00000000000E+00  0.76841906595E+02  0.76841906595E+02  0.00000000000E+00 0. -1.
          1   -1    0    0  502    0 -0.00000000000E+00 -0.00000000000E+00 -0.67919419136E+03  0.67919419136E+03  0.00000000000E+00 0. -1.
         23    2    1    2    0    0  0.99153061842E+02  0.10733203486E+03 -0.38802027591E+03  0.42368349505E+03  0.87157753994E+02 0.  0.
         23    2    1    2    0    0 -0.13118589362E+03 -0.10229516713E+03 -0.10179278730E+03  0.21523493243E+03  0.91050890660E+02 0.  0.
        -11    1    4    4    0    0 -0.29407183310E+02 -0.46820755109E+02 -0.80065920151E+02  0.97301167048E+02  0.00000000000E+00 0.  1.
         11    1    4    4    0    0 -0.10177871031E+03 -0.55474412020E+02 -0.21726867147E+02  0.11793376538E+03  0.00000000000E+00 0. -1.
        -13    1    3    3    0    0  0.97281310892E+02  0.78207980078E+02 -0.36719684507E+03  0.38783200567E+03  0.00000000000E+00 0.  1.
         13    1    3    3    0    0  0.18717509501E+01  0.29124054780E+02 -0.20823430840E+02  0.35851489375E+02  0.00000000000E+00 0. -1.
          1    1    1    2  501    0  0.32032831780E+02 -0.50368677291E+01 -0.11253922156E+03  0.11711767048E+03  0.00000000000E+00 0. -1.
<scales pt_clust_5="13000.00000" pt_clust_6="13000.00000" pt_clust_7="13000.00000" pt_clust_8="13000.00000" pt_clust_9="32.42643"></scales>
<clustering>
<clus scale="   32.426">  1  9  2 -1</clus>
<clus scale="   87.158">  7  8 -1 -1</clus>
<clus scale="   91.051">  5  6 -1 -1</clus>
<clus scale="  173.979">  2  7  1 -1</clus>
<clus scale="   32.426">  1  5  2 -1</clus>
</clustering>
</event>
<event>
 9    1  0.3288491E-005  0.1420371E+03  0.7546771E-02  0.1212278E+00
         21   -1    0    0  501  502  0.00000000000E+00  0.00000000000E+00  0.97957716088E+02  0.97957716088E+02  0.00000000000E+00 0.  1.
          2   -1    0    0  502    0 -0.00000000000E+00 -0.00000000000E+00 -0.31792421951E+03  0.31792421951E+03  0.00000000000E+00 0. -1.
         23    2    1    2    0    0  0.75719061410E+02 -0.76931780091E+02 -0.96286036989E+02  0.17437193156E+03  0.97379127886E+02 0.  0.
         23    2    1    2    0    0 -0.18365843182E+02  0.10725188762E+03 -0.71684111310E+02  0.15836963173E+03  0.90011426187E+02 0.  0.
        -11    1    3    3    0    0  0.95208944457E+02 -0.54628142156E+02 -0.94256109376E+02  0.14468307149E+03  0.00000000000E+00 0.  1.
         11    1    3    3    0    0 -0.19489883047E+02 -0.22303637935E+02 -0.20299276123E+01  0.29688860073E+02  0.00000000000E+00 0. -1.
        -13    1    4    4    0    0  0.34566703764E+02  0.28739556657E+02 -0.12323109352E+02  0.46611995774E+02  0.00000000000E+00 0.  1.
         13    1    4    4    0    0 -0.52932546947E+02  0.78512330968E+02 -0.59361001958E+02  0.11175763595E+03  0.00000000000E+00 0. -1.
          2    1    1    2  501    0 -0.57353218228E+02 -0.30320107534E+02 -0.51996355122E+02  0.83140372310E+02  0.00000000000E+00 0. -1.
<scales pt_clust_5="13000.00000" pt_clust_6="13000.00000" pt_clust_7="13000.00000" pt_clust_8="13000.00000" pt_clust_9="64.87453"></scales>
<clustering>
<clus scale="   64.875">  1  9  2 -1</clus>
<clus scale="   90.011">  7  8 -1 -1</clus>
<clus scale="   97.379">  5  6 -1 -1</clus>
<clus scale="  137.091">  1  7  2 -1</clus>
<clus scale="   64.875">  1  5  2 -1</clus>
</clustering>
</event>
<event>
 9    1  0.3288491E-005  0.1162760E+03  0.7546771E-02  0.1253311E+00
          2   -1    0    0  502    0 -0.00000000000E+00  0.00000000000E+00  0.45866980217E+03  0.45866980217E+03  0.00000000000E+00 0. -1.
         21   -1    0    0  501  502  0.00000000000E+00 -0.00000000000E+00 -0.84928073216E+02  0.84928073216E+02  0.00000000000E+00 0.  1.
         23    2    1    2    0    0 -0.60824085532E+02  0.24848488561E+02  0.26271081626E+03  0.28580364680E+03  0.91376883190E+02 0.  0.
         23    2    1    2    0    0  0.30185020388E+02 -0.35381752610E+02  0.16237113671E+03  0.19708574016E+03  0.10156475306E+03 0.  0.
        -13    1    3    3    0    0 -0.76020063775E+02  0.63841342072E+01  0.24337395177E+03  0.25505036300E+03  0.00000000000E+00 0.  1.
         13    1    3    3    0    0  0.15195978243E+02  0.18464354353E+02  0.19336864491E+02  0.30753283805E+02  0.00000000000E+00 0. -1.
        -13    1    4    4    0    0 -0.12755174494E+02  0.29663638147E+02  0.33872474832E+02  0.46797120165E+02  0.00000000000E+00 0.  1.
         13    1    4    4    0    0  0.42940194882E+02 -0.65045390757E+02  0.12849866188E+03  0.15028861999E+03  0.00000000000E+00 0. -1.
          2    1    1    2  501    0  0.30639065144E+02  0.10533264050E+02 -0.51340224017E+02  0.60708488423E+02  0.00000000000E+00 0. -1.
<scales pt_clust_5="13000.00000" pt_clust_6="13000.00000" pt_clust_7="13000.00000" pt_clust_8="13000.00000" pt_clust_9="32.39910"></scales>
<clustering>
<clus scale="   32.399">  2  9  1 -1</clus>
<clus scale="   91.377">  5  6 -1 -1</clus>
<clus scale="  101.565">  7  8 -1 -1</clus>
<clus scale="  107.492">  1  5  2 -1</clus>
<clus scale="   32.399">  2  5  1 -1</clus>
</clustering>
</event>
<event>
 9    1  0.3288491E-005  0.9080543E+02  0.7546771E-02  0.1303823E+00
          1   -1    0    0  502    0 -0.00000000000E+00  0.00000000000E+00  0.19366862776E+03  0.19366862776E+03  0.00000000000E+00 0. -1.
         21   -1    0    0  501  502  0.00000000000E+00 -0.00000000000E+00 -0.12555902636E+03  0.12555902636E+03  0.00000000000E+00 0.  1.
         23    2    1    2    0    0  0.29294837051E+01  0.74522500739E+01  0.15332880496E+03  0.17590987307E+03  0.85851284843E+02 0.  0.
         23    2    1    2    0    0 -0.91071589543E+01  0.12214070678E+02 -0.56087800871E+02  0.10763071805E+03  0.90589216768E+02 0.  0.
        -11    1    4    4    0    0 -0.11257067013E+02 -0.30466124618E+02  0.52226822917E+01  0.32896545674E+02  0.00000000000E+00 0.  1.
         11    1    4    4    0    0  0.21499080582E+01  0.42680195296E+02 -0.61310483163E+02  0.74734172376E+02  0.00000000000E+00 0. -1.
        -13    1    3    3    0    0 -0.24796326718E+02  0.23102226095E+02  0.13496635875E+03  0.13915634612E+03  0.00000000000E+00 0. -1.
         13    1    3    3    0    0  0.27725810423E+02 -0.15649976021E+02  0.18362446200E+02  0.36753526954E+02  0.00000000000E+00 0.  1.
          1    1    1    2  501    0  0.61776752492E+01 -0.19666320752E+02 -0.29131402684E+02  0.35687063003E+02  0.00000000000E+00 0. -1.
<scales pt_clust_5="13000.00000" pt_clust_6="13000.00000" pt_clust_7="13000.00000" pt_clust_8="13000.00000" pt_clust_9="20.61378"></scales>
<clustering>
<clus scale="   20.614">  2  9  1 -1</clus>
<clus scale="   85.851">  7  8 -1 -1</clus>
<clus scale="   86.079">  1  7  2 -1</clus>
<clus scale="   90.589">  5  6 -1 -1</clus>
<clus scale="   20.614">  2  5  1 -1</clus>
</clustering>
</event>
<event>
 9    1  0.3288491E-005  0.1538978E+03  0.7546771E-02  0.1198310E+00
          1   -1    0    0  502    0 -0.00000000000E+00  0.00000000000E+00  0.33586254936E+03  0.33586254936E+03  0.00000000000E+00 0. -1.
         21   -1    0    0  501  502  0.00000000000E+00 -0.00000000000E+00 -0.11453282598E+03  0.11453282598E+03  0.00000000000E+00 0.  1.
         23    2    1    2    0    0  0.71999288959E+02 -0.81547124372E+02  0.12653738147E+03  0.18723211245E+03  0.84913626220E+02 0.  0.
         23    2    1    2    0    0 -0.91824239220E+02  0.92230957146E+02  0.13845554072E+03  0.21403437255E+03  0.98501449289E+02 0.  0.
        -11    1    3    3    0    0  0.35579168494E+02  0.28791648399E+01  0.69208918740E+01  0.36360219543E+02  0.00000000000E+00 0.  1.
         11    1    3    3    0    0  0.36420120465E+02 -0.84426289212E+02  0.11961648960E+03  0.15087189290E+03  0.00000000000E+00 0. -1.
        -13    1    4    4    0    0 -0.86336910902E+02  0.50644793122E+02  0.41430653007E+02  0.10833031092E+03  0.00000000000E+00 0.  1.
         13    1    4    4    0    0 -0.54873283177E+01  0.41586164024E+02  0.97024887710E+02  0.10570406163E+03  0.00000000000E+00 0. -1.
          1    1    1    2  501    0  0.19824950261E+02 -0.10683832774E+02 -0.43663198817E+02  0.49128890345E+02  0.00000000000E+00 0. -1.
<scales pt_clust_5="13000.00000" pt_clust_6="13000.00000" pt_clust_7="13000.00000" pt_clust_8="13000.00000" pt_clust_9="22.52050"></scales>
<clustering>
<clus scale="   22.521">  2  9  1 -1</clus>
<clus scale="   84.914">  5  6 -1 -1</clus>
<clus scale="   98.501">  7  8 -1 -1</clus>
<clus scale="  145.576">  1  5  2 -1</clus>
<clus scale="   22.521">  2  5  1 -1</clus>
</clustering>
</event>
<event>
 9    1  0.3288491E-005  0.1005569E+03  0.7546771E-02  0.1282549E+00
         21   -1    0    0  501  502  0.00000000000E+00  0.00000000000E+00  0.37226351118E+03  0.37226351118E+03  0.00000000000E+00 0. -1.
          1   -1    0    0  502    0 -0.00000000000E+00 -0.00000000000E+00 -0.79147131270E+02  0.79147131270E+02  0.00000000000E+00 0. -1.
         23    2    1    2    0    0  0.29542503587E+02 -0.59218725972E+01 -0.24357517021E+02  0.97627131942E+02  0.89609933393E+02 0.  0.
         23    2    1    2    0    0 -0.17213438690E+02  0.29982353676E+02  0.13521741274E+03  0.16953276120E+03  0.96241178340E+02 0.  0.
        -11    1    3    3    0    0 -0.13528975696E+02 -0.15455915072E+02  0.24386839222E+02  0.31884736495E+02  0.00000000000E+00 0.  1.
         11    1    3    3    0    0  0.43071479284E+02  0.95340424748E+01 -0.48744356243E+02  0.65742395447E+02  0.00000000000E+00 0. -1.
        -13    1    4    4    0    0  0.33076044952E+02 -0.47657243351E+01  0.19574436572E+02  0.38728483642E+02  0.00000000000E+00 0. -1.
         13    1    4    4    0    0 -0.50289483641E+02  0.34748078011E+02  0.11564297616E+03  0.13080427755E+03  0.00000000000E+00 0.  1.
          1    1    1    2  501    0 -0.12329064898E+02 -0.24060481079E+02  0.18225648419E+03  0.18425074931E+03  0.00000000000E+00 0. -1.
<scales pt_clust_5="13000.00000" pt_clust_6="13000.00000" pt_clust_7="13000.00000" pt_clust_8="13000.00000" pt_clust_9="27.03540"></scales>
<clustering>
<clus scale="   27.035">  1  9  2 -1</clus>
<clus scale="   89.610">  5  6 -1 -1</clus>
<clus scale="   94.230">  2  5  1 -1</clus>
<clus scale="   96.241">  7  8 -1 -1</clus>
<clus scale="   27.035">  1  5  2 -1</clus>
</clustering>
</event>
<event>
 9    1  0.3288491E-005  0.3074876E+03  0.7546771E-02  0.1081654E+00
         21   -1    0    0  501  502  0.00000000000E+00  0.00000000000E+00  0.38595426651E+03  0.38595426651E+03  0.00000000000E+00 0. -1.
          2   -1    0    0  502    0 -0.00000000000E+00 -0.00000000000E+00 -0.66815538045E+03  0.66815538045E+03  0.00000000000E+00 0. -1.
         23    2    1    2    0    0  0.19367948499E+03 -0.12153038439E+03 -0.17347001863E+03  0.30064864715E+03  0.89534264014E+02 0.  0.
         23    2    1    2    0    0 -0.39199400412E+03  0.26409147127E+03 -0.15289524240E+03  0.50526191866E+03  0.92244494875E+02 0.  0.
        -11    1    3    3    0    0  0.62491179600E+02 -0.12152918668E+02 -0.10408794271E+02  0.64507239579E+02  0.00000000000E+00 0. -1.
         11    1    3    3    0    0  0.13118830539E+03 -0.10937746572E+03 -0.16306122436E+03  0.23614140757E+03  0.00000000000E+00 0.  1.
        -11    1    4    4    0    0 -0.78618378101E+02  0.16275021396E+02 -0.97701148439E+01  0.80877566981E+02  0.00000000000E+00 0.  1.
         11    1    4    4    0    0 -0.31337562602E+03  0.24781644988E+03 -0.14312512756E+03  0.42438435168E+03  0.00000000000E+00 0. -1.
          2    1    1    2  501    0  0.19831451913E+03 -0.14256108688E+03  0.44164147100E+02  0.24819908114E+03  0.00000000000E+00 0. -1.
<scales pt_clust_5="13000.00000" pt_clust_6="13000.00000" pt_clust_7="13000.00000" pt_clust_8="13000.00000" pt_clust_9="244.23823"></scales>
<clustering>
<clus scale="   89.534">  5  6 -1 -1</clus>
<clus scale="   92.244">  7  8 -1 -1</clus>
<clus scale="  244.238">  1  9  2 -1</clus>
<clus scale="  306.685">  2  5  1 -1</clus>
<clus scale="  244.238">  1  5  2 -1</clus>
</clustering>
</event>
<event>
 9    1  0.3288491E-005  0.9208561E+02  0.7546771E-02  0.1298042E+00
         21   -1    0    0  501  502  0.00000000000E+00  0.00000000000E+00  0.14371182489E+03  0.14371182489E+03  0.00000000000E+00 0.  1.
         -4   -1    0    0    0  501 -0.00000000000E+00 -0.00000000000E+00 -0.22419679412E+03  0.22419679412E+03  0.00000000000E+00 0.  1.
         23    2    1    2    0    0  0.98714944813E+01  0.58185236447E+01 -0.14606350686E+03  0.17199291578E+03  0.90087254484E+02 0.  0.
         23    2    1    2    0    0 -0.50043197786E+02  0.34959775915E+02  0.25053490685E+00  0.10905729316E+03  0.90371028803E+02 0.  0.
        -11    1    4    4    0    0  0.91091550952E+01  0.40940443440E+02 -0.19710173080E+02  0.46342070934E+02  0.00000000000E+00 0.  1.
         11    1    4    4    0    0 -0.59152352881E+02 -0.59806675258E+01  0.19960707987E+02  0.62715222225E+02  0.00000000000E+00 0. -1.
        -11    1    3    3    0    0 -0.34779629383E+02  0.14162339219E+02 -0.10206286711E+03  0.10875211866E+03  0.00000000000E+00 0.  1.
         11    1    3    3    0    0  0.44651123864E+02 -0.83438155744E+01 -0.44000639756E+02  0.63240797114E+02  0.00000000000E+00 0. -1.
         -4    1    1    2    0  502  0.40171703305E+02 -0.40778299559E+02  0.65328002716E+02  0.86858410072E+02  0.00000000000E+00 0.  1.
<scales pt_clust_5="13000.00000" pt_clust_6="13000.00000" pt_clust_7="13000.00000" pt_clust_8="13000.00000" pt_clust_9="57.24190"></scales>
<clustering>
<clus scale="   57.242">  1  9  2 -1</clus>
<clus scale="   90.087">  7  8 -1 -1</clus>
<clus scale="   90.371">  5  6 -1 -1</clus>
<clus scale="   91.807">  2  7  1 -1</clus>
<clus scale="   57.242">  1  5  2 -1</clus>
</clustering>
</event>
<event>
 9    1  0.3288491E-005  0.1637420E+03  0.7546771E-02  0.1184973E+00
          1   -1    0    0  502    0 -0.00000000000E+00  0.00000000000E+00  0.10263130414E+04  0.10263130414E+04  0.00000000000E+00 0. -1.
         21   -1    0    0  501  502  0.00000000000E+00 -0.00000000000E+00 -0.36249636558E+02  0.36249636558E+02  0.00000000000E+00 0.  1.
         23    2    1    2    0    0 -0.11420571277E+03 -0.58572051866E+02  0.64880349299E+03  0.66757566063E+03  0.90761556049E+02 0.  0.
         23    2    1    2    0    0  0.13456182120E+03  0.63816693895E+02  0.31962752865E+03  0.36482350587E+03  0.93568045952E+02 0.  0.
        -13    1    4    4    0    0  0.78750703908E+02  0.18830443222E+02  0.25760909722E+03  0.27003463838E+03  0.00000000000E+00 0. -1.
         13    1    4    4    0    0  0.55811117289E+02  0.44986250673E+02  0.62018431434E+02  0.94788867491E+02  0.00000000000E+00 0.  1.
        -13    1    3    3    0    0 -0.15642669219E+02  0.23371249309E+02  0.91625959225E+02  0.95844795365E+02  0.00000000000E+00 0.  1.
         13    1    3    3    0    0 -0.98563043550E+02 -0.81943301175E+02  0.55717753377E+03  0.57173086527E+03  0.00000000000E+00 0. -1.
          1    1    1    2  501    0 -0.20356108427E+02 -0.52446420284E+01  0.21632383189E+02  0.30163511445E+02  0.00000000000E+00 0. -1.
<scales pt_clust_5="13000.00000" pt_clust_6="13000.00000" pt_clust_7="13000.00000" pt_clust_8="13000.00000" pt_clust_9="21.02088"></scales>
<clustering>
<clus scale="   21.021">  2  9  1 -1</clus>
<clus scale="   90.762">  7  8 -1 -1</clus>
<clus scale="   93.568">  5  6 -1 -1</clus>
<clus scale="  162.155">  1  7  2 -1</clus>
<clus scale="   21.021">  2  5  1 -1</clus>
</clustering>
</event>
<event>
 9    1  0.3288491E-005  0.1567928E+03  0.7546771E-02  0.1192526E+00
          1   -1    0    0  502    0 -0.00000000000E+00  0.00000000000E+00  0.89247367752E+03  0.89247367752E+03  0.00000000000E+00 0. -1.
         21   -1    0    0  501  502  0.00000000000E+00 -0.00000000000E+00 -0.68130317663E+02  0.68130317663E+02  0.00000000000E+00 0.  1.
         23    2    1    2    0    0  0.96098687775E+02 -0.79697835172E+02  0.54819653841E+03  0.56961191905E+03  0.91387038878E+02 0.  0.
         23    2    1    2    0    0 -0.72116495876E+02  0.11362580642E+03  0.30112868548E+03  0.34251170597E+03  0.92326435259E+02 0.  0.
        -11    1    3    3    0    0 -0.14736222083E+02 -0.27461493614E+02  0.86879482022E+02  0.92300239811E+02  0.00000000000E+00 0. -1.
         11    1    3    3    0    0  0.11083490986E+03 -0.52236341558E+02  0.46131705639E+03  0.47731167924E+03  0.00000000000E+00 0.  1.
        -13    1    4    4    0    0 -0.49435076379E+02  0.12156123133E+03  0.28444892328E+03  0.31326051410E+03  0.00000000000E+00 0.  1.
         13    1    4    4    0    0 -0.22681419497E+02 -0.79354249072E+01  0.16679762193E+02  0.29251191868E+02  0.00000000000E+00 0. -1.
          1    1    1    2  501    0 -0.23982191898E+02 -0.33927971251E+02 -0.24981864024E+02  0.48480370168E+02  0.00000000000E+00 0. -1.
<scales pt_clust_5="13000.00000" pt_clust_6="13000.00000" pt_clust_7="13000.00000" pt_clust_8="13000.00000" pt_clust_9="41.54820"></scales>
<clustering>
<clus scale="   41.548">  2  9  1 -1</clus>
<clus scale="   91.387">  5  6 -1 -1</clus>
<clus scale="   92.326">  7  8 -1 -1</clus>
<clus scale="  156.241">  1  5  2 -1</clus>
<clus scale="   41.548">  2  5  1 -1</clus>
</clustering>
</event>
<event>
 9    1  0.3288491E-005  0.1021198E+03  0.7546771E-02  0.1276902E+00
         -1   -1    0    0    0  501 -0.00000000000E+00  0.00000000000E+00  0.38768937386E+03  0.38768937386E+03  0.00000000000E+00 0.  1.
         21   -1    0    0  501  502  0.00000000000E+00 -0.00000000000E+00 -0.11857589056E+03  0.11857589056E+03  0.00000000000E+00 0.  1.
         23    2    1    2    0    0 -0.31007618075E+02 -0.27312981522E+02  0.19624344916E+03  0.21942093790E+03  0.89031372625E+02 0.  0.
         23    2    1    2    0    0  0.95052137200E+02  0.74347223546E+02 -0.35147289267E+02  0.15274860508E+03  0.86800840878E+02 0.  0.
        -11    1    4    4    0    0  0.22069140286E+02  0.95130914703E+01 -0.48587608936E+02  0.54206103018E+02  0.00000000000E+00 0.  1.
         11    1    4    4    0    0  0.72982996914E+02  0.64834132075E+02  0.13440319670E+02  0.98542502066E+02  0.00000000000E+00 0. -1.
        -13    1    3    3    0    0  0.25747581855E+02 -0.31053432698E+02  0.66849166295E+02  0.78077299441E+02  0.00000000000E+00 0.  1.
         13    1    3    3    0    0 -0.56755199929E+02  0.37404511756E+01  0.12939428286E+03  0.14134363845E+03  0.00000000000E+00 0. -1.
         -1    1    1    2    0  502 -0.64044519125E+02 -0.47034242024E+02  0.10801732341E+03  0.13409572144E+03  0.00000000000E+00 0.  1.
<scales pt_clust_5="13000.00000" pt_clust_6="13000.00000" pt_clust_7="13000.00000" pt_clust_8="13000.00000" pt_clust_9="79.46022"></scales>
<clustering>
<clus scale="   79.460">  2  9  1 -1</clus>
<clus scale="   86.801">  5  6 -1 -1</clus>
<clus scale="   89.031">  7  8 -1 -1</clus>
<clus scale="  100.181">  2  5  1 -1</clus>
<clus scale="   79.460">  2  5  1 -1</clus>
</clustering>
</event>
<event>
 9    1  0.3288491E-005  0.9526429E+02  0.7546771E-02  0.1292019E+00
         21   -1    0    0  501  502  0.00000000000E+00  0.00000000000E+00  0.73917726739E+02  0.73917726739E+02  0.00000000000E+00 0. -1.
         -2   -1    0    0    0  501 -0.00000000000E+00 -0.00000000000E+00 -0.23615330587E+03  0.23615330587E+03  0.00000000000E+00 0.  1.
         23    2    1    2    0    0 -0.13023078428E+02 -0.20556373202E+02 -0.10173927024E+03  0.13893631372E+03  0.91434430654E+02 0.  0.
         23    2    1    2    0    0 -0.92858459102E+01  0.96328675048E+01 -0.91194735172E+02  0.13164542341E+03  0.93994780229E+02 0.  0.
        -11    1    4    4    0    0 -0.30431494215E+02 -0.34244698236E+02 -0.38011050073E+02  0.59528271646E+02  0.00000000000E+00 0.  1.
         11    1    4    4    0    0  0.21145648305E+02  0.43877565741E+02 -0.53183685099E+02  0.72117151762E+02  0.00000000000E+00 0. -1.
        -13    1    3    3    0    0 -0.37732103522E+02 -0.16082216796E+02 -0.10582457364E+03  0.11349532906E+03  0.00000000000E+00 0.  1.
         13    1    3    3    0    0  0.24709025094E+02 -0.44741564058E+01  0.40853033908E+01  0.25440984659E+02  0.00000000000E+00 0. -1.
         -2    1    1    2    0  502  0.22308924338E+02  0.10923505697E+02  0.30698426282E+02  0.39489295487E+02  0.00000000000E+00 0.  1.
<scales pt_clust_5="13000.00000" pt_clust_6="13000.00000" pt_clust_7="13000.00000" pt_clust_8="13000.00000" pt_clust_9="24.83971"></scales>
<clustering>
<clus scale="   24.840">  1  9  2 -1</clus>
<clus scale="   91.434">  7  8 -1 -1</clus>
<clus scale="   92.739">  2  7  1 -1</clus>
<clus scale="   93.995">  5  6 -1 -1</clus>
<clus scale="   24.840">  1  5  2 -1</clus>
</clustering>
</event>
<event>
 9    1  0.3288491E-005  0.1018428E+03  0.7546771E-02  0.1277098E+00
         21   -1    0    0  501  502  0.00000000000E+00  0.00000000000E+00  0.16213068255E+02  0.16213068255E+02  0.00000000000E+00 0.  1.
          2   -1    0    0  502    0 -0.00000000000E+00 -0.00000000000E+00 -0.81285373439E+03  0.81285373439E+03  0.00000000000E+00 0. -1.
         23    2    1    2    0    0 -0.52149013707E+02 -0.57371602511E+01 -0.45238689556E+03  0.46418016510E+03  0.89760167980E+02 0.  0.
         23    2    1    2    0    0  0.36004978965E+02 -0.98975746001E+01 -0.28184483046E+03  0.29855451413E+03  0.91126115652E+02 0.  0.
        -11    1    4    4    0    0 -0.16863098097E+02  0.18971657092E+02 -0.28578027179E+02  0.38222918357E+02  0.00000000000E+00 0.  1.
         11    1    4    4    0    0  0.52868077062E+02 -0.28869231692E+02 -0.25326680329E+03  0.26033159577E+03  0.00000000000E+00 0. -1.
        -11    1    3    3    0    0  0.19543863540E+02 -0.68759666130E+01 -0.34944667425E+02  0.40624762157E+02  0.00000000000E+00 0. -1.
         11    1    3    3    0    0 -0.71692877247E+02  0.11388063620E+01 -0.41744222814E+03  0.42355540294E+03  0.00000000000E+00 0.  1.
          2    1    1    2  501    0  0.16144034742E+02  0.15634734851E+02 -0.62408940105E+02  0.66332123414E+02  0.00000000000E+00 0. -1.
<scales pt_clust_5="13000.00000" pt_clust_6="13000.00000" pt_clust_7="13000.00000" pt_clust_8="13000.00000" pt_clust_9="22.47387"></scales>
<clustering>
<clus scale="   22.474">  1  9  2 -1</clus>
<clus scale="   89.760">  7  8 -1 -1</clus>
<clus scale="   91.126">  5  6 -1 -1</clus>
<clus scale="  100.622">  2  7  1 -1</clus>
<clus scale="   22.474">  1  5  2 -1</clus>
</clustering>
</event>
<event>
 9    1  0.3288491E-005  0.1199523E+03  0.7546771E-02  0.1243397E+00
         -2   -1    0    0    0  501 -0.00000000000E+00  0.00000000000E+00  0.24383138463E+03  0.24383138463E+03  0.00000000000E+00 0.  1.
         21   -1    0    0  501  502  0.00000000000E+00 -0.00000000000E+00 -0.14612301256E+03  0.14612301256E+03  0.00000000000E+00 0.  1.
         23    2    1    2    0    0  0.93940558508E+02 -0.48322090063E+02  0.80118424230E+02  0.16083235943E+03  0.91039733174E+02 0.  0.
         23    2    1    2    0    0 -0.12734922863E+02  0.12504815260E+02 -0.60144628437E+02  0.11113942556E+03  0.91739015245E+02 0.  0.
        -11    1    4    4    0    0 -0.16853658223E+02 -0.37171927471E+02 -0.40684391940E+02  0.57628272010E+02  0.00000000000E+00 0.  1.
         11    1    4    4    0    0  0.41187353594E+01  0.49676742731E+02 -0.19460236497E+02  0.53511153546E+02  0.00000000000E+00 0. -1.
        -11    1    3    3    0    0  0.45433540018E+02  0.24220038829E+02  0.22029721025E+02  0.56001120059E+02  0.00000000000E+00 0. -1.
         11    1    3    3    0    0  0.48507018490E+02 -0.72542128893E+02  0.58088703205E+02  0.10483123937E+03  0.00000000000E+00 0.  1.
         -2    1    1    2    0  502 -0.81205635644E+02  0.35817274804E+02  0.77734576271E+02  0.11798261221E+03  0.00000000000E+00 0.  1.
<scales pt_clust_5="13000.00000" pt_clust_6="13000.00000" pt_clust_7="13000.00000" pt_clust_8="13000.00000" pt_clust_9="88.75382"></scales>
<clustering>
<clus scale="   88.754">  2  9  1 -1</clus>
<clus scale="   91.040">  7  8 -1 -1</clus>
<clus scale="   91.739">  5  6 -1 -1</clus>
<clus scale="  119.418">  1  7  2 -1</clus>
<clus scale="   88.754">  2  5  1 -1</clus>
</clustering>
</event>
<event>
 9    1  0.3288491E-005  0.1083620E+03  0.7546771E-02  0.1264481E+00
         21   -1    0    0  501  502  0.00000000000E+00  0.00000000000E+00  0.17228223420E+03  0.17228223420E+03  0.00000000000E+00 0. -1.
          2   -1    0    0  502    0 -0.00000000000E+00 -0.00000000000E+00 -0.21421814840E+03  0.21421814840E+03  0.00000000000E+00 0. -1.
         23    2    1    2    0    0 -0.55935866964E+02  0.18100437820E+02 -0.16864938844E+03  0.20082106654E+03  0.91815235560E+02 0.  0.
         23    2    1    2    0    0  0.26944453948E+02  0.33068375829E+01  0.77715757172E+02  0.12485539193E+03  0.93873272064E+02 0.  0.
        -13    1    3    3    0    0 -0.43297191315E+02 -0.24170526399E+02 -0.13921821916E+03  0.14778556651E+03  0.00000000000E+00 0. -1.
         13    1    3    3    0    0 -0.12638675649E+02  0.42270964218E+02 -0.29431169286E+02  0.53035500032E+02  0.00000000000E+00 0.  1.
        -13    1    4    4    0    0  0.34126379356E+02 -0.18073362339E+02 -0.51649533219E+01  0.38960658837E+02  0.00000000000E+00 0.  1.
         13    1    4    4    0    0 -0.71819254082E+01  0.21380199922E+02  0.82880710493E+02  0.85894733093E+02  0.00000000000E+00 0. -1.
          2    1    1    2  501    0  0.28991413016E+02 -0.21407275403E+02  0.48997717065E+02  0.60823924128E+02  0.00000000000E+00 0. -1.
<scales pt_clust_5="13000.00000" pt_clust_6="13000.00000" pt_clust_7="13000.00000" pt_clust_8="13000.00000" pt_clust_9="36.03850"></scales>
<clustering>
<clus scale="   36.038">  1  9  2 -1</clus>
<clus scale="   91.815">  5  6 -1 -1</clus>
<clus scale="   93.873">  7  8 -1 -1</clus>
<clus scale="  106.584">  2  5  1 -1</clus>
<clus scale="   36.038">  1  5  2 -1</clus>
</clustering>
</event>
<event>
 9    1  0.3288491E-005  0.1126542E+03  0.7546771E-02  0.1256155E+00
         21   -1    0    0  501  502  0.00000000000E+00  0.00000000000E+00  0.67216817992E+02  0.67216817992E+02  0.00000000000E+00 0. -1.
         -1   -1    0    0    0  501 -0.00000000000E+00 -0.00000000000E+00 -0.27822262912E+03  0.27822262912E+03  0.00000000000E+00 0.  1.
         23    2    1    2    0    0 -0.40533174690E+02 -0.46215445224E+02 -0.14996441108E+03  0.18613624472E+03  0.91534536532E+02 0.  0.
         23    2    1    2    0    0  0.65596807507E+02  0.32182324124E+02 -0.53671203887E+02  0.12964795043E+03  0.92678745037E+02 0.  0.
        -11    1    3    3    0    0 -0.50923987769E+02  0.78626171958E+01 -0.48868659632E+02  0.71015626263E+02  0.00000000000E+00 0.  1.
         11    1    3    3    0    0  0.10390813078E+02 -0.54078062420E+02 -0.10109575145E+03  0.11512061845E+03  0.00000000000E+00 0. -1.
        -13    1    4    4    0    0 -0.20888542259E+02  0.21581570082E+02 -0.20740068063E+02  0.36499942303E+02  0.00000000000E+00 0.  1.
         13    1    4    4    0    0  0.86485349766E+02  0.10600754042E+02 -0.32931135824E+02  0.93148008122E+02  0.00000000000E+00 0. -1.
         -1    1    1    2    0  502 -0.25063632817E+02  0.14033121100E+02 -0.73701961537E+01  0.29655251965E+02  0.00000000000E+00 0.  1.
<scales pt_clust_5="13000.00000" pt_clust_6="13000.00000" pt_clust_7="13000.00000" pt_clust_8="13000.00000" pt_clust_9="28.72480"></scales>
<clustering>
<clus scale="   28.725">  1  9  2 -1</clus>
<clus scale="   91.535">  5  6 -1 -1</clus>
<clus scale="   92.679">  7  8 -1 -1</clus>
<clus scale="  111.715">  2  5  1 -1</clus>
<clus scale="   28.725">  1  5  2 -1</clus>
</clustering>
</event>
<event>
 9    1  0.3288491E-005  0.9343273E+02  0.7546771E-02  0.1295619E+00
         -2   -1    0    0    0  501 -0.00000000000E+00  0.00000000000E+00  0.16582799309E+03  0.16582799309E+03  0.00000000000E+00 0.  1.
         21   -1    0    0  501  502  0.00000000000E+00 -0.00000000000E+00 -0.31456724218E+03  0.31456724218E+03  0.00000000000E+00 0.  1.
         23    2    1    2    0    0 -0.15876723669E+02  0.99113581116E+01  0.12529719902E+03  0.15541839953E+03  0.90028803484E+02 0.  0.
         23    2    1    2    0    0  0.40999728321E+02  0.48249237925E+02 -0.17573337900E+03  0.20802678789E+03  0.91563951987E+02 0.  0.
        -13    1    4    4    0    0  0.70489584653E+02  0.34870569049E+02 -0.11736786496E+03  0.14127970079E+03  0.00000000000E+00 0.  1.
         13    1    4    4    0    0 -0.29489856332E+02  0.13378668876E+02 -0.58365514040E+02  0.66747087102E+02  0.00000000000E+00 0. -1.
        -13    1    3    3    0    0 -0.54222201554E+01  0.43934618001E+02  0.29432742582E+02  0.53159547273E+02  0.00000000000E+00 0.  1.
         13    1    3    3    0    0 -0.10454503514E+02 -0.34023259890E+02  0.95864456438E+02  0.10225885226E+03  0.00000000000E+00 0. -1.
         -2    1    1    2    0  502 -0.25123004652E+02 -0.58160596037E+02 -0.98303069112E+02  0.11695004784E+03  0.00000000000E+00 0.  1.
<scales pt_clust_5="13000.00000" pt_clust_6="13000.00000" pt_clust_7="13000.00000" pt_clust_8="13000.00000" pt_clust_9="63.35472"></scales>
<clustering>
<clus scale="   63.355">  2  9  1 -1</clus>
<clus scale="   90.029">  7  8 -1 -1</clus>
<clus scale="   91.564">  5  6 -1 -1</clus>
<clus scale="   91.929">  1  7  2 -1</clus>
<clus scale="   63.355">  2  5  1 -1</clus>
</clustering>
</event>
<event>
 9    1  0.3288491E-005  0.1164495E+03  0.7546771E-02  0.1249316E+00
          1   -1    0    0  502    0 -0.00000000000E+00  0.00000000000E+00  0.70837793985E+02  0.70837793985E+02  0.00000000000E+00 0. -1.
         21   -1    0    0  501  502  0.00000000000E+00 -0.00000000000E+00 -0.32768538078E+03  0.32768538078E+03  0.00000000000E+00 0.  1.
         23    2    1    2    0    0  0.53171234412E+02  0.23534875210E+02 -0.61482152477E+02  0.12381537721E+03  0.90383195560E+02 0.  0.
         23    2    1    2    0    0 -0.68639071473E+02 -0.75854139905E+02 -0.11820446870E+03  0.18020714118E+03  0.89650123466E+02 0.  0.
        -13    1    3    3    0    0  0.58787839296E+02  0.92576947065E-01 -0.10988078827E+01  0.58798180230E+02  0.00000000000E+00 0.  1.
         13    1    3    3    0    0 -0.56166048841E+01  0.23442298263E+02 -0.60383344594E+02  0.65017196977E+02  0.00000000000E+00 0. -1.
        -13    1    4    4    0    0  0.13697825950E+02 -0.21126711779E+02 -0.60981899474E+02  0.65975453389E+02  0.00000000000E+00 0.  1.
         13    1    4    4    0    0 -0.82336897423E+02 -0.54727428126E+02 -0.57222569230E+02  0.11423168779E+03  0.00000000000E+00 0. -1.
          1    1    1    2  501    0  0.15467837061E+02  0.52319264694E+02 -0.77160965614E+02  0.94500656378E+02  0.00000000000E+00 0. -1.
<scales pt_clust_5="13000.00000" pt_clust_6="13000.00000" pt_clust_7="13000.00000" pt_clust_8="13000.00000" pt_clust_9="54.55785"></scales>
<clustering>
<clus scale="   54.558">  2  9  1 -1</clus>
<clus scale="   89.650">  7  8 -1 -1</clus>
<clus scale="   90.383">  5  6 -1 -1</clus>
<clus scale="  115.881">  2  7  1 -1</clus>
<clus scale="   54.558">  2  5  1 -1</clus>
</clustering>
</event>
<event>
 9    1  0.3288491E-005  0.1088936E+03  0.7546771E-02  0.1262681E+00
         21   -1    0    0  501  502  0.00000000000E+00  0.00000000000E+00  0.32163459139E+03  0.32163459139E+03  0.00000000000E+00 0. -1.
          3   -1    0    0  502    0 -0.00000000000E+00 -0.00000000000E+00 -0.77431464385E+02  0.77431464385E+02  0.00000000000E+00 0. -1.
         23    2    1    2    0    0 -0.17548397688E+02 -0.49429350731E+02  0.10628337623E+02  0.10566224256E+03  0.91106207070E+02 0.  0.
         23    2    1    2    0    0  0.27992591127E+02  0.68911549049E+02  0.89694308751E+02  0.14783516984E+03  0.90982315144E+02 0.  0.
        -11    1    3    3    0    0  0.52796307708E+01  0.25189462129E+02  0.10044559511E+02  0.27627462410E+02  0.00000000000E+00 0. -1.
         11    1    3    3    0    0 -0.22828028459E+02 -0.74618812860E+02  0.58377811168E+00  0.78034780148E+02  0.00000000000E+00 0.  1.
        -13    1    4    4    0    0  0.38755812875E+01  0.80017207711E+02  0.91016740452E+02  0.12125106475E+03  0.00000000000E+00 0.  1.
         13    1    4    4    0    0  0.24117009840E+02 -0.11105658662E+02 -0.13224317005E+01  0.26584105092E+02  0.00000000000E+00 0. -1.
          3    1    1    2  501    0 -0.10444193439E+02 -0.19482198318E+02  0.14388048064E+03  0.14556864338E+03  0.00000000000E+00 0. -1.
<scales pt_clust_5="13000.00000" pt_clust_6="13000.00000" pt_clust_7="13000.00000" pt_clust_8="13000.00000" pt_clust_9="22.10514"></scales>
<clustering>
<clus scale="   22.105">  1  9  2 -1</clus>
<clus scale="   90.982">  7  8 -1 -1</clus>
<clus scale="   91.106">  5  6 -1 -1</clus>
<clus scale="  108.790">  1  7  2 -1</clus>
<clus scale="   22.105">  1  5  2 -1</clus>
</clustering>
</event>
<event>
 9    1  0.3288491E-005  0.1030044E+03  0.7546771E-02  0.1274418E+00
         -4   -1    0    0    0  501 -0.00000000000E+00  0.00000000000E+00  0.66320064884E+02  0.66320064884E+02  0.00000000000E+00 0.  1.
         21   -1    0    0  501  502  0.00000000000E+00 -0.00000000000E+00 -0.31927390944E+03  0.31927390944E+03  0.00000000000E+00 0.  1.
         23    2    1    2    0    0 -0.57840847275E+02 -0.79975916431E+01 -0.41104256745E+02  0.11623614488E+03  0.91715627728E+02 0.  0.
         23    2    1    2    0    0  0.31183198942E+02  0.33174669188E+01 -0.58796366747E+02  0.11392996109E+03  0.92410095812E+02 0.  0.
        -11    1    4    4    0    0 -0.44509181827E+01 -0.30344598022E+02 -0.57177587140E+02  0.64883601726E+02  0.00000000000E+00 0.  1.
         11    1    4    4    0    0  0.35634117124E+02  0.33662064941E+02 -0.16187796072E+01  0.49046359363E+02  0.00000000000E+00 0. -1.
        -13    1    3    3    0    0 -0.26746458974E+02 -0.31323453084E+02 -0.60188665137E+02  0.72932895128E+02  0.00000000000E+00 0.  1.
         13    1    3    3    0    0 -0.31094388301E+02  0.23325861441E+02  0.19084408392E+02  0.43303249757E+02  0.00000000000E+00 0. -1.
         -4    1    1    2    0  502  0.26657648333E+02  0.46801247243E+01 -0.15305322106E+03  0.15542786835E+03  0.00000000000E+00 0.  1.
<scales pt_clust_5="13000.00000" pt_clust_6="13000.00000" pt_clust_7="13000.00000" pt_clust_8="13000.00000" pt_clust_9="27.06536"></scales>
<clustering>
<clus scale="   27.065">  2  9  1 -1</clus>
<clus scale="   91.716">  7  8 -1 -1</clus>
<clus scale="   92.410">  5  6 -1 -1</clus>
<clus scale="  102.382">  1  7  2 -1</clus>
<clus scale="   27.065">  2  5  1 -1</clus>
</clustering>
</event>
<event>
 9    1  0.3288491E-005  0.1650153E+03  0.7546771E-02  0.1183167E+00
         21   -1    0    0  501  502  0.00000000000E+00  0.00000000000E+00  0.37355782075E+03  0.37355782075E+03  0.00000000000E+00 0. -1.
         -1   -1    0    0    0  501 -0.00000000000E+00 -0.00000000000E+00 -0.25232625557E+03  0.25232625557E+03  0.00000000000E+00 0.  1.
         23    2    1    2    0    0 -0.27428940701E+02 -0.10862225701E+03 -0.79725380313E+02  0.16498981025E+03  0.91183110906E+02 0.  0.
         23    2    1    2    0    0  0.11716813137E+03  0.18186020046E+03  0.69245921529E+01  0.23491755743E+03  0.91306107636E+02 0.  0.
        -11    1    4    4    0    0  0.42153283433E+02  0.24108894879E+02 -0.29030649197E+02  0.56576644557E+02  0.00000000000E+00 0.  1.
         11    1    4    4    0    0  0.75014847939E+02  0.15775130558E+03  0.35955241350E+02  0.17834091287E+03  0.00000000000E+00 0. -1.
        -11    1    3    3    0    0 -0.58238087667E+02 -0.66066916243E+02 -0.67723865100E+02  0.11109920873E+03  0.00000000000E+00 0.  1.
         11    1    3    3    0    0  0.30809146966E+02 -0.42555340766E+02 -0.12001515214E+02  0.53890601518E+02  0.00000000000E+00 0. -1.
         -1    1    1    2    0  502 -0.89739190671E+02 -0.73237943452E+02  0.19403235335E+03  0.22597670864E+03  0.00000000000E+00 0.  1.
<scales pt_clust_5="13000.00000" pt_clust_6="13000.00000" pt_clust_7="13000.00000" pt_clust_8="13000.00000" pt_clust_9="115.83142"></scales>
<clustering>
<clus scale="   91.183">  7  8 -1 -1</clus>
<clus scale="   91.306">  5  6 -1 -1</clus>
<clus scale="  115.831">  1  9  2 -1</clus>
<clus scale="  164.947">  2  7  1 -1</clus>
<clus scale="  115.831">  1  5  2 -1</clus>
</clustering>
</event>
<event>
 9    1  0.3288491E-005  0.1105521E+03  0.7546771E-02  0.1260755E+00
         21   -1    0    0  501  502  0.00000000000E+00  0.00000000000E+00  0.50174707547E+03  0.50174707547E+03  0.00000000000E+00 0. -1.
          3   -1    0    0  502    0 -0.00000000000E+00 -0.00000000000E+00 -0.44891069428E+02  0.44891069428E+02  0.00000000000E+00 0. -1.
         23    2    1    2    0    0 -0.27425227979E+02 -0.44483501291E+02  0.65383837058E+02  0.12596434271E+03  0.94133120995E+02 0.  0.
         23    2    1    2    0    0  0.54569261641E+02  0.52067902321E+02  0.25181733893E+03  0.27820347805E+03  0.91084204158E+02 0.  0.
        -11    1    3    3    0    0  0.20964218769E+02 -0.43123828736E+02  0.44697829637E+01  0.48157471209E+02  0.00000000000E+00 0.  1.
         11    1    3    3    0    0 -0.48389446749E+02 -0.13596725546E+01  0.60914054094E+02  0.77806871498E+02  0.00000000000E+00 0. -1.
        -11    1    4    4    0    0  0.68064295816E+02  0.49117006861E+01  0.16370595932E+03  0.17735984406E+03  0.00000000000E+00 0. -1.
         11    1    4    4    0    0 -0.13495034174E+02  0.47156201635E+02  0.88111379613E+02  0.10084363399E+03  0.00000000000E+00 0.  1.
          3    1    1    2  501    0 -0.27144033662E+02 -0.75844010303E+01  0.13965483006E+03  0.14247032414E+03  0.00000000000E+00 0. -1.
<scales pt_clust_5="13000.00000" pt_clust_6="13000.00000" pt_clust_7="13000.00000" pt_clust_8="13000.00000" pt_clust_9="28.18371"></scales>
<clustering>
<clus scale="   28.184">  1  9  2 -1</clus>
<clus scale="   91.084">  7  8 -1 -1</clus>
<clus scale="   94.133">  5  6 -1 -1</clus>
<clus scale="  107.968">  1  7  2 -1</clus>
<clus scale="   28.184">  1  5  2 -1</clus>
</clustering>
</event>
<event>
 9    1  0.3288491E-005  0.1098091E+03  0.7546771E-02  0.1262407E+00
         21   -1    0    0  501  502  0.00000000000E+00  0.00000000000E+00  0.73470260569E+02  0.73470260569E+02  0.00000000000E+00 0. -1.
          2   -1    0    0  502    0 -0.00000000000E+00 -0.00000000000E+00 -0.55549481755E+03  0.55549481755E+03  0.00000000000E+00 0. -1.
         23    2    1    2    0    0 -0.58003991392E+01  0.61593684045E+02 -0.38513458386E+03  0.40116664554E+03  0.93694200813E+02 0.  0.
         23    2    1    2    0    0 -0.27644476325E+02 -0.47055268068E+02 -0.13754127009E+03  0.17318659157E+03  0.89986550082E+02 0.  0.
        -11    1    4    4    0    0 -0.59015402535E+02 -0.41239032477E+02 -0.10737301023E+03  0.12927659827E+03  0.00000000000E+00 0.  1.
         11    1    4    4    0    0  0.31370926210E+02 -0.58162355919E+01 -0.30168259865E+02  0.43909993294E+02  0.00000000000E+00 0. -1.
        -13    1    3    3    0    0 -0.38820270086E+02  0.14117602677E+02 -0.74413403641E+02  0.85109780380E+02  0.00000000000E+00 0.  1.
         13    1    3    3    0    0  0.33019870947E+02  0.47476081368E+02 -0.31072118022E+03  0.31605686516E+03  0.00000000000E+00 0. -1.
          2    1    1    2  501    0  0.33444875464E+02 -0.14538415977E+02  0.40651296967E+02  0.54611841015E+02  0.00000000000E+00 0. -1.
<scales pt_clust_5="13000.00000" pt_clust_6="13000.00000" pt_clust_7="13000.00000" pt_clust_8="13000.00000" pt_clust_9="36.46814"></scales>
<clustering>
<clus scale="   36.468">  1  9  2 -1</clus>
<clus scale="   89.987">  5  6 -1 -1</clus>
<clus scale="   93.694">  7  8 -1 -1</clus>
<clus scale="  106.663">  1  5  2 -1</clus>
<clus scale="   36.468">  1  5  2 -1</clus>
</clustering>
</event>
<event>
 9    1  0.3288491E-005  0.9983235E+02  0.7546771E-02  0.1281586E+00
         21   -1    0    0  501  502  0.00000000000E+00  0.00000000000E+00  0.37210797039E+02  0.37210797039E+02  0.00000000000E+00 0. -1.
          2   -1    0    0  502    0 -0.00000000000E+00 -0.00000000000E+00 -0.39596972319E+03  0.39596972319E+03  0.00000000000E+00 0. -1.
         23    2    1    2    0    0 -0.34979635216E+02 -0.23518068456E+02 -0.21534781205E+03  0.23774557180E+03  0.91496460762E+02 0.  0.
         23    2    1    2    0    0  0.88639308228E+01  0.43390265892E+02 -0.10607486965E+03  0.14572650451E+03  0.89571489338E+02 0.  0.
        -11    1    4    4    0    0 -0.28383176116E+01 -0.27714789972E+02 -0.29410529609E+02  0.40511046419E+02  0.00000000000E+00 0.  1.
         11    1    4    4    0    0  0.11702248434E+02  0.71105055864E+02 -0.76664340045E+02  0.10521545810E+03  0.00000000000E+00 0. -1.
        -13    1    3    3    0    0 -0.64170139445E+02 -0.44151010321E+01 -0.15840406861E+03  0.17096534405E+03  0.00000000000E+00 0.  1.
         13    1    3    3    0    0  0.29190504229E+02 -0.19102967423E+02 -0.56943743442E+02  0.66780227753E+02  0.00000000000E+00 0. -1.
          2    1    1    2  501    0  0.26115704393E+02 -0.19872197436E+02 -0.37336244448E+02  0.49708443914E+02  0.00000000000E+00 0. -1.
<scales pt_clust_5="13000.00000" pt_clust_6="13000.00000" pt_clust_7="13000.00000" pt_clust_8="13000.00000" pt_clust_9="32.81668"></scales>
<clustering>
<clus scale="   32.817">  1  9  2 -1</clus>
<clus scale="   89.571">  5  6 -1 -1</clus>
<clus scale="   91.496">  7  8 -1 -1</clus>
<clus scale="   98.071">  1  5  2 -1</clus>
<clus scale="   32.817">  1  5  2 -1</clus>
</clustering>
</event>
<event>
 9    1  0.3288491E-005  0.9872278E+02  0.7546771E-02  0.1283553E+00
          1   -1    0    0  502    0 -0.00000000000E+00  0.00000000000E+00  0.14130863826E+03  0.14130863826E+03  0.00000000000E+00 0. -1.
         21   -1    0    0  501  502  0.00000000000E+00 -0.00000000000E+00 -0.30244294003E+03  0.30244294003E+03  0.00000000000E+00 0.  1.
         23    2    1    2    0    0 -0.33459367267E+02 -0.15139350886E+02  0.10873369644E+03  0.14616709561E+03  0.90515600275E+02 0.  0.
         23    2    1    2    0    0  0.42327024336E+02 -0.40859337053E+01 -0.19271440526E+03  0.21757870905E+03  0.91615396061E+02 0.  0.
        -11    1    4    4    0    0  0.57125982065E+02 -0.34659657089E+02 -0.12087453640E+03  0.13811344325E+03  0.00000000000E+00 0.  1.
         11    1    4    4    0    0 -0.14798957729E+02  0.30573723384E+02 -0.71839868858E+02  0.79465265802E+02  0.00000000000E+00 0. -1.
        -13    1    3    3    0    0 -0.24291176487E+02  0.18453526378E+02 -0.15217469162E+01  0.30543568956E+02  0.00000000000E+00 0.  1.
         13    1    3    3    0    0 -0.91681907796E+01 -0.33592877265E+02  0.11025544336E+03  0.11562352665E+03  0.00000000000E+00 0. -1.
          1    1    1    2  501    0 -0.88676570693E+01  0.19225284592E+02 -0.77153592954E+02  0.80005773637E+02  0.00000000000E+00 0. -1.
<scales pt_clust_5="13000.00000" pt_clust_6="13000.00000" pt_clust_7="13000.00000" pt_clust_8="13000.00000" pt_clust_9="21.17184"></scales>
<clustering>
<clus scale="   21.172">  2  9  1 -1</clus>
<clus scale="   90.516">  7  8 -1 -1</clus>
<clus scale="   91.615">  5  6 -1 -1</clus>
<clus scale="   97.703">  1  7  2 -1</clus>
<clus scale="   21.172">  2  5  1 -1</clus>
</clustering>
</event>
<event>
 9    1  0.3288491E-005  0.1056477E+03  0.7546771E-02  0.1274595E+00
         21   -1    0    0  501  502  0.00000000000E+00  0.00000000000E+00  0.24036381212E+03  0.24036381212E+03  0.00000000000E+00 0. -1.
         -3   -1    0    0    0  501 -0.00000000000E+00 -0.00000000000E+00 -0.85087990670E+02  0.85087990670E+02  0.00000000000E+00 0.  1.
         23    2    1    2    0    0  0.15791601698E+02  0.12047688582E+02  0.11314982414E+02  0.94487007506E+02  0.91680119306E+02 0.  0.
         23    2    1    2    0    0 -0.33504132584E+02  0.18251860063E+02  0.33255117090E+02  0.11482886945E+03  0.10307331929E+03 0.  0.
        -11    1    3    3    0    0  0.44030465578E+01  0.46508663117E+02  0.28081858886E+02  0.54507186337E+02  0.00000000000E+00 0. -1.
         11    1    3    3    0    0  0.11388555140E+02 -0.34460974535E+02 -0.16766876472E+02  0.39979821169E+02  0.00000000000E+00 0.  1.
        -13    1    4    4    0    0  0.72457344834E+01 -0.22610558722E+02 -0.23841936034E+02  0.33647822333E+02  0.00000000000E+00 0.  1.
         13    1    4    4    0    0 -0.40749867068E+02  0.40862418785E+02  0.57097053124E+02  0.81181047114E+02  0.00000000000E+00 0. -1.
         -3    1    1    2    0  502  0.17712530886E+02 -0.30299548645E+02  0.11070572194E+03  0.11613592583E+03  0.00000000000E+00 0.  1.
<scales pt_clust_5="13000.00000" pt_clust_6="13000.00000" pt_clust_7="13000.00000" pt_clust_8="13000.00000" pt_clust_9="35.09696"></scales>
<clustering>
<clus scale="   35.097">  1  9  2 -1</clus>
<clus scale="   91.680">  5  6 -1 -1</clus>
<clus scale="   94.565">  2  5  1 -1</clus>
<clus scale="  103.073">  7  8 -1 -1</clus>
<clus scale="   35.097">  1  5  2 -1</clus>
</clustering>
</event>
<event>
 9    1  0.3288491E-005  0.1042795E+03  0.7546771E-02  0.1271903E+00
          1   -1    0    0  502    0 -0.00000000000E+00  0.00000000000E+00  0.32014579295E+03  0.32014579295E+03  0.00000000000E+00 0. -1.
         21   -1    0    0  501  502  0.00000000000E+00 -0.00000000000E+00 -0.47265830808E+02  0.47265830808E+02  0.00000000000E+00 0.  1.
         23    2    1    2    0    0 -0.61040351287E+02 -0.13776665792E+02  0.16042656359E+03  0.19444192217E+03  0.90306465917E+02 0.  0.
         23    2    1    2    0    0  0.32741732282E+02  0.26572421015E+02  0.95916719943E+02  0.13778440737E+03  0.89478551391E+02 0.  0.
        -11    1    4    4    0    0  0.62141048940E+02  0.66579201356E+01  0.69895894851E+02  0.93761793823E+02  0.00000000000E+00 0.  1.
         11    1    4    4    0    0 -0.29399316658E+02  0.19914500880E+02  0.26020825092E+02  0.44022613550E+02  0.00000000000E+00 0. -1.
        -11    1    3    3    0    0 -0.78005133108E+01 -0.28372330648E+02  0.54484740069E+01  0.29925290697E+02  0.00000000000E+00 0.  1.
         11    1    3    3    0    0 -0.53239837977E+02  0.14595664856E+02  0.15497808959E+03  0.16451663148E+03  0.00000000000E+00 0. -1.
          1    1    1    2  501    0  0.28298619005E+02 -0.12795755223E+02  0.16536678601E+02  0.35185294208E+02  0.00000000000E+00 0. -1.
<scales pt_clust_5="13000.00000" pt_clust_6="13000.00000" pt_clust_7="13000.00000" pt_clust_8="13000.00000" pt_clust_9="31.05710"></scales>
<clustering>
<clus scale="   31.057">  2  9  1 -1</clus>
<clus scale="   89.479">  5  6 -1 -1</clus>
<clus scale="   90.306">  7  8 -1 -1</clus>
<clus scale="  103.563">  2  5  1 -1</clus>
<clus scale="   31.057">  2  5  1 -1</clus>
</clustering>
</event>
<event>
 9    1  0.3288491E-005  0.9576124E+02  0.7546771E-02  0.1290192E+00
          1   -1    0    0  502    0 -0.00000000000E+00  0.00000000000E+00  0.15744584334E+03  0.15744584334E+03  0.00000000000E+00 0. -1.
         21   -1    0    0  501  502  0.00000000000E+00 -0.00000000000E+00 -0.13593605525E+03  0.13593605525E+03  0.00000000000E+00 0. -1.
         23    2    1    2    0    0  0.20958244429E+02  0.15270732920E+02  0.99020102805E+02  0.13690353173E+03  0.90912886586E+02 0.  0.
         23    2    1    2    0    0 -0.42300481880E+01 -0.32283739140E+02 -0.28377545394E+02  0.10185873713E+03  0.92248491194E+02 0.  0.
        -11    1    4    4    0    0 -0.15727265728E+02 -0.63044486216E+02 -0.19545537514E+02  0.67852650400E+02  0.00000000000E+00 0.  1.
         11    1    4    4    0    0  0.11497217540E+02  0.30760747076E+02 -0.88320078797E+01  0.34006086735E+02  0.00000000000E+00 0. -1.
        -13    1    3    3    0    0  0.40517736160E+02 -0.26247560336E+02  0.44725040733E+02  0.65809958484E+02  0.00000000000E+00 0.  1.
         13    1    3    3    0    0 -0.19559491730E+02  0.41518293256E+02  0.54295062072E+02  0.71093573247E+02  0.00000000000E+00 0. -1.
          1    1    1    2  501    0 -0.16728196241E+02  0.17013006220E+02 -0.49132769321E+02  0.54619629725E+02  0.00000000000E+00 0. -1.
<scales pt_clust_5="13000.00000" pt_clust_6="13000.00000" pt_clust_7="13000.00000" pt_clust_8="13000.00000" pt_clust_9="23.85948"></scales>
<clustering>
<clus scale="   23.859">  2  9  1 -1</clus>
<clus scale="   90.913">  7  8 -1 -1</clus>
<clus scale="   92.248">  5  6 -1 -1</clus>
<clus scale="   94.475">  1  7  2 -1</clus>
<clus scale="   23.859">  2  5  1 -1</clus>
</clustering>
</event>
<event>
 9    1  0.3288491E-005  0.4189708E+03  0.7546771E-02  0.1037521E+00
          2   -1    0    0  502    0 -0.00000000000E+00  0.00000000000E+00  0.30089368765E+04  0.30089368765E+04  0.00000000000E+00 0. -1.
         21   -1    0    0  501  502  0.00000000000E+00 -0.00000000000E+00 -0.87459428048E+02  0.87459428048E+02  0.00000000000E+00 0. -1.
         23    2    1    2    0    0  0.34542377325E+03 -0.33134593570E+03  0.18923617486E+04  0.19542012837E+04  0.93605327981E+02 0.  0.
         23    2    1    2    0    0 -0.24307454778E+03  0.22096832560E+03  0.78527139583E+03  0.85563154555E+03  0.86844343087E+02 0.  0.
        -11    1    4    4    0    0 -0.20881576624E+03  0.16812708852E+03  0.70035453899E+03  0.74991147638E+03  0.00000000000E+00 0. -1.
         11    1    4    4    0    0 -0.34258781542E+02  0.52841237076E+02  0.84916856847E+02  0.10572006917E+03  0.00000000000E+00 0.  1.
        -11    1    3    3    0    0  0.27947165140E+03 -0.28244867793E+03  0.16841290534E+04  0.17303676858E+04  0.00000000000E+00 0. -1.
         11    1    3    3    0    0  0.65952121854E+02 -0.48897257770E+02  0.20823269524E+03  0.22383359792E+03  0.00000000000E+00 0.  1.
          2    1    1    2  501    0 -0.10234922547E+03  0.11037761011E+03  0.24384430396E+03  0.28656347524E+03  0.00000000000E+00 0. -1.
<scales pt_clust_5="13000.00000" pt_clust_6="13000.00000" pt_clust_7="13000.00000" pt_clust_8="13000.00000" pt_clust_9="150.52767"></scales>
<clustering>
<clus scale="   86.844">  5  6 -1 -1</clus>
<clus scale="   93.605">  7  8 -1 -1</clus>
<clus scale="  150.528">  2  9  1 -1</clus>
<clus scale="  417.512">  2  5  1 -1</clus>
<clus scale="  150.528">  2  5  1 -1</clus>
</clustering>
</event>
<event>
 9    1  0.3288491E-005  0.2015627E+03  0.7546771E-02  0.1148584E+00
          2   -1    0    0  502    0 -0.00000000000E+00  0.00000000000E+00  0.48388902349E+02  0.48388902349E+02  0.00000000000E+00 0. -1.
         21   -1    0    0  501  502  0.00000000000E+00 -0.00000000000E+00 -0.13854541716E+04  0.13854541716E+04  0.00000000000E+00 0. -1.
         23    2    1    2    0    0 -0.14099906985E+03 -0.83310086301E+02 -0.40344772432E+03  0.44504534695E+03  0.92054257943E+02 0.  0.
         23    2    1    2    0    0  0.15714446635E+03  0.14583736542E+03 -0.85977453902E+03  0.89070020416E+03  0.90397319083E+02 0.  0.
        -11    1    3    3    0    0 -0.13705219907E+03 -0.39373450840E+02 -0.28577976200E+03  0.31938009686E+03  0.00000000000E+00 0. -1.
         11    1    3    3    0    0 -0.39468707861E+01 -0.43936635461E+02 -0.11766796232E+03  0.12566525009E+03  0.00000000000E+00 0.  1.
        -13    1    4    4    0    0  0.52768582771E+02  0.95168168501E+02 -0.30254770881E+03  0.32152234717E+03  0.00000000000E+00 0.  1.
         13    1    4    4    0    0  0.10437588358E+03  0.50669196923E+02 -0.55722683020E+03  0.56917785699E+03  0.00000000000E+00 0. -1.
          2    1    1    2  501    0 -0.16145396496E+02 -0.62527279122E+02 -0.73843005891E+02  0.98097522810E+02  0.00000000000E+00 0. -1.
<scales pt_clust_5="13000.00000" pt_clust_6="13000.00000" pt_clust_7="13000.00000" pt_clust_8="13000.00000" pt_clust_9="64.57816"></scales>
<clustering>
<clus scale="   64.578">  2  9  1 -1</clus>
<clus scale="   90.397">  7  8 -1 -1</clus>
<clus scale="   92.054">  5  6 -1 -1</clus>
<clus scale="  200.811">  2  7  1 -1</clus>
<clus scale="   64.578">  2  5  1 -1</clus>
</clustering>
</event>
<event>
 9    1  0.3288491E-005  0.2060944E+03  0.7546771E-02  0.1144804E+00
          1   -1    0    0  502    0 -0.00000000000E+00  0.00000000000E+00  0.16698806028E+04  0.16698806028E+04  0.00000000000E+00 0. -1.
         21   -1    0    0  501  502  0.00000000000E+00 -0.00000000000E+00 -0.40549990245E+02  0.40549990245E+02  0.00000000000E+00 0. -1.
         23    2    1    2    0    0  0.54093930661E+02  0.15735471409E+03  0.68937141281E+03  0.71511027171E+03  0.91995089708E+02 0.  0.
         23    2    1    2    0    0 -0.28819834816E+02 -0.20334676329E+03  0.90456442186E+03  0.93202072567E+03  0.90803913804E+02 0.  0.
        -13    1    3    3    0    0 -0.56563554987E+01  0.85405768108E+02  0.21131649012E+03  0.22799297923E+03  0.00000000000E+00 0.  1.
         13    1    3    3    0    0  0.59750286160E+02  0.71948945985E+02  0.47805492269E+03  0.48711729248E+03  0.00000000000E+00 0. -1.
        -13    1    4    4    0    0 -0.23260020182E+02 -0.33444999360E+01  0.71336822870E+02  0.75107632873E+02  0.00000000000E+00 0.  1.
         13    1    4    4    0    0 -0.55598146340E+01 -0.20000226335E+03  0.83322759899E+03  0.85691309279E+03  0.00000000000E+00 0. -1.
          1    1    1    2  501    0 -0.25274095845E+02  0.45992049197E+02  0.35394777899E+02  0.63299595675E+02  0.00000000000E+00 0. -1.
<scales pt_clust_5="13000.00000" pt_clust_6="13000.00000" pt_clust_7="13000.00000" pt_clust_8="13000.00000" pt_clust_9="52.47903"></scales>
<clustering>
<clus scale="   52.479">  2  9  1 -1</clus>
<clus scale="   90.804">  7  8 -1 -1</clus>
<clus scale="   91.995">  5  6 -1 -1</clus>
<clus scale="  205.565">  2  7  1 -1</clus>
<clus scale="   52.479">  2  5  1 -1</clus>
</clustering>
</event>
<event>
 9    1  0.3288491E-005  0.1019724E+03  0.7546771E-02  0.1279376E+00
         21   -1    0    0  501  502  0.00000000000E+00  0.00000000000E+00  0.11630535458E+03  0.11630535458E+03  0.00000000000E+00 0. -1.
          2   -1    0    0  502    0 -0.00000000000E+00 -0.00000000000E+00 -0.77943765894E+03  0.77943765894E+03  0.00000000000E+00 0. -1.
         23    2    1    2    0    0 -0.95255815134E+01 -0.28070545576E+01 -0.48476109399E+03  0.49488286839E+03  0.99081375274E+02 0.  0.
         23    2    1    2    0    0  0.52057970768E+02 -0.24843057817E+02 -0.27267166375E+03  0.29378022938E+03  0.92896593687E+02 0.  0.
        -11    1    4    4    0    0  0.29604283268E+01  0.33027721452E+02 -0.73261856968E+02  0.80417001975E+02  0.00000000000E+00 0.  1.
         11    1    4    4    0    0  0.49097542442E+02 -0.57870779269E+02 -0.19940980678E+03  0.21336322740E+03  0.00000000000E+00 0. -1.
        -13    1    3    3    0    0 -0.39453460356E+02  0.33155326488E+02 -0.29293117745E+03  0.29742986725E+03  0.00000000000E+00 0.  1.
         13    1    3    3    0    0  0.29927878842E+02 -0.35962381046E+02 -0.19182991653E+03  0.19745300114E+03  0.00000000000E+00 0. -1.
          2    1    1    2  501    0 -0.42532389255E+02  0.27650112375E+02  0.94300453379E+02  0.10707991575E+03  0.00000000000E+00 0. -1.
<scales pt_clust_5="13000.00000" pt_clust_6="13000.00000" pt_clust_7="13000.00000" pt_clust_8="13000.00000" pt_clust_9="50.73000"></scales>
<clustering>
<clus scale="   50.730">  1  9  2 -1</clus>
<clus scale="   92.897">  5  6 -1 -1</clus>
<clus scale="   95.974">  1  5  2 -1</clus>
<clus scale="   99.081">  7  8 -1 -1</clus>
<clus scale="   50.730">  1  5  2 -1</clus>
</clustering>
</event>
<event>
 9    1  0.3288491E-005  0.1185655E+03  0.7546771E-02  0.1248487E+00
         -1   -1    0    0    0  501 -0.00000000000E+00  0.00000000000E+00  0.71122701889E+02  0.71122701889E+02  0.00000000000E+00 0.  1.
         21   -1    0    0  501  502  0.00000000000E+00 -0.00000000000E+00 -0.25655066936E+03  0.25655066936E+03  0.00000000000E+00 0. -1.
         23    2    1    2    0    0  0.33654828970E+02  0.31068567123E+02 -0.85350492673E+02  0.13373953171E+03  0.92215250188E+02 0.  0.
         23    2    1    2    0    0 -0.54213694881E+02 -0.60964316332E+02 -0.83495413998E+02  0.15404164069E+03  0.10050656859E+03 0.  0.
        -11    1    4    4    0    0 -0.39909655898E+02  0.89036615020E+01 -0.70572523750E+02  0.81563085587E+02  0.00000000000E+00 0.  1.
         11    1    4    4    0    0 -0.14304038984E+02 -0.69867977834E+02 -0.12922890248E+02  0.72478555106E+02  0.00000000000E+00 0. -1.
        -11    1    3    3    0    0  0.45610349494E+01  0.38710671226E+02 -0.94561623936E+02  0.10228010475E+03  0.00000000000E+00 0. -1.
         11    1    3    3    0    0  0.29093794021E+02 -0.76421041029E+01  0.92111312626E+01  0.31459426962E+02  0.00000000000E+00 0.  1.
         -1    1    1    2    0  502  0.20558865911E+02  0.29895749209E+02 -0.16582060803E+02  0.39892198846E+02  0.00000000000E+00 0.  1.
<scales pt_clust_5="13000.00000" pt_clust_6="13000.00000" pt_clust_7="13000.00000" pt_clust_8="13000.00000" pt_clust_9="36.28256"></scales>
<clustering>
<clus scale="   36.283">  2  9  1 -1</clus>
<clus scale="   92.215">  7  8 -1 -1</clus>
<clus scale="  100.507">  5  6 -1 -1</clus>
<clus scale="  111.624">  1  7  2 -1</clus>
<clus scale="   36.283">  2  5  1 -1</clus>
</clustering>
</event>
<event>
 9    1  0.3288491E-005  0.1721667E+03  0.7546771E-02  0.1176551E+00
          1   -1    0    0  502    0 -0.00000000000E+00  0.00000000000E+00  0.60834221776E+03  0.60834221776E+03  0.00000000000E+00 0. -1.
         21   -1    0    0  501  502  0.00000000000E+00 -0.00000000000E+00 -0.94143247329E+02  0.94143247329E+02  0.00000000000E+00 0.  1.
         23    2    1    2    0    0 -0.27448103041E+02 -0.15077902876E+03  0.37922682256E+03  0.41937328826E+03  0.92591889941E+02 0.  0.
         23    2    1    2    0    0  0.72859552581E+01  0.12215718325E+03  0.17129743127E+03  0.23266172135E+03  0.99061617499E+02 0.  0.
        -11    1    3    3    0    0 -0.61503181534E+02 -0.90217627799E+02  0.24503751080E+03  0.26826338439E+03  0.00000000000E+00 0. -1.
         11    1    3    3    0    0  0.34055078493E+02 -0.60561400959E+02  0.13418931176E+03  0.15110990387E+03  0.00000000000E+00 0.  1.
        -13    1    4    4    0    0 -0.47385874215E+00  0.78863773074E+02  0.17140525949E+03  0.18867825054E+03  0.00000000000E+00 0. -1.
         13    1    4    4    0    0  0.77598140003E+01  0.43293410174E+02 -0.10782822500E+00  0.43983470813E+02  0.00000000000E+00 0.  1.
          1    1    1    2  501    0  0.20162147783E+02  0.28621845510E+02 -0.36325283397E+02  0.50450455474E+02  0.00000000000E+00 0. -1.
<scales pt_clust_5="13000.00000" pt_clust_6="13000.00000" pt_clust_7="13000.00000" pt_clust_8="13000.00000" pt_clust_9="35.01032"></scales>
<clustering>
<clus scale="   35.010">  2  9  1 -1</clus>
<clus scale="   92.592">  5  6 -1 -1</clus>
<clus scale="   99.062">  7  8 -1 -1</clus>
<clus scale="  168.527">  1  5  2 -1</clus>
<clus scale="   35.010">  2  5  1 -1</clus>
</clustering>
</event>
<event>
 9    1  0.3288491E-005  0.1014857E+03  0.7546771E-02  0.1277389E+00
          4   -1    0    0  502    0 -0.00000000000E+00  0.00000000000E+00  0.33396867528E+03  0.33396867528E+03  0.00000000000E+00 0. -1.
         21   -1    0    0  501  502  0.00000000000E+00 -0.00000000000E+00 -0.20485617872E+03  0.20485617872E+03  0.00000000000E+00 0. -1.
         23    2    1    2    0    0 -0.26038541112E+02  0.27677934977E+02  0.19971602837E+03  0.22301544563E+03  0.91680550262E+02 0.  0.
         23    2    1    2    0    0  0.50613421686E+02 -0.25623556108E+02  0.97979450904E+02  0.14543227584E+03  0.91281372540E+02 0.  0.
        -11    1    3    3    0    0 -0.28289593523E+02 -0.85976122901E+01  0.12159618616E+02  0.31969929053E+02  0.00000000000E+00 0.  1.
         11    1    3    3    0    0  0.22510524114E+01  0.36275547267E+02  0.18755640975E+03  0.19104551658E+03  0.00000000000E+00 0. -1.
        -13    1    4    4    0    0  0.57991918126E+02 -0.52015601473E+02  0.58716572691E+02  0.97551633882E+02  0.00000000000E+00 0.  1.
         13    1    4    4    0    0 -0.73784964403E+01  0.26392045365E+02  0.39262878213E+02  0.47880641953E+02  0.00000000000E+00 0. -1.
          4    1    1    2  501    0 -0.24574880574E+02 -0.20543788690E+01 -0.16858298272E+03  0.17037713253E+03  0.00000000000E+00 0. -1.
<scales pt_clust_5="13000.00000" pt_clust_6="13000.00000" pt_clust_7="13000.00000" pt_clust_8="13000.00000" pt_clust_9="24.66060"></scales>
<clustering>
<clus scale="   24.661">  2  9  1 -1</clus>
<clus scale="   91.281">  7  8 -1 -1</clus>
<clus scale="   91.681">  5  6 -1 -1</clus>
<clus scale="  101.125">  2  7  1 -1</clus>
<clus scale="   24.661">  2  5  1 -1</clus>
</clustering>
</event>
<event>
 9    1  0.3288491E-005  0.1140198E+03  0.7546771E-02  0.1253695E+00
         21   -1    0    0  501  502  0.00000000000E+00  0.00000000000E+00  0.12525863464E+03  0.12525863464E+03  0.00000000000E+00 0.  1.
          2   -1    0    0  502    0 -0.00000000000E+00 -0.00000000000E+00 -0.39928184573E+03  0.39928184573E+03  0.00000000000E+00 0. -1.
         23    2    1    2    0    0 -0.33200588976E+02 -0.66038126204E+02 -0.34020044616E+03  0.36006722078E+03  0.91917064215E+02 0.  0.
         23    2    1    2    0    0  0.15738314712E+02  0.11813086704E+02  0.48542982168E+02  0.10483893384E+03  0.90815953248E+02 0.  0.
        -11    1    4    4    0    0 -0.25895050373E+02 -0.13872244198E+02 -0.76293994082E+01  0.30351285446E+02  0.00000000000E+00 0. -1.
         11    1    4    4    0    0  0.41633365085E+02  0.25685330903E+02  0.56172381577E+02  0.74487648398E+02  0.00000000000E+00 0.  1.
        -13    1    3    3    0    0 -0.61683525568E+02 -0.35121184156E+02 -0.26003154767E+03  0.26954547054E+03  0.00000000000E+00 0. -1.
         13    1    3    3    0    0  0.28482936592E+02 -0.30916942048E+02 -0.80168898485E+02  0.90521750242E+02  0.00000000000E+00 0.  1.
          2    1    1    2  501    0  0.17462274263E+02  0.54225039500E+02  0.17634252895E+02  0.59634325739E+02  0.00000000000E+00 0. -1.
<scales pt_clust_5="13000.00000" pt_clust_6="13000.00000" pt_clust_7="13000.00000" pt_clust_8="13000.00000" pt_clust_9="56.96741"></scales>
<clustering>
<clus scale="   56.967">  1  9  2 -1</clus>
<clus scale="   90.816">  5  6 -1 -1</clus>
<clus scale="   91.917">  7  8 -1 -1</clus>
<clus scale="  113.134">  1  5  2 -1</clus>
<clus scale="   56.967">  1  5  2 -1</clus>
</clustering>
</event>
<event>
 9    1  0.3288491E-005  0.9938336E+02  0.7546771E-02  0.1283176E+00
          1   -1    0    0  502    0 -0.00000000000E+00  0.00000000000E+00  0.18754874810E+03  0.18754874810E+03  0.00000000000E+00 0. -1.
         21   -1    0    0  501  502  0.00000000000E+00 -0.00000000000E+00 -0.11568522449E+03  0.11568522449E+03  0.00000000000E+00 0. -1.
         23    2    1    2    0    0  0.50714127924E+01  0.23820581781E+02  0.64068844621E+02  0.11427700186E+03  0.91440018362E+02 0.  0.
         23    2    1    2    0    0  0.90588814492E+01 -0.37993852701E+02  0.69785199030E+02  0.12381580558E+03  0.94523983895E+02 0.  0.
        -11    1    3    3    0    0  0.94950689850E+01  0.53592607249E+02  0.64215056515E+02  0.84177772422E+02  0.00000000000E+00 0.  1.
         11    1    3    3    0    0 -0.44236561926E+01 -0.29772025468E+02 -0.14621189420E+00  0.30099229433E+02  0.00000000000E+00 0. -1.
        -13    1    4    4    0    0  0.24816161559E+02 -0.51493532837E+02  0.81834701377E+02  0.99821561539E+02  0.00000000000E+00 0. -1.
         13    1    4    4    0    0 -0.15757280110E+02  0.13499680137E+02 -0.12049502347E+02  0.23994244040E+02  0.00000000000E+00 0.  1.
          1    1    1    2  501    0 -0.14130294242E+02  0.14173270919E+02 -0.61990520041E+02  0.65141165163E+02  0.00000000000E+00 0. -1.
<scales pt_clust_5="13000.00000" pt_clust_6="13000.00000" pt_clust_7="13000.00000" pt_clust_8="13000.00000" pt_clust_9="20.01367"></scales>
<clustering>
<clus scale="   20.014">  2  9  1 -1</clus>
<clus scale="   91.440">  5  6 -1 -1</clus>
<clus scale="   94.524">  7  8 -1 -1</clus>
<clus scale="   96.455">  1  5  2 -1</clus>
<clus scale="   20.014">  2  5  1 -1</clus>
</clustering>
</event>
<event>
 9    1  0.3288491E-005  0.1035166E+03  0.7546771E-02  0.1275564E+00
         21   -1    0    0  501  502  0.00000000000E+00  0.00000000000E+00  0.37794806498E+03  0.37794806498E+03  0.00000000000E+00 0. -1.
          4   -1    0    0  502    0 -0.00000000000E+00 -0.00000000000E+00 -0.43310434761E+02  0.43310434761E+02  0.00000000000E+00 0.  1.
         23    2    1    2    0    0 -0.28741296361E+02  0.30575051162E+02  0.78382106072E+02  0.12590957255E+03  0.89154753304E+02 0.  0.
         23    2    1    2    0    0  0.68828623601E+01 -0.47350365768E+02  0.13816748425E+03  0.17408892767E+03  0.94484232025E+02 0.  0.
        -11    1    3    3    0    0  0.62150485404E+01  0.32642579005E+02  0.84101606780E+02  0.90428120933E+02  0.00000000000E+00 0. -1.
         11    1    3    3    0    0 -0.34956344902E+02 -0.20675278437E+01 -0.57195007087E+01  0.35481451614E+02  0.00000000000E+00 0.  1.
        -13    1    4    4    0    0 -0.43671872384E+02 -0.20325177584E+02  0.55474476426E+02  0.73469468598E+02  0.00000000000E+00 0. -1.
         13    1    4    4    0    0  0.50554734744E+02 -0.27025188184E+02  0.82693007819E+02  0.10061945907E+03  0.00000000000E+00 0.  1.
          4    1    1    2  501    0  0.21858434001E+02  0.16775314607E+02  0.11808803991E+03  0.12125999953E+03  0.00000000000E+00 0.  1.
<scales pt_clust_5="13000.00000" pt_clust_6="13000.00000" pt_clust_7="13000.00000" pt_clust_8="13000.00000" pt_clust_9="27.55363"></scales>
<clustering>
<clus scale="   27.554">  1  9  2 -1</clus>
<clus scale="   89.155">  5  6 -1 -1</clus>
<clus scale="   94.484">  7  8 -1 -1</clus>
<clus scale="   98.676">  2  5  1 -1</clus>
<clus scale="   27.554">  1  5  2 -1</clus>
</clustering>
</event>
<event>
 9    1  0.3288491E-005  0.1562506E+03  0.7546771E-02  0.1194941E+00
          1   -1    0    0  502    0 -0.00000000000E+00  0.00000000000E+00  0.48082024526E+03  0.48082024526E+03  0.00000000000E+00 0. -1.
         21   -1    0    0  501  502  0.00000000000E+00 -0.00000000000E+00 -0.11778386692E+03  0.11778386692E+03  0.00000000000E+00 0. -1.
         23    2    1    2    0    0  0.10963010314E+03 -0.48813376483E+02  0.18991468193E+03  0.24243857101E+03  0.91144769817E+02 0.  0.
         23    2    1    2    0    0 -0.79616916246E+02  0.15048842397E+03  0.51452099121E+02  0.19478989996E+03  0.79436562883E+02 0.  0.
        -11    1    3    3    0    0 -0.57183369328E+01 -0.21866773031E+02  0.71336105391E+02  0.74831110324E+02  0.00000000000E+00 0.  1.
         11    1    3    3    0    0  0.11534844007E+03 -0.26946603452E+02  0.11857857654E+03  0.16760746069E+03  0.00000000000E+00 0. -1.
        -13    1    4    4    0    0 -0.43192534412E+02  0.11983917316E+03  0.67991490932E+02  0.14439482433E+03  0.00000000000E+00 0.  1.
         13    1    4    4    0    0 -0.36424381834E+02  0.30649250804E+02 -0.16539391810E+02  0.50395075636E+02  0.00000000000E+00 0. -1.
          1    1    1    2  501    0 -0.30013186896E+02 -0.10167504748E+03  0.12166959730E+03  0.16137564121E+03  0.00000000000E+00 0. -1.
<scales pt_clust_5="13000.00000" pt_clust_6="13000.00000" pt_clust_7="13000.00000" pt_clust_8="13000.00000" pt_clust_9="106.01235"></scales>
<clustering>
<clus scale="   79.437">  7  8 -1 -1</clus>
<clus scale="   91.145">  5  6 -1 -1</clus>
<clus scale="  106.012">  2  9  1 -1</clus>
<clus scale="  149.723">  2  7  1 -1</clus>
<clus scale="  106.012">  2  5  1 -1</clus>
</clustering>
</event>
<event>
 9    1  0.3288491E-005  0.1699637E+03  0.7546771E-02  0.1178158E+00
         21   -1    0    0  501  502  0.00000000000E+00  0.00000000000E+00  0.10438779817E+03  0.10438779817E+03  0.00000000000E+00 0. -1.
         -2   -1    0    0    0  501 -0.00000000000E+00 -0.00000000000E+00 -0.37301728431E+03  0.37301728431E+03  0.00000000000E+00 0.  1.
         23    2    1    2    0    0 -0.14584782422E+03  0.34315942542E+02 -0.21530191017E+03  0.27694929394E+03  0.88864093697E+02 0.  0.
         23    2    1    2    0    0  0.13226325061E+03 -0.16948014190E+02 -0.66795310519E+02  0.17461850058E+03  0.90825131929E+02 0.  0.
        -11    1    3    3    0    0 -0.50748631497E+01 -0.21262188412E+02 -0.18204690649E+02  0.28447243341E+02  0.00000000000E+00 0. -1.
         11    1    3    3    0    0 -0.14077296107E+03  0.55578130954E+02 -0.19709721952E+03  0.24850205060E+03  0.00000000000E+00 0.  1.
        -11    1    4    4    0    0  0.62671091898E+02  0.13728744532E+02 -0.74334239911E+02  0.98192277748E+02  0.00000000000E+00 0.  1.
         11    1    4    4    0    0  0.69592158708E+02 -0.30676758722E+02  0.75389293918E+01  0.76426222828E+02  0.00000000000E+00 0. -1.
         -2    1    1    2    0  502  0.13584573612E+02 -0.17367928352E+02  0.13467734546E+02  0.25837287963E+02  0.00000000000E+00 0.  1.
<scales pt_clust_5="13000.00000" pt_clust_6="13000.00000" pt_clust_7="13000.00000" pt_clust_8="13000.00000" pt_clust_9="22.04962"></scales>
<clustering>
<clus scale="   22.050">  1  9  2 -1</clus>
<clus scale="   88.864">  5  6 -1 -1</clus>
<clus scale="   90.825">  7  8 -1 -1</clus>
<clus scale="  168.924">  2  5  1 -1</clus>
<clus scale="   22.050">  1  5  2 -1</clus>
</clustering>
</event>
<event>
 9    1  0.3288491E-005  0.1169156E+03  0.7546771E-02  0.1248712E+00
          2   -1    0    0  502    0 -0.00000000000E+00  0.00000000000E+00  0.18157664556E+03  0.18157664556E+03  0.00000000000E+00 0. -1.
         21   -1    0    0  501  502  0.00000000000E+00 -0.00000000000E+00 -0.11027757371E+03  0.11027757371E+03  0.00000000000E+00 0.  1.
         23    2    1    2    0    0  0.81149004490E+02 -0.20864914840E+02  0.53914202091E+02  0.13539228030E+03  0.91672366490E+02 0.  0.
         23    2    1    2    0    0 -0.44823197151E+02  0.44734866491E+02  0.20396989530E+01  0.11036624353E+03  0.90367140353E+02 0.  0.
        -11    1    3    3    0    0  0.80641871024E+02  0.92625081050E+01  0.95063037065E+01  0.81726832979E+02  0.00000000000E+00 0.  1.
         11    1    3    3    0    0  0.50713346598E+00 -0.30127422945E+02  0.44407898385E+02  0.53665447325E+02  0.00000000000E+00 0. -1.
        -13    1    4    4    0    0 -0.52650585467E+01  0.64053726028E+02 -0.92147416182E+01  0.64926975308E+02  0.00000000000E+00 0.  1.
         13    1    4    4    0    0 -0.39558138605E+02 -0.19318859537E+02  0.11254440571E+02  0.45439268219E+02  0.00000000000E+00 0. -1.
          2    1    1    2  501    0 -0.36325807339E+02 -0.23869951651E+02  0.15345170814E+02  0.46095695438E+02  0.00000000000E+00 0. -1.
<scales pt_clust_5="13000.00000" pt_clust_6="13000.00000" pt_clust_7="13000.00000" pt_clust_8="13000.00000" pt_clust_9="43.46655"></scales>
<clustering>
<clus scale="   43.467">  2  9  1 -1</clus>
<clus scale="   90.367">  7  8 -1 -1</clus>
<clus scale="   91.672">  5  6 -1 -1</clus>
<clus scale="  115.895">  2  7  1 -1</clus>
<clus scale="   43.467">  2  5  1 -1</clus>
</clustering>
</event>
<event>
 9    1  0.3288491E-005  0.1375161E+03  0.7546771E-02  0.1217011E+00
         21   -1    0    0  501  502  0.00000000000E+00  0.00000000000E+00  0.12937195351E+03  0.12937195351E+03  0.00000000000E+00 0. -1.
          2   -1    0    0  502    0 -0.00000000000E+00 -0.00000000000E+00 -0.54018589556E+03  0.54018589556E+03  0.00000000000E+00 0. -1.
         23    2    1    2    0    0  0.79847506267E+01  0.78037789148E+02 -0.19361155887E+03  0.22836637053E+03  0.92261100603E+02 0.  0.
         23    2    1    2    0    0  0.29154520822E+02 -0.12892100191E+03 -0.29817223086E+03  0.33860228292E+03  0.90962717237E+02 0.  0.
        -11    1    4    4    0    0 -0.76499490132E+01 -0.72592167307E+02 -0.71593885352E+02  0.10224396752E+03  0.00000000000E+00 0.  1.
         11    1    4    4    0    0  0.36804469835E+02 -0.56328834599E+02 -0.22657834551E+03  0.23635831540E+03  0.00000000000E+00 0. -1.
        -13    1    3    3    0    0 -0.17873044923E+02  0.90252546971E+02 -0.13845774844E+03  0.16623933371E+03  0.00000000000E+00 0. -1.
         13    1    3    3    0    0  0.25857795549E+02 -0.12214757823E+02 -0.55153810428E+02  0.62127036820E+02  0.00000000000E+00 0.  1.
          2    1    1    2  501    0 -0.37139271449E+02  0.50883212758E+02  0.80969847679E+02  0.10258919562E+03  0.00000000000E+00 0. -1.
<scales pt_clust_5="13000.00000" pt_clust_6="13000.00000" pt_clust_7="13000.00000" pt_clust_8="13000.00000" pt_clust_9="62.99545"></scales>
<clustering>
<clus scale="   62.995">  1  9  2 -1</clus>
<clus scale="   90.963">  5  6 -1 -1</clus>
<clus scale="   92.261">  7  8 -1 -1</clus>
<clus scale="  136.648">  1  5  2 -1</clus>
<clus scale="   62.995">  1  5  2 -1</clus>
</clustering>
</event>
<event>
 9    1  0.3288491E-005  0.1091850E+03  0.7546771E-02  0.1267699E+00
         21   -1    0    0  501  502  0.00000000000E+00  0.00000000000E+00  0.94276993796E+02  0.94276993796E+02  0.00000000000E+00 0.  1.
          1   -1    0    0  502    0 -0.00000000000E+00 -0.00000000000E+00 -0.36283134167E+03  0.36283134167E+03  0.00000000000E+00 0. -1.
         23    2    1    2    0    0 -0.46197641076E+02  0.21798721045E+02 -0.28769034817E+03  0.30434466409E+03  0.85150054924E+02 0.  0.
         23    2    1    2    0    0  0.39960238394E+02  0.19941109306E+02  0.33436377913E+01  0.10770240926E+03  0.97949785878E+02 0.  0.
        -13    1    3    3    0    0 -0.28684037892E+02 -0.31682098306E+02 -0.11289940507E+03  0.12071787377E+03  0.00000000000E+00 0.  1.
         13    1    3    3    0    0 -0.17513603184E+02  0.53480819352E+02 -0.17479094310E+03  0.18362679032E+03  0.00000000000E+00 0. -1.
        -13    1    4    4    0    0 -0.22049671551E+02 -0.99387265182E+01  0.25737065901E+02  0.35318024598E+02  0.00000000000E+00 0.  1.
         13    1    4    4    0    0  0.62009909945E+02  0.29879835824E+02 -0.22393428109E+02  0.72384384661E+02  0.00000000000E+00 0. -1.
          1    1    1    2  501    0  0.62374026816E+01 -0.41739830351E+02  0.15792362501E+02  0.45061262114E+02  0.00000000000E+00 0. -1.
<scales pt_clust_5="13000.00000" pt_clust_6="13000.00000" pt_clust_7="13000.00000" pt_clust_8="13000.00000" pt_clust_9="42.20330"></scales>
<clustering>
<clus scale="   42.203">  1  9  2 -1</clus>
<clus scale="   85.150">  5  6 -1 -1</clus>
<clus scale="   97.866">  2  5  1 -1</clus>
<clus scale="   97.950">  7  8 -1 -1</clus>
<clus scale="   42.203">  1  5  2 -1</clus>
</clustering>
</event>
<event>
 9    1  0.3288491E-005  0.1346462E+03  0.7546771E-02  0.1221088E+00
          1   -1    0    0  502    0 -0.00000000000E+00  0.00000000000E+00  0.30316810172E+03  0.30316810172E+03  0.00000000000E+00 0. -1.
         21   -1    0    0  501  502  0.00000000000E+00 -0.00000000000E+00 -0.22837026979E+03  0.22837026979E+03  0.00000000000E+00 0. -1.
         23    2    1    2    0    0 -0.48704043482E+02 -0.44829262422E+02  0.64595693451E+02  0.13007978863E+03  0.91468033628E+02 0.  0.
         23    2    1    2    0    0  0.14204298944E+03  0.18244895105E+02  0.15269140807E+03  0.22905765665E+03  0.92971269360E+02 0.  0.
        -13    1    4    4    0    0  0.90890765500E+02 -0.33230928857E+02  0.72606139440E+02  0.12098378970E+03  0.00000000000E+00 0.  1.
         13    1    4    4    0    0  0.51152223943E+02  0.51475823962E+02  0.80085268629E+02  0.10807386695E+03  0.00000000000E+00 0. -1.
        -13    1    3    3    0    0 -0.16524374188E+02  0.28032863170E+02  0.12264742202E+02  0.34775282330E+02  0.00000000000E+00 0.  1.
         13    1    3    3    0    0 -0.32179669294E+02 -0.72862125592E+02  0.52330951249E+02  0.95304506296E+02  0.00000000000E+00 0. -1.
          1    1    1    2  501    0 -0.93338945961E+02  0.26584367318E+02 -0.14248926958E+03  0.17240092623E+03  0.00000000000E+00 0. -1.
<scales pt_clust_5="13000.00000" pt_clust_6="13000.00000" pt_clust_7="13000.00000" pt_clust_8="13000.00000" pt_clust_9="97.05095"></scales>
<clustering>
<clus scale="   91.468">  7  8 -1 -1</clus>
<clus scale="   92.971">  5  6 -1 -1</clus>
<clus scale="   97.051">  2  9  1 -1</clus>
<clus scale="  133.613">  1  7  2 -1</clus>
<clus scale="   97.051">  2  5  1 -1</clus>
</clustering>
</event>
<event>
 9    1  0.3288491E-005  0.9236651E+02  0.7546771E-02  0.1298581E+00
         21   -1    0    0  501  502  0.00000000000E+00  0.00000000000E+00  0.21444648712E+03  0.21444648712E+03  0.00000000000E+00 0. -1.
         -1   -1    0    0    0  501 -0.00000000000E+00 -0.00000000000E+00 -0.86035096464E+02  0.86035096464E+02  0.00000000000E+00 0.  1.
         23    2    1    2    0    0 -0.28781560884E+02 -0.15118354770E+02  0.65835105878E+01  0.94794386685E+02  0.88801408983E+02 0.  0.
         23    2    1    2    0    0 -0.64489505571E+00 -0.18304973914E+02  0.20757736176E+02  0.95241693614E+02  0.91129625434E+02 0.  0.
        -11    1    3    3    0    0 -0.13768852799E+02  0.34471714687E+02 -0.13107587686E+02  0.39366092971E+02  0.00000000000E+00 0.  1.
         11    1    3    3    0    0 -0.15012708085E+02 -0.49590069457E+02  0.19691098273E+02  0.55428293714E+02  0.00000000000E+00 0. -1.
        -13    1    4    4    0    0 -0.13082830272E+02  0.35436905663E+02  0.75996597918E+01  0.38531669570E+02  0.00000000000E+00 0.  1.
         13    1    4    4    0    0  0.12437935217E+02 -0.53741879577E+02  0.13158076384E+02  0.56710024044E+02  0.00000000000E+00 0. -1.
         -1    1    1    2    0  502  0.29426455940E+02  0.33423328684E+02  0.10107014390E+03  0.11044550329E+03  0.00000000000E+00 0.  1.
<scales pt_clust_5="13000.00000" pt_clust_6="13000.00000" pt_clust_7="13000.00000" pt_clust_8="13000.00000" pt_clust_9="44.53128"></scales>
<clustering>
<clus scale="   44.531">  1  9  2 -1</clus>
<clus scale="   88.801">  5  6 -1 -1</clus>
<clus scale="   90.070">  2  5  1 -1</clus>
<clus scale="   91.130">  7  8 -1 -1</clus>
<clus scale="   44.531">  1  5  2 -1</clus>
</clustering>
</event>
<event>
 9    1  0.3288491E-005  0.1152224E+03  0.7546771E-02  0.1255356E+00
         21   -1    0    0  501  502  0.00000000000E+00  0.00000000000E+00  0.39915327557E+03  0.39915327557E+03  0.00000000000E+00 0.  1.
         -3   -1    0    0    0  501 -0.00000000000E+00 -0.00000000000E+00 -0.55545857564E+02  0.55545857564E+02  0.00000000000E+00 0.  1.
         23    2    1    2    0    0 -0.14860721270E+01  0.44348038525E+02  0.64187300468E+02  0.12809485175E+03  0.10158407638E+03 0.  0.
         23    2    1    2    0    0 -0.35294640982E+02 -0.72849698895E+02  0.18823131963E+03  0.22422966360E+03  0.91077560572E+02 0.  0.
        -11    1    3    3    0    0  0.41420497701E+01  0.66965669523E+02  0.76484784423E+02  0.10174222191E+03  0.00000000000E+00 0. -1.
         11    1    3    3    0    0 -0.56281218971E+01 -0.22617630998E+02 -0.12297483955E+02  0.26352629844E+02  0.00000000000E+00 0.  1.
        -11    1    4    4    0    0 -0.25716932561E+02  0.16842166389E+02  0.60463602328E+02  0.67829686683E+02  0.00000000000E+00 0. -1.
         11    1    4    4    0    0 -0.95777084211E+01 -0.89691865284E+02  0.12776771730E+03  0.15639997692E+03  0.00000000000E+00 0.  1.
         -3    1    1    2    0  502  0.36780713109E+02  0.28501660370E+02  0.91188797909E+02  0.10237461778E+03  0.00000000000E+00 0.  1.
<scales pt_clust_5="13000.00000" pt_clust_6="13000.00000" pt_clust_7="13000.00000" pt_clust_8="13000.00000" pt_clust_9="46.53134"></scales>
<clustering>
<clus scale="   46.531">  1  9  2 -1</clus>
<clus scale="   91.078">  7  8 -1 -1</clus>
<clus scale="  101.584">  5  6 -1 -1</clus>
<clus scale="  106.075">  1  7  2 -1</clus>
<clus scale="   46.531">  1  5  2 -1</clus>
</clustering>
</event>
<event>
 9    1  0.3288491E-005  0.1288116E+03  0.7546771E-02  0.1229408E+00
         21   -1    0    0  501  502  0.00000000000E+00  0.00000000000E+00  0.64045189047E+02  0.64045189047E+02  0.00000000000E+00 0. -1.
          2   -1    0    0  502    0 -0.00000000000E+00 -0.00000000000E+00 -0.70878702841E+03  0.70878702841E+03  0.00000000000E+00 0. -1.
         23    2    1    2    0    0 -0.32435194215E+02 -0.75910212745E+02 -0.33993451058E+03  0.36157583500E+03  0.91472458982E+02 0.  0.
         23    2    1    2    0    0  0.21571266912E+02  0.99131131626E+02 -0.34084358645E+03  0.36703141375E+03  0.90804225891E+02 0.  0.
        -13    1    4    4    0    0  0.56773442519E+02  0.55714444591E+02 -0.18138185284E+03  0.19805731406E+03  0.00000000000E+00 0.  1.
         13    1    4    4    0    0 -0.35202175607E+02  0.43416687035E+02 -0.15946173361E+03  0.16897409969E+03  0.00000000000E+00 0. -1.
        -13    1    3    3    0    0 -0.56890729807E+02 -0.18814724678E+02 -0.19192944348E+03  0.20106581082E+03  0.00000000000E+00 0. -1.
         13    1    3    3    0    0  0.24455535592E+02 -0.57095488068E+02 -0.14800506709E+03  0.16051002419E+03  0.00000000000E+00 0.  1.
          2    1    1    2  501    0  0.10863927303E+02 -0.23220918881E+02  0.36036257668E+02  0.44224968704E+02  0.00000000000E+00 0. -1.
<scales pt_clust_5="13000.00000" pt_clust_6="13000.00000" pt_clust_7="13000.00000" pt_clust_8="13000.00000" pt_clust_9="25.63661"></scales>
<clustering>
<clus scale="   25.637">  1  9  2 -1</clus>
<clus scale="   90.804">  5  6 -1 -1</clus>
<clus scale="   91.472">  7  8 -1 -1</clus>
<clus scale="  128.338">  1  5  2 -1</clus>
<clus scale="   25.637">  1  5  2 -1</clus>
</clustering>
</event>
<event>
 9    1  0.3288491E-005  0.1373198E+03  0.7546771E-02  0.1217639E+00
         21   -1    0    0  501  502  0.00000000000E+00  0.00000000000E+00  0.26733604164E+02  0.26733604164E+02  0.00000000000E+00 0.  1.
          2   -1    0    0  502    0 -0.00000000000E+00 -0.00000000000E+00 -0.99094104873E+03  0.99094104873E+03  0.00000000000E+00 0. -1.
         23    2    1    2    0    0  0.69168943344E+02 -0.61569100318E+02 -0.49855703825E+03  0.51481204496E+03  0.88866328897E+02 0.  0.
         23    2    1    2    0    0 -0.81572182532E+02  0.82992599464E+02 -0.44953241817E+03  0.47332286860E+03  0.91724317503E+02 0.  0.
        -13    1    4    4    0    0 -0.50168524378E+02  0.99878797427E+02 -0.31929008219E+03  0.33828806009E+03  0.00000000000E+00 0.  1.
         13    1    4    4    0    0 -0.31403658154E+02 -0.16886197963E+02 -0.13024233599E+03  0.13503480851E+03  0.00000000000E+00 0. -1.
        -13    1    3    3    0    0  0.40839550806E+02 -0.67345456362E+02 -0.45959283019E+03  0.46629266450E+03  0.00000000000E+00 0. -1.
         13    1    3    3    0    0  0.28329392538E+02  0.57763560442E+01 -0.38964208055E+02  0.48519380458E+02  0.00000000000E+00 0.  1.
          2    1    1    2  501    0  0.12403239188E+02 -0.21423499146E+02 -0.16117988138E+02  0.29539739329E+02  0.00000000000E+00 0. -1.
<scales pt_clust_5="13000.00000" pt_clust_6="13000.00000" pt_clust_7="13000.00000" pt_clust_8="13000.00000" pt_clust_9="24.75493"></scales>
<clustering>
<clus scale="   24.755">  1  9  2 -1</clus>
<clus scale="   88.866">  7  8 -1 -1</clus>
<clus scale="   91.724">  5  6 -1 -1</clus>
<clus scale="  135.427">  2  7  1 -1</clus>
<clus scale="   24.755">  1  5  2 -1</clus>
</clustering>
</event>
<event>
 9    1  0.3288491E-005  0.1096283E+03  0.7546771E-02  0.1263446E+00
         21   -1    0    0  501  502  0.00000000000E+00  0.00000000000E+00  0.10025768400E+03  0.10025768400E+03  0.00000000000E+00 0.  1.
          2   -1    0    0  502    0 -0.00000000000E+00 -0.00000000000E+00 -0.25281738013E+03  0.25281738013E+03  0.00000000000E+00 0. -1.
         23    2    1    2    0    0  0.55985949791E+02 -0.71274757219E+01 -0.13794683595E+03  0.17513268808E+03  0.91961412564E+02 0.  0.
         23    2    1    2    0    0 -0.66175092050E+02  0.41953395064E+02  0.29978761279E+02  0.12045258581E+03  0.86434189624E+02 0.  0.
        -13    1    4    4    0    0  0.57915359117E+01  0.43877854236E+02  0.16348004040E+02  0.47181195583E+02  0.00000000000E+00 0.  1.
         13    1    4    4    0    0 -0.71966627962E+02 -0.19244591721E+01  0.13630757239E+02  0.73271390230E+02  0.00000000000E+00 0. -1.
        -13    1    3    3    0    0 -0.18956519369E+02  0.13231257512E+02 -0.94135241841E+01  0.24960573702E+02  0.00000000000E+00 0.  1.
         13    1    3    3    0    0  0.74942469161E+02 -0.20358733234E+02 -0.12853331177E+03  0.15017211438E+03  0.00000000000E+00 0. -1.
          2    1    1    2  501    0  0.10189142259E+02 -0.34825919342E+02 -0.44591621450E+02  0.57489790237E+02  0.00000000000E+00 0. -1.
<scales pt_clust_5="13000.00000" pt_clust_6="13000.00000" pt_clust_7="13000.00000" pt_clust_8="13000.00000" pt_clust_9="36.28587"></scales>
<clustering>
<clus scale="   36.286">  1  9  2 -1</clus>
<clus scale="   86.434">  5  6 -1 -1</clus>
<clus scale="   91.961">  7  8 -1 -1</clus>
<clus scale="  105.035">  1  5  2 -1</clus>
<clus scale="   36.286">  1  5  2 -1</clus>
</clustering>
</event>
<event>
 9    1  0.3288491E-005  0.9289923E+02  0.7546771E-02  0.1296426E+00
         21   -1    0    0  501  502  0.00000000000E+00  0.00000000000E+00  0.13369137027E+03  0.13369137027E+03  0.00000000000E+00 0. -1.
          2   -1    0    0  502    0 -0.00000000000E+00 -0.00000000000E+00 -0.16446826058E+03  0.16446826058E+03  0.00000000000E+00 0. -1.
         23    2    1    2    0    0 -0.21417762135E+02  0.22792133320E+02 -0.76385568427E+02  0.12320495200E+03  0.91468591640E+02 0.  0.
         23    2    1    2    0    0 -0.24678312319E+02  0.21991975241E+02  0.33602683735E+01  0.98043089438E+02  0.92241476078E+02 0.  0.
        -13    1    3    3    0    0  0.31089252019E+02 -0.12379273796E+02 -0.25762345027E+02  0.42231344190E+02  0.00000000000E+00 0.  1.
         13    1    3    3    0    0 -0.52507014154E+02  0.35171407116E+02 -0.50623223400E+02  0.80973607807E+02  0.00000000000E+00 0. -1.
        -13    1    4    4    0    0 -0.55578346071E+02 -0.29424313340E+01 -0.91714695542E+01  0.56406793101E+02  0.00000000000E+00 0. -1.
         13    1    4    4    0    0  0.30900033752E+02  0.24934406575E+02  0.12531737928E+02  0.41636296336E+02  0.00000000000E+00 0.  1.
          2    1    1    2  501    0  0.46096074455E+02 -0.44784108560E+02  0.42248409741E+02  0.76911589409E+02  0.00000000000E+00 0. -1.
<scales pt_clust_5="13000.00000" pt_clust_6="13000.00000" pt_clust_7="13000.00000" pt_clust_8="13000.00000" pt_clust_9="64.26869"></scales>
<clustering>
<clus scale="   64.269">  1  9  2 -1</clus>
<clus scale="   91.469">  5  6 -1 -1</clus>
<clus scale="   92.132">  2  5  1 -1</clus>
<clus scale="   92.241">  7  8 -1 -1</clus>
<clus scale="   64.269">  1  5  2 -1</clus>
</clustering>
</event>
<event>
 9    1  0.3288491E-005  0.1105053E+03  0.7546771E-02  0.1259971E+00
         21   -1    0    0  501  502  0.00000000000E+00  0.00000000000E+00  0.30671729134E+03  0.30671729134E+03  0.00000000000E+00 0.  1.
          1   -1    0    0  502    0 -0.00000000000E+00 -0.00000000000E+00 -0.12789749097E+03  0.12789749097E+03  0.00000000000E+00 0. -1.
         23    2    1    2    0    0  0.50197357422E+02  0.95743524576E+01 -0.49672142590E+02  0.11781362800E+03  0.93815170820E+02 0.  0.
         23    2    1    2    0    0 -0.74981410728E+02 -0.13904188650E+02  0.40119144923E+02  0.12675561287E+03  0.92961826512E+02 0.  0.
        -11    1    4    4    0    0 -0.26067135796E+02  0.31587222081E+02  0.43661529869E+02  0.59862988214E+02  0.00000000000E+00 0. -1.
         11    1    4    4    0    0 -0.48914274932E+02 -0.45491410732E+02 -0.35423849463E+01  0.66892624657E+02  0.00000000000E+00 0.  1.
        -11    1    3    3    0    0 -0.12313300012E+02 -0.27756837687E+02 -0.29326703777E+02  0.42215103340E+02  0.00000000000E+00 0. -1.
         11    1    3    3    0    0  0.62510657434E+02  0.37331190144E+02 -0.20345438813E+02  0.75598524661E+02  0.00000000000E+00 0.  1.
          1    1    1    2  501    0  0.24784053306E+02  0.43298361928E+01  0.18837279804E+03  0.19004554144E+03  0.00000000000E+00 0. -1.
<scales pt_clust_5="13000.00000" pt_clust_6="13000.00000" pt_clust_7="13000.00000" pt_clust_8="13000.00000" pt_clust_9="25.15943"></scales>
<clustering>
<clus scale="   25.159">  1  9  2 -1</clus>
<clus scale="   92.962">  5  6 -1 -1</clus>
<clus scale="   93.815">  7  8 -1 -1</clus>
<clus scale="  109.782">  1  5  2 -1</clus>
<clus scale="   25.159">  1  5  2 -1</clus>
</clustering>
</event>
<event>
 9    1  0.3288491E-005  0.9374833E+02  0.7546771E-02  0.1296519E+00
         21   -1    0    0  501  502  0.00000000000E+00  0.00000000000E+00  0.46484361712E+02  0.46484361712E+02  0.00000000000E+00 0. -1.
          1   -1    0    0  502    0 -0.00000000000E+00 -0.00000000000E+00 -0.42248809023E+03  0.42248809023E+03  0.00000000000E+00 0. -1.
         23    2    1    2    0    0 -0.19207858682E+02  0.30376951268E+02 -0.28915805152E+03  0.30465099543E+03  0.88927775515E+02 0.  0.
         23    2    1    2    0    0 -0.10082438257E+02 -0.22678778212E+02 -0.98303500993E+02  0.13194144579E+03  0.84433312545E+02 0.  0.
        -13    1    3    3    0    0  0.46764666865E+01  0.57488542323E+02 -0.14541298728E+03  0.15643445500E+03  0.00000000000E+00 0. -1.
         13    1    3    3    0    0 -0.23884325369E+02 -0.27111591055E+02 -0.14374506423E+03  0.14821654044E+03  0.00000000000E+00 0.  1.
        -13    1    4    4    0    0 -0.32173723376E+02 -0.35108349741E+02 -0.95145631684E+02  0.10639753722E+03  0.00000000000E+00 0.  1.
         13    1    4    4    0    0  0.22091285119E+02  0.12429571529E+02 -0.31578693092E+01  0.25543908573E+02  0.00000000000E+00 0. -1.
          1    1    1    2  501    0  0.29290296939E+02 -0.76981730564E+01  0.11457823995E+02  0.32380010715E+02  0.00000000000E+00 0. -1.
<scales pt_clust_5="13000.00000" pt_clust_6="13000.00000" pt_clust_7="13000.00000" pt_clust_8="13000.00000" pt_clust_9="30.28504"></scales>
<clustering>
<clus scale="   30.285">  1  9  2 -1</clus>
<clus scale="   84.433">  7  8 -1 -1</clus>
<clus scale="   88.928">  5  6 -1 -1</clus>
<clus scale="   89.496">  1  7  2 -1</clus>
<clus scale="   30.285">  1  5  2 -1</clus>
</clustering>
</event>
<event>
 9    1  0.3288491E-005  0.1778944E+03  0.7546771E-02  0.1189372E+00
         -3   -1    0    0    0  501 -0.00000000000E+00  0.00000000000E+00  0.11341339231E+03  0.11341339231E+03  0.00000000000E+00 0.  1.
         21   -1    0    0  501  502  0.00000000000E+00 -0.00000000000E+00 -0.83529998162E+03  0.83529998162E+03  0.00000000000E+00 0.  1.
         23    2    1    2    0    0  0.65057467764E+02  0.88241222148E+01  0.14270462338E+02  0.11556785742E+03  0.94031613456E+02 0.  0.
         23    2    1    2    0    0 -0.34066841359E+02  0.14494332788E+03 -0.16272472018E+03  0.23864615872E+03  0.91123742990E+02 0.  0.
        -13    1    3    3    0    0  0.14481463254E+02 -0.40662764434E+02 -0.10147169960E+01  0.43176415321E+02  0.00000000000E+00 0. -1.
         13    1    3    3    0    0  0.50576004510E+02  0.49486886648E+02  0.15285179334E+02  0.72391442102E+02  0.00000000000E+00 0.  1.
        -13    1    4    4    0    0  0.28945854900E+02  0.30934701254E+02 -0.56157276194E+02  0.70345276508E+02  0.00000000000E+00 0. -1.
         13    1    4    4    0    0 -0.63012696260E+02  0.11400862662E+03 -0.10656744399E+03  0.16830088221E+03  0.00000000000E+00 0.  1.
         -3    1    1    2    0  502 -0.30990626405E+02 -0.15376745009E+03 -0.57343233147E+03  0.59449935778E+03  0.00000000000E+00 0.  1.
<scales pt_clust_5="13000.00000" pt_clust_6="13000.00000" pt_clust_7="13000.00000" pt_clust_8="13000.00000" pt_clust_9="152.78380"></scales>
<clustering>
<clus scale="   91.124">  7  8 -1 -1</clus>
<clus scale="   94.032">  5  6 -1 -1</clus>
<clus scale="  114.683">  1  5  2 -1</clus>
<clus scale="  152.784">  2  9  1 -1</clus>
<clus scale="  152.784">  2  5  1 -1</clus>
</clustering>
</event>
<event>
 9    1  0.3288491E-005  0.1136211E+03  0.7546771E-02  0.1254809E+00
         21   -1    0    0  501  502  0.00000000000E+00  0.00000000000E+00  0.18153991471E+03  0.18153991471E+03  0.00000000000E+00 0.  1.
         -4   -1    0    0    0  501 -0.00000000000E+00 -0.00000000000E+00 -0.16388013366E+03  0.16388013366E+03  0.00000000000E+00 0.  1.
         23    2    1    2    0    0  0.12294124884E+02  0.50541981806E+02 -0.86924475863E+01  0.10649677160E+03  0.92522247508E+02 0.  0.
         23    2    1    2    0    0 -0.33378856303E+02 -0.95789005413E+02  0.86299072321E+02  0.16091377023E+03  0.90310741104E+02 0.  0.
        -13    1    3    3    0    0  0.37924119535E+02  0.20178675895E+02 -0.37816314973E+02  0.57231909644E+02  0.00000000000E+00 0. -1.
         13    1    3    3    0    0 -0.25629994651E+02  0.30363305911E+02  0.29123867387E+02  0.49264861953E+02  0.00000000000E+00 0.  1.
        -13    1    4    4    0    0 -0.64646700124E+02 -0.61452266986E+02  0.52775857795E+02  0.10363815958E+03  0.00000000000E+00 0.  1.
         13    1    4    4    0    0  0.31267843821E+02 -0.34336738427E+02  0.33523214526E+02  0.57275610649E+02  0.00000000000E+00 0. -1.
         -4    1    1    2    0  502  0.21084731419E+02  0.45247023607E+02 -0.59946843686E+02  0.78009506550E+02  0.00000000000E+00 0.  1.
<scales pt_clust_5="13000.00000" pt_clust_6="13000.00000" pt_clust_7="13000.00000" pt_clust_8="13000.00000" pt_clust_9="49.91855"></scales>
<clustering>
<clus scale="   49.919">  1  9  2 -1</clus>
<clus scale="   90.311">  7  8 -1 -1</clus>
<clus scale="   92.522">  5  6 -1 -1</clus>
<clus scale="  111.828">  1  7  2 -1</clus>
<clus scale="   49.919">  1  5  2 -1</clus>
</clustering>
</event>
<event>
 9    1  0.3288491E-005  0.1366279E+03  0.7546771E-02  0.1218612E+00
         21   -1    0    0  501  502  0.00000000000E+00  0.00000000000E+00  0.60262389450E+02  0.60262389450E+02  0.00000000000E+00 0.  1.
         -3   -1    0    0    0  501 -0.00000000000E+00 -0.00000000000E+00 -0.84127482509E+03  0.84127482509E+03  0.00000000000E+00 0.  1.
         23    2    1    2    0    0  0.46160719578E+02 -0.86317673786E+02 -0.57330903961E+03  0.58925990310E+03  0.94670088515E+02 0.  0.
         23    2    1    2    0    0 -0.80439984948E+02  0.67927753089E+02 -0.22874575120E+03  0.26805019387E+03  0.91877728097E+02 0.  0.
        -11    1    3    3    0    0  0.40001281515E+02 -0.10549156232E+03 -0.52378275391E+03  0.53579561919E+03  0.00000000000E+00 0.  1.
         11    1    3    3    0    0  0.61594380629E+01  0.19173888539E+02 -0.49526285700E+02  0.53464283912E+02  0.00000000000E+00 0. -1.
        -11    1    4    4    0    0 -0.15418887060E+02 -0.21540704931E+02 -0.67563347611E+02  0.72570999631E+02  0.00000000000E+00 0.  1.
         11    1    4    4    0    0 -0.65021097888E+02  0.89468458020E+02 -0.16118240359E+03  0.19547919423E+03  0.00000000000E+00 0. -1.
         -3    1    1    2    0  502  0.34279265370E+02  0.18389920697E+02  0.21042355177E+02  0.44227117574E+02  0.00000000000E+00 0.  1.
<scales pt_clust_5="13000.00000" pt_clust_6="13000.00000" pt_clust_7="13000.00000" pt_clust_8="13000.00000" pt_clust_9="38.90061"></scales>
<clustering>
<clus scale="   38.901">  1  9  2 -1</clus>
<clus scale="   91.878">  7  8 -1 -1</clus>
<clus scale="   94.670">  5  6 -1 -1</clus>
<clus scale="  134.708">  1  7  2 -1</clus>
<clus scale="   38.901">  1  5  2 -1</clus>
</clustering>
</event>
<event>
 9    1  0.3288491E-005  0.9710736E+02  0.7546771E-02  0.1287079E+00
         21   -1    0    0  501  502  0.00000000000E+00  0.00000000000E+00  0.34340404136E+03  0.34340404136E+03  0.00000000000E+00 0.  1.
          1   -1    0    0  502    0 -0.00000000000E+00 -0.00000000000E+00 -0.49860849399E+02  0.49860849399E+02  0.00000000000E+00 0. -1.
         23    2    1    2    0    0  0.29022661184E+02  0.25348784843E+02  0.76649449357E+02  0.12557119895E+03  0.91695758696E+02 0.  0.
         23    2    1    2    0    0 -0.35912488277E+02  0.29327307719E+02  0.14333736751E+03  0.17578349035E+03  0.90578345999E+02 0.  0.
        -11    1    4    4    0    0 -0.23543164234E+02 -0.75184293490E+01  0.13339537124E+03  0.13566551673E+03  0.00000000000E+00 0. -1.
         11    1    4    4    0    0 -0.12369324043E+02  0.36845737068E+02  0.99419962643E+01  0.40117973616E+02  0.00000000000E+00 0.  1.
        -11    1    3    3    0    0  0.11063935614E+02 -0.26866778704E+02 -0.23905235937E+01  0.29153886058E+02  0.00000000000E+00 0. -1.
         11    1    3    3    0    0  0.17958725570E+02  0.52215563547E+02  0.79039972951E+02  0.96417312889E+02  0.00000000000E+00 0.  1.
          1    1    1    2  501    0  0.68898270931E+01 -0.54676092562E+02  0.73556375094E+02  0.91910201459E+02  0.00000000000E+00 0. -1.
<scales pt_clust_5="13000.00000" pt_clust_6="13000.00000" pt_clust_7="13000.00000" pt_clust_8="13000.00000" pt_clust_9="55.10848"></scales>
<clustering>
<clus scale="   55.108">  1  9  2 -1</clus>
<clus scale="   90.578">  5  6 -1 -1</clus>
<clus scale="   91.696">  7  8 -1 -1</clus>
<clus scale="   96.053">  1  5  2 -1</clus>
<clus scale="   55.108">  1  5  2 -1</clus>
</clustering>
</event>
<event>
 9    1  0.3288491E-005  0.1070121E+03  0.7546771E-02  0.1266530E+00
          2   -1    0    0  502    0 -0.00000000000E+00  0.00000000000E+00  0.36370869560E+03  0.36370869560E+03  0.00000000000E+00 0. -1.
         21   -1    0    0  501  502  0.00000000000E+00 -0.00000000000E+00 -0.50797798559E+02  0.50797798559E+02  0.00000000000E+00 0. -1.
         23    2    1    2    0    0 -0.47308809750E+02  0.36904666356E+02  0.23327738123E+03  0.25665814860E+03  0.88628385784E+02 0.  0.
         23    2    1    2    0    0  0.60552804217E+02 -0.17531652270E+02  0.79829906721E+02  0.13438016213E+03  0.87813512840E+02 0.  0.
        -11    1    4    4    0    0  0.40178691478E+02 -0.76726478215E+01 -0.96953138049E+01  0.42038029012E+02  0.00000000000E+00 0.  1.
         11    1    4    4    0    0  0.20374112739E+02 -0.98590044481E+01  0.89525220526E+02  0.92342133118E+02  0.00000000000E+00 0. -1.
        -13    1    3    3    0    0 -0.36713564968E+02  0.56919117643E+02  0.22047376148E+03  0.23064334221E+03  0.00000000000E+00 0. -1.
         13    1    3    3    0    0 -0.10595244782E+02 -0.20014451287E+02  0.12803619751E+02  0.26014806381E+02  0.00000000000E+00 0.  1.
          2    1    1    2  501    0 -0.13243994467E+02 -0.19373014086E+02 -0.19639091441E+00  0.23468183432E+02  0.00000000000E+00 0. -1.
<scales pt_clust_5="13000.00000" pt_clust_6="13000.00000" pt_clust_7="13000.00000" pt_clust_8="13000.00000" pt_clust_9="23.46736"></scales>
<clustering>
<clus scale="   23.467">  2  9  1 -1</clus>
<clus scale="   87.814">  5  6 -1 -1</clus>
<clus scale="   88.628">  7  8 -1 -1</clus>
<clus scale="  106.338">  2  5  1 -1</clus>
<clus scale="   23.467">  2  5  1 -1</clus>
</clustering>
</event>
<event>
 9    1  0.3288491E-005  0.1058355E+03  0.7546771E-02  0.1269686E+00
         -1   -1    0    0    0  501 -0.00000000000E+00  0.00000000000E+00  0.14663183790E+03  0.14663183790E+03  0.00000000000E+00 0.  1.
         21   -1    0    0  501  502  0.00000000000E+00 -0.00000000000E+00 -0.11420411183E+03  0.11420411183E+03  0.00000000000E+00 0. -1.
         23    2    1    2    0    0 -0.13287281366E+02 -0.35841745746E+02  0.60260595142E+02  0.11860609077E+03  0.94735858347E+02 0.  0.
         23    2    1    2    0    0  0.36796641078E+02  0.35151358944E+02 -0.58582011190E+01  0.11004208707E+03  0.97392666952E+02 0.  0.
        -11    1    3    3    0    0  0.15171848035E+02 -0.33434142274E+02  0.77138881424E+02  0.85430871878E+02  0.00000000000E+00 0.  1.
         11    1    3    3    0    0 -0.28459129401E+02 -0.24076034714E+01 -0.16878286282E+02  0.33175218893E+02  0.00000000000E+00 0. -1.
        -13    1    4    4    0    0  0.44692992635E+02 -0.99740048257E+01  0.27461369191E+02  0.53395422658E+02  0.00000000000E+00 0.  1.
         13    1    4    4    0    0 -0.78963515573E+01  0.45125363770E+02 -0.33319570310E+02  0.56646664412E+02  0.00000000000E+00 0. -1.
         -1    1    1    2    0  502 -0.23509359712E+02  0.69038680133E+00 -0.21974667944E+02  0.32187771891E+02  0.00000000000E+00 0.  1.
<scales pt_clust_5="13000.00000" pt_clust_6="13000.00000" pt_clust_7="13000.00000" pt_clust_8="13000.00000" pt_clust_9="23.51949"></scales>
<clustering>
<clus scale="   23.519">  2  9  1 -1</clus>
<clus scale="   94.736">  5  6 -1 -1</clus>
<clus scale="   97.393">  7  8 -1 -1</clus>
<clus scale="  103.396">  1  5  2 -1</clus>
<clus scale="   23.519">  2  5  1 -1</clus>
</clustering>
</event>
<event>
 9    1  0.3288491E-005  0.1206600E+03  0.7546771E-02  0.1242060E+00
         21   -1    0    0  501  502  0.00000000000E+00  0.00000000000E+00  0.18044452172E+03  0.18044452172E+03  0.00000000000E+00 0.  1.
         -4   -1    0    0    0  501 -0.00000000000E+00 -0.00000000000E+00 -0.17059418926E+03  0.17059418926E+03  0.00000000000E+00 0.  1.
         23    2    1    2    0    0 -0.55672334571E+02  0.64613315969E+02 -0.10680283034E+03  0.16412106406E+03  0.90854772362E+02 0.  0.
         23    2    1    2    0    0  0.19995145463E+02 -0.53002808931E+02  0.96964231525E+02  0.14454643368E+03  0.91008272685E+02 0.  0.
        -13    1    3    3    0    0 -0.79322721038E+02  0.61641458581E+02 -0.81511095409E+02  0.12936700570E+03  0.00000000000E+00 0.  1.
         13    1    3    3    0    0  0.23650386467E+02  0.29718573874E+01 -0.25291734933E+02  0.34754058357E+02  0.00000000000E+00 0. -1.
        -13    1    4    4    0    0  0.33077339727E+02  0.15743174481E+02  0.26307747012E+02  0.45100504421E+02  0.00000000000E+00 0.  1.
         13    1    4    4    0    0 -0.13082194264E+02 -0.68745983412E+02  0.70656484513E+02  0.99445929257E+02  0.00000000000E+00 0. -1.
         -4    1    1    2    0  502  0.35677189108E+02 -0.11610507038E+02  0.19688931277E+02  0.42371213237E+02  0.00000000000E+00 0.  1.
<scales pt_clust_5="13000.00000" pt_clust_6="13000.00000" pt_clust_7="13000.00000" pt_clust_8="13000.00000" pt_clust_9="37.51887"></scales>
<clustering>
<clus scale="   37.519">  1  9  2 -1</clus>
<clus scale="   90.855">  5  6 -1 -1</clus>
<clus scale="   91.008">  7  8 -1 -1</clus>
<clus scale="  120.544">  2  5  1 -1</clus>
<clus scale="   37.519">  1  5  2 -1</clus>
</clustering>
</event>
<event>
 9    1  0.3288491E-005  0.1214611E+03  0.7546771E-02  0.1243939E+00
          1   -1    0    0  502    0 -0.00000000000E+00  0.00000000000E+00  0.81346454882E+02  0.81346454882E+02  0.00000000000E+00 0. -1.
         21   -1    0    0  501  502  0.00000000000E+00 -0.00000000000E+00 -0.25009476584E+03  0.25009476584E+03  0.00000000000E+00 0.  1.
         23    2    1    2    0    0  0.30283977357E+02 -0.67973878556E+02 -0.79077685899E+01  0.12467371066E+03  0.99716768277E+02 0.  0.
         23    2    1    2    0    0 -0.32952720575E+02  0.47254811805E+02 -0.14650961628E+03  0.18143418497E+03  0.90190890791E+02 0.  0.
        -11    1    3    3    0    0  0.66131292362E+02 -0.31994410979E+02 -0.78686132989E+01  0.73884404569E+02  0.00000000000E+00 0. -1.
         11    1    3    3    0    0 -0.35847315005E+02 -0.35979467577E+02 -0.39155290991E-01  0.50789306092E+02  0.00000000000E+00 0.  1.
        -13    1    4    4    0    0  0.18068497235E+02  0.35018974890E+02 -0.19401412376E+02  0.43922818635E+02  0.00000000000E+00 0. -1.
         13    1    4    4    0    0 -0.51021217810E+02  0.12235836915E+02 -0.12710820391E+03  0.13751136634E+03  0.00000000000E+00 0.  1.
          1    1    1    2  501    0  0.26687432188E+01  0.20719066751E+02 -0.14330926081E+02  0.25333325083E+02  0.00000000000E+00 0. -1.
<scales pt_clust_5="13000.00000" pt_clust_6="13000.00000" pt_clust_7="13000.00000" pt_clust_8="13000.00000" pt_clust_9="20.89023"></scales>
<clustering>
<clus scale="   20.890">  2  9  1 -1</clus>
<clus scale="   90.191">  7  8 -1 -1</clus>
<clus scale="   99.717">  5  6 -1 -1</clus>
<clus scale="  113.771">  2  7  1 -1</clus>
<clus scale="   20.890">  2  5  1 -1</clus>
</clustering>
</event>
<event>
 9    1  0.3288491E-005  0.9462399E+02  0.7546771E-02  0.1292879E+00
          1   -1    0    0  502    0 -0.00000000000E+00  0.00000000000E+00  0.56390833120E+02  0.56390833120E+02  0.00000000000E+00 0. -1.
         21   -1    0    0  501  502  0.00000000000E+00 -0.00000000000E+00 -0.32937228765E+03  0.32937228765E+03  0.00000000000E+00 0. -1.
         23    2    1    2    0    0  0.22458036102E+02  0.73834351479E+01 -0.38236443873E+02  0.10228980858E+03  0.91881993876E+02 0.  0.
         23    2    1    2    0    0  0.66451003547E+00 -0.10096504209E+02 -0.70164828636E+02  0.11725463335E+03  0.93397884841E+02 0.  0.
        -11    1    4    4    0    0  0.22510453766E+02 -0.26515157226E+02  0.69248346044E+01  0.35464452988E+02  0.00000000000E+00 0. -1.
         11    1    4    4    0    0 -0.21845943730E+02  0.16418653017E+02 -0.77089663241E+02  0.81790180358E+02  0.00000000000E+00 0.  1.
        -13    1    3    3    0    0  0.10770688855E+01  0.47710632172E+02 -0.10452407494E+02  0.48854041001E+02  0.00000000000E+00 0.  1.
         13    1    3    3    0    0  0.21380967216E+02 -0.40327197025E+02 -0.27784036379E+02  0.53435767576E+02  0.00000000000E+00 0. -1.
          1    1    1    2  501    0 -0.23122546137E+02  0.27130690611E+01 -0.16458018202E+03  0.16621867884E+03  0.00000000000E+00 0. -1.
<scales pt_clust_5="13000.00000" pt_clust_6="13000.00000" pt_clust_7="13000.00000" pt_clust_8="13000.00000" pt_clust_9="23.28117"></scales>
<clustering>
<clus scale="   23.281">  2  9  1 -1</clus>
<clus scale="   91.882">  7  8 -1 -1</clus>
<clus scale="   93.128">  1  7  2 -1</clus>
<clus scale="   93.398">  5  6 -1 -1</clus>
<clus scale="   23.281">  2  5  1 -1</clus>
</clustering>
</event>
<event>
 9    1  0.3288491E-005  0.1003993E+03  0.7546771E-02  0.1280480E+00
         21   -1    0    0  501  502  0.00000000000E+00  0.00000000000E+00  0.26358109410E+02  0.26358109410E+02  0.00000000000E+00 0.  1.
          2   -1    0    0  502    0 -0.00000000000E+00 -0.00000000000E+00 -0.53174496620E+03  0.53174496620E+03  0.00000000000E+00 0. -1.
         23    2    1    2    0    0  0.42283454896E+02  0.36108286281E+02 -0.28815988506E+03  0.30717418097E+03  0.90709201305E+02 0.  0.
         23    2    1    2    0    0 -0.11954803633E+02 -0.26887666691E+02 -0.17218209376E+03  0.19584815440E+03  0.88566146035E+02 0.  0.
        -13    1    4    4    0    0 -0.19394553296E+02  0.29880347643E+02 -0.75578887792E+02  0.83553289299E+02  0.00000000000E+00 0. -1.
         13    1    4    4    0    0  0.74397496632E+01 -0.56768014334E+02 -0.96603205964E+02  0.11229486511E+03  0.00000000000E+00 0.  1.
        -13    1    3    3    0    0  0.77575013987E+01  0.50102285892E+02 -0.24485997344E+03  0.25005364319E+03  0.00000000000E+00 0. -1.
         13    1    3    3    0    0  0.34525953497E+02 -0.13993999611E+02 -0.43299911617E+02  0.57120537778E+02  0.00000000000E+00 0.  1.
          2    1    1    2  501    0 -0.30328651263E+02 -0.92206195896E+01 -0.45044877969E+02  0.55080740230E+02  0.00000000000E+00 0. -1.
<scales pt_clust_5="13000.00000" pt_clust_6="13000.00000" pt_clust_7="13000.00000" pt_clust_8="13000.00000" pt_clust_9="31.69932"></scales>
<clustering>
<clus scale="   31.699">  1  9  2 -1</clus>
<clus scale="   88.566">  5  6 -1 -1</clus>
<clus scale="   90.709">  7  8 -1 -1</clus>
<clus scale="   98.467">  1  5  2 -1</clus>
<clus scale="   31.699">  1  5  2 -1</clus>
</clustering>
</event>
<event>
 9    1  0.3288491E-005  0.9714678E+02  0.7546771E-02  0.1288688E+00
          1   -1    0    0  502    0 -0.00000000000E+00  0.00000000000E+00  0.67379387382E+03  0.67379387382E+03  0.00000000000E+00 0. -1.
         21   -1    0    0  501  502  0.00000000000E+00 -0.00000000000E+00 -0.38439984613E+02  0.38439984613E+02  0.00000000000E+00 0. -1.
         23    2    1    2    0    0  0.58036114312E+00 -0.78064101829E+01  0.40498854109E+03  0.41560531968E+03  0.93009604194E+02 0.  0.
         23    2    1    2    0    0 -0.29370556182E+01 -0.24031295372E+02  0.24261341400E+03  0.26243484603E+03  0.97080638171E+02 0.  0.
        -11    1    4    4    0    0  0.13235499917E+02 -0.59514500632E+02  0.15336479794E+03  0.16503913321E+03  0.00000000000E+00 0. -1.
         11    1    4    4    0    0 -0.16172555536E+02  0.35483205260E+02  0.89248616055E+02  0.97395712820E+02  0.00000000000E+00 0.  1.
        -13    1    3    3    0    0  0.21398891077E+01 -0.48912128684E+02  0.27299685259E+03  0.27735222548E+03  0.00000000000E+00 0. -1.
         13    1    3    3    0    0 -0.15595279646E+01  0.41105718501E+02  0.13199168850E+03  0.13825309420E+03  0.00000000000E+00 0.  1.
          1    1    1    2  501    0  0.23566944751E+01  0.31837705555E+02 -0.12248065884E+02  0.34193692719E+02  0.00000000000E+00 0. -1.
<scales pt_clust_5="13000.00000" pt_clust_6="13000.00000" pt_clust_7="13000.00000" pt_clust_8="13000.00000" pt_clust_9="31.92481"></scales>
<clustering>
<clus scale="   31.925">  2  9  1 -1</clus>
<clus scale="   93.010">  7  8 -1 -1</clus>
<clus scale="   93.079">  1  7  2 -1</clus>
<clus scale="   97.081">  5  6 -1 -1</clus>
<clus scale="   31.925">  2  5  1 -1</clus>
</clustering>
</event>
<event>
 9    1  0.3288491E-005  0.9275060E+02  0.7546771E-02  0.1314010E+00
         21   -1    0    0  501  502  0.00000000000E+00  0.00000000000E+00  0.33707772695E+02  0.33707772695E+02  0.00000000000E+00 0. -1.
          1   -1    0    0  502    0 -0.00000000000E+00 -0.00000000000E+00 -0.34641316486E+03  0.34641316486E+03  0.00000000000E+00 0. -1.
         23    2    1    2    0    0 -0.11156187472E+02  0.30099188453E+01 -0.10780478227E+03  0.12643796166E+03  0.65047420677E+02 0.  0.
         23    2    1    2    0    0  0.67865043261E+01 -0.37422003498E+02 -0.90132428010E+02  0.13378709910E+03  0.91261548965E+02 0.  0.
        -11    1    4    4    0    0 -0.17749693745E+02 -0.40573039308E+02 -0.98235259967E+02  0.10775615735E+03  0.00000000000E+00 0.  1.
         11    1    4    4    0    0  0.24536198071E+02  0.31510358102E+01  0.81028319563E+01  0.26030941746E+02  0.00000000000E+00 0. -1.
        -13    1    3    3    0    0 -0.22457567999E+02 -0.16765904610E+02 -0.16908409741E+02  0.32731211982E+02  0.00000000000E+00 0.  1.
         13    1    3    3    0    0  0.11301380527E+02  0.19775823456E+02 -0.90896372532E+02  0.93706749675E+02  0.00000000000E+00 0. -1.
          1    1    1    2  501    0  0.43696831464E+01  0.34412084653E+02 -0.11476818188E+03  0.11989587680E+03  0.00000000000E+00 0. -1.
<scales pt_clust_5="13000.00000" pt_clust_6="13000.00000" pt_clust_7="13000.00000" pt_clust_8="13000.00000" pt_clust_9="34.68843"></scales>
<clustering>
<clus scale="   34.688">  1  9  2 -1</clus>
<clus scale="   65.047">  7  8 -1 -1</clus>
<clus scale="   67.121">  2  7  1 -1</clus>
<clus scale="   91.262">  5  6 -1 -1</clus>
<clus scale="   34.688">  1  5  2 -1</clus>
</clustering>
</event>
<event>
 9    1  0.3288491E-005  0.1037772E+03  0.7546771E-02  0.1274499E+00
         21   -1    0    0  501  502  0.00000000000E+00  0.00000000000E+00  0.94451990575E+02  0.94451990575E+02  0.00000000000E+00 0. -1.
          3   -1    0    0  502    0 -0.00000000000E+00 -0.00000000000E+00 -0.27627011420E+03  0.27627011420E+03  0.00000000000E+00 0. -1.
         23    2    1    2    0    0  0.43943718887E+02 -0.70106176549E+01 -0.20082861348E+03  0.22647771071E+03  0.94761924145E+02 0.  0.
         23    2    1    2    0    0 -0.36593872122E+02 -0.22770035910E+02 -0.11537055815E+02  0.10095397803E+03  0.90559461188E+02 0.  0.
        -13    1    4    4    0    0 -0.42271860017E+02  0.12623030136E+02  0.24216360252E+02  0.50325770168E+02  0.00000000000E+00 0. -1.
         13    1    4    4    0    0  0.56779878955E+01 -0.35393066047E+02 -0.35753416066E+02  0.50628207860E+02  0.00000000000E+00 0.  1.
        -13    1    3    3    0    0  0.17425112690E+02 -0.48789968823E+02 -0.13117584903E+03  0.14103616196E+03  0.00000000000E+00 0. -1.
         13    1    3    3    0    0  0.26518606196E+02  0.41779351168E+02 -0.69652764449E+02  0.85441548757E+02  0.00000000000E+00 0.  1.
          3    1    1    2  501    0 -0.73498467650E+01  0.29780653565E+02  0.30547545668E+02  0.43290416036E+02  0.00000000000E+00 0. -1.
<scales pt_clust_5="13000.00000" pt_clust_6="13000.00000" pt_clust_7="13000.00000" pt_clust_8="13000.00000" pt_clust_9="30.67422"></scales>
<clustering>
<clus scale="   30.674">  1  9  2 -1</clus>
<clus scale="   90.559">  5  6 -1 -1</clus>
<clus scale="   94.762">  7  8 -1 -1</clus>
<clus scale="   99.954">  1  5  2 -1</clus>
<clus scale="   30.674">  1  5  2 -1</clus>
</clustering>
</event>
<event>
 9    1  0.3288491E-005  0.1176929E+03  0.7546771E-02  0.1250295E+00
         21   -1    0    0  501  502  0.00000000000E+00  0.00000000000E+00  0.78814943071E+03  0.78814943071E+03  0.00000000000E+00 0.  1.
         -2   -1    0    0    0  501 -0.00000000000E+00 -0.00000000000E+00 -0.42773970509E+02  0.42773970509E+02  0.00000000000E+00 0.  1.
         23    2    1    2    0    0  0.99426704473E+01 -0.70360923816E+02  0.67451902470E+02  0.13115010239E+03  0.87184137975E+02 0.  0.
         23    2    1    2    0    0 -0.52721191488E+02  0.41380846990E+02  0.39353810712E+03  0.41073189827E+03  0.96625834922E+02 0.  0.
        -11    1    4    4    0    0 -0.67545272731E+02 -0.35279603997E+01  0.18722399402E+03  0.19906690913E+03  0.00000000000E+00 0.  1.
         11    1    4    4    0    0  0.14824081243E+02  0.44908807390E+02  0.20631411310E+03  0.21166498915E+03  0.00000000000E+00 0. -1.
        -13    1    3    3    0    0  0.46277788665E+02 -0.31934525707E+02  0.50606504576E+02  0.75646982499E+02  0.00000000000E+00 0. -1.
         13    1    3    3    0    0 -0.36335118218E+02 -0.38426398109E+02  0.16845397894E+02  0.55503119892E+02  0.00000000000E+00 0.  1.
         -2    1    1    2    0  502  0.42778521041E+02  0.28980076826E+02  0.28438545061E+03  0.28904140055E+03  0.00000000000E+00 0.  1.
<scales pt_clust_5="13000.00000" pt_clust_6="13000.00000" pt_clust_7="13000.00000" pt_clust_8="13000.00000" pt_clust_9="51.67056"></scales>
<clustering>
<clus scale="   51.671">  1  9  2 -1</clus>
<clus scale="   87.184">  7  8 -1 -1</clus>
<clus scale="   96.626">  5  6 -1 -1</clus>
<clus scale="  110.073">  2  7  1 -1</clus>
<clus scale="   51.671">  1  5  2 -1</clus>
</clustering>
</event>
<event>
 9    1  0.3288491E-005  0.1485104E+03  0.7546771E-02  0.1221732E+00
          3   -1    0    0  502    0 -0.00000000000E+00  0.00000000000E+00  0.10920481848E+03  0.10920481848E+03  0.00000000000E+00 0. -1.
         21   -1    0    0  501  502  0.00000000000E+00 -0.00000000000E+00 -0.30487326316E+03  0.30487326316E+03  0.00000000000E+00 0. -1.
         23    2    1    2    0    0 -0.22392850112E+02 -0.28609892867E+02 -0.41931621642E+02  0.10681692092E+03  0.91277751921E+02 0.  0.
         23    2    1    2    0    0  0.37628473800E+02  0.12868724841E+03 -0.94988576604E+02  0.19021861383E+03  0.95833091453E+02 0.  0.
        -13    1    4    4    0    0 -0.23359073063E+02  0.43057333735E+01 -0.30281084389E+01  0.23944833993E+02  0.00000000000E+00 0.  1.
         13    1    4    4    0    0  0.60987546863E+02  0.12438151504E+03 -0.91960468165E+02  0.16627377983E+03  0.00000000000E+00 0. -1.
        -13    1    3    3    0    0 -0.14896260495E+02 -0.47818843084E+02  0.98821215991E+01  0.51050922205E+02  0.00000000000E+00 0.  1.
         13    1    3    3    0    0 -0.74965896168E+01  0.19208950217E+02 -0.51813743241E+02  0.55765998717E+02  0.00000000000E+00 0. -1.
          3    1    1    2  501    0 -0.15235623688E+02 -0.10007735554E+03 -0.58748246434E+02  0.11704254688E+03  0.00000000000E+00 0. -1.
<scales pt_clust_5="13000.00000" pt_clust_6="13000.00000" pt_clust_7="13000.00000" pt_clust_8="13000.00000" pt_clust_9="113.45200"></scales>
<clustering>
<clus scale="   91.278">  7  8 -1 -1</clus>
<clus scale="   95.833">  5  6 -1 -1</clus>
<clus scale="   98.243">  1  7  2 -1</clus>
<clus scale="  113.452">  2  9  1 -1</clus>
<clus scale="  113.452">  2  5  1 -1</clus>
</clustering>
</event>
<event>
 9    1  0.3288491E-005  0.1868841E+03  0.7546771E-02  0.1161777E+00
         21   -1    0    0  501  502  0.00000000000E+00  0.00000000000E+00  0.12102757810E+03  0.12102757810E+03  0.00000000000E+00 0. -1.
          1   -1    0    0  502    0 -0.00000000000E+00 -0.00000000000E+00 -0.39991272124E+03  0.39991272124E+03  0.00000000000E+00 0. -1.
         23    2    1    2    0    0 -0.80914059173E+02  0.15176438871E+03 -0.21667038416E+03  0.29069114444E+03  0.89307174568E+02 0.  0.
         23    2    1    2    0    0  0.57739918571E+02 -0.13540911171E+03 -0.84882682649E+02  0.19393978087E+03  0.93477500300E+02 0.  0.
        -11    1    4    4    0    0 -0.22977562088E+02 -0.48152731330E+02 -0.12599019579E+02  0.54821430011E+02  0.00000000000E+00 0.  1.
         11    1    4    4    0    0  0.80717480659E+02 -0.87256380376E+02 -0.72283663070E+02  0.13911835086E+03  0.00000000000E+00 0. -1.
        -13    1    3    3    0    0 -0.48431293881E+02  0.35477501790E+02 -0.26943154501E+02  0.65804079925E+02  0.00000000000E+00 0.  1.
         13    1    3    3    0    0 -0.32482765292E+02  0.11628688692E+03 -0.18972722966E+03  0.22488706451E+03  0.00000000000E+00 0. -1.
          1    1    1    2  501    0  0.23174140602E+02 -0.16355277001E+02  0.22667923675E+02  0.36309374026E+02  0.00000000000E+00 0. -1.
<scales pt_clust_5="13000.00000" pt_clust_6="13000.00000" pt_clust_7="13000.00000" pt_clust_8="13000.00000" pt_clust_9="28.36434"></scales>
<clustering>
<clus scale="   28.364">  1  9  2 -1</clus>
<clus scale="   89.307">  7  8 -1 -1</clus>
<clus scale="   93.478">  5  6 -1 -1</clus>
<clus scale="  184.833">  2  7  1 -1</clus>
<clus scale="   28.364">  1  5  2 -1</clus>
</clustering>
</event>
<event>
 9    1  0.3288491E-005  0.1212217E+03  0.7546771E-02  0.1242157E+00
         21   -1    0    0  501  502  0.00000000000E+00  0.00000000000E+00  0.58993108292E+02  0.58993108292E+02  0.00000000000E+00 0.  1.
          1   -1    0    0  502    0 -0.00000000000E+00 -0.00000000000E+00 -0.42591481922E+03  0.42591481922E+03  0.00000000000E+00 0. -1.
         23    2    1    2    0    0 -0.36311812937E+02 -0.59320467818E+02 -0.20566041381E+03  0.23597500265E+03  0.92469078108E+02 0.  0.
         23    2    1    2    0    0  0.71626601799E+01  0.86120529166E+02 -0.16468859536E+03  0.20918795325E+03  0.95756029052E+02 0.  0.
        -11    1    3    3    0    0 -0.66586640183E+02 -0.28421574707E+02 -0.12538553051E+03  0.14478638686E+03  0.00000000000E+00 0. -1.
         11    1    3    3    0    0  0.30274827246E+02 -0.30898893111E+02 -0.80274883307E+02  0.91188615792E+02  0.00000000000E+00 0.  1.
        -13    1    4    4    0    0 -0.28360553416E+01  0.65355819467E+02 -0.29001912206E+02  0.71557929398E+02  0.00000000000E+00 0.  1.
         13    1    4    4    0    0  0.99987155215E+01  0.20764709699E+02 -0.13568668315E+03  0.13763002385E+03  0.00000000000E+00 0. -1.
          1    1    1    2  501    0  0.29149152757E+02 -0.26800061349E+02  0.34272982442E+01  0.39744971607E+02  0.00000000000E+00 0. -1.
<scales pt_clust_5="13000.00000" pt_clust_6="13000.00000" pt_clust_7="13000.00000" pt_clust_8="13000.00000" pt_clust_9="39.59692"></scales>
<clustering>
<clus scale="   39.597">  1  9  2 -1</clus>
<clus scale="   92.469">  5  6 -1 -1</clus>
<clus scale="   95.756">  7  8 -1 -1</clus>
<clus scale="  118.642">  2  5  1 -1</clus>
<clus scale="   39.597">  1  5  2 -1</clus>
</clustering>
</event>
<event>
 9    1  0.3288491E-005  0.1062449E+03  0.7546771E-02  0.1269772E+00
          1   -1    0    0  502    0 -0.00000000000E+00  0.00000000000E+00  0.90427580542E+03  0.90427580542E+03  0.00000000000E+00 0. -1.
         21   -1    0    0  501  502  0.00000000000E+00 -0.00000000000E+00 -0.22432208849E+02  0.22432208849E+02  0.00000000000E+00 0. -1.
         23    2    1    2    0    0  0.10645325698E+01 -0.60772618803E+02  0.51524241202E+03  0.52616151256E+03  0.87617062960E+02 0.  0.
         23    2    1    2    0    0 -0.27790627495E+02  0.56117748279E+02  0.35708892160E+03  0.37179871718E+03  0.82463734546E+02 0.  0.
        -11    1    4    4    0    0 -0.48049284510E+02  0.49388461313E+01  0.17849710986E+03  0.18491712785E+03  0.00000000000E+00 0. -1.
         11    1    4    4    0    0  0.20258657015E+02  0.51178902148E+02  0.17859181174E+03  0.18688158932E+03  0.00000000000E+00 0.  1.
        -13    1    3    3    0    0 -0.11079209512E+02  0.17934614233E+02  0.51783397238E+02  0.55909923096E+02  0.00000000000E+00 0.  1.
         13    1    3    3    0    0  0.12143742082E+02 -0.78707233035E+02  0.46345901478E+03  0.47025158946E+03  0.00000000000E+00 0. -1.
          1    1    1    2  501    0  0.26726094925E+02  0.46548705232E+01  0.95122629513E+01  0.28747784541E+02  0.00000000000E+00 0. -1.
<scales pt_clust_5="13000.00000" pt_clust_6="13000.00000" pt_clust_7="13000.00000" pt_clust_8="13000.00000" pt_clust_9="27.12843"></scales>
<clustering>
<clus scale="   27.128">  2  9  1 -1</clus>
<clus scale="   82.464">  5  6 -1 -1</clus>
<clus scale="   87.617">  7  8 -1 -1</clus>
<clus scale="  102.037">  2  5  1 -1</clus>
<clus scale="   27.128">  2  5  1 -1</clus>
</clustering>
</event>
<event>
 9    1  0.3288491E-005  0.9128584E+02  0.7546771E-02  0.1299962E+00
          3   -1    0    0  502    0 -0.00000000000E+00  0.00000000000E+00  0.20512289845E+03  0.20512289845E+03  0.00000000000E+00 0. -1.
         21   -1    0    0  501  502  0.00000000000E+00 -0.00000000000E+00 -0.92663024914E+02  0.92663024914E+02  0.00000000000E+00 0.  1.
         23    2    1    2    0    0  0.77271818685E+01  0.24771628449E+02  0.94239779167E+02  0.13221030842E+03  0.89022956358E+02 0.  0.
         23    2    1    2    0    0 -0.19876037806E+02  0.11448852340E+01  0.63918229454E+02  0.11165363490E+03  0.89356737233E+02 0.  0.
        -11    1    4    4    0    0 -0.29537258534E+02  0.32504834715E+02  0.49875363186E+01  0.44202821631E+02  0.00000000000E+00 0.  1.
         11    1    4    4    0    0  0.96612207279E+01 -0.31359949481E+02  0.58930693135E+02  0.67450813270E+02  0.00000000000E+00 0. -1.
        -11    1    3    3    0    0 -0.36984830904E+01 -0.31156708341E+02  0.53706715617E+02  0.62199924069E+02  0.00000000000E+00 0.  1.
         11    1    3    3    0    0  0.11425664959E+02  0.55928336790E+02  0.40533063550E+02  0.70010384348E+02  0.00000000000E+00 0. -1.
          3    1    1    2  501    0  0.12148855938E+02 -0.25916513683E+02 -0.45698135084E+02  0.53921980048E+02  0.00000000000E+00 0. -1.
<scales pt_clust_5="13000.00000" pt_clust_6="13000.00000" pt_clust_7="13000.00000" pt_clust_8="13000.00000" pt_clust_9="28.62272"></scales>
<clustering>
<clus scale="   28.623">  2  9  1 -1</clus>
<clus scale="   89.023">  7  8 -1 -1</clus>
<clus scale="   89.357">  5  6 -1 -1</clus>
<clus scale="   90.959">  1  7  2 -1</clus>
<clus scale="   28.623">  2  5  1 -1</clus>
</clustering>
</event>
<event>
 9    1  0.3288491E-005  0.1650469E+03  0.7546771E-02  0.1184696E+00
         21   -1    0    0  501  502  0.00000000000E+00  0.00000000000E+00  0.73080841041E+02  0.73080841041E+02  0.00000000000E+00 0. -1.
          2   -1    0    0  502    0 -0.00000000000E+00 -0.00000000000E+00 -0.10443133116E+04  0.10443133116E+04  0.00000000000E+00 0. -1.
         23    2    1    2    0    0 -0.10466063330E+03 -0.11901506877E+03 -0.74969984115E+03  0.77264379880E+03  0.99046217738E+02 0.  0.
         23    2    1    2    0    0  0.11106212563E+02  0.75216463609E+02 -0.19927557475E+03  0.23908047195E+03  0.10801783658E+03 0.  0.
        -13    1    3    3    0    0 -0.29129498070E+02 -0.33394646000E+02 -0.66131543645E+02  0.79605974048E+02  0.00000000000E+00 0.  1.
         13    1    3    3    0    0 -0.75531135228E+02 -0.85620422773E+02 -0.68356829751E+03  0.69303782475E+03  0.00000000000E+00 0. -1.
        -13    1    4    4    0    0  0.55176778853E+01 -0.19388996698E+02 -0.20447810159E+01  0.20262257812E+02  0.00000000000E+00 0.  1.
         13    1    4    4    0    0  0.55885346776E+01  0.94605460307E+02 -0.19723079374E+03  0.21881821414E+03  0.00000000000E+00 0. -1.
          2    1    1    2  501    0  0.93554420734E+02  0.43798605164E+02 -0.22257054632E+02  0.10566988187E+03  0.00000000000E+00 0. -1.
<scales pt_clust_5="13000.00000" pt_clust_6="13000.00000" pt_clust_7="13000.00000" pt_clust_8="13000.00000" pt_clust_9="103.29931"></scales>
<clustering>
<clus scale="   99.046">  5  6 -1 -1</clus>
<clus scale="  103.299">  1  9  2 -1</clus>
<clus scale="  108.018">  7  8 -1 -1</clus>
<clus scale="  159.320">  2  5  1 -1</clus>
<clus scale="  103.299">  1  5  2 -1</clus>
</clustering>
</event>
<event>
 9    1  0.3288491E-005  0.1192423E+03  0.7546771E-02  0.1246662E+00
         21   -1    0    0  501  502  0.00000000000E+00  0.00000000000E+00  0.99770487403E+02  0.99770487403E+02  0.00000000000E+00 0.  1.
          1   -1    0    0  502    0 -0.00000000000E+00 -0.00000000000E+00 -0.24478068549E+03  0.24478068549E+03  0.00000000000E+00 0. -1.
         23    2    1    2    0    0  0.97219494085E+01  0.73426236187E+02 -0.17520685094E+03  0.21362826770E+03  0.97229973190E+02 0.  0.
         23    2    1    2    0    0 -0.78964271397E+01 -0.52168260167E+02  0.17851344879E+02  0.10627253592E+03  0.90505803387E+02 0.  0.
        -11    1    3    3    0    0 -0.20685073167E+02 -0.12940813916E+01 -0.10394206974E+03  0.10598821047E+03  0.00000000000E+00 0. -1.
         11    1    3    3    0    0  0.30407022575E+02  0.74720317578E+02 -0.71264781200E+02  0.10764005723E+03  0.00000000000E+00 0.  1.
        -11    1    4    4    0    0  0.30795199926E+02 -0.24153583590E+02  0.37887324107E+02  0.54471912641E+02  0.00000000000E+00 0.  1.
         11    1    4    4    0    0 -0.38691627065E+02 -0.28014676576E+02 -0.20035979228E+02  0.51800623281E+02  0.00000000000E+00 0. -1.
          1    1    1    2  501    0 -0.18255222688E+01 -0.21257976020E+02  0.12345307972E+02  0.24650369266E+02  0.00000000000E+00 0. -1.
<scales pt_clust_5="13000.00000" pt_clust_6="13000.00000" pt_clust_7="13000.00000" pt_clust_8="13000.00000" pt_clust_9="21.33622"></scales>
<clustering>
<clus scale="   21.336">  1  9  2 -1</clus>
<clus scale="   90.506">  7  8 -1 -1</clus>
<clus scale="   97.230">  5  6 -1 -1</clus>
<clus scale="  113.826">  1  7  2 -1</clus>
<clus scale="   21.336">  1  5  2 -1</clus>
</clustering>
</event>
<event>
 9    1  0.3288491E-005  0.1919944E+03  0.7546771E-02  0.1182770E+00
         21   -1    0    0  501  502  0.00000000000E+00  0.00000000000E+00  0.13247602275E+04  0.13247602275E+04  0.00000000000E+00 0.  1.
         -1   -1    0    0    0  501 -0.00000000000E+00 -0.00000000000E+00 -0.15467892760E+03  0.15467892760E+03  0.00000000000E+00 0.  1.
         23    2    1    2    0    0 -0.51635024853E+02 -0.76717332282E+01 -0.34009350483E+02  0.11099690830E+03  0.91862105620E+02 0.  0.
         23    2    1    2    0    0 -0.11798073704E+03 -0.93976846233E+01 -0.38444292504E+00  0.15196326132E+03  0.95314816297E+02 0.  0.
        -13    1    3    3    0    0 -0.72833526253E+02  0.41226087251E+01 -0.43514517334E+02  0.84942519788E+02  0.00000000000E+00 0.  1.
         13    1    3    3    0    0  0.21198501400E+02 -0.11794341953E+02  0.95051668510E+01  0.26054388509E+02  0.00000000000E+00 0. -1.
        -13    1    4    4    0    0 -0.98106620638E+02  0.32491125028E+02  0.11816972827E+02  0.10402030122E+03  0.00000000000E+00 0.  1.
         13    1    4    4    0    0 -0.19874116397E+02 -0.41888809651E+02 -0.12201415752E+02  0.47942960098E+02  0.00000000000E+00 0. -1.
         -1    1    1    2    0  502  0.16961576189E+03  0.17069417852E+02  0.12044750933E+04  0.12164789855E+04  0.00000000000E+00 0.  1.
<scales pt_clust_5="13000.00000" pt_clust_6="13000.00000" pt_clust_7="13000.00000" pt_clust_8="13000.00000" pt_clust_9="166.66413"></scales>
<clustering>
<clus scale="   91.862">  5  6 -1 -1</clus>
<clus scale="   95.315">  7  8 -1 -1</clus>
<clus scale="  105.658">  2  5  1 -1</clus>
<clus scale="  166.664">  1  9  2 -1</clus>
<clus scale="  166.664">  1  5  2 -1</clus>
</clustering>
</event>
<event>
 9    1  0.3288491E-005  0.2318975E+03  0.7546771E-02  0.1125476E+00
         21   -1    0    0  501  502  0.00000000000E+00  0.00000000000E+00  0.25235794225E+03  0.25235794225E+03  0.00000000000E+00 0.  1.
          3   -1    0    0  502    0 -0.00000000000E+00 -0.00000000000E+00 -0.27339236498E+03  0.27339236498E+03  0.00000000000E+00 0. -1.
         23    2    1    2    0    0 -0.19805452808E+03  0.10011603987E+03 -0.10739587387E+03  0.26300793769E+03  0.91599585323E+02 0.  0.
         23    2    1    2    0    0  0.17611012944E+03 -0.88503216978E+02  0.55896861690E+02  0.22344217237E+03  0.89187152332E+02 0.  0.
        -11    1    3    3    0    0 -0.17912642724E+03  0.49678638207E+02 -0.77498490631E+02  0.20139577969E+03  0.00000000000E+00 0.  1.
         11    1    3    3    0    0 -0.18928100842E+02  0.50437401666E+02 -0.29897383243E+02  0.61612157998E+02  0.00000000000E+00 0. -1.
        -13    1    4    4    0    0  0.25129449314E+02 -0.41882981436E+02  0.42701621043E+02  0.64877590865E+02  0.00000000000E+00 0.  1.
         13    1    4    4    0    0  0.15098068012E+03 -0.46620235542E+02  0.13195240648E+02  0.15856458150E+03  0.00000000000E+00 0. -1.
          3    1    1    2  501    0  0.21944398642E+02 -0.11612822896E+02  0.30464589448E+02  0.39300197170E+02  0.00000000000E+00 0. -1.
<scales pt_clust_5="13000.00000" pt_clust_6="13000.00000" pt_clust_7="13000.00000" pt_clust_8="13000.00000" pt_clust_9="24.82769"></scales>
<clustering>
<clus scale="   24.828">  1  9  2 -1</clus>
<clus scale="   89.187">  7  8 -1 -1</clus>
<clus scale="   91.600">  5  6 -1 -1</clus>
<clus scale="  230.955">  1  7  2 -1</clus>
<clus scale="   24.828">  1  5  2 -1</clus>
</clustering>
</event>
<event>
 9    1  0.3288491E-005  0.1743628E+03  0.7546771E-02  0.1186308E+00
         21   -1    0    0  501  502  0.00000000000E+00  0.00000000000E+00  0.17584437570E+03  0.17584437570E+03  0.00000000000E+00 0. -1.
          2   -1    0    0  502    0 -0.00000000000E+00 -0.00000000000E+00 -0.58392600815E+03  0.58392600815E+03  0.00000000000E+00 0. -1.
         23    2    1    2    0    0  0.93888102665E+02  0.61287964893E+01 -0.32187298744E+03  0.34726895623E+03  0.90227323735E+02 0.  0.
         23    2    1    2    0    0 -0.22342754049E+03  0.14597642434E+02 -0.12965780692E+03  0.27430634489E+03  0.91103605498E+02 0.  0.
        -13    1    3    3    0    0  0.10724093950E+03  0.21714881300E+02 -0.26016618447E+03  0.28223854931E+03  0.00000000000E+00 0.  1.
         13    1    3    3    0    0 -0.13352836836E+02 -0.15586084811E+02 -0.61706802970E+02  0.65030406919E+02  0.00000000000E+00 0. -1.
        -13    1    4    4    0    0 -0.20479801446E+03  0.39900329028E+02 -0.10112415102E+03  0.23186279758E+03  0.00000000000E+00 0. -1.
         13    1    4    4    0    0 -0.18629526039E+02 -0.25302686594E+02 -0.28533655897E+02  0.42443547309E+02  0.00000000000E+00 0.  1.
          2    1    1    2  501    0  0.12953943783E+03 -0.20726438924E+02  0.43449161904E+02  0.13819508274E+03  0.00000000000E+00 0. -1.
<scales pt_clust_5="13000.00000" pt_clust_6="13000.00000" pt_clust_7="13000.00000" pt_clust_8="13000.00000" pt_clust_9="148.66911"></scales>
<clustering>
<clus scale="   90.227">  5  6 -1 -1</clus>
<clus scale="   91.104">  7  8 -1 -1</clus>
<clus scale="  130.359">  2  5  1 -1</clus>
<clus scale="  148.669">  1  9  2 -1</clus>
<clus scale="  148.669">  1  5  2 -1</clus>
</clustering>
</event>
<event>
 9    1  0.3288491E-005  0.2190837E+03  0.7546771E-02  0.1135335E+00
         21   -1    0    0  501  502  0.00000000000E+00  0.00000000000E+00  0.11618220081E+04  0.11618220081E+04  0.00000000000E+00 0. -1.
          2   -1    0    0  502    0 -0.00000000000E+00 -0.00000000000E+00 -0.16502251814E+03  0.16502251814E+03  0.00000000000E+00 0. -1.
         23    2    1    2    0    0 -0.53792105794E+02  0.17005109848E+03 -0.15486327640E+02  0.20515860370E+03  0.10019610565E+03 0.  0.
         23    2    1    2    0    0  0.34251610019E+02 -0.26070889292E+03  0.32356897638E+03  0.42675315309E+03  0.90989403572E+02 0.  0.
        -11    1    4    4    0    0  0.65707724451E+02 -0.17714065468E+03  0.22209591912E+03  0.29158688908E+03  0.00000000000E+00 0.  1.
         11    1    4    4    0    0 -0.31456114432E+02 -0.83568238235E+02  0.10147305727E+03  0.13516626402E+03  0.00000000000E+00 0. -1.
        -13    1    3    3    0    0 -0.67070339927E+02  0.13913613924E+03 -0.44489325676E+02  0.16073766155E+03  0.00000000000E+00 0. -1.
         13    1    3    3    0    0  0.13278234133E+02  0.30914959238E+02  0.29002998036E+02  0.44420942149E+02  0.00000000000E+00 0.  1.
          2    1    1    2  501    0  0.19540495775E+02  0.90657794439E+02  0.68871684124E+03  0.69493276947E+03  0.00000000000E+00 0. -1.
<scales pt_clust_5="13000.00000" pt_clust_6="13000.00000" pt_clust_7="13000.00000" pt_clust_8="13000.00000" pt_clust_9="92.73978"></scales>
<clustering>
<clus scale="   90.989">  5  6 -1 -1</clus>
<clus scale="   92.740">  1  9  2 -1</clus>
<clus scale="  100.196">  7  8 -1 -1</clus>
<clus scale="  215.029">  1  5  2 -1</clus>
<clus scale="   92.740">  1  5  2 -1</clus>
</clustering>
</event>
<event>
 9    1  0.3288491E-005  0.9743144E+02  0.7546771E-02  0.1286516E+00
          2   -1    0    0  502    0 -0.00000000000E+00  0.00000000000E+00  0.74740331877E+02  0.74740331877E+02  0.00000000000E+00 0. -1.
         21   -1    0    0  501  502  0.00000000000E+00 -0.00000000000E+00 -0.58414063575E+03  0.58414063575E+03  0.00000000000E+00 0. -1.
         23    2    1    2    0    0 -0.16430651833E+02  0.32705634529E+02  0.32400025669E+02  0.10350870328E+03  0.91239602929E+02 0.  0.
         23    2    1    2    0    0 -0.81435771095E+00 -0.11942065634E+02 -0.34390459090E+03  0.35564435062E+03  0.89829061976E+02 0.  0.
        -11    1    3    3    0    0  0.10867636435E+02  0.47661789942E+02 -0.10993229031E+02  0.50105916085E+02  0.00000000000E+00 0.  1.
         11    1    3    3    0    0 -0.27298288269E+02 -0.14956155413E+02  0.43393254700E+02  0.53402787199E+02  0.00000000000E+00 0. -1.
        -13    1    4    4    0    0 -0.23717226268E+02 -0.43603018239E+02 -0.15549044891E+03  0.16322073926E+03  0.00000000000E+00 0.  1.
         13    1    4    4    0    0  0.22902868557E+02  0.31660952605E+02 -0.18841414199E+03  0.19242361136E+03  0.00000000000E+00 0. -1.
          2    1    1    2  501    0  0.17245009544E+02 -0.20763568895E+02 -0.19789573864E+03  0.19972791373E+03  0.00000000000E+00 0. -1.
<scales pt_clust_5="13000.00000" pt_clust_6="13000.00000" pt_clust_7="13000.00000" pt_clust_8="13000.00000" pt_clust_9="26.99104"></scales>
<clustering>
<clus scale="   26.991">  2  9  1 -1</clus>
<clus scale="   89.829">  7  8 -1 -1</clus>
<clus scale="   91.240">  5  6 -1 -1</clus>
<clus scale="   96.112">  2  7  1 -1</clus>
<clus scale="   26.991">  2  5  1 -1</clus>
</clustering>
</event>
<event>
 9    1  0.3288491E-005  0.2504252E+03  0.7546771E-02  0.1113243E+00
         -3   -1    0    0    0  501 -0.00000000000E+00  0.00000000000E+00  0.41361432777E+03  0.41361432777E+03  0.00000000000E+00 0.  1.
         21   -1    0    0  501  502  0.00000000000E+00 -0.00000000000E+00 -0.26353697626E+03  0.26353697626E+03  0.00000000000E+00 0.  1.
         23    2    1    2    0    0  0.87852797012E+02  0.21122246826E+03  0.23742384354E+03  0.34231668482E+03  0.92073808369E+02 0.  0.
         23    2    1    2    0    0 -0.13920876424E+03 -0.20618434053E+03 -0.44502005312E+02  0.26776399865E+03  0.88465067526E+02 0.  0.
        -13    1    4    4    0    0 -0.11007548540E+03 -0.10955467469E+03 -0.58329917847E+02  0.16589520351E+03  0.00000000000E+00 0. -1.
         13    1    4    4    0    0 -0.29133278841E+02 -0.96629665848E+02  0.13827912535E+02  0.10186879514E+03  0.00000000000E+00 0.  1.
        -13    1    3    3    0    0  0.92059628370E+02  0.10294276976E+03  0.13863495802E+03  0.19568301052E+03  0.00000000000E+00 0.  1.
         13    1    3    3    0    0 -0.42068313586E+01  0.10827969850E+03  0.98788885522E+02  0.14663367431E+03  0.00000000000E+00 0. -1.
         -3    1    1    2    0  502  0.51355967226E+02 -0.50381277256E+01 -0.42844486718E+02  0.67070620564E+02  0.00000000000E+00 0.  1.
<scales pt_clust_5="13000.00000" pt_clust_6="13000.00000" pt_clust_7="13000.00000" pt_clust_8="13000.00000" pt_clust_9="51.60250"></scales>
<clustering>
<clus scale="   51.603">  2  9  1 -1</clus>
<clus scale="   88.465">  5  6 -1 -1</clus>
<clus scale="   92.074">  7  8 -1 -1</clus>
<clus scale="  249.121">  2  5  1 -1</clus>
<clus scale="   51.603">  2  5  1 -1</clus>
</clustering>
</event>
<event>
 9    1  0.3288491E-005  0.1159701E+03  0.7546771E-02  0.1251250E+00
          1   -1    0    0  502    0 -0.00000000000E+00  0.00000000000E+00  0.28303575070E+03  0.28303575070E+03  0.00000000000E+00 0. -1.
         21   -1    0    0  501  502  0.00000000000E+00 -0.00000000000E+00 -0.21813165127E+03  0.21813165127E+03  0.00000000000E+00 0. -1.
         23    2    1    2    0    0 -0.18442851407E+02  0.38558177857E+02  0.14856994853E+03  0.19157911069E+03  0.11314881441E+03 0.  0.
         23    2    1    2    0    0 -0.70058986766E+02  0.38801595231E+02  0.50615118636E+02  0.13112684405E+03  0.90656128188E+02 0.  0.
        -13    1    3    3    0    0  0.47750067023E+02  0.15086775467E+02  0.52233706293E+02  0.72360484850E+02  0.00000000000E+00 0.  1.
         13    1    3    3    0    0 -0.66192918430E+02  0.23471402390E+02  0.96336242234E+02  0.11921862584E+03  0.00000000000E+00 0. -1.
        -13    1    4    4    0    0 -0.10785140661E+02 -0.22153416171E+02 -0.10122777564E+02  0.26637637521E+02  0.00000000000E+00 0.  1.
         13    1    4    4    0    0 -0.59273846105E+02  0.60955011401E+02  0.60737896200E+02  0.10448920653E+03  0.00000000000E+00 0. -1.
          1    1    1    2  501    0  0.88501838173E+02 -0.77359773088E+02 -0.13428096773E+03  0.17846144723E+03  0.00000000000E+00 0. -1.
<scales pt_clust_5="13000.00000" pt_clust_6="13000.00000" pt_clust_7="13000.00000" pt_clust_8="13000.00000" pt_clust_9="117.54620"></scales>
<clustering>
<clus scale="   90.656">  7  8 -1 -1</clus>
<clus scale="  113.149">  5  6 -1 -1</clus>
<clus scale="  117.546">  2  9  1 -1</clus>
<clus scale="  117.546">  2  7  1 -1</clus>
<clus scale="  115.970">  2  5  1 -1</clus>
</clustering>
</event>
<event>
 9    1  0.3288491E-005  0.1374092E+03  0.7546771E-02  0.1217471E+00
          1   -1    0    0  502    0 -0.00000000000E+00  0.00000000000E+00  0.42175319457E+03  0.42175319457E+03  0.00000000000E+00 0. -1.
         21   -1    0    0  501  502  0.00000000000E+00 -0.00000000000E+00 -0.71231483561E+02  0.71231483561E+02  0.00000000000E+00 0.  1.
         23    2    1    2    0    0 -0.90033814792E+02  0.37680717378E+02  0.25723724700E+03  0.28865853845E+03  0.87331702784E+02 0.  0.
         23    2    1    2    0    0  0.10464741694E+03 -0.62597230682E+02  0.86951037928E+02  0.17475415481E+03  0.90050188598E+02 0.  0.
        -11    1    3    3    0    0  0.11746753103E+02  0.24368699054E+02  0.38732400543E+02  0.47244243606E+02  0.00000000000E+00 0.  1.
         11    1    3    3    0    0 -0.10178056789E+03  0.13312018324E+02  0.21850484645E+03  0.24141429485E+03  0.00000000000E+00 0. -1.
        -13    1    4    4    0    0  0.49188563328E+02 -0.58638483500E+02  0.63014519716E+01  0.76796450480E+02  0.00000000000E+00 0.  1.
         13    1    4    4    0    0  0.55458853608E+02 -0.39587471823E+01  0.80649585956E+02  0.97957704330E+02  0.00000000000E+00 0. -1.
          1    1    1    2  501    0 -0.14613602143E+02  0.24916513304E+02  0.63334260803E+01  0.29571984863E+02  0.00000000000E+00 0. -1.
<scales pt_clust_5="13000.00000" pt_clust_6="13000.00000" pt_clust_7="13000.00000" pt_clust_8="13000.00000" pt_clust_9="28.88581"></scales>
<clustering>
<clus scale="   28.886">  2  9  1 -1</clus>
<clus scale="   87.332">  5  6 -1 -1</clus>
<clus scale="   90.050">  7  8 -1 -1</clus>
<clus scale="  135.643">  1  5  2 -1</clus>
<clus scale="   28.886">  2  5  1 -1</clus>
</clustering>
</event>
<event>
 9    1  0.3288491E-005  0.1289807E+03  0.7546771E-02  0.1229229E+00
         -3   -1    0    0    0  501 -0.00000000000E+00  0.00000000000E+00  0.22030811632E+03  0.22030811632E+03  0.00000000000E+00 0.  1.
         21   -1    0    0  501  502  0.00000000000E+00 -0.00000000000E+00 -0.17709438125E+03  0.17709438125E+03  0.00000000000E+00 0. -1.
         23    2    1    2    0    0 -0.46627386739E+02  0.92804140143E+02  0.13398593475E+03  0.19222983107E+03  0.90627565463E+02 0.  0.
         23    2    1    2    0    0  0.44593068879E+02 -0.51596180832E+02 -0.83029629405E+01  0.11295873388E+03  0.89666207112E+02 0.  0.
        -13    1    3    3    0    0 -0.16495864591E+02  0.59468431012E+02  0.13374186254E+03  0.14729390222E+03  0.00000000000E+00 0.  1.
         13    1    3    3    0    0 -0.30131522147E+02  0.33335709131E+02  0.24407220444E+00  0.44935928848E+02  0.00000000000E+00 0. -1.
        -13    1    4    4    0    0  0.71392425145E+02 -0.44909736000E+02 -0.11618297413E+02  0.85139577110E+02  0.00000000000E+00 0.  1.
         13    1    4    4    0    0 -0.26799356266E+02 -0.66864448326E+01  0.33153344729E+01  0.27819156771E+02  0.00000000000E+00 0. -1.
         -3    1    1    2    0  502  0.20343178600E+01 -0.41207959311E+02 -0.82469236741E+02  0.92213932615E+02  0.00000000000E+00 0.  1.
<scales pt_clust_5="13000.00000" pt_clust_6="13000.00000" pt_clust_7="13000.00000" pt_clust_8="13000.00000" pt_clust_9="41.25814"></scales>
<clustering>
<clus scale="   41.258">  2  9  1 -1</clus>
<clus scale="   89.666">  7  8 -1 -1</clus>
<clus scale="   90.628">  5  6 -1 -1</clus>
<clus scale="  128.307">  2  7  1 -1</clus>
<clus scale="   41.258">  2  5  1 -1</clus>
</clustering>
</event>
<event>
 9    1  0.3288491E-005  0.1403741E+03  0.7546771E-02  0.1213080E+00
          1   -1    0    0  502    0 -0.00000000000E+00  0.00000000000E+00  0.59331616485E+03  0.59331616485E+03  0.00000000000E+00 0. -1.
         21   -1    0    0  501  502  0.00000000000E+00 -0.00000000000E+00 -0.46619036248E+02  0.46619036248E+02  0.00000000000E+00 0.  1.
         23    2    1    2    0    0  0.94787526884E+02 -0.64803871998E+02  0.33383279242E+03  0.36463841554E+03  0.91283206075E+02 0.  0.
         23    2    1    2    0    0 -0.90047811821E+02  0.37588856487E+02  0.20866701769E+03  0.24735507032E+03  0.90117012787E+02 0.  0.
        -11    1    4    4    0    0 -0.59062818134E+02  0.47945855532E+01  0.18911918931E+03  0.19818544926E+03  0.00000000000E+00 0. -1.
         11    1    4    4    0    0 -0.30984993687E+02  0.32794270933E+02  0.19547828385E+02  0.49169621052E+02  0.00000000000E+00 0.  1.
        -13    1    3    3    0    0  0.66103479826E+02 -0.86893850178E+02  0.27024707678E+03  0.29146816937E+03  0.00000000000E+00 0.  1.
         13    1    3    3    0    0  0.28684047058E+02  0.22089978180E+02  0.63585715640E+02  0.73170246173E+02  0.00000000000E+00 0. -1.
          1    1    1    2  501    0 -0.47397150631E+01  0.27215015511E+02  0.41973184886E+01  0.27941715242E+02  0.00000000000E+00 0. -1.
<scales pt_clust_5="13000.00000" pt_clust_6="13000.00000" pt_clust_7="13000.00000" pt_clust_8="13000.00000" pt_clust_9="27.62466"></scales>
<clustering>
<clus scale="   27.625">  2  9  1 -1</clus>
<clus scale="   90.117">  5  6 -1 -1</clus>
<clus scale="   91.283">  7  8 -1 -1</clus>
<clus scale="  139.619">  2  5  1 -1</clus>
<clus scale="   27.625">  2  5  1 -1</clus>
</clustering>
</event>
<event>
 9    1  0.3288491E-005  0.1851851E+03  0.7546771E-02  0.1163306E+00
         21   -1    0    0  501  502  0.00000000000E+00  0.00000000000E+00  0.10342272221E+03  0.10342272221E+03  0.00000000000E+00 0. -1.
          1   -1    0    0  502    0 -0.00000000000E+00 -0.00000000000E+00 -0.95984997929E+03  0.95984997929E+03  0.00000000000E+00 0. -1.
         23    2    1    2    0    0 -0.15468079056E+03 -0.12832483182E+02 -0.45104959161E+03  0.48582305680E+03  0.92127568248E+02 0.  0.
         23    2    1    2    0    0  0.15861733042E+03  0.37069712196E+02 -0.47094842311E+03  0.50743204781E+03  0.95714392002E+02 0.  0.
        -11    1    3    3    0    0 -0.64728023467E+02  0.36567624694E+02 -0.23807050929E+03  0.24940825085E+03  0.00000000000E+00 0.  1.
         11    1    3    3    0    0 -0.89952767094E+02 -0.49400107876E+02 -0.21297908232E+03  0.23641480595E+03  0.00000000000E+00 0. -1.
        -11    1    4    4    0    0  0.52066460229E+02  0.48118445788E+02 -0.27633300723E+03  0.28528272291E+03  0.00000000000E+00 0. -1.
         11    1    4    4    0    0  0.10655087019E+03 -0.11048733591E+02 -0.19461541588E+03  0.22214932490E+03  0.00000000000E+00 0.  1.
          1    1    1    2  501    0 -0.39365398623E+01 -0.24237229014E+02  0.65570757644E+02  0.70017596891E+02  0.00000000000E+00 0. -1.
<scales pt_clust_5="13000.00000" pt_clust_6="13000.00000" pt_clust_7="13000.00000" pt_clust_8="13000.00000" pt_clust_9="24.55483"></scales>
<clustering>
<clus scale="   24.555">  1  9  2 -1</clus>
<clus scale="   92.128">  5  6 -1 -1</clus>
<clus scale="   95.714">  7  8 -1 -1</clus>
<clus scale="  183.357">  2  5  1 -1</clus>
<clus scale="   24.555">  1  5  2 -1</clus>
</clustering>
</event>
<event>
 9    1  0.3288491E-005  0.1118570E+03  0.7546771E-02  0.1260630E+00
         21   -1    0    0  501  502  0.00000000000E+00  0.00000000000E+00  0.43129597115E+03  0.43129597115E+03  0.00000000000E+00 0.  1.
         -1   -1    0    0    0  501 -0.00000000000E+00 -0.00000000000E+00 -0.39817384919E+02  0.39817384919E+02  0.00000000000E+00 0.  1.
         23    2    1    2    0    0 -0.15022235830E+02 -0.62332687521E+02  0.81724116237E+02  0.13176299170E+03  0.81065549422E+02 0.  0.
         23    2    1    2    0    0 -0.35224217708E+01  0.72077251037E+02  0.23813104390E+03  0.26472613232E+03  0.90365886778E+02 0.  0.
        -11    1    4    4    0    0  0.25739939076E+02  0.49872617020E+02  0.57318080441E+02  0.80219603200E+02  0.00000000000E+00 0.  1.
         11    1    4    4    0    0 -0.29262360847E+02  0.22204634017E+02  0.18081296345E+03  0.18450652912E+03  0.00000000000E+00 0. -1.
        -13    1    3    3    0    0 -0.21362955440E+02 -0.35410820509E+01  0.67576952491E+02  0.70961677229E+02  0.00000000000E+00 0. -1.
         13    1    3    3    0    0  0.63407196098E+01 -0.58791605470E+02  0.14147163746E+02  0.60801314467E+02  0.00000000000E+00 0.  1.
         -1    1    1    2    0  502  0.18544657601E+02 -0.97445635165E+01  0.71623426100E+02  0.74624232056E+02  0.00000000000E+00 0.  1.
<scales pt_clust_5="13000.00000" pt_clust_6="13000.00000" pt_clust_7="13000.00000" pt_clust_8="13000.00000" pt_clust_9="20.94901"></scales>
<clustering>
<clus scale="   20.949">  1  9  2 -1</clus>
<clus scale="   81.066">  7  8 -1 -1</clus>
<clus scale="   90.366">  5  6 -1 -1</clus>
<clus scale="  104.487">  2  7  1 -1</clus>
<clus scale="   20.949">  1  5  2 -1</clus>
</clustering>
</event>
<event>
 9    1  0.3288491E-005  0.1005996E+03  0.7546771E-02  0.1279835E+00
         21   -1    0    0  501  502  0.00000000000E+00  0.00000000000E+00  0.19701887475E+03  0.19701887475E+03  0.00000000000E+00 0.  1.
          1   -1    0    0  502    0 -0.00000000000E+00 -0.00000000000E+00 -0.65808533119E+02  0.65808533119E+02  0.00000000000E+00 0. -1.
         23    2    1    2    0    0 -0.22849513156E+02  0.36801684837E+02  0.40116661042E+02  0.10934066564E+03  0.92030268999E+02 0.  0.
         23    2    1    2    0    0  0.28499679220E+02 -0.12959035431E+02  0.76975683146E+02  0.12520752443E+03  0.93656286831E+02 0.  0.
        -11    1    3    3    0    0 -0.30614563814E+02  0.17234688699E+02 -0.23542475272E+02  0.42291064706E+02  0.00000000000E+00 0. -1.
         11    1    3    3    0    0  0.77650506573E+01  0.19566996138E+02  0.63659136315E+02  0.67049600938E+02  0.00000000000E+00 0.  1.
        -13    1    4    4    0    0  0.47746196275E+02  0.22400345565E+02  0.22182538359E+02  0.57214856010E+02  0.00000000000E+00 0.  1.
         13    1    4    4    0    0 -0.19246517055E+02 -0.35359380996E+02  0.54793144787E+02  0.67992668420E+02  0.00000000000E+00 0. -1.
          1    1    1    2  501    0 -0.56501660638E+01 -0.23842649406E+02  0.14117997438E+02  0.28279217792E+02  0.00000000000E+00 0. -1.
<scales pt_clust_5="13000.00000" pt_clust_6="13000.00000" pt_clust_7="13000.00000" pt_clust_8="13000.00000" pt_clust_9="24.50299"></scales>
<clustering>
<clus scale="   24.503">  1  9  2 -1</clus>
<clus scale="   92.030">  5  6 -1 -1</clus>
<clus scale="   93.656">  7  8 -1 -1</clus>
<clus scale="   99.088">  2  5  1 -1</clus>
<clus scale="   24.503">  1  5  2 -1</clus>
</clustering>
</event>
<event>
 9    1  0.3288491E-005  0.1311737E+03  0.7546771E-02  0.1225974E+00
         21   -1    0    0  501  502  0.00000000000E+00  0.00000000000E+00  0.79018829635E+03  0.79018829635E+03  0.00000000000E+00 0. -1.
          2   -1    0    0  502    0 -0.00000000000E+00 -0.00000000000E+00 -0.58294129295E+02  0.58294129295E+02  0.00000000000E+00 0. -1.
         23    2    1    2    0    0  0.59061986984E+02 -0.28851711465E+02  0.13937053706E+03  0.17867136072E+03  0.90435440952E+02 0.  0.
         23    2    1    2    0    0 -0.11684149738E+03  0.43637756085E+02  0.12347277663E+03  0.19698361016E+03  0.89447341138E+02 0.  0.
        -11    1    4    4    0    0 -0.46626797111E+02 -0.11914870202E+01  0.10014469923E+03  0.11047370109E+03  0.00000000000E+00 0.  1.
         11    1    4    4    0    0 -0.70214700271E+02  0.44829243105E+02  0.23328077404E+02  0.86509909068E+02  0.00000000000E+00 0. -1.
        -11    1    3    3    0    0  0.63887759592E+02 -0.52160537412E+02  0.12805152282E+03  0.15231401769E+03  0.00000000000E+00 0.  1.
         11    1    3    3    0    0 -0.48257726080E+01  0.23308825947E+02  0.11319014245E+02  0.26357343033E+02  0.00000000000E+00 0. -1.
          2    1    1    2  501    0  0.57779510399E+02 -0.14786044619E+02  0.46905085336E+03  0.47282745476E+03  0.00000000000E+00 0. -1.
<scales pt_clust_5="13000.00000" pt_clust_6="13000.00000" pt_clust_7="13000.00000" pt_clust_8="13000.00000" pt_clust_9="59.64142"></scales>
<clustering>
<clus scale="   59.641">  1  9  2 -1</clus>
<clus scale="   89.447">  5  6 -1 -1</clus>
<clus scale="   90.435">  7  8 -1 -1</clus>
<clus scale="  130.494">  1  5  2 -1</clus>
<clus scale="   59.641">  1  5  2 -1</clus>
</clustering>
</event>
<event>
 9    1  0.3288491E-005  0.1010684E+03  0.7546771E-02  0.1279068E+00
          1   -1    0    0  502    0 -0.00000000000E+00  0.00000000000E+00  0.29655776237E+03  0.29655776237E+03  0.00000000000E+00 0. -1.
         21   -1    0    0  501  502  0.00000000000E+00 -0.00000000000E+00 -0.13961274342E+03  0.13961274342E+03  0.00000000000E+00 0. -1.
         23    2    1    2    0    0  0.11913616802E+02  0.49822491327E+02  0.16381285175E+03  0.19375164592E+03  0.89893464671E+02 0.  0.
         23    2    1    2    0    0 -0.15242140479E+02 -0.25989531821E+02  0.96259648256E+02  0.13652095444E+03  0.92001481009E+02 0.  0.
        -11    1    3    3    0    0  0.16749807293E+02 -0.18232276289E+02  0.12427260959E+02  0.27702143563E+02  0.00000000000E+00 0.  1.
         11    1    3    3    0    0 -0.48361904909E+01  0.68054767616E+02  0.15138559079E+03  0.16604950235E+03  0.00000000000E+00 0. -1.
        -13    1    4    4    0    0 -0.34394945452E+02 -0.51056574147E+02  0.80255162140E+02  0.10114680957E+03  0.00000000000E+00 0.  1.
         13    1    4    4    0    0  0.19152804973E+02  0.25067042326E+02  0.16004486116E+02  0.35374144868E+02  0.00000000000E+00 0. -1.
          1    1    1    2  501    0  0.33285236766E+01 -0.23832959506E+02 -0.10312748105E+03  0.10589790544E+03  0.00000000000E+00 0. -1.
<scales pt_clust_5="13000.00000" pt_clust_6="13000.00000" pt_clust_7="13000.00000" pt_clust_8="13000.00000" pt_clust_9="24.06427"></scales>
<clustering>
<clus scale="   24.064">  2  9  1 -1</clus>
<clus scale="   89.893">  5  6 -1 -1</clus>
<clus scale="   92.001">  7  8 -1 -1</clus>
<clus scale="   99.153">  1  5  2 -1</clus>
<clus scale="   24.064">  2  5  1 -1</clus>
</clustering>
</event>
<event>
 9    1  0.3288491E-005  0.1011599E+03  0.7546771E-02  0.1278481E+00
         21   -1    0    0  501  502  0.00000000000E+00  0.00000000000E+00  0.50581362309E+03  0.50581362309E+03  0.00000000000E+00 0.  1.
         -3   -1    0    0    0  501 -0.00000000000E+00 -0.00000000000E+00 -0.36006441213E+02  0.36006441213E+02  0.00000000000E+00 0.  1.
         23    2    1    2    0    0 -0.28218467553E+02  0.26276962118E+02  0.82857854994E+02  0.12838484626E+03  0.90169196318E+02 0.  0.
         23    2    1    2    0    0  0.36032347323E+02 -0.58576813579E+02  0.29900318494E+03  0.31942000118E+03  0.88863149858E+02 0.  0.
        -11    1    4    4    0    0 -0.34742937983E+01 -0.22731296913E+02  0.92316028909E+01  0.24779125664E+02  0.00000000000E+00 0. -1.
         11    1    4    4    0    0  0.39506641121E+02 -0.35845516666E+02  0.28977158205E+03  0.29464087551E+03  0.00000000000E+00 0.  1.
        -13    1    3    3    0    0 -0.36294383651E+02  0.72161289730E+01 -0.56986038481E+01  0.37441005432E+02  0.00000000000E+00 0.  1.
         13    1    3    3    0    0  0.80759160978E+01  0.19060833145E+02  0.88556458842E+02  0.90943840823E+02  0.00000000000E+00 0. -1.
         -3    1    1    2    0  502 -0.78138797701E+01  0.32299851460E+02  0.87946141944E+02  0.94015216876E+02  0.00000000000E+00 0.  1.
<scales pt_clust_5="13000.00000" pt_clust_6="13000.00000" pt_clust_7="13000.00000" pt_clust_8="13000.00000" pt_clust_9="33.23157"></scales>
<clustering>
<clus scale="   33.232">  1  9  2 -1</clus>
<clus scale="   88.863">  5  6 -1 -1</clus>
<clus scale="   90.169">  7  8 -1 -1</clus>
<clus scale="   99.997">  1  5  2 -1</clus>
<clus scale="   33.232">  1  5  2 -1</clus>
</clustering>
</event>
<event>
 9    1  0.3288491E-005  0.1038623E+03  0.7546771E-02  0.1273312E+00
          2   -1    0    0  502    0 -0.00000000000E+00  0.00000000000E+00  0.22169483547E+03  0.22169483547E+03  0.00000000000E+00 0. -1.
         21   -1    0    0  501  502  0.00000000000E+00 -0.00000000000E+00 -0.28608674232E+03  0.28608674232E+03  0.00000000000E+00 0. -1.
         23    2    1    2    0    0 -0.54451694920E+02 -0.30772048158E+02  0.10926607420E+03  0.15574118684E+03  0.91675167193E+02 0.  0.
         23    2    1    2    0    0  0.31041890844E+02 -0.71380586112E+02  0.29463448525E+02  0.12347640698E+03  0.91211519118E+02 0.  0.
        -11    1    3    3    0    0 -0.20372885351E+02  0.32868631889E+02  0.34735099169E+02  0.51980078242E+02  0.00000000000E+00 0.  1.
         11    1    3    3    0    0 -0.34078809569E+02 -0.63640680047E+02  0.74530975030E+02  0.10376110860E+03  0.00000000000E+00 0. -1.
        -11    1    4    4    0    0 -0.26343471676E+02 -0.12052552551E+02  0.28920214708E+02  0.40934354053E+02  0.00000000000E+00 0. -1.
         11    1    4    4    0    0  0.57385362520E+02 -0.59328033561E+02  0.54323381704E+00  0.82542052923E+02  0.00000000000E+00 0.  1.
          2    1    1    2  501    0  0.23409804077E+02  0.10215263427E+03 -0.20312142957E+03  0.22856398397E+03  0.00000000000E+00 0. -1.
<scales pt_clust_5="13000.00000" pt_clust_6="13000.00000" pt_clust_7="13000.00000" pt_clust_8="13000.00000" pt_clust_9="104.80067"></scales>
<clustering>
<clus scale="   91.212">  7  8 -1 -1</clus>
<clus scale="   91.675">  5  6 -1 -1</clus>
<clus scale="  104.801">  2  9  1 -1</clus>
<clus scale="  104.801">  2  7  1 -1</clus>
<clus scale="  103.862">  2  5  1 -1</clus>
</clustering>
</event>
<event>
 9    1  0.3288491E-005  0.1296522E+03  0.7546771E-02  0.1233941E+00
         21   -1    0    0  501  502  0.00000000000E+00  0.00000000000E+00  0.23208676721E+03  0.23208676721E+03  0.00000000000E+00 0. -1.
          1   -1    0    0  502    0 -0.00000000000E+00 -0.00000000000E+00 -0.61614093119E+03  0.61614093119E+03  0.00000000000E+00 0. -1.
         23    2    1    2    0    0  0.67774495355E+02  0.12397661442E+02 -0.43544102516E+03  0.45033226576E+03  0.91886772487E+02 0.  0.
         23    2    1    2    0    0 -0.72325160788E+02  0.80466959634E+02  0.18133281831E+03  0.23811277346E+03  0.11004654202E+03 0.  0.
        -11    1    4    4    0    0 -0.25313856163E+02  0.40260421176E+02  0.11112073461E+01  0.47570238689E+02  0.00000000000E+00 0.  1.
         11    1    4    4    0    0 -0.47011304625E+02  0.40206538458E+02  0.18022161097E+03  0.19054253477E+03  0.00000000000E+00 0. -1.
        -13    1    3    3    0    0  0.64978984274E+02 -0.29742473477E+02 -0.24178873839E+03  0.25212829500E+03  0.00000000000E+00 0.  1.
         13    1    3    3    0    0  0.27955110805E+01  0.42140134918E+02 -0.19365228677E+03  0.19820397076E+03  0.00000000000E+00 0. -1.
          1    1    1    2  501    0  0.45506654335E+01 -0.92864621076E+02 -0.12994595712E+03  0.15978265918E+03  0.00000000000E+00 0. -1.
<scales pt_clust_5="13000.00000" pt_clust_6="13000.00000" pt_clust_7="13000.00000" pt_clust_8="13000.00000" pt_clust_9="92.97610"></scales>
<clustering>
<clus scale="   91.887">  7  8 -1 -1</clus>
<clus scale="   92.976">  1  9  2 -1</clus>
<clus scale="  110.047">  5  6 -1 -1</clus>
<clus scale="  114.641">  2  7  1 -1</clus>
<clus scale="   92.976">  1  5  2 -1</clus>
</clustering>
</event>
<event>
 9    1  0.3502342E-005  0.1447514E+03  0.7546771E-02  0.1227650E+00
         -3   -1    0    0    0  501 -0.00000000000E+00  0.00000000000E+00  0.49667099940E+03  0.49667099940E+03  0.00000000000E+00 0.  1.
         21   -1    0    0  501  502  0.00000000000E+00 -0.00000000000E+00 -0.11942912973E+03  0.11942912973E+03  0.00000000000E+00 0.  1.
         23    2    1    2    0    0  0.79246942079E+01 -0.17358913386E+02  0.84162257781E+02  0.12601577448E+03  0.91828955847E+02 0.  0.
         23    2    1    2    0    0 -0.66468008841E+01  0.13073357821E+03  0.33419049120E+03  0.36947941266E+03  0.87728578782E+02 0.  0.
        -13    1    3    3    0    0 -0.37848028797E+02 -0.27493349186E+02  0.38725003527E+02  0.60728769389E+02  0.00000000000E+00 0.  1.
         13    1    3    3    0    0  0.45772723005E+02  0.10134435800E+02  0.45437254254E+02  0.65287005096E+02  0.00000000000E+00 0. -1.
        -13    1    4    4    0    0 -0.37467036600E+02  0.11209380538E+03  0.28480234144E+03  0.30835235320E+03  0.00000000000E+00 0.  1.
         13    1    4    4    0    0  0.30820235716E+02  0.18639772826E+02  0.49388149761E+02  0.61127059453E+02  0.00000000000E+00 0. -1.
         -3    1    1    2    0  502 -0.12778933237E+01 -0.11337466482E+03 -0.41110879313E+02  0.12060494199E+03  0.00000000000E+00 0.  1.
<scales pt_clust_5="13000.00000" pt_clust_6="13000.00000" pt_clust_7="13000.00000" pt_clust_8="13000.00000" pt_clust_9="115.13763"></scales>
<clustering>
<clus scale="   87.729">  7  8 -1 -1</clus>
<clus scale="   91.829">  5  6 -1 -1</clus>
<clus scale="   93.791">  1  5  2 -1</clus>
<clus scale="  115.138">  2  9  1 -1</clus>
<clus scale="  115.138">  2  5  1 -1</clus>
</clustering>
</event>
<event>
 9    1  0.3288491E-005  0.9743791E+02  0.7546771E-02  0.1287267E+00
         21   -1    0    0  501  502  0.00000000000E+00  0.00000000000E+00  0.82710290843E+02  0.82710290843E+02  0.00000000000E+00 0. -1.
          1   -1    0    0  502    0 -0.00000000000E+00 -0.00000000000E+00 -0.32552594738E+03  0.32552594738E+03  0.00000000000E+00 0. -1.
         23    2    1    2    0    0  0.67421363209E+01 -0.36616743368E+02 -0.15834424865E+03  0.18587072076E+03  0.89937653180E+02 0.  0.
         23    2    1    2    0    0  0.81510751414E+01  0.22275298754E+02 -0.13629459669E+03  0.16657010834E+03  0.92772598018E+02 0.  0.
        -13    1    3    3    0    0 -0.25034959518E+02  0.14740228183E+02 -0.21037612584E+02  0.35869271922E+02  0.00000000000E+00 0.  1.
         13    1    3    3    0    0  0.31777095839E+02 -0.51356971551E+02 -0.13730663607E+03  0.15000144884E+03  0.00000000000E+00 0. -1.
        -13    1    4    4    0    0  0.33140013499E+02 -0.81838786097E+01 -0.11853857003E+03  0.12335570091E+03  0.00000000000E+00 0. -1.
         13    1    4    4    0    0 -0.24988938358E+02  0.30459177364E+02 -0.17756026665E+02  0.43214407422E+02  0.00000000000E+00 0.  1.
          1    1    1    2  501    0 -0.14893211462E+02  0.14341444614E+02  0.51823188806E+02  0.55795409124E+02  0.00000000000E+00 0. -1.
<scales pt_clust_5="13000.00000" pt_clust_6="13000.00000" pt_clust_7="13000.00000" pt_clust_8="13000.00000" pt_clust_9="20.67571"></scales>
<clustering>
<clus scale="   20.676">  1  9  2 -1</clus>
<clus scale="   89.938">  5  6 -1 -1</clus>
<clus scale="   92.773">  7  8 -1 -1</clus>
<clus scale="   94.743">  2  5  1 -1</clus>
<clus scale="   20.676">  1  5  2 -1</clus>
</clustering>
</event>
<event>
 9    1  0.3288491E-005  0.1378355E+03  0.7546771E-02  0.1233084E+00
          4   -1    0    0  502    0 -0.00000000000E+00  0.00000000000E+00  0.26961739975E+03  0.26961739975E+03  0.00000000000E+00 0. -1.
         21   -1    0    0  501  502  0.00000000000E+00 -0.00000000000E+00 -0.10834432703E+03  0.10834432703E+03  0.00000000000E+00 0.  1.
         23    2    1    2    0    0  0.14168167121E+02  0.32439257994E+02  0.45858621495E+02  0.10738866947E+03  0.90422733575E+02 0.  0.
         23    2    1    2    0    0  0.69645643150E+02 -0.86767210452E+02  0.77709708810E+02  0.16381197445E+03  0.91741483044E+02 0.  0.
        -11    1    3    3    0    0  0.47809272791E+02 -0.76099227113E+00  0.12150172528E+02  0.49334900086E+02  0.00000000000E+00 0.  1.
         11    1    3    3    0    0 -0.33641105670E+02  0.33200250266E+02  0.33708448967E+02  0.58053769388E+02  0.00000000000E+00 0. -1.
        -13    1    4    4    0    0  0.92174045142E+02 -0.65129841539E+02  0.63442837489E+02  0.12947179031E+03  0.00000000000E+00 0.  1.
         13    1    4    4    0    0 -0.22528401992E+02 -0.21637368913E+02  0.14266871321E+02  0.34340184145E+02  0.00000000000E+00 0. -1.
          4    1    1    2  501    0 -0.83813810272E+02  0.54327952457E+02  0.37704742417E+02  0.10676108285E+03  0.00000000000E+00 0. -1.
<scales pt_clust_5="13000.00000" pt_clust_6="13000.00000" pt_clust_7="13000.00000" pt_clust_8="13000.00000" pt_clust_9="102.86948"></scales>
<clustering>
<clus scale="   90.423">  5  6 -1 -1</clus>
<clus scale="   91.741">  7  8 -1 -1</clus>
<clus scale="   97.105">  1  5  2 -1</clus>
<clus scale="  102.869">  2  9  1 -1</clus>
<clus scale="  102.869">  2  5  1 -1</clus>
</clustering>
</event>
<event>
 9    1  0.3288491E-005  0.9288250E+02  0.7546771E-02  0.1296053E+00
         -1   -1    0    0    0  501 -0.00000000000E+00  0.00000000000E+00  0.16800210517E+03  0.16800210517E+03  0.00000000000E+00 0.  1.
         21   -1    0    0  501  502  0.00000000000E+00 -0.00000000000E+00 -0.13694427709E+03  0.13694427709E+03  0.00000000000E+00 0. -1.
         23    2    1    2    0    0  0.89994013980E+01  0.12870104309E+02  0.18416533173E+02  0.90878935313E+02  0.87596708723E+02 0.  0.
         23    2    1    2    0    0 -0.76771334355E+02 -0.11142084042E+00 -0.44272574714E+02  0.12465264138E+03  0.87660538084E+02 0.  0.
        -11    1    4    4    0    0 -0.36813058943E+02 -0.30374304289E+02 -0.55588986254E+02  0.73266193177E+02  0.00000000000E+00 0. -1.
         11    1    4    4    0    0 -0.39958275412E+02  0.30262883449E+02  0.11316411540E+02  0.51386448201E+02  0.00000000000E+00 0.  1.
        -13    1    3    3    0    0  0.42989257986E+02  0.23894891821E+02 -0.29025414367E+01  0.49269330259E+02  0.00000000000E+00 0.  1.
         13    1    3    3    0    0 -0.33989856588E+02 -0.11024787513E+02  0.21319074609E+02  0.41609605054E+02  0.00000000000E+00 0. -1.
         -1    1    1    2    0  502  0.67771932957E+02 -0.12758683468E+02  0.56913869614E+02  0.89414805570E+02  0.00000000000E+00 0.  1.
<scales pt_clust_5="13000.00000" pt_clust_6="13000.00000" pt_clust_7="13000.00000" pt_clust_8="13000.00000" pt_clust_9="68.96248"></scales>
<clustering>
<clus scale="   68.962">  2  9  1 -1</clus>
<clus scale="   87.597">  7  8 -1 -1</clus>
<clus scale="   87.661">  5  6 -1 -1</clus>
<clus scale="   92.822">  1  7  2 -1</clus>
<clus scale="   68.962">  2  5  1 -1</clus>
</clustering>
</event>
<event>
 9    1  0.3288491E-005  0.1057832E+03  0.7546771E-02  0.1271040E+00
         21   -1    0    0  501  502  0.00000000000E+00  0.00000000000E+00  0.21088572080E+03  0.21088572080E+03  0.00000000000E+00 0. -1.
         -1   -1    0    0    0  501 -0.00000000000E+00 -0.00000000000E+00 -0.84108392517E+02  0.84108392517E+02  0.00000000000E+00 0.  1.
         23    2    1    2    0    0 -0.54430631677E+02  0.27121290509E+02 -0.99193678014E+01  0.10527001859E+03  0.85352943077E+02 0.  0.
         23    2    1    2    0    0  0.40075485341E+02 -0.25429289928E+01  0.85891138394E+02  0.13148861780E+03  0.91101360820E+02 0.  0.
        -13    1    3    3    0    0 -0.27336652637E+02 -0.17668375890E+02  0.26105515291E+02  0.41724836879E+02  0.00000000000E+00 0. -1.
         13    1    3    3    0    0 -0.27093979040E+02  0.44789666399E+02 -0.36024883092E+02  0.63545181707E+02  0.00000000000E+00 0.  1.
        -13    1    4    4    0    0  0.46213476073E+02 -0.37824995315E+02  0.70809567542E+02  0.92630505217E+02  0.00000000000E+00 0. -1.
         13    1    4    4    0    0 -0.61379907316E+01  0.35282066322E+02  0.15081570852E+02  0.38858112583E+02  0.00000000000E+00 0.  1.
         -1    1    1    2    0  502  0.14355146336E+02 -0.24578361516E+02  0.50805557692E+02  0.58235476933E+02  0.00000000000E+00 0.  1.
<scales pt_clust_5="13000.00000" pt_clust_6="13000.00000" pt_clust_7="13000.00000" pt_clust_8="13000.00000" pt_clust_9="28.46342"></scales>
<clustering>
<clus scale="   28.463">  1  9  2 -1</clus>
<clus scale="   85.353">  5  6 -1 -1</clus>
<clus scale="   91.101">  7  8 -1 -1</clus>
<clus scale="  100.875">  2  5  1 -1</clus>
<clus scale="   28.463">  1  5  2 -1</clus>
</clustering>
</event>
<event>
 9    1  0.3288491E-005  0.1243263E+03  0.7546771E-02  0.1247993E+00
          3   -1    0    0  502    0 -0.00000000000E+00  0.00000000000E+00  0.56059695093E+02  0.56059695093E+02  0.00000000000E+00 0. -1.
         21   -1    0    0  501  502  0.00000000000E+00 -0.00000000000E+00 -0.39741928555E+03  0.39741928555E+03  0.00000000000E+00 0.  1.
         23    2    1    2    0    0 -0.51967103087E+02 -0.42428865160E-02 -0.57916011094E+02  0.13680732648E+03  0.11252288842E+03 0.  0.
         23    2    1    2    0    0  0.51342068259E+02 -0.30401023709E+02 -0.16001969372E+03  0.18955624812E+03  0.82249854755E+02 0.  0.
        -11    1    4    4    0    0  0.48360145483E+02  0.16618529301E+02 -0.10723614435E+03  0.11880433428E+03  0.00000000000E+00 0.  1.
         11    1    4    4    0    0  0.29819227753E+01 -0.47019553010E+02 -0.52783549371E+02  0.70751913846E+02  0.00000000000E+00 0. -1.
        -13    1    3    3    0    0 -0.13774290444E+02 -0.23013486128E+02  0.28765930097E+02  0.39329764242E+02  0.00000000000E+00 0. -1.
         13    1    3    3    0    0 -0.38192812643E+02  0.23009243242E+02 -0.86681941190E+02  0.97477562242E+02  0.00000000000E+00 0.  1.
          3    1    1    2  501    0  0.62503482802E+00  0.30405266596E+02 -0.12342388564E+03  0.12711540603E+03  0.00000000000E+00 0. -1.
<scales pt_clust_5="13000.00000" pt_clust_6="13000.00000" pt_clust_7="13000.00000" pt_clust_8="13000.00000" pt_clust_9="30.41169"></scales>
<clustering>
<clus scale="   30.412">  2  9  1 -1</clus>
<clus scale="   82.250">  5  6 -1 -1</clus>
<clus scale="   97.779">  2  5  1 -1</clus>
<clus scale="  112.523">  7  8 -1 -1</clus>
<clus scale="   30.412">  2  5  1 -1</clus>
</clustering>
</event>
<event>
 9    1  0.3288491E-005  0.1637957E+03  0.7546771E-02  0.1184677E+00
          1   -1    0    0  502    0 -0.00000000000E+00  0.00000000000E+00  0.38891277878E+03  0.38891277878E+03  0.00000000000E+00 0. -1.
         21   -1    0    0  501  502  0.00000000000E+00 -0.00000000000E+00 -0.22300685842E+03  0.22300685842E+03  0.00000000000E+00 0. -1.
         23    2    1    2    0    0  0.13935920540E+03  0.34299311748E+02  0.29780054478E+03  0.34203854613E+03  0.87793915800E+02 0.  0.
         23    2    1    2    0    0 -0.11388917229E+03 -0.20519238384E+02 -0.12031748214E+02  0.14656960703E+03  0.89140922303E+02 0.  0.
        -11    1    3    3    0    0  0.31356441867E+02  0.50082954058E+02  0.10373183939E+03  0.11938100032E+03  0.00000000000E+00 0.  1.
         11    1    3    3    0    0  0.10800276353E+03 -0.15783642310E+02  0.19406870539E+03  0.22265754581E+03  0.00000000000E+00 0. -1.
        -11    1    4    4    0    0 -0.92104642532E+02 -0.27917697605E+02  0.28143514146E+02  0.10027322875E+03  0.00000000000E+00 0.  1.
         11    1    4    4    0    0 -0.21784529762E+02  0.73984592212E+01 -0.40175262360E+02  0.46296378276E+02  0.00000000000E+00 0. -1.
          1    1    1    2  501    0 -0.25470033107E+02 -0.13780073364E+02 -0.11986287619E+03  0.12331148405E+03  0.00000000000E+00 0. -1.
<scales pt_clust_5="13000.00000" pt_clust_6="13000.00000" pt_clust_7="13000.00000" pt_clust_8="13000.00000" pt_clust_9="28.95882"></scales>
<clustering>
<clus scale="   28.959">  2  9  1 -1</clus>
<clus scale="   87.794">  5  6 -1 -1</clus>
<clus scale="   89.141">  7  8 -1 -1</clus>
<clus scale="  163.067">  1  5  2 -1</clus>
<clus scale="   28.959">  2  5  1 -1</clus>
</clustering>
</event>
<event>
 9    1  0.3288491E-005  0.1068621E+03  0.7546771E-02  0.1266523E+00
          2   -1    0    0  502    0 -0.00000000000E+00  0.00000000000E+00  0.13280908996E+03  0.13280908996E+03  0.00000000000E+00 0. -1.
         21   -1    0    0  501  502  0.00000000000E+00 -0.00000000000E+00 -0.14557909837E+03  0.14557909837E+03  0.00000000000E+00 0. -1.
         23    2    1    2    0    0 -0.22127856073E+02 -0.46878856519E+02  0.31941293868E+02  0.10799952430E+03  0.89198552635E+02 0.  0.
         23    2    1    2    0    0 -0.39884543308E+01  0.75009628994E+02 -0.72970427235E+01  0.11678615619E+03  0.89125794446E+02 0.  0.
        -11    1    4    4    0    0  0.94143596165E+01  0.22798274558E+02  0.38721663398E+02  0.45910333326E+02  0.00000000000E+00 0. -1.
         11    1    4    4    0    0 -0.13402813947E+02  0.52211354436E+02 -0.46018706121E+02  0.70875822865E+02  0.00000000000E+00 0.  1.
        -11    1    3    3    0    0 -0.39938223554E+02 -0.62215582214E+02  0.38828614020E+02  0.83507494499E+02  0.00000000000E+00 0. -1.
         11    1    3    3    0    0  0.17810367481E+02  0.15336725695E+02 -0.68873201526E+01  0.24492029800E+02  0.00000000000E+00 0.  1.
          2    1    1    2  501    0  0.26116310404E+02 -0.28130772475E+02 -0.37414259555E+02  0.53602507844E+02  0.00000000000E+00 0. -1.
<scales pt_clust_5="13000.00000" pt_clust_6="13000.00000" pt_clust_7="13000.00000" pt_clust_8="13000.00000" pt_clust_9="38.38492"></scales>
<clustering>
<clus scale="   38.385">  2  9  1 -1</clus>
<clus scale="   89.126">  5  6 -1 -1</clus>
<clus scale="   89.199">  7  8 -1 -1</clus>
<clus scale="  106.801">  2  5  1 -1</clus>
<clus scale="   38.385">  2  5  1 -1</clus>
</clustering>
</event>
<event>
 9    1  0.3288491E-005  0.1255703E+03  0.7546771E-02  0.1234347E+00
         -2   -1    0    0    0  501 -0.00000000000E+00  0.00000000000E+00  0.14382811387E+03  0.14382811387E+03  0.00000000000E+00 0.  1.
         21   -1    0    0  501  502  0.00000000000E+00 -0.00000000000E+00 -0.14258601587E+03  0.14258601587E+03  0.00000000000E+00 0.  1.
         23    2    1    2    0    0  0.74591324149E+02  0.51108084168E+02  0.25224223905E+02  0.13117152982E+03  0.91617721315E+02 0.  0.
         23    2    1    2    0    0 -0.47647578582E+02 -0.65356078148E+02 -0.22728177131E+02  0.12473779464E+03  0.92202162014E+02 0.  0.
        -11    1    3    3    0    0  0.82367480193E+02  0.84311794021E+01  0.28753952215E+02  0.87648595810E+02  0.00000000000E+00 0.  1.
         11    1    3    3    0    0 -0.77761560436E+01  0.42676904766E+02 -0.35297283098E+01  0.43522934014E+02  0.00000000000E+00 0. -1.
        -13    1    4    4    0    0 -0.74790785393E+02 -0.38505324536E+02 -0.19966542732E+02  0.86457992262E+02  0.00000000000E+00 0.  1.
         13    1    4    4    0    0  0.27143206810E+02 -0.26850753611E+02 -0.27616343992E+01  0.38279802377E+02  0.00000000000E+00 0. -1.
         -2    1    1    2    0  502 -0.26943745567E+02  0.14247993980E+02 -0.12539487776E+01  0.30504805280E+02  0.00000000000E+00 0.  1.
<scales pt_clust_5="13000.00000" pt_clust_6="13000.00000" pt_clust_7="13000.00000" pt_clust_8="13000.00000" pt_clust_9="30.47902"></scales>
<clustering>
<clus scale="   30.479">  2  9  1 -1</clus>
<clus scale="   91.618">  5  6 -1 -1</clus>
<clus scale="   92.202">  7  8 -1 -1</clus>
<clus scale="  125.142">  1  5  2 -1</clus>
<clus scale="   30.479">  2  5  1 -1</clus>
</clustering>
</event>
<event>
 9    1  0.3288491E-005  0.2152856E+03  0.7546771E-02  0.1137647E+00
          1   -1    0    0  502    0 -0.00000000000E+00  0.00000000000E+00  0.22743660652E+03  0.22743660652E+03  0.00000000000E+00 0. -1.
         21   -1    0    0  501  502  0.00000000000E+00 -0.00000000000E+00 -0.38930645329E+03  0.38930645329E+03  0.00000000000E+00 0.  1.
         23    2    1    2    0    0 -0.14390910513E+03  0.14130668766E+03  0.11270672213E+03  0.24782874889E+03  0.89659762704E+02 0.  0.
         23    2    1    2    0    0  0.94858216642E+02 -0.13837299569E+03 -0.24731184652E+03  0.31271857000E+03  0.92111820065E+02 0.  0.
        -11    1    3    3    0    0 -0.52871932130E+02  0.89652285284E+02  0.96456279161E+02  0.14190414812E+03  0.00000000000E+00 0.  1.
         11    1    3    3    0    0 -0.91037172997E+02  0.51654402376E+02  0.16250442967E+02  0.10592460077E+03  0.00000000000E+00 0. -1.
        -13    1    4    4    0    0  0.55783453530E+02 -0.98550398270E+02 -0.86488994856E+02  0.14249323113E+03  0.00000000000E+00 0. -1.
         13    1    4    4    0    0  0.39074763111E+02 -0.39822597422E+02 -0.16082285166E+03  0.17022533887E+03  0.00000000000E+00 0.  1.
          1    1    1    2  501    0  0.49050888485E+02 -0.29336919680E+01 -0.27264722382E+02  0.56195740909E+02  0.00000000000E+00 0. -1.
<scales pt_clust_5="13000.00000" pt_clust_6="13000.00000" pt_clust_7="13000.00000" pt_clust_8="13000.00000" pt_clust_9="49.13854"></scales>
<clustering>
<clus scale="   49.139">  2  9  1 -1</clus>
<clus scale="   89.660">  5  6 -1 -1</clus>
<clus scale="   92.112">  7  8 -1 -1</clus>
<clus scale="  214.248">  1  5  2 -1</clus>
<clus scale="   49.139">  2  5  1 -1</clus>
</clustering>
</event>
<event>
 9    1  0.3288491E-005  0.1076502E+03  0.7546771E-02  0.1265486E+00
         21   -1    0    0  501  502  0.00000000000E+00  0.00000000000E+00  0.32112223122E+03  0.32112223122E+03  0.00000000000E+00 0. -1.
         -3   -1    0    0    0  501 -0.00000000000E+00 -0.00000000000E+00 -0.25051691751E+03  0.25051691751E+03  0.00000000000E+00 0.  1.
         23    2    1    2    0    0 -0.39393796589E+02  0.35674862529E+02 -0.22528712154E+03  0.24939317866E+03  0.92833740666E+02 0.  0.
         23    2    1    2    0    0  0.16581041858E+02 -0.38376116135E+02  0.21859314034E+03  0.24160541240E+03  0.94034871491E+02 0.  0.
        -11    1    3    3    0    0 -0.58836312441E+02  0.17557642049E+02 -0.75731844598E+02  0.97495101119E+02  0.00000000000E+00 0. -1.
         11    1    3    3    0    0  0.19442515853E+02  0.18117220480E+02 -0.14955527694E+03  0.15189807754E+03  0.00000000000E+00 0.  1.
        -13    1    4    4    0    0  0.37824696496E+02 -0.33514058160E+00  0.30671063872E+02  0.48698399802E+02  0.00000000000E+00 0.  1.
         13    1    4    4    0    0 -0.21243654638E+02 -0.38040975553E+02  0.18792207647E+03  0.19290701260E+03  0.00000000000E+00 0. -1.
         -3    1    1    2    0  502  0.22812754731E+02  0.27012536061E+01  0.77299294905E+02  0.80640557676E+02  0.00000000000E+00 0.  1.
<scales pt_clust_5="13000.00000" pt_clust_6="13000.00000" pt_clust_7="13000.00000" pt_clust_8="13000.00000" pt_clust_9="22.97213"></scales>
<clustering>
<clus scale="   22.972">  1  9  2 -1</clus>
<clus scale="   92.834">  5  6 -1 -1</clus>
<clus scale="   94.035">  7  8 -1 -1</clus>
<clus scale="  106.603">  2  5  1 -1</clus>
<clus scale="   22.972">  1  5  2 -1</clus>
</clustering>
</event>
<event>
 9    1  0.3288491E-005  0.1019180E+03  0.7546771E-02  0.1277403E+00
         21   -1    0    0  501  502  0.00000000000E+00  0.00000000000E+00  0.14336215088E+03  0.14336215088E+03  0.00000000000E+00 0.  1.
         -1   -1    0    0    0  501 -0.00000000000E+00 -0.00000000000E+00 -0.19169053725E+03  0.19169053725E+03  0.00000000000E+00 0.  1.
         23    2    1    2    0    0 -0.43961738420E+02 -0.16241021673E+02 -0.10054534356E+03  0.14241419108E+03  0.89308624883E+02 0.  0.
         23    2    1    2    0    0  0.42772120188E+01  0.66249241012E+02  0.50824784175E+01  0.11328269874E+03  0.91650868893E+02 0.  0.
        -11    1    3    3    0    0 -0.68434173827E+02 -0.39603381602E+01 -0.89862739472E+02  0.11302314971E+03  0.00000000000E+00 0.  1.
         11    1    3    3    0    0  0.24472435407E+02 -0.12280683513E+02 -0.10682604088E+02  0.29391041363E+02  0.00000000000E+00 0. -1.
        -11    1    4    4    0    0 -0.21678910845E+02  0.73803299050E+02 -0.16523751091E+02  0.78676149348E+02  0.00000000000E+00 0. -1.
         11    1    4    4    0    0  0.25956122864E+02 -0.75540580386E+01  0.21606229509E+02  0.34606549388E+02  0.00000000000E+00 0.  1.
         -1    1    1    2    0  502  0.39684526402E+02 -0.50008219339E+02  0.47134478773E+02  0.79355798316E+02  0.00000000000E+00 0.  1.
<scales pt_clust_5="13000.00000" pt_clust_6="13000.00000" pt_clust_7="13000.00000" pt_clust_8="13000.00000" pt_clust_9="63.84108"></scales>
<clustering>
<clus scale="   63.841">  1  9  2 -1</clus>
<clus scale="   89.309">  5  6 -1 -1</clus>
<clus scale="   91.651">  7  8 -1 -1</clus>
<clus scale="   99.817">  2  5  1 -1</clus>
<clus scale="   63.841">  1  5  2 -1</clus>
</clustering>
</event>
<event>
 9    1  0.3288491E-005  0.1073288E+03  0.7546771E-02  0.1270531E+00
         21   -1    0    0  501  502  0.00000000000E+00  0.00000000000E+00  0.68028947504E+03  0.68028947504E+03  0.00000000000E+00 0.  1.
          3   -1    0    0  502    0 -0.00000000000E+00 -0.00000000000E+00 -0.42281707991E+02  0.42281707991E+02  0.00000000000E+00 0. -1.
         23    2    1    2    0    0 -0.24822559550E+02  0.61927579460E+02  0.96382337634E+02  0.14790856953E+03  0.90200916692E+02 0.  0.
         23    2    1    2    0    0  0.71519145149E+02 -0.21972402644E+01  0.22014106786E+03  0.24435899673E+03  0.78290571188E+02 0.  0.
        -11    1    4    4    0    0 -0.10141377289E+02 -0.19738559090E+02  0.38564805164E+02  0.44493847278E+02  0.00000000000E+00 0. -1.
         11    1    4    4    0    0  0.81660522438E+02  0.17541318825E+02  0.18157626269E+03  0.19986514945E+03  0.00000000000E+00 0.  1.
        -13    1    3    3    0    0  0.26293073930E+02 -0.59753977990E+01  0.27440418506E+02  0.38470867983E+02  0.00000000000E+00 0. -1.
         13    1    3    3    0    0 -0.51115633481E+02  0.67902977259E+02  0.68941919128E+02  0.10943770155E+03  0.00000000000E+00 0.  1.
          3    1    1    2  501    0 -0.46696585599E+02 -0.59730339195E+02  0.32148436155E+03  0.33030361677E+03  0.00000000000E+00 0. -1.
<scales pt_clust_5="13000.00000" pt_clust_6="13000.00000" pt_clust_7="13000.00000" pt_clust_8="13000.00000" pt_clust_9="75.81744"></scales>
<clustering>
<clus scale="   75.817">  1  9  2 -1</clus>
<clus scale="   78.291">  5  6 -1 -1</clus>
<clus scale="   90.201">  7  8 -1 -1</clus>
<clus scale="   97.533">  1  5  2 -1</clus>
<clus scale="   75.817">  1  5  2 -1</clus>
</clustering>
</event>
<event>
 9    1  0.3288491E-005  0.1013928E+03  0.7546771E-02  0.1277644E+00
         21   -1    0    0  501  502  0.00000000000E+00  0.00000000000E+00  0.19276058045E+03  0.19276058045E+03  0.00000000000E+00 0.  1.
          1   -1    0    0  502    0 -0.00000000000E+00 -0.00000000000E+00 -0.13730866578E+03  0.13730866578E+03  0.00000000000E+00 0. -1.
         23    2    1    2    0    0  0.17204449319E+02 -0.37917649796E+02 -0.65385265308E+02  0.11899569379E+03  0.90282894164E+02 0.  0.
         23    2    1    2    0    0 -0.35755648836E+02  0.45758774729E+02  0.20630479917E+02  0.10886292197E+03  0.89739551980E+02 0.  0.
        -11    1    4    4    0    0 -0.47692909970E+02 -0.59529999288E+01  0.27458796368E+02  0.55353747547E+02  0.00000000000E+00 0.  1.
         11    1    4    4    0    0  0.11937261134E+02  0.51711774658E+02 -0.68283164502E+01  0.53509174421E+02  0.00000000000E+00 0. -1.
        -11    1    3    3    0    0 -0.27394566729E+02 -0.40608632291E+02 -0.14092621304E+02  0.50971808659E+02  0.00000000000E+00 0.  1.
         11    1    3    3    0    0  0.44599016048E+02  0.26909824951E+01 -0.51292644004E+02  0.68023885130E+02  0.00000000000E+00 0. -1.
          1    1    1    2  501    0  0.18551199516E+02 -0.78411249339E+01  0.10020670006E+03  0.10221063047E+03  0.00000000000E+00 0. -1.
<scales pt_clust_5="13000.00000" pt_clust_6="13000.00000" pt_clust_7="13000.00000" pt_clust_8="13000.00000" pt_clust_9="20.14026"></scales>
<clustering>
<clus scale="   20.140">  1  9  2 -1</clus>
<clus scale="   89.740">  5  6 -1 -1</clus>
<clus scale="   90.283">  7  8 -1 -1</clus>
<clus scale="  100.909">  1  5  2 -1</clus>
<clus scale="   20.140">  1  5  2 -1</clus>
</clustering>
</event>
<event>
 9    1  0.3288491E-005  0.1154498E+03  0.7546771E-02  0.1252519E+00
         21   -1    0    0  501  502  0.00000000000E+00  0.00000000000E+00  0.10126278966E+03  0.10126278966E+03  0.00000000000E+00 0. -1.
          1   -1    0    0  502    0 -0.00000000000E+00 -0.00000000000E+00 -0.43012682988E+03  0.43012682988E+03  0.00000000000E+00 0. -1.
         23    2    1    2    0    0 -0.27755681436E+02  0.86185986001E+02 -0.25528921214E+03  0.28629519154E+03  0.92703575052E+02 0.  0.
         23    2    1    2    0    0  0.41422505473E+02 -0.29789595007E+02 -0.12945379223E+03  0.16453517259E+03  0.87808284158E+02 0.  0.
        -11    1    3    3    0    0 -0.50797746246E+02  0.13098502581E+02 -0.11617021985E+03  0.12746568862E+03  0.00000000000E+00 0.  1.
         11    1    3    3    0    0  0.23042064810E+02  0.73087483420E+02 -0.13911899229E+03  0.15882950292E+03  0.00000000000E+00 0. -1.
        -13    1    4    4    0    0  0.51769084022E+02 -0.11203320568E+02 -0.13282591880E+03  0.14299747256E+03  0.00000000000E+00 0.  1.
         13    1    4    4    0    0 -0.10346578549E+02 -0.18586274438E+02  0.33721265714E+01  0.21537700035E+02  0.00000000000E+00 0. -1.
          1    1    1    2  501    0 -0.13666824038E+02 -0.56396390994E+02  0.55878964149E+02  0.80559255402E+02  0.00000000000E+00 0. -1.
<scales pt_clust_5="13000.00000" pt_clust_6="13000.00000" pt_clust_7="13000.00000" pt_clust_8="13000.00000" pt_clust_9="58.02874"></scales>
<clustering>
<clus scale="   58.029">  1  9  2 -1</clus>
<clus scale="   87.808">  7  8 -1 -1</clus>
<clus scale="   92.704">  5  6 -1 -1</clus>
<clus scale="  111.557">  1  7  2 -1</clus>
<clus scale="   58.029">  1  5  2 -1</clus>
</clustering>
</event>
<event>
 9    1  0.3288491E-005  0.1215535E+03  0.7546771E-02  0.1241164E+00
         21   -1    0    0  501  502  0.00000000000E+00  0.00000000000E+00  0.74217493616E+02  0.74217493616E+02  0.00000000000E+00 0. -1.
          1   -1    0    0  502    0 -0.00000000000E+00 -0.00000000000E+00 -0.65149046759E+03  0.65149046759E+03  0.00000000000E+00 0. -1.
         23    2    1    2    0    0  0.37783133520E+02 -0.10139406277E+03 -0.47811597261E+03  0.49836325520E+03  0.89792704219E+02 0.  0.
         23    2    1    2    0    0  0.14612228643E+02  0.28821701626E+02 -0.97609807108E+02  0.13782143871E+03  0.91776177808E+02 0.  0.
        -11    1    3    3    0    0  0.48749587494E+02 -0.23231236064E+02 -0.27892854023E+03  0.28410797800E+03  0.00000000000E+00 0.  1.
         11    1    3    3    0    0 -0.10966453974E+02 -0.78162826702E+02 -0.19918743237E+03  0.21425527720E+03  0.00000000000E+00 0. -1.
        -11    1    4    4    0    0 -0.17334205599E+02  0.16906762875E+02  0.90458079358E+01  0.25848403352E+02  0.00000000000E+00 0.  1.
         11    1    4    4    0    0  0.31946434241E+02  0.11914938751E+02 -0.10665561504E+03  0.11197303535E+03  0.00000000000E+00 0. -1.
          1    1    1    2  501    0 -0.52395362163E+02  0.72572361141E+02 -0.15471942614E+01  0.89523267298E+02  0.00000000000E+00 0. -1.
<scales pt_clust_5="13000.00000" pt_clust_6="13000.00000" pt_clust_7="13000.00000" pt_clust_8="13000.00000" pt_clust_9="89.50990"></scales>
<clustering>
<clus scale="   89.510">  1  9  2 -1</clus>
<clus scale="   89.793">  5  6 -1 -1</clus>
<clus scale="   91.776">  7  8 -1 -1</clus>
<clus scale="  120.063">  2  5  1 -1</clus>
<clus scale="   89.510">  1  5  2 -1</clus>
</clustering>
</event>
<event>
 9    1  0.3288491E-005  0.1003627E+03  0.7546771E-02  0.1281420E+00
         21   -1    0    0  501  502  0.00000000000E+00  0.00000000000E+00  0.13681523213E+03  0.13681523213E+03  0.00000000000E+00 0.  1.
          2   -1    0    0  502    0 -0.00000000000E+00 -0.00000000000E+00 -0.10396590291E+03  0.10396590291E+03  0.00000000000E+00 0. -1.
         23    2    1    2    0    0 -0.15140112922E+02  0.16721326905E+02 -0.22574780631E+02  0.97480439330E+02  0.92108574730E+02 0.  0.
         23    2    1    2    0    0  0.33755675162E+02 -0.27555152602E+02  0.28943165772E+02  0.10916638254E+03  0.95816805367E+02 0.  0.
        -11    1    3    3    0    0  0.22564656708E+01  0.53303043744E+02 -0.19697239272E+02  0.56870795182E+02  0.00000000000E+00 0.  1.
         11    1    3    3    0    0 -0.17396578592E+02 -0.36581716839E+02 -0.28775413588E+01  0.40609644149E+02  0.00000000000E+00 0. -1.
        -13    1    4    4    0    0  0.31448970039E+02  0.10065429223E+02  0.54432729626E+02  0.63665317375E+02  0.00000000000E+00 0.  1.
         13    1    4    4    0    0  0.23067051227E+01 -0.37620581825E+02 -0.25489563854E+02  0.45501065162E+02  0.00000000000E+00 0. -1.
          2    1    1    2  501    0 -0.18615562240E+02  0.10833825698E+02  0.26480944075E+02  0.34134313174E+02  0.00000000000E+00 0. -1.
<scales pt_clust_5="13000.00000" pt_clust_6="13000.00000" pt_clust_7="13000.00000" pt_clust_8="13000.00000" pt_clust_9="21.53859"></scales>
<clustering>
<clus scale="   21.539">  1  9  2 -1</clus>
<clus scale="   92.109">  5  6 -1 -1</clus>
<clus scale="   95.817">  7  8 -1 -1</clus>
<clus scale="   96.829">  2  5  1 -1</clus>
<clus scale="   21.539">  1  5  2 -1</clus>
</clustering>
</event>
<event>
 9    1  0.3288491E-005  0.1012927E+03  0.7546771E-02  0.1281927E+00
         21   -1    0    0  501  502  0.00000000000E+00  0.00000000000E+00  0.16900324809E+03  0.16900324809E+03  0.00000000000E+00 0.  1.
          1   -1    0    0  502    0 -0.00000000000E+00 -0.00000000000E+00 -0.10711559381E+03  0.10711559381E+03  0.00000000000E+00 0. -1.
         23    2    1    2    0    0  0.13309265476E+02 -0.29252951933E+02 -0.49534218400E+02  0.10697729227E+03  0.89205552100E+02 0.  0.
         23    2    1    2    0    0 -0.72964751593E+00  0.12700604813E+02  0.63996314767E+02  0.11735921165E+03  0.97549056925E+02 0.  0.
        -11    1    3    3    0    0 -0.22107187850E+02  0.18912254980E+02  0.37940060036E+00  0.29095447889E+02  0.00000000000E+00 0.  1.
         11    1    3    3    0    0  0.35416453326E+02 -0.48165206913E+02 -0.49913619000E+02  0.77881844385E+02  0.00000000000E+00 0. -1.
        -11    1    4    4    0    0 -0.12038678847E+02  0.33147723767E+02 -0.12467352077E+02  0.37405029704E+02  0.00000000000E+00 0. -1.
         11    1    4    4    0    0  0.11309031331E+02 -0.20447118954E+02  0.76463666845E+02  0.79954181945E+02  0.00000000000E+00 0.  1.
          1    1    1    2  501    0 -0.12579617960E+02  0.16552347120E+02  0.47425557914E+02  0.51782337980E+02  0.00000000000E+00 0. -1.
<scales pt_clust_5="13000.00000" pt_clust_6="13000.00000" pt_clust_7="13000.00000" pt_clust_8="13000.00000" pt_clust_9="20.79007"></scales>
<clustering>
<clus scale="   20.790">  1  9  2 -1</clus>
<clus scale="   89.206">  5  6 -1 -1</clus>
<clus scale="   93.285">  2  5  1 -1</clus>
<clus scale="   97.549">  7  8 -1 -1</clus>
<clus scale="   20.790">  1  5  2 -1</clus>
</clustering>
</event>
<event>
 9    1  0.3288491E-005  0.9539184E+02  0.7546771E-02  0.1290349E+00
         21   -1    0    0  501  502  0.00000000000E+00  0.00000000000E+00  0.14048992124E+03  0.14048992124E+03  0.00000000000E+00 0. -1.
          1   -1    0    0  502    0 -0.00000000000E+00 -0.00000000000E+00 -0.32730210044E+03  0.32730210044E+03  0.00000000000E+00 0. -1.
         23    2    1    2    0    0  0.98618420559E+01  0.20092708096E+02 -0.26677311494E+03  0.28314565751E+03  0.92209520479E+02 0.  0.
         23    2    1    2    0    0 -0.45456616607E+02 -0.17445446838E+02  0.82151968604E+01  0.10451243242E+03  0.92112493521E+02 0.  0.
        -11    1    3    3    0    0  0.16736437604E+02 -0.34741956438E+02 -0.13094588603E+03  0.13650617916E+03  0.00000000000E+00 0.  1.
         11    1    3    3    0    0 -0.68745955484E+01  0.54834664534E+02 -0.13582722891E+03  0.14663947836E+03  0.00000000000E+00 0. -1.
        -11    1    4    4    0    0 -0.29702852780E+02 -0.54991139548E+02 -0.20053452318E+01  0.62532441993E+02  0.00000000000E+00 0. -1.
         11    1    4    4    0    0 -0.15753763827E+02  0.37545692710E+02  0.10220542092E+02  0.41979990430E+02  0.00000000000E+00 0.  1.
          1    1    1    2  501    0  0.35594774552E+02 -0.26472612581E+01  0.71745738880E+02  0.80133931733E+02  0.00000000000E+00 0. -1.
<scales pt_clust_5="13000.00000" pt_clust_6="13000.00000" pt_clust_7="13000.00000" pt_clust_8="13000.00000" pt_clust_9="35.69308"></scales>
<clustering>
<clus scale="   35.693">  1  9  2 -1</clus>
<clus scale="   92.112">  7  8 -1 -1</clus>
<clus scale="   92.210">  5  6 -1 -1</clus>
<clus scale="   95.298">  1  7  2 -1</clus>
<clus scale="   35.693">  1  5  2 -1</clus>
</clustering>
</event>
<event>
 9    1  0.3288491E-005  0.1179003E+03  0.7546771E-02  0.1247702E+00
         21   -1    0    0  501  502  0.00000000000E+00  0.00000000000E+00  0.17574306275E+03  0.17574306275E+03  0.00000000000E+00 0.  1.
          1   -1    0    0  502    0 -0.00000000000E+00 -0.00000000000E+00 -0.11037689297E+03  0.11037689297E+03  0.00000000000E+00 0. -1.
         23    2    1    2    0    0  0.66241861031E+02 -0.12968328723E+02 -0.24492808440E+02  0.11636233656E+03  0.91564916878E+02 0.  0.
         23    2    1    2    0    0 -0.70554880440E+02  0.33622810683E+02  0.78511629407E+02  0.14579990460E+03  0.94789512483E+02 0.  0.
        -11    1    4    4    0    0 -0.92859570932E+02  0.20802710615E+02  0.71808175910E+02  0.11921437334E+03  0.00000000000E+00 0.  1.
         11    1    4    4    0    0  0.22304690492E+02  0.12820100068E+02  0.67034534974E+01  0.26585531262E+02  0.00000000000E+00 0. -1.
        -13    1    3    3    0    0  0.72188223727E+01 -0.31246605465E+02  0.22124430706E+02  0.38960905837E+02  0.00000000000E+00 0.  1.
         13    1    3    3    0    0  0.59023038658E+02  0.18278276743E+02 -0.46617239146E+02  0.77401430728E+02  0.00000000000E+00 0. -1.
          1    1    1    2  501    0  0.43130194097E+01 -0.20654481960E+02  0.11347348810E+02  0.23957714551E+02  0.00000000000E+00 0. -1.
<scales pt_clust_5="13000.00000" pt_clust_6="13000.00000" pt_clust_7="13000.00000" pt_clust_8="13000.00000" pt_clust_9="21.09999"></scales>
<clustering>
<clus scale="   21.100">  1  9  2 -1</clus>
<clus scale="   91.565">  7  8 -1 -1</clus>
<clus scale="   94.790">  5  6 -1 -1</clus>
<clus scale="  115.324">  2  7  1 -1</clus>
<clus scale="   21.100">  1  5  2 -1</clus>
</clustering>
</event>
<event>
 9    1  0.3288491E-005  0.1163648E+03  0.7546771E-02  0.1250369E+00
         -1   -1    0    0    0  501 -0.00000000000E+00  0.00000000000E+00  0.44566676216E+03  0.44566676216E+03  0.00000000000E+00 0.  1.
         21   -1    0    0  501  502  0.00000000000E+00 -0.00000000000E+00 -0.73427546170E+02  0.73427546170E+02  0.00000000000E+00 0.  1.
         23    2    1    2    0    0 -0.58599604792E+02  0.37315463848E+02  0.26895172373E+03  0.29192701387E+03  0.89777470462E+02 0.  0.
         23    2    1    2    0    0  0.70200518888E+02 -0.18581164207E+02  0.14074095587E+03  0.18371252340E+03  0.93106938947E+02 0.  0.
        -13    1    4    4    0    0  0.62448773073E+02  0.12665080017E+02  0.13726266284E+03  0.15133172873E+03  0.00000000000E+00 0.  1.
         13    1    4    4    0    0  0.77517458150E+01 -0.31246244225E+02  0.34782930316E+01  0.32380794674E+02  0.00000000000E+00 0. -1.
        -13    1    3    3    0    0 -0.21384697387E+02  0.62512898614E+02  0.18891684070E+03  0.20013680440E+03  0.00000000000E+00 0.  1.
         13    1    3    3    0    0 -0.37214907405E+02 -0.25197434766E+02  0.80034883033E+02  0.91790209467E+02  0.00000000000E+00 0. -1.
         -1    1    1    2    0  502 -0.11600914096E+02 -0.18734299641E+02 -0.37453463615E+02  0.43454771058E+02  0.00000000000E+00 0.  1.
<scales pt_clust_5="13000.00000" pt_clust_6="13000.00000" pt_clust_7="13000.00000" pt_clust_8="13000.00000" pt_clust_9="22.03532"></scales>
<clustering>
<clus scale="   22.035">  2  9  1 -1</clus>
<clus scale="   89.777">  7  8 -1 -1</clus>
<clus scale="   93.107">  5  6 -1 -1</clus>
<clus scale="  113.718">  1  7  2 -1</clus>
<clus scale="   22.035">  2  5  1 -1</clus>
</clustering>
</event>
<event>
 9    1  0.3288491E-005  0.1527378E+03  0.7546771E-02  0.1197553E+00
          1   -1    0    0  502    0 -0.00000000000E+00  0.00000000000E+00  0.36669614686E+03  0.36669614686E+03  0.00000000000E+00 0. -1.
         21   -1    0    0  501  502  0.00000000000E+00 -0.00000000000E+00 -0.94259276029E+02  0.94259276029E+02  0.00000000000E+00 0. -1.
         23    2    1    2    0    0 -0.45404461944E+02 -0.10068611280E+03  0.13561735144E+03  0.19714341081E+03  0.90962629359E+02 0.  0.
         23    2    1    2    0    0  0.16849558616E+02  0.14106887326E+03  0.13361437684E+03  0.21424969993E+03  0.88689331910E+02 0.  0.
        -11    1    4    4    0    0 -0.23653063489E+02  0.48442414504E+01  0.10931930442E+02  0.26503607129E+02  0.00000000000E+00 0.  1.
         11    1    4    4    0    0  0.40502622105E+02  0.13622463181E+03  0.12268244640E+03  0.18774609280E+03  0.00000000000E+00 0. -1.
        -11    1    3    3    0    0 -0.12231122272E+02  0.16757324003E+02  0.15396518132E+02  0.25835267182E+02  0.00000000000E+00 0. -1.
         11    1    3    3    0    0 -0.33173339672E+02 -0.11744343680E+03  0.12022083330E+03  0.17130814363E+03  0.00000000000E+00 0.  1.
          1    1    1    2  501    0  0.28554903328E+02 -0.40382760463E+02  0.32051425530E+01  0.49562312148E+02  0.00000000000E+00 0. -1.
<scales pt_clust_5="13000.00000" pt_clust_6="13000.00000" pt_clust_7="13000.00000" pt_clust_8="13000.00000" pt_clust_9="49.45857"></scales>
<clustering>
<clus scale="   49.459">  2  9  1 -1</clus>
<clus scale="   88.689">  5  6 -1 -1</clus>
<clus scale="   90.963">  7  8 -1 -1</clus>
<clus scale="  151.395">  2  5  1 -1</clus>
<clus scale="   49.459">  2  5  1 -1</clus>
</clustering>
</event>
<event>
 9    1  0.3288491E-005  0.9571731E+02  0.7546771E-02  0.1290370E+00
         21   -1    0    0  501  502  0.00000000000E+00  0.00000000000E+00  0.64212647069E+02  0.64212647069E+02  0.00000000000E+00 0.  1.
          2   -1    0    0  502    0 -0.00000000000E+00 -0.00000000000E+00 -0.27676620426E+03  0.27676620426E+03  0.00000000000E+00 0. -1.
         23    2    1    2    0    0  0.30655579910E+02  0.25266197923E+02 -0.17162853307E+03  0.19772745837E+03  0.89786686610E+02 0.  0.
         23    2    1    2    0    0  0.47307049276E+01  0.91477798764E-01 -0.15131192556E+02  0.92649786074E+02  0.91283305889E+02 0.  0.
        -11    1    3    3    0    0 -0.20583030228E+02  0.69884998510E+01 -0.48103039638E+01  0.22262957750E+02  0.00000000000E+00 0.  1.
         11    1    3    3    0    0  0.51238610138E+02  0.18277698073E+02 -0.16681822910E+03  0.17546450062E+03  0.00000000000E+00 0. -1.
        -11    1    4    4    0    0  0.41911772279E+02 -0.15851356325E+02 -0.24577034037E+02  0.51106680141E+02  0.00000000000E+00 0.  1.
         11    1    4    4    0    0 -0.37181067352E+02  0.15942834124E+02  0.94458414808E+01  0.41543105933E+02  0.00000000000E+00 0. -1.
          2    1    1    2  501    0 -0.35386284838E+02 -0.25357675722E+02 -0.25793831568E+02  0.50601606888E+02  0.00000000000E+00 0. -1.
<scales pt_clust_5="13000.00000" pt_clust_6="13000.00000" pt_clust_7="13000.00000" pt_clust_8="13000.00000" pt_clust_9="43.53390"></scales>
<clustering>
<clus scale="   43.534">  1  9  2 -1</clus>
<clus scale="   89.787">  5  6 -1 -1</clus>
<clus scale="   91.283">  7  8 -1 -1</clus>
<clus scale="   94.291">  2  5  1 -1</clus>
<clus scale="   43.534">  1  5  2 -1</clus>
</clustering>
</event>
<event>
 9    1  0.3288491E-005  0.1295626E+03  0.7546771E-02  0.1229271E+00
         21   -1    0    0  501  502  0.00000000000E+00  0.00000000000E+00  0.82403574950E+03  0.82403574950E+03  0.00000000000E+00 0.  1.
          1   -1    0    0  502    0 -0.00000000000E+00 -0.00000000000E+00 -0.94489855900E+02  0.94489855900E+02  0.00000000000E+00 0. -1.
         23    2    1    2    0    0 -0.43673154712E+02  0.78196737914E+02 -0.26728749039E+02  0.12995695508E+03  0.90290142795E+02 0.  0.
         23    2    1    2    0    0  0.31903532111E+02 -0.13439214512E+03  0.61345020194E+03  0.63463597455E+03  0.85805512086E+02 0.  0.
        -13    1    3    3    0    0  0.20043330120E+01  0.34981997184E+02  0.29346322815E+02  0.45705187239E+02  0.00000000000E+00 0.  1.
         13    1    3    3    0    0 -0.45677487724E+02  0.43214740730E+02 -0.56075071854E+02  0.84251767843E+02  0.00000000000E+00 0. -1.
        -13    1    4    4    0    0  0.54553176839E+02 -0.12407970741E+03  0.47471434384E+03  0.49368566025E+03  0.00000000000E+00 0.  1.
         13    1    4    4    0    0 -0.22649644728E+02 -0.10312437714E+02  0.13873585810E+03  0.14095031430E+03  0.00000000000E+00 0. -1.
          1    1    1    2  501    0  0.11769622601E+02  0.56195407210E+02  0.14282444070E+03  0.15393267577E+03  0.00000000000E+00 0. -1.
<scales pt_clust_5="13000.00000" pt_clust_6="13000.00000" pt_clust_7="13000.00000" pt_clust_8="13000.00000" pt_clust_9="57.41470"></scales>
<clustering>
<clus scale="   57.415">  1  9  2 -1</clus>
<clus scale="   85.806">  7  8 -1 -1</clus>
<clus scale="   90.290">  5  6 -1 -1</clus>
<clus scale="  126.478">  1  7  2 -1</clus>
<clus scale="   57.415">  1  5  2 -1</clus>
</clustering>
</event>
<event>
 9    1  0.3288491E-005  0.1223839E+03  0.7546771E-02  0.1243906E+00
         21   -1    0    0  501  502  0.00000000000E+00  0.00000000000E+00  0.24622851146E+03  0.24622851146E+03  0.00000000000E+00 0.  1.
         -3   -1    0    0    0  501 -0.00000000000E+00 -0.00000000000E+00 -0.86816073728E+02  0.86816073728E+02  0.00000000000E+00 0.  1.
         23    2    1    2    0    0 -0.10737948059E+02 -0.81165255791E+02  0.75454815214E+01  0.12346807977E+03  0.92110423707E+02 0.  0.
         23    2    1    2    0    0  0.37694322536E+02  0.72147001569E+02  0.98290990177E+02  0.14892702751E+03  0.76759943882E+02 0.  0.
        -11    1    3    3    0    0  0.31460549670E+02 -0.43906001747E+02 -0.23812331753E+02  0.59029910372E+02  0.00000000000E+00 0.  1.
         11    1    3    3    0    0 -0.42198497730E+02 -0.37259254044E+02  0.31357813274E+02  0.64438169402E+02  0.00000000000E+00 0. -1.
        -11    1    4    4    0    0  0.14513062342E+02  0.70058029322E+02  0.10277323534E+03  0.12522417639E+03  0.00000000000E+00 0.  1.
         11    1    4    4    0    0  0.23181260194E+02  0.20889722475E+01 -0.44822451614E+01  0.23702851114E+02  0.00000000000E+00 0. -1.
         -3    1    1    2    0  502 -0.26956374477E+02  0.90182542220E+01  0.53575966033E+02  0.60649477908E+02  0.00000000000E+00 0.  1.
<scales pt_clust_5="13000.00000" pt_clust_6="13000.00000" pt_clust_7="13000.00000" pt_clust_8="13000.00000" pt_clust_9="28.42490"></scales>
<clustering>
<clus scale="   28.425">  1  9  2 -1</clus>
<clus scale="   76.760">  7  8 -1 -1</clus>
<clus scale="   92.110">  5  6 -1 -1</clus>
<clus scale="  111.290">  1  7  2 -1</clus>
<clus scale="   28.425">  1  5  2 -1</clus>
</clustering>
</event>
<event>
 9    1  0.3288491E-005  0.9643497E+02  0.7546771E-02  0.1289543E+00
         21   -1    0    0  501  502  0.00000000000E+00  0.00000000000E+00  0.97758062711E+02  0.97758062711E+02  0.00000000000E+00 0. -1.
         -2   -1    0    0    0  501 -0.00000000000E+00 -0.00000000000E+00 -0.14370019143E+03  0.14370019143E+03  0.00000000000E+00 0.  1.
         23    2    1    2    0    0  0.23252666561E+01 -0.60566382781E+01 -0.24216819970E+02  0.93836074363E+02  0.90424912221E+02 0.  0.
         23    2    1    2    0    0  0.48836688210E+01  0.45478328363E+02 -0.26544348622E+02  0.10725806768E+03  0.93314318657E+02 0.  0.
        -13    1    4    4    0    0  0.41051627388E+02  0.65314271766E+01 -0.33850904145E+02  0.53607642773E+02  0.00000000000E+00 0.  1.
         13    1    4    4    0    0 -0.36167958567E+02  0.38946901187E+02  0.73065555227E+01  0.53650424906E+02  0.00000000000E+00 0. -1.
        -13    1    3    3    0    0  0.39858252424E+02  0.20145608435E+02 -0.15248332245E+02  0.47191497770E+02  0.00000000000E+00 0.  1.
         13    1    3    3    0    0 -0.37532985768E+02 -0.26202246713E+02 -0.89684877248E+01  0.46644576593E+02  0.00000000000E+00 0. -1.
         -2    1    1    2    0  502 -0.72089354771E+01 -0.39421690085E+02  0.48190398772E+01  0.40364112095E+02  0.00000000000E+00 0.  1.
<scales pt_clust_5="13000.00000" pt_clust_6="13000.00000" pt_clust_7="13000.00000" pt_clust_8="13000.00000" pt_clust_9="40.07541"></scales>
<clustering>
<clus scale="   40.075">  1  9  2 -1</clus>
<clus scale="   90.425">  7  8 -1 -1</clus>
<clus scale="   93.314">  5  6 -1 -1</clus>
<clus scale="   93.642">  2  7  1 -1</clus>
<clus scale="   40.075">  1  5  2 -1</clus>
</clustering>
</event>
<event>
 9    1  0.3288491E-005  0.1473755E+03  0.7546771E-02  0.1203847E+00
          4   -1    0    0  502    0 -0.00000000000E+00  0.00000000000E+00  0.14627587364E+03  0.14627587364E+03  0.00000000000E+00 0. -1.
         21   -1    0    0  501  502  0.00000000000E+00 -0.00000000000E+00 -0.32903207075E+03  0.32903207075E+03  0.00000000000E+00 0.  1.
         23    2    1    2    0    0  0.22240536075E+02  0.12325381767E+03  0.76942229469E+01  0.15492371659E+03  0.90862598915E+02 0.  0.
         23    2    1    2    0    0  0.18636878040E+02 -0.10706535551E+03 -0.18881767253E+02  0.14327174400E+03  0.91432750809E+02 0.  0.
        -11    1    4    4    0    0  0.39407147325E+02 -0.57877837122E+02 -0.45607729920E+02  0.83563343152E+02  0.00000000000E+00 0.  1.
         11    1    4    4    0    0 -0.20770269285E+02 -0.49187518390E+02  0.26725962667E+02  0.59708400850E+02  0.00000000000E+00 0. -1.
        -13    1    3    3    0    0 -0.16441048001E+01  0.28707353145E+02 -0.37654731694E+02  0.47378201993E+02  0.00000000000E+00 0. -1.
         13    1    3    3    0    0  0.23884640876E+02  0.94546464522E+02  0.45348954641E+02  0.10754551460E+03  0.00000000000E+00 0.  1.
          4    1    1    2  501    0 -0.40877414116E+02 -0.16188462155E+02 -0.17156865281E+03  0.17711248380E+03  0.00000000000E+00 0. -1.
<scales pt_clust_5="13000.00000" pt_clust_6="13000.00000" pt_clust_7="13000.00000" pt_clust_8="13000.00000" pt_clust_9="43.96623"></scales>
<clustering>
<clus scale="   43.966">  2  9  1 -1</clus>
<clus scale="   90.863">  7  8 -1 -1</clus>
<clus scale="   91.433">  5  6 -1 -1</clus>
<clus scale="  147.022">  1  7  2 -1</clus>
<clus scale="   43.966">  2  5  1 -1</clus>
</clustering>
</event>
<event>
 9    1  0.3288491E-005  0.1249856E+03  0.7546771E-02  0.1247074E+00
         21   -1    0    0  501  502  0.00000000000E+00  0.00000000000E+00  0.34735040552E+02  0.34735040552E+02  0.00000000000E+00 0.  1.
         -3   -1    0    0    0  501 -0.00000000000E+00 -0.00000000000E+00 -0.65876165607E+03  0.65876165607E+03  0.00000000000E+00 0.  1.
         23    2    1    2    0    0 -0.26871758685E+02 -0.39204581037E+02 -0.39893876046E+03  0.41890723666E+03  0.11862566224E+03 0.  0.
         23    2    1    2    0    0  0.26638783343E+02  0.19159443487E+02 -0.23391005213E+03  0.25268756557E+03  0.89779642738E+02 0.  0.
        -11    1    3    3    0    0 -0.35472516717E+02 -0.75568026739E+02 -0.20400334155E+03  0.22042275171E+03  0.00000000000E+00 0. -1.
         11    1    3    3    0    0  0.86007580329E+01  0.36363445702E+02 -0.19493541891E+03  0.19848448496E+03  0.00000000000E+00 0.  1.
        -13    1    4    4    0    0  0.24711724682E+02  0.53589590860E+02 -0.17171366245E+03  0.18157118565E+03  0.00000000000E+00 0.  1.
         13    1    4    4    0    0  0.19270586609E+01 -0.34430147373E+02 -0.62196389682E+02  0.71116379919E+02  0.00000000000E+00 0. -1.
         -3    1    1    2    0  502  0.23297534180E+00  0.20045137550E+02  0.88221970722E+01  0.21901894395E+02  0.00000000000E+00 0.  1.
<scales pt_clust_5="13000.00000" pt_clust_6="13000.00000" pt_clust_7="13000.00000" pt_clust_8="13000.00000" pt_clust_9="20.04649"></scales>
<clustering>
<clus scale="   20.046">  1  9  2 -1</clus>
<clus scale="   89.780">  7  8 -1 -1</clus>
<clus scale="   98.029">  1  7  2 -1</clus>
<clus scale="  118.626">  5  6 -1 -1</clus>
<clus scale="   20.046">  1  5  2 -1</clus>
</clustering>
</event>
<event>
 9    1  0.3288491E-005  0.2079206E+03  0.7546771E-02  0.1174191E+00
          3   -1    0    0  502    0 -0.00000000000E+00  0.00000000000E+00  0.38280145121E+03  0.38280145121E+03  0.00000000000E+00 0. -1.
         21   -1    0    0  501  502  0.00000000000E+00 -0.00000000000E+00 -0.18686427781E+03  0.18686427781E+03  0.00000000000E+00 0. -1.
         23    2    1    2    0    0 -0.61077745879E+01 -0.43427423693E+02  0.75616078638E+02  0.12612001719E+03  0.90913262778E+02 0.  0.
         23    2    1    2    0    0  0.18207680136E+03 -0.27528758147E+02  0.14620666106E+03  0.25205174152E+03  0.90795917005E+02 0.  0.
        -11    1    3    3    0    0 -0.41418397157E+02  0.60364735133E+00  0.47626838920E+02  0.63120232879E+02  0.00000000000E+00 0.  1.
         11    1    3    3    0    0  0.35310622569E+02 -0.44031071045E+02  0.27989239717E+02  0.62999784313E+02  0.00000000000E+00 0. -1.
        -11    1    4    4    0    0  0.52756962420E+02  0.27028419246E+02  0.17989548814E+02  0.61947206533E+02  0.00000000000E+00 0.  1.
         11    1    4    4    0    0  0.12931983894E+03 -0.54557177393E+02  0.12821711225E+03  0.19010453499E+03  0.00000000000E+00 0. -1.
          3    1    1    2  501    0 -0.17596902677E+03  0.70956181840E+02 -0.25885566298E+02  0.19149397031E+03  0.00000000000E+00 0. -1.
<scales pt_clust_5="13000.00000" pt_clust_6="13000.00000" pt_clust_7="13000.00000" pt_clust_8="13000.00000" pt_clust_9="187.04828"></scales>
<clustering>
<clus scale="   90.796">  7  8 -1 -1</clus>
<clus scale="   90.913">  5  6 -1 -1</clus>
<clus scale="  100.938">  1  5  2 -1</clus>
<clus scale="  187.048">  2  9  1 -1</clus>
<clus scale="  187.048">  2  5  1 -1</clus>
</clustering>
</event>
<event>
 9    1  0.3288491E-005  0.9883482E+02  0.7546771E-02  0.1285010E+00
          2   -1    0    0  502    0 -0.00000000000E+00  0.00000000000E+00  0.11601611283E+03  0.11601611283E+03  0.00000000000E+00 0. -1.
         21   -1    0    0  501  502  0.00000000000E+00 -0.00000000000E+00 -0.23449636986E+03  0.23449636986E+03  0.00000000000E+00 0.  1.
         23    2    1    2    0    0  0.18656366368E+02 -0.16255009247E+02  0.48083681335E+02  0.10605756124E+03  0.91235303216E+02 0.  0.
         23    2    1    2    0    0 -0.47891255259E+02 -0.35553338259E+02 -0.75071067189E+02  0.13532321628E+03  0.95493955532E+02 0.  0.
        -13    1    3    3    0    0  0.48320453197E+01  0.25437134400E+02 -0.14440528716E+02  0.29646674991E+02  0.00000000000E+00 0. -1.
         13    1    3    3    0    0  0.13824321049E+02 -0.41692143646E+02  0.62524210050E+02  0.76410886245E+02  0.00000000000E+00 0.  1.
        -13    1    4    4    0    0  0.29219746823E+02 -0.57546204072E+01 -0.22919077591E+02  0.37579161487E+02  0.00000000000E+00 0. -1.
         13    1    4    4    0    0 -0.77111002083E+02 -0.29798717852E+02 -0.52151989598E+02  0.97744054790E+02  0.00000000000E+00 0.  1.
          2    1    1    2  501    0  0.29234888891E+02  0.51808347505E+02 -0.91492871176E+02  0.10913170518E+03  0.00000000000E+00 0. -1.
<scales pt_clust_5="13000.00000" pt_clust_6="13000.00000" pt_clust_7="13000.00000" pt_clust_8="13000.00000" pt_clust_9="59.48768"></scales>
<clustering>
<clus scale="   59.488">  2  9  1 -1</clus>
<clus scale="   91.235">  5  6 -1 -1</clus>
<clus scale="   94.726">  1  5  2 -1</clus>
<clus scale="   95.494">  7  8 -1 -1</clus>
<clus scale="   59.488">  2  5  1 -1</clus>
</clustering>
</event>
<event>
 9    1  0.3288491E-005  0.1504046E+03  0.7546771E-02  0.1203302E+00
         21   -1    0    0  501  502  0.00000000000E+00  0.00000000000E+00  0.68704369398E+02  0.68704369398E+02  0.00000000000E+00 0.  1.
         -3   -1    0    0    0  501 -0.00000000000E+00 -0.00000000000E+00 -0.49519287268E+03  0.49519287268E+03  0.00000000000E+00 0.  1.
         23    2    1    2    0    0  0.85654276321E+02 -0.70171077386E+02 -0.29192955439E+03  0.32972976585E+03  0.10601046461E+03 0.  0.
         23    2    1    2    0    0 -0.88567743915E+02  0.43067462444E+02 -0.45967082079E+02  0.14147652143E+03  0.90573626941E+02 0.  0.
        -13    1    4    4    0    0 -0.43245903649E+02  0.44873313074E+01 -0.65689832069E+02  0.78774985636E+02  0.00000000000E+00 0. -1.
         13    1    4    4    0    0 -0.45321840266E+02  0.38580131137E+02  0.19722749990E+02  0.62701535793E+02  0.00000000000E+00 0.  1.
        -13    1    3    3    0    0  0.58718748455E+02 -0.17875499953E+02 -0.25016962125E+03  0.25758933269E+03  0.00000000000E+00 0.  1.
         13    1    3    3    0    0  0.26935527866E+02 -0.52295577433E+02 -0.41759933134E+02  0.72140433155E+02  0.00000000000E+00 0. -1.
         -3    1    1    2    0  502  0.29134675942E+01  0.27103614942E+02 -0.88591866814E+02  0.92690954801E+02  0.00000000000E+00 0.  1.
<scales pt_clust_5="13000.00000" pt_clust_6="13000.00000" pt_clust_7="13000.00000" pt_clust_8="13000.00000" pt_clust_9="27.25977"></scales>
<clustering>
<clus scale="   27.260">  1  9  2 -1</clus>
<clus scale="   90.574">  5  6 -1 -1</clus>
<clus scale="  106.010">  7  8 -1 -1</clus>
<clus scale="  139.953">  1  5  2 -1</clus>
<clus scale="   27.260">  1  5  2 -1</clus>
</clustering>
</event>
<event>
 9    1  0.3288491E-005  0.1011131E+03  0.7546771E-02  0.1283348E+00
         -4   -1    0    0    0  501 -0.00000000000E+00  0.00000000000E+00  0.57675459788E+02  0.57675459788E+02  0.00000000000E+00 0.  1.
         21   -1    0    0  501  502  0.00000000000E+00 -0.00000000000E+00 -0.37243128983E+03  0.37243128983E+03  0.00000000000E+00 0. -1.
         23    2    1    2    0    0  0.26225199325E+02  0.96923662299E+01 -0.80839918487E+01  0.91504979374E+02  0.86753139904E+02 0.  0.
         23    2    1    2    0    0 -0.15339860724E+02 -0.36665826135E+02 -0.17719219850E+03  0.20589519456E+03  0.97036394198E+02 0.  0.
        -11    1    4    4    0    0 -0.24503392985E+02  0.11999743399E+02 -0.63397278590E+01  0.28010752556E+02  0.00000000000E+00 0.  1.
         11    1    4    4    0    0  0.91635322612E+01 -0.48665569534E+02 -0.17085247065E+03  0.17788444200E+03  0.00000000000E+00 0. -1.
        -11    1    3    3    0    0  0.32235391214E+02 -0.33521894196E+02  0.26229466162E+01  0.46580228490E+02  0.00000000000E+00 0. -1.
         11    1    3    3    0    0 -0.60101918885E+01  0.43214260426E+02 -0.10706938465E+02  0.44924750884E+02  0.00000000000E+00 0.  1.
         -4    1    1    2    0  502 -0.10885338601E+02  0.26973459905E+02 -0.12947963969E+03  0.13270657569E+03  0.00000000000E+00 0.  1.
<scales pt_clust_5="13000.00000" pt_clust_6="13000.00000" pt_clust_7="13000.00000" pt_clust_8="13000.00000" pt_clust_9="29.08708"></scales>
<clustering>
<clus scale="   29.087">  2  9  1 -1</clus>
<clus scale="   86.753">  7  8 -1 -1</clus>
<clus scale="   91.290">  1  7  2 -1</clus>
<clus scale="   97.036">  5  6 -1 -1</clus>
<clus scale="   29.087">  2  5  1 -1</clus>
</clustering>
</event>
<event>
 9    1  0.3288491E-005  0.1179402E+03  0.7546771E-02  0.1247170E+00
         21   -1    0    0  501  502  0.00000000000E+00  0.00000000000E+00  0.20559441420E+03  0.20559441420E+03  0.00000000000E+00 0. -1.
          3   -1    0    0  502    0 -0.00000000000E+00 -0.00000000000E+00 -0.13679548487E+03  0.13679548487E+03  0.00000000000E+00 0. -1.
         23    2    1    2    0    0 -0.76050961236E+02  0.15709823786E+02 -0.52629856698E+02  0.13505922762E+03  0.97162471561E+02 0.  0.
         23    2    1    2    0    0  0.29072548079E+02 -0.46605904964E+02  0.65645183175E+02  0.12812619253E+03  0.95339958611E+02 0.  0.
        -11    1    3    3    0    0 -0.46979389593E+02 -0.13451801365E+02 -0.73990512987E+02  0.88671359629E+02  0.00000000000E+00 0. -1.
         11    1    3    3    0    0 -0.29071571642E+02  0.29161625151E+02  0.21360656289E+02  0.46387867986E+02  0.00000000000E+00 0.  1.
        -13    1    4    4    0    0  0.41849244258E+02  0.16922138544E+02  0.29522461077E+02  0.53937869126E+02  0.00000000000E+00 0. -1.
         13    1    4    4    0    0 -0.12776696178E+02 -0.63528043508E+02  0.36122722098E+02  0.74188323400E+02  0.00000000000E+00 0.  1.
          3    1    1    2  501    0  0.46978413156E+02  0.30896081178E+02  0.55783602851E+02  0.79204478926E+02  0.00000000000E+00 0. -1.
<scales pt_clust_5="13000.00000" pt_clust_6="13000.00000" pt_clust_7="13000.00000" pt_clust_8="13000.00000" pt_clust_9="56.22757"></scales>
<clustering>
<clus scale="   56.228">  1  9  2 -1</clus>
<clus scale="   95.340">  7  8 -1 -1</clus>
<clus scale="   97.162">  5  6 -1 -1</clus>
<clus scale="  116.443">  1  7  2 -1</clus>
<clus scale="   56.228">  1  5  2 -1</clus>
</clustering>
</event>
<event>
 9    1  0.3288491E-005  0.1615660E+03  0.7546771E-02  0.1187431E+00
         21   -1    0    0  501  502  0.00000000000E+00  0.00000000000E+00  0.69308896470E+02  0.69308896470E+02  0.00000000000E+00 0.  1.
          2   -1    0    0  502    0 -0.00000000000E+00 -0.00000000000E+00 -0.50619373561E+03  0.50619373561E+03  0.00000000000E+00 0. -1.
         23    2    1    2    0    0  0.12637808721E+03 -0.58315149561E+02 -0.34290209060E+03  0.38134911903E+03  0.92050145313E+02 0.  0.
         23    2    1    2    0    0 -0.10517682907E+03  0.53367245439E+02 -0.77279443238E+02  0.16671311381E+03  0.88943362378E+02 0.  0.
        -11    1    3    3    0    0  0.47742951925E-01 -0.32732204784E+02 -0.11450425557E+03  0.11909082270E+03  0.00000000000E+00 0.  1.
         11    1    3    3    0    0  0.12633034426E+03 -0.25582944778E+02 -0.22839783504E+03  0.26225829633E+03  0.00000000000E+00 0. -1.
        -13    1    4    4    0    0 -0.87851655819E+02 -0.35517990463E+01 -0.51262230803E+02  0.10177595499E+03  0.00000000000E+00 0.  1.
         13    1    4    4    0    0 -0.17325173247E+02  0.56919044486E+02 -0.26017212435E+02  0.64937158824E+02  0.00000000000E+00 0. -1.
          2    1    1    2  501    0 -0.21201258147E+02  0.49479041219E+01 -0.16703305299E+02  0.27440399234E+02  0.00000000000E+00 0. -1.
<scales pt_clust_5="13000.00000" pt_clust_6="13000.00000" pt_clust_7="13000.00000" pt_clust_8="13000.00000" pt_clust_9="21.77097"></scales>
<clustering>
<clus scale="   21.771">  1  9  2 -1</clus>
<clus scale="   88.943">  7  8 -1 -1</clus>
<clus scale="   92.050">  5  6 -1 -1</clus>
<clus scale="  159.816">  1  7  2 -1</clus>
<clus scale="   21.771">  1  5  2 -1</clus>
</clustering>
</event>
<event>
 9    1  0.3288491E-005  0.1280648E+03  0.7546771E-02  0.1231679E+00
         -1   -1    0    0    0  501 -0.00000000000E+00  0.00000000000E+00  0.83489892390E+02  0.83489892390E+02  0.00000000000E+00 0.  1.
         21   -1    0    0  501  502  0.00000000000E+00 -0.00000000000E+00 -0.50388408833E+03  0.50388408833E+03  0.00000000000E+00 0.  1.
         23    2    1    2    0    0 -0.64977262281E+02  0.71212666718E+02 -0.28382165654E+02  0.13248461769E+03  0.86332717342E+02 0.  0.
         23    2    1    2    0    0  0.77597354244E+01 -0.69754328538E+02 -0.37913362091E+03  0.39622228914E+03  0.91235519747E+02 0.  0.
        -13    1    3    3    0    0 -0.36120657482E+02  0.82209508707E+02  0.10835545173E+01  0.89801332447E+02  0.00000000000E+00 0.  1.
         13    1    3    3    0    0 -0.28856604799E+02 -0.10996841989E+02 -0.29465720172E+02  0.42683285247E+02  0.00000000000E+00 0. -1.
        -13    1    4    4    0    0 -0.23296871838E+02 -0.76173564000E+02 -0.31148654089E+03  0.32151053053E+03  0.00000000000E+00 0.  1.
         13    1    4    4    0    0  0.31056607263E+02  0.64192354616E+01 -0.67647080029E+02  0.74711758612E+02  0.00000000000E+00 0. -1.
         -1    1    1    2    0  502  0.57217526856E+02 -0.14583381798E+01 -0.12878409370E+02  0.58667073880E+02  0.00000000000E+00 0.  1.
<scales pt_clust_5="13000.00000" pt_clust_6="13000.00000" pt_clust_7="13000.00000" pt_clust_8="13000.00000" pt_clust_9="57.23614"></scales>
<clustering>
<clus scale="   57.236">  2  9  1 -1</clus>
<clus scale="   86.333">  5  6 -1 -1</clus>
<clus scale="   91.236">  7  8 -1 -1</clus>
<clus scale="  124.619">  1  5  2 -1</clus>
<clus scale="   57.236">  2  5  1 -1</clus>
</clustering>
</event>
<event>
 9    1  0.3288491E-005  0.9724039E+02  0.7546771E-02  0.1286873E+00
         21   -1    0    0  501  502  0.00000000000E+00  0.00000000000E+00  0.13276723595E+03  0.13276723595E+03  0.00000000000E+00 0. -1.
         -2   -1    0    0    0  501 -0.00000000000E+00 -0.00000000000E+00 -0.12761686790E+03  0.12761686790E+03  0.00000000000E+00 0. -1.
         23    2    1    2    0    0 -0.11963323889E+02  0.33500863025E+02 -0.43641406529E+02  0.10532855277E+03  0.89017429318E+02 0.  0.
         23    2    1    2    0    0  0.46222889127E+02 -0.17459026444E+02  0.54996617706E+02  0.11672073128E+03  0.90320142088E+02 0.  0.
        -13    1    4    4    0    0  0.73834356605E+02 -0.13060701981E+02  0.40839692883E+02  0.85381348468E+02  0.00000000000E+00 0. -1.
         13    1    4    4    0    0 -0.27611467477E+02 -0.43983244632E+01  0.14156924822E+02  0.31339382807E+02  0.00000000000E+00 0.  1.
        -13    1    3    3    0    0 -0.83094827447E+01 -0.19891990650E+02 -0.46997253371E+02  0.51705711676E+02  0.00000000000E+00 0. -1.
         13    1    3    3    0    0 -0.36538411444E+01  0.53392853675E+02  0.33558468423E+01  0.53622841092E+02  0.00000000000E+00 0.  1.
         -2    1    1    2    0  502 -0.34259565238E+02 -0.16041836581E+02 -0.62048431224E+01  0.38334819804E+02  0.00000000000E+00 0. -1.
<scales pt_clust_5="13000.00000" pt_clust_6="13000.00000" pt_clust_7="13000.00000" pt_clust_8="13000.00000" pt_clust_9="37.82935"></scales>
<clustering>
<clus scale="   37.829">  1  9  2 -1</clus>
<clus scale="   89.017">  7  8 -1 -1</clus>
<clus scale="   90.320">  5  6 -1 -1</clus>
<clus scale="   96.032">  2  7  1 -1</clus>
<clus scale="   37.829">  1  5  2 -1</clus>
</clustering>
</event>
<event>
 9    1  0.3288491E-005  0.1705598E+03  0.7546771E-02  0.1177345E+00
         21   -1    0    0  501  502  0.00000000000E+00  0.00000000000E+00  0.33830504109E+03  0.33830504109E+03  0.00000000000E+00 0. -1.
          3   -1    0    0  502    0 -0.00000000000E+00 -0.00000000000E+00 -0.22980157012E+03  0.22980157012E+03  0.00000000000E+00 0. -1.
         23    2    1    2    0    0  0.84613183364E+02 -0.12239112701E+03 -0.14653152683E+03  0.22755710773E+03  0.90397843727E+02 0.  0.
         23    2    1    2    0    0 -0.24458742600E+02  0.13062562531E+03  0.15495784007E+03  0.22349481026E+03  0.90976447141E+02 0.  0.
        -13    1    3    3    0    0  0.17888458279E+01 -0.54419750028E+02 -0.93040974641E+02  0.10780228256E+03  0.00000000000E+00 0. -1.
         13    1    3    3    0    0  0.82824337536E+02 -0.67971376986E+02 -0.53490552193E+02  0.11975482517E+03  0.00000000000E+00 0.  1.
        -13    1    4    4    0    0 -0.39213523627E+02  0.21312794848E+02  0.19230131398E+02  0.48597670861E+02  0.00000000000E+00 0.  1.
         13    1    4    4    0    0  0.14754781028E+02  0.10931283046E+03  0.13572770867E+03  0.17489713940E+03  0.00000000000E+00 0. -1.
          3    1    1    2  501    0 -0.60154440765E+02 -0.82344982973E+01  0.10007715773E+03  0.11705469322E+03  0.00000000000E+00 0. -1.
<scales pt_clust_5="13000.00000" pt_clust_6="13000.00000" pt_clust_7="13000.00000" pt_clust_8="13000.00000" pt_clust_9="60.71543"></scales>
<clustering>
<clus scale="   60.715">  1  9  2 -1</clus>
<clus scale="   90.398">  5  6 -1 -1</clus>
<clus scale="   90.976">  7  8 -1 -1</clus>
<clus scale="  170.252">  2  5  1 -1</clus>
<clus scale="   60.715">  1  5  2 -1</clus>
</clustering>
</event>
<event>
 9    1  0.3288491E-005  0.1250116E+03  0.7546771E-02  0.1236019E+00
         -3   -1    0    0    0  501 -0.00000000000E+00  0.00000000000E+00  0.68391441179E+02  0.68391441179E+02  0.00000000000E+00 0.  1.
         21   -1    0    0  501  502  0.00000000000E+00 -0.00000000000E+00 -0.47174279953E+03  0.47174279953E+03  0.00000000000E+00 0. -1.
         23    2    1    2    0    0 -0.41871854474E+02 -0.37872676695E+02 -0.84776623019E+02  0.13931339780E+03  0.95045016483E+02 0.  0.
         23    2    1    2    0    0  0.11528053036E+03  0.44010792443E+02 -0.14130441612E+03  0.20885398057E+03  0.91795951193E+02 0.  0.
        -11    1    4    4    0    0  0.69967952965E+02  0.26855755382E+01 -0.19824608934E+02  0.72771848111E+02  0.00000000000E+00 0.  1.
         11    1    4    4    0    0  0.45312577398E+02  0.41325216905E+02 -0.12147980718E+03  0.13608213246E+03  0.00000000000E+00 0. -1.
        -13    1    3    3    0    0 -0.61310734858E+02 -0.44613235481E+02 -0.31327655737E+02  0.82041264026E+02  0.00000000000E+00 0.  1.
         13    1    3    3    0    0  0.19438880384E+02  0.67405587867E+01 -0.53448967281E+02  0.57272133772E+02  0.00000000000E+00 0. -1.
         -3    1    1    2    0  502 -0.73408675889E+02 -0.61381157483E+01 -0.17727031922E+03  0.19196686234E+03  0.00000000000E+00 0.  1.
<scales pt_clust_5="13000.00000" pt_clust_6="13000.00000" pt_clust_7="13000.00000" pt_clust_8="13000.00000" pt_clust_9="73.66485"></scales>
<clustering>
<clus scale="   73.665">  2  9  1 -1</clus>
<clus scale="   91.796">  5  6 -1 -1</clus>
<clus scale="   95.045">  7  8 -1 -1</clus>
<clus scale="  122.559">  2  5  1 -1</clus>
<clus scale="   73.665">  2  5  1 -1</clus>
</clustering>
</event>
<event>
 9    1  0.3288491E-005  0.2155574E+03  0.7546771E-02  0.1137345E+00
         21   -1    0    0  501  502  0.00000000000E+00  0.00000000000E+00  0.13634704055E+04  0.13634704055E+04  0.00000000000E+00 0.  1.
         -1   -1    0    0    0  501 -0.00000000000E+00 -0.00000000000E+00 -0.78364118104E+02  0.78364118104E+02  0.00000000000E+00 0.  1.
         23    2    1    2    0    0 -0.17156377817E+03  0.60415292162E+02  0.15175189384E+03  0.25370849416E+03  0.90858269957E+02 0.  0.
         23    2    1    2    0    0  0.21027341835E+03 -0.13556942443E+03  0.76288096373E+03  0.80812978992E+03  0.92154290384E+02 0.  0.
        -11    1    3    3    0    0 -0.91492300433E+02  0.92322003005E+01  0.12462762684E+03  0.15488098635E+03  0.00000000000E+00 0.  1.
         11    1    3    3    0    0 -0.80071477740E+02  0.51183091862E+02  0.27124266991E+02  0.98827507809E+02  0.00000000000E+00 0. -1.
        -13    1    4    4    0    0  0.60004953713E+02 -0.77660593823E+02  0.38606683553E+03  0.39834578421E+03  0.00000000000E+00 0. -1.
         13    1    4    4    0    0  0.15026846464E+03 -0.57908830604E+02  0.37681412820E+03  0.40978400571E+03  0.00000000000E+00 0.  1.
         -1    1    1    2    0  502 -0.38709640177E+02  0.75154132265E+02  0.37047342987E+03  0.37999623955E+03  0.00000000000E+00 0.  1.
<scales pt_clust_5="13000.00000" pt_clust_6="13000.00000" pt_clust_7="13000.00000" pt_clust_8="13000.00000" pt_clust_9="84.53745"></scales>
<clustering>
<clus scale="   84.537">  1  9  2 -1</clus>
<clus scale="   90.858">  5  6 -1 -1</clus>
<clus scale="   92.154">  7  8 -1 -1</clus>
<clus scale="  215.007">  2  5  1 -1</clus>
<clus scale="   84.537">  1  5  2 -1</clus>
</clustering>
</event>
<event>
 9    1  0.3288491E-005  0.1010981E+03  0.7546771E-02  0.1279172E+00
         21   -1    0    0  501  502  0.00000000000E+00  0.00000000000E+00  0.36193267059E+02  0.36193267059E+02  0.00000000000E+00 0.  1.
         -1   -1    0    0    0  501 -0.00000000000E+00 -0.00000000000E+00 -0.43091466721E+03  0.43091466721E+03  0.00000000000E+00 0.  1.
         23    2    1    2    0    0 -0.43622682242E+02  0.24380542823E+01 -0.25656199906E+03  0.27573713930E+03  0.91093513026E+02 0.  0.
         23    2    1    2    0    0  0.29473029891E+02  0.13018620189E+02 -0.13876817363E+03  0.17040672925E+03  0.93507771867E+02 0.  0.
        -11    1    4    4    0    0  0.31904551660E+02 -0.27720965678E+02 -0.24013403743E+02  0.48610656383E+02  0.00000000000E+00 0. -1.
         11    1    4    4    0    0 -0.24315217690E+01  0.40739585867E+02 -0.11475476988E+03  0.12179607287E+03  0.00000000000E+00 0.  1.
        -11    1    3    3    0    0 -0.48653828526E+02  0.36215125329E+02 -0.20584363465E+03  0.21459341150E+03  0.00000000000E+00 0.  1.
         11    1    3    3    0    0  0.50311462845E+01 -0.33777071047E+02 -0.50718364405E+02  0.61143727800E+02  0.00000000000E+00 0. -1.
         -1    1    1    2    0  502  0.14149652351E+02 -0.15456674472E+02  0.60877253359E+00  0.20964065717E+02  0.00000000000E+00 0.  1.
<scales pt_clust_5="13000.00000" pt_clust_6="13000.00000" pt_clust_7="13000.00000" pt_clust_8="13000.00000" pt_clust_9="20.95522"></scales>
<clustering>
<clus scale="   20.955">  1  9  2 -1</clus>
<clus scale="   91.094">  7  8 -1 -1</clus>
<clus scale="   93.508">  5  6 -1 -1</clus>
<clus scale="   98.869">  2  7  1 -1</clus>
<clus scale="   20.955">  1  5  2 -1</clus>
</clustering>
</event>
<event>
 9    1  0.3288491E-005  0.1224496E+03  0.7546771E-02  0.1240563E+00
         -2   -1    0    0    0  501 -0.00000000000E+00  0.00000000000E+00  0.11773877653E+03  0.11773877653E+03  0.00000000000E+00 0. -1.
         21   -1    0    0  501  502  0.00000000000E+00 -0.00000000000E+00 -0.75549651886E+03  0.75549651886E+03  0.00000000000E+00 0. -1.
         23    2    1    2    0    0  0.75643581596E+02  0.78180767606E+01 -0.79857424370E+01  0.11952268825E+03  0.91863089230E+02 0.  0.
         23    2    1    2    0    0 -0.46666774316E+02 -0.11384564974E+03 -0.43005396119E+02  0.15673978624E+03  0.87059041495E+02 0.  0.
        -13    1    4    4    0    0  0.15393325359E+02 -0.68983266301E+02 -0.39803371777E+01  0.70791868030E+02  0.00000000000E+00 0.  1.
         13    1    4    4    0    0 -0.62060099675E+02 -0.44862383436E+02 -0.39025058941E+02  0.85947918209E+02  0.00000000000E+00 0. -1.
        -13    1    3    3    0    0  0.85622657577E+02 -0.19194769249E+02 -0.16934877296E+02  0.89367044966E+02  0.00000000000E+00 0. -1.
         13    1    3    3    0    0 -0.99790759808E+01  0.27012846010E+02  0.89491348593E+01  0.30155643281E+02  0.00000000000E+00 0.  1.
         -2    1    1    2    0  502 -0.28976807280E+02  0.10602757298E+03 -0.58676660378E+03  0.59697282090E+03  0.00000000000E+00 0. -1.
<scales pt_clust_5="13000.00000" pt_clust_6="13000.00000" pt_clust_7="13000.00000" pt_clust_8="13000.00000" pt_clust_9="109.91588"></scales>
<clustering>
<clus scale="   87.059">  5  6 -1 -1</clus>
<clus scale="   91.863">  7  8 -1 -1</clus>
<clus scale="  109.916">  2  9  1 -1</clus>
<clus scale="  118.888">  2  5  1 -1</clus>
<clus scale="  109.916">  2  5  1 -1</clus>
</clustering>
</event>
<event>
 9    1  0.3288491E-005  0.9961827E+02  0.7546771E-02  0.1281613E+00
         -2   -1    0    0    0  501 -0.00000000000E+00  0.00000000000E+00  0.16707699979E+03  0.16707699979E+03  0.00000000000E+00 0.  1.
         21   -1    0    0  501  502  0.00000000000E+00 -0.00000000000E+00 -0.99350476796E+02  0.99350476796E+02  0.00000000000E+00 0.  1.
         23    2    1    2    0    0 -0.47153134871E+02  0.56457645003E+01  0.68285461605E+02  0.12434154754E+03  0.92426313321E+02 0.  0.
         23    2    1    2    0    0  0.24968398387E+02 -0.53379743310E+00  0.34041288678E+02  0.10066769069E+03  0.91386370740E+02 0.  0.
        -11    1    3    3    0    0 -0.35912925150E+02  0.29912854983E+02  0.81925439961E+02  0.94320171749E+02  0.00000000000E+00 0.  1.
         11    1    3    3    0    0 -0.11240209721E+02 -0.24267090482E+02 -0.13639978356E+02  0.30021375795E+02  0.00000000000E+00 0. -1.
        -13    1    4    4    0    0 -0.32055386297E+02  0.17598760044E+01 -0.35959670033E+01  0.32304425903E+02  0.00000000000E+00 0. -1.
         13    1    4    4    0    0  0.57023784685E+02 -0.22936734375E+01  0.37637255681E+02  0.68363264791E+02  0.00000000000E+00 0.  1.
         -2    1    1    2    0  502  0.22184736484E+02 -0.51119670672E+01 -0.34600227284E+02  0.41418238353E+02  0.00000000000E+00 0.  1.
<scales pt_clust_5="13000.00000" pt_clust_6="13000.00000" pt_clust_7="13000.00000" pt_clust_8="13000.00000" pt_clust_9="22.76609"></scales>
<clustering>
<clus scale="   22.766">  2  9  1 -1</clus>
<clus scale="   91.386">  7  8 -1 -1</clus>
<clus scale="   92.426">  5  6 -1 -1</clus>
<clus scale="   98.654">  2  7  1 -1</clus>
<clus scale="   22.766">  2  5  1 -1</clus>
</clustering>
</event>
<event>
 9    1  0.3288491E-005  0.1371265E+03  0.7546771E-02  0.1219276E+00
         -1   -1    0    0    0  501 -0.00000000000E+00  0.00000000000E+00  0.18994663953E+03  0.18994663953E+03  0.00000000000E+00 0.  1.
         21   -1    0    0  501  502  0.00000000000E+00 -0.00000000000E+00 -0.16959382389E+03  0.16959382389E+03  0.00000000000E+00 0.  1.
         23    2    1    2    0    0  0.11064719065E+03  0.34441278672E+02  0.78648500390E+02  0.16900300823E+03  0.94590843645E+02 0.  0.
         23    2    1    2    0    0 -0.51654757639E+02 -0.15217675926E+02 -0.19415361629E+02  0.11731632722E+03  0.10240299174E+03 0.  0.
        -11    1    3    3    0    0  0.37205297446E+02 -0.30852621256E+02  0.42289318039E+02  0.64222307780E+02  0.00000000000E+00 0. -1.
         11    1    3    3    0    0  0.73441893203E+02  0.65293899928E+02  0.36359182350E+02  0.10478070045E+03  0.00000000000E+00 0.  1.
        -11    1    4    4    0    0 -0.15911802096E+02 -0.36393228317E+02 -0.51347936285E+02  0.64917355723E+02  0.00000000000E+00 0.  1.
         11    1    4    4    0    0 -0.35742955543E+02  0.21175552390E+02  0.31932574656E+02  0.52398971499E+02  0.00000000000E+00 0. -1.
         -1    1    1    2    0  502 -0.58992433010E+02 -0.19223602746E+02 -0.38880323125E+02  0.73221127971E+02  0.00000000000E+00 0.  1.
<scales pt_clust_5="13000.00000" pt_clust_6="13000.00000" pt_clust_7="13000.00000" pt_clust_8="13000.00000" pt_clust_9="62.04558"></scales>
<clustering>
<clus scale="   62.046">  2  9  1 -1</clus>
<clus scale="   94.591">  5  6 -1 -1</clus>
<clus scale="  102.403">  7  8 -1 -1</clus>
<clus scale="  131.395">  1  5  2 -1</clus>
<clus scale="   62.046">  2  5  1 -1</clus>
</clustering>
</event>
<event>
 9    1  0.3288491E-005  0.9183714E+02  0.7546771E-02  0.1300538E+00
         21   -1    0    0  501  502  0.00000000000E+00  0.00000000000E+00  0.65552733436E+02  0.65552733436E+02  0.00000000000E+00 0.  1.
          1   -1    0    0  502    0 -0.00000000000E+00 -0.00000000000E+00 -0.23007488382E+03  0.23007488382E+03  0.00000000000E+00 0. -1.
         23    2    1    2    0    0 -0.25288874860E+02 -0.10619189900E+02 -0.93372777923E+02  0.13320053433E+03  0.90948404614E+02 0.  0.
         23    2    1    2    0    0 -0.94284958975E+01 -0.28226190969E+02 -0.34020524791E+02  0.98452003590E+02  0.87463057987E+02 0.  0.
        -11    1    3    3    0    0 -0.58357071495E+02 -0.18077128959E+02 -0.60529914244E+02  0.86001168034E+02  0.00000000000E+00 0.  1.
         11    1    3    3    0    0  0.33068196635E+02  0.74579390596E+01 -0.32842863679E+02  0.47199366291E+02  0.00000000000E+00 0. -1.
        -11    1    4    4    0    0  0.22796248208E+02 -0.20098293742E+02 -0.52325097296E+02  0.60510545781E+02  0.00000000000E+00 0. -1.
         11    1    4    4    0    0 -0.32224744106E+02 -0.81278972273E+01  0.18304572506E+02  0.37941457809E+02  0.00000000000E+00 0.  1.
          1    1    1    2  501    0  0.34717370758E+02  0.38845380868E+02 -0.37128847667E+02  0.63975079337E+02  0.00000000000E+00 0. -1.
<scales pt_clust_5="13000.00000" pt_clust_6="13000.00000" pt_clust_7="13000.00000" pt_clust_8="13000.00000" pt_clust_9="52.09858"></scales>
<clustering>
<clus scale="   52.099">  1  9  2 -1</clus>
<clus scale="   87.463">  7  8 -1 -1</clus>
<clus scale="   88.387">  1  7  2 -1</clus>
<clus scale="   90.948">  5  6 -1 -1</clus>
<clus scale="   52.099">  1  5  2 -1</clus>
</clustering>
</event>
<event>
 9    1  0.3288491E-005  0.1016511E+03  0.7546771E-02  0.1277763E+00
          1   -1    0    0  502    0 -0.00000000000E+00  0.00000000000E+00  0.48736112942E+03  0.48736112942E+03  0.00000000000E+00 0. -1.
         21   -1    0    0  501  502  0.00000000000E+00 -0.00000000000E+00 -0.10779934471E+03  0.10779934471E+03  0.00000000000E+00 0. -1.
         23    2    1    2    0    0 -0.43326002602E+02  0.12987609011E+02  0.39956132360E+03  0.41204424742E+03  0.89918796825E+02 0.  0.
         23    2    1    2    0    0  0.25405277609E+02 -0.33050544750E+02  0.46734695592E+02  0.11116393816E+03  0.91845101862E+02 0.  0.
        -11    1    3    3    0    0 -0.56204019816E+02  0.40490295542E+02  0.24929427046E+03  0.25873923004E+03  0.00000000000E+00 0. -1.
         11    1    3    3    0    0  0.12878017214E+02 -0.27502686532E+02  0.15026705315E+03  0.15330501738E+03  0.00000000000E+00 0.  1.
        -11    1    4    4    0    0 -0.16958033406E+02 -0.41426136710E+02  0.50896892008E+02  0.67780478869E+02  0.00000000000E+00 0.  1.
         11    1    4    4    0    0  0.42363311015E+02  0.83755919599E+01 -0.41621964159E+01  0.43383459289E+02  0.00000000000E+00 0. -1.
          1    1    1    2  501    0  0.17920724993E+02  0.20062935739E+02 -0.66734234492E+02  0.71952288552E+02  0.00000000000E+00 0. -1.
<scales pt_clust_5="13000.00000" pt_clust_6="13000.00000" pt_clust_7="13000.00000" pt_clust_8="13000.00000" pt_clust_9="26.90119"></scales>
<clustering>
<clus scale="   26.901">  2  9  1 -1</clus>
<clus scale="   89.919">  5  6 -1 -1</clus>
<clus scale="   91.845">  7  8 -1 -1</clus>
<clus scale="   99.914">  1  5  2 -1</clus>
<clus scale="   26.901">  2  5  1 -1</clus>
</clustering>
</event>
<event>
 9    1  0.3288491E-005  0.9779153E+02  0.7546771E-02  0.1288292E+00
          3   -1    0    0  502    0 -0.00000000000E+00  0.00000000000E+00  0.92644249173E+02  0.92644249173E+02  0.00000000000E+00 0. -1.
         21   -1    0    0  501  502  0.00000000000E+00 -0.00000000000E+00 -0.12815151579E+03  0.12815151579E+03  0.00000000000E+00 0.  1.
         23    2    1    2    0    0  0.67483380378E+01  0.95598476849E+01 -0.51609626676E+01  0.96962300799E+02  0.96115147019E+02 0.  0.
         23    2    1    2    0    0  0.77191140834E+01 -0.28823617120E+02 -0.30526135914E+02  0.99741301052E+02  0.90144864167E+02 0.  0.
        -13    1    3    3    0    0 -0.29189627819E+02 -0.10362796388E+02 -0.34581338074E+02  0.46425110277E+02  0.00000000000E+00 0.  1.
         13    1    3    3    0    0  0.35937965857E+02  0.19922644073E+02  0.29420375407E+02  0.50537190522E+02  0.00000000000E+00 0. -1.
        -13    1    4    4    0    0 -0.91684365670E+01 -0.59216831145E+02 -0.15718244067E+02  0.61949628865E+02  0.00000000000E+00 0.  1.
         13    1    4    4    0    0  0.16887550650E+02  0.30393214025E+02 -0.14807891847E+02  0.37791672187E+02  0.00000000000E+00 0. -1.
          3    1    1    2  501    0 -0.14467452121E+02  0.19263769435E+02  0.17983196781E+00  0.24092163109E+02  0.00000000000E+00 0. -1.
<scales pt_clust_5="13000.00000" pt_clust_6="13000.00000" pt_clust_7="13000.00000" pt_clust_8="13000.00000" pt_clust_9="24.09150"></scales>
<clustering>
<clus scale="   24.092">  2  9  1 -1</clus>
<clus scale="   90.145">  7  8 -1 -1</clus>
<clus scale="   91.930">  2  7  1 -1</clus>
<clus scale="   96.115">  5  6 -1 -1</clus>
<clus scale="   24.092">  2  5  1 -1</clus>
</clustering>
</event>
<event>
 9    1  0.3288491E-005  0.1001475E+03  0.7546771E-02  0.1285339E+00
         21   -1    0    0  501  502  0.00000000000E+00  0.00000000000E+00  0.14234310937E+03  0.14234310937E+03  0.00000000000E+00 0. -1.
         -3   -1    0    0    0  501 -0.00000000000E+00 -0.00000000000E+00 -0.24446523793E+03  0.24446523793E+03  0.00000000000E+00 0.  1.
         23    2    1    2    0    0 -0.26536310030E+02  0.19910100576E+02 -0.20288152593E+03  0.22191807007E+03  0.83583062889E+02 0.  0.
         23    2    1    2    0    0  0.44358287374E+02 -0.29717864749E+02  0.94632642313E+02  0.14364522506E+03  0.93956397050E+02 0.  0.
        -11    1    4    4    0    0  0.44372519882E+02  0.10178410115E+02  0.53300655619E+01  0.45835904617E+02  0.00000000000E+00 0.  1.
         11    1    4    4    0    0 -0.14232508280E-01 -0.39896274863E+02  0.89302576751E+02  0.97809320440E+02  0.00000000000E+00 0. -1.
        -13    1    3    3    0    0 -0.28216123972E+01  0.40796667773E+02 -0.44589708399E+02  0.60502658561E+02  0.00000000000E+00 0.  1.
         13    1    3    3    0    0 -0.23714697633E+02 -0.20886567197E+02 -0.15829181753E+03  0.16141541150E+03  0.00000000000E+00 0. -1.
         -3    1    1    2    0  502 -0.17821977344E+02  0.98077641730E+01  0.61267550561E+01  0.21245052178E+02  0.00000000000E+00 0.  1.
<scales pt_clust_5="13000.00000" pt_clust_6="13000.00000" pt_clust_7="13000.00000" pt_clust_8="13000.00000" pt_clust_9="20.34245"></scales>
<clustering>
<clus scale="   20.342">  1  9  2 -1</clus>
<clus scale="   83.583">  7  8 -1 -1</clus>
<clus scale="   90.487">  2  7  1 -1</clus>
<clus scale="   93.956">  5  6 -1 -1</clus>
<clus scale="   20.342">  1  5  2 -1</clus>
</clustering>
</event>
<event>
 9    1  0.3288491E-005  0.1446021E+03  0.7546771E-02  0.1208204E+00
         21   -1    0    0  501  502  0.00000000000E+00  0.00000000000E+00  0.74511638544E+02  0.74511638544E+02  0.00000000000E+00 0. -1.
          2   -1    0    0  502    0 -0.00000000000E+00 -0.00000000000E+00 -0.56646275244E+03  0.56646275244E+03  0.00000000000E+00 0. -1.
         23    2    1    2    0    0  0.73017593947E+01  0.10951461750E+03 -0.41856238712E+03  0.44144622282E+03  0.87370066911E+02 0.  0.
         23    2    1    2    0    0 -0.31214357349E+02 -0.11648979675E+03 -0.82930888862E+02  0.17285386735E+03  0.91960416921E+02 0.  0.
        -11    1    4    4    0    0 -0.29614695542E+02 -0.36338271856E+01  0.43813691154E+01  0.30156778465E+02  0.00000000000E+00 0.  1.
         11    1    4    4    0    0 -0.15996618068E+01 -0.11285596956E+03 -0.87312257977E+02  0.14269708889E+03  0.00000000000E+00 0. -1.
        -11    1    3    3    0    0 -0.14779580319E+02  0.19034658382E+02 -0.17684233844E+02  0.29891241874E+02  0.00000000000E+00 0.  1.
         11    1    3    3    0    0  0.22081339714E+02  0.90479959117E+02 -0.40087815327E+03  0.41155498094E+03  0.00000000000E+00 0. -1.
          2    1    1    2  501    0  0.23912597955E+02  0.69751792513E+01  0.95421620859E+01  0.26674300812E+02  0.00000000000E+00 0. -1.
<scales pt_clust_5="13000.00000" pt_clust_6="13000.00000" pt_clust_7="13000.00000" pt_clust_8="13000.00000" pt_clust_9="24.90914"></scales>
<clustering>
<clus scale="   24.909">  1  9  2 -1</clus>
<clus scale="   87.370">  7  8 -1 -1</clus>
<clus scale="   91.960">  5  6 -1 -1</clus>
<clus scale="  141.727">  2  7  1 -1</clus>
<clus scale="   24.909">  1  5  2 -1</clus>
</clustering>
</event>
<event>
 9    1  0.3288491E-005  0.1108463E+03  0.7546771E-02  0.1259610E+00
         -1   -1    0    0    0  501 -0.00000000000E+00  0.00000000000E+00  0.54833893315E+02  0.54833893315E+02  0.00000000000E+00 0.  1.
         21   -1    0    0  501  502  0.00000000000E+00 -0.00000000000E+00 -0.38933578522E+03  0.38933578522E+03  0.00000000000E+00 0.  1.
         23    2    1    2    0    0  0.60781364348E+02 -0.24875415063E+02 -0.45717290445E+02  0.12145432973E+03  0.91366969069E+02 0.  0.
         23    2    1    2    0    0 -0.36392786714E+02  0.49927386875E+02 -0.21361373377E+03  0.23981140825E+03  0.89785886347E+02 0.  0.
        -13    1    4    4    0    0  0.26333709407E+02  0.36202872245E+02 -0.86029129596E+02  0.96980015204E+02  0.00000000000E+00 0.  1.
         13    1    4    4    0    0 -0.62726496122E+02  0.13724514631E+02 -0.12758460417E+03  0.14283139304E+03  0.00000000000E+00 0. -1.
        -13    1    3    3    0    0  0.60698196759E+02  0.20632924469E+02 -0.40058474314E+02  0.75595436545E+02  0.00000000000E+00 0.  1.
         13    1    3    3    0    0  0.83167588815E-01 -0.45508339532E+02 -0.56588161310E+01  0.45858893181E+02  0.00000000000E+00 0. -1.
         -1    1    1    2    0  502 -0.24388577634E+02 -0.25051971812E+02 -0.75170867693E+02  0.82903940560E+02  0.00000000000E+00 0.  1.
<scales pt_clust_5="13000.00000" pt_clust_6="13000.00000" pt_clust_7="13000.00000" pt_clust_8="13000.00000" pt_clust_9="34.96289"></scales>
<clustering>
<clus scale="   34.963">  2  9  1 -1</clus>
<clus scale="   89.786">  5  6 -1 -1</clus>
<clus scale="   91.367">  7  8 -1 -1</clus>
<clus scale="  109.547">  2  5  1 -1</clus>
<clus scale="   34.963">  2  5  1 -1</clus>
</clustering>
</event>
<event>
 9    1  0.3288491E-005  0.1081757E+03  0.7546771E-02  0.1264866E+00
         21   -1    0    0  501  502  0.00000000000E+00  0.00000000000E+00  0.80303982243E+03  0.80303982243E+03  0.00000000000E+00 0.  1.
         -1   -1    0    0    0  501 -0.00000000000E+00 -0.00000000000E+00 -0.30382859778E+02  0.30382859778E+02  0.00000000000E+00 0.  1.
         23    2    1    2    0    0 -0.21692391791E+02 -0.20262652283E+02  0.24303326757E+03  0.26168790421E+03  0.92381032276E+02 0.  0.
         23    2    1    2    0    0  0.91432652661E+02 -0.11294988209E+02  0.24332444951E+03  0.27537883209E+03  0.90217552083E+02 0.  0.
        -11    1    4    4    0    0  0.99989806191E+02  0.14026974598E+02  0.20665068899E+03  0.22999831439E+03  0.00000000000E+00 0.  1.
         11    1    4    4    0    0 -0.85571535304E+01 -0.25321962807E+02  0.36673760514E+02  0.45380517704E+02  0.00000000000E+00 0. -1.
        -13    1    3    3    0    0  0.10701664735E+02  0.31853368350E+02  0.61754395497E+02  0.70304822499E+02  0.00000000000E+00 0.  1.
         13    1    3    3    0    0 -0.32394056526E+02 -0.52116020633E+02  0.18127887207E+03  0.19138308171E+03  0.00000000000E+00 0. -1.
         -1    1    1    2    0  502 -0.69740260870E+02  0.31557640492E+02  0.28629924558E+03  0.29635594591E+03  0.00000000000E+00 0.  1.
<scales pt_clust_5="13000.00000" pt_clust_6="13000.00000" pt_clust_7="13000.00000" pt_clust_8="13000.00000" pt_clust_9="76.54795"></scales>
<clustering>
<clus scale="   76.548">  1  9  2 -1</clus>
<clus scale="   90.218">  5  6 -1 -1</clus>
<clus scale="   92.381">  7  8 -1 -1</clus>
<clus scale="  106.334">  1  5  2 -1</clus>
<clus scale="   76.548">  1  5  2 -1</clus>
</clustering>
</event>
<event>
 9    1  0.3288491E-005  0.9691897E+02  0.7546771E-02  0.1288322E+00
         21   -1    0    0  501  502  0.00000000000E+00  0.00000000000E+00  0.36275391099E+03  0.36275391099E+03  0.00000000000E+00 0.  1.
         -1   -1    0    0    0  501 -0.00000000000E+00 -0.00000000000E+00 -0.32015378428E+03  0.32015378428E+03  0.00000000000E+00 0.  1.
         23    2    1    2    0    0  0.19370813413E+02 -0.23652236819E+02 -0.26959120998E+03  0.28641419117E+03  0.91755172549E+02 0.  0.
         23    2    1    2    0    0 -0.70653251459E+02 -0.16895382634E+02  0.48388054647E+02  0.12471019057E+03  0.89072396981E+02 0.  0.
        -11    1    4    4    0    0 -0.74364043544E+02 -0.38003634774E+02  0.57529897655E+02  0.10140994208E+03  0.00000000000E+00 0.  1.
         11    1    4    4    0    0  0.37107920851E+01  0.21108252140E+02 -0.91418430074E+01  0.23300248494E+02  0.00000000000E+00 0. -1.
        -13    1    3    3    0    0 -0.17185486789E+02 -0.48930730059E+02 -0.13198072802E+03  0.14180433657E+03  0.00000000000E+00 0.  1.
         13    1    3    3    0    0  0.36556300202E+02  0.25278493240E+02 -0.13761048196E+03  0.14460985461E+03  0.00000000000E+00 0. -1.
         -1    1    1    2    0  502  0.51282438046E+02  0.40547619453E+02  0.26380328204E+03  0.27178331352E+03  0.00000000000E+00 0.  1.
<scales pt_clust_5="13000.00000" pt_clust_6="13000.00000" pt_clust_7="13000.00000" pt_clust_8="13000.00000" pt_clust_9="65.37582"></scales>
<clustering>
<clus scale="   65.376">  1  9  2 -1</clus>
<clus scale="   89.072">  5  6 -1 -1</clus>
<clus scale="   91.755">  7  8 -1 -1</clus>
<clus scale="   94.383">  1  5  2 -1</clus>
<clus scale="   65.376">  1  5  2 -1</clus>
</clustering>
</event>
<event>
 9    1  0.3288491E-005  0.1010710E+03  0.7546771E-02  0.1278123E+00
         21   -1    0    0  501  502  0.00000000000E+00  0.00000000000E+00  0.20359772529E+03  0.20359772529E+03  0.00000000000E+00 0. -1.
          1   -1    0    0  502    0 -0.00000000000E+00 -0.00000000000E+00 -0.20423836097E+03  0.20423836097E+03  0.00000000000E+00 0. -1.
         23    2    1    2    0    0 -0.38395944670E+02  0.42207183224E+02 -0.10110938307E+03  0.14724336114E+03  0.90563818223E+02 0.  0.
         23    2    1    2    0    0  0.30617611275E+02 -0.10109009248E+02 -0.48813118910E+02  0.10770102865E+03  0.90427655100E+02 0.  0.
        -13    1    3    3    0    0  0.27178679420E+02  0.29509838580E+02 -0.34480789808E+02  0.52900246255E+02  0.00000000000E+00 0.  1.
         13    1    3    3    0    0 -0.65574624089E+02  0.12697344643E+02 -0.66628593266E+02  0.94343114884E+02  0.00000000000E+00 0. -1.
        -13    1    4    4    0    0  0.17348672092E+02 -0.50502051978E+02 -0.24871304853E+02  0.58906837314E+02  0.00000000000E+00 0.  1.
         13    1    4    4    0    0  0.13268939183E+02  0.40393042730E+02 -0.23941814057E+02  0.48794191338E+02  0.00000000000E+00 0. -1.
          1    1    1    2  501    0  0.77783333942E+01 -0.32098173976E+02  0.14928186630E+03  0.15289169647E+03  0.00000000000E+00 0. -1.
<scales pt_clust_5="13000.00000" pt_clust_6="13000.00000" pt_clust_7="13000.00000" pt_clust_8="13000.00000" pt_clust_9="33.02719"></scales>
<clustering>
<clus scale="   33.027">  1  9  2 -1</clus>
<clus scale="   90.428">  7  8 -1 -1</clus>
<clus scale="   90.564">  5  6 -1 -1</clus>
<clus scale="  100.949">  1  7  2 -1</clus>
<clus scale="   33.027">  1  5  2 -1</clus>
</clustering>
</event>
<event>
 9    1  0.3288491E-005  0.1129871E+03  0.7546771E-02  0.1256169E+00
         21   -1    0    0  501  502  0.00000000000E+00  0.00000000000E+00  0.78199083849E+02  0.78199083849E+02  0.00000000000E+00 0. -1.
          2   -1    0    0  502    0 -0.00000000000E+00 -0.00000000000E+00 -0.57053593122E+03  0.57053593122E+03  0.00000000000E+00 0. -1.
         23    2    1    2    0    0  0.46940494554E+02  0.70640112029E+02 -0.31921565369E+03  0.34251720082E+03  0.90697099421E+02 0.  0.
         23    2    1    2    0    0  0.56088838911E+02 -0.49569304968E+02 -0.16057289393E+03  0.20030991893E+03  0.93473715609E+02 0.  0.
        -11    1    4    4    0    0  0.81122969611E+02 -0.30219878671E+02 -0.13087587248E+03  0.15691612811E+03  0.00000000000E+00 0. -1.
         11    1    4    4    0    0 -0.25034130700E+02 -0.19349426297E+02 -0.29697021453E+02  0.43393790813E+02  0.00000000000E+00 0.  1.
        -11    1    3    3    0    0 -0.25066606369E+02  0.63741988891E+01 -0.46246465391E+02  0.52987741295E+02  0.00000000000E+00 0.  1.
         11    1    3    3    0    0  0.72007100923E+02  0.64265913140E+02 -0.27296918830E+03  0.28952945953E+03  0.00000000000E+00 0. -1.
          2    1    1    2  501    0 -0.10302933347E+03 -0.21070807061E+02 -0.12548299754E+02  0.10590789532E+03  0.00000000000E+00 0. -1.
<scales pt_clust_5="13000.00000" pt_clust_6="13000.00000" pt_clust_7="13000.00000" pt_clust_8="13000.00000" pt_clust_9="105.16189"></scales>
<clustering>
<clus scale="   90.697">  7  8 -1 -1</clus>
<clus scale="   93.474">  5  6 -1 -1</clus>
<clus scale="  105.162">  1  9  2 -1</clus>
<clus scale="  110.701">  2  7  1 -1</clus>
<clus scale="  105.162">  1  5  2 -1</clus>
</clustering>
</event>
<event>
 9    1  0.3288491E-005  0.9894527E+02  0.7546771E-02  0.1283134E+00
          1   -1    0    0  502    0 -0.00000000000E+00  0.00000000000E+00  0.33391145597E+03  0.33391145597E+03  0.00000000000E+00 0. -1.
         21   -1    0    0  501  502  0.00000000000E+00 -0.00000000000E+00 -0.47176496797E+02  0.47176496797E+02  0.00000000000E+00 0.  1.
         23    2    1    2    0    0 -0.34347577811E+02 -0.31412837890E+02  0.19317905745E+03  0.21758362432E+03  0.88645151290E+02 0.  0.
         23    2    1    2    0    0  0.37994882195E+01  0.38892661578E+02  0.87682584020E+02  0.13151011958E+03  0.89886599540E+02 0.  0.
        -11    1    3    3    0    0 -0.53372225831E+02 -0.46669522818E+02  0.10971030647E+03  0.13062538113E+03  0.00000000000E+00 0.  1.
         11    1    3    3    0    0  0.19024648019E+02  0.15256684929E+02  0.83468750985E+02  0.86958243188E+02  0.00000000000E+00 0. -1.
        -13    1    4    4    0    0  0.38452680053E+02  0.48554739946E+02  0.58331516921E+02  0.85080768924E+02  0.00000000000E+00 0. -1.
         13    1    4    4    0    0 -0.34653191834E+02 -0.96620783681E+01  0.29351067099E+02  0.46429350658E+02  0.00000000000E+00 0.  1.
          1    1    1    2  501    0  0.30548089592E+02 -0.74798236881E+01  0.58733176984E+01  0.31994208865E+02  0.00000000000E+00 0. -1.
<scales pt_clust_5="13000.00000" pt_clust_6="13000.00000" pt_clust_7="13000.00000" pt_clust_8="13000.00000" pt_clust_9="31.45049"></scales>
<clustering>
<clus scale="   31.450">  2  9  1 -1</clus>
<clus scale="   88.645">  5  6 -1 -1</clus>
<clus scale="   89.887">  7  8 -1 -1</clus>
<clus scale="   97.819">  1  5  2 -1</clus>
<clus scale="   31.450">  2  5  1 -1</clus>
</clustering>
</event>
<event>
 9    1  0.3288491E-005  0.1088993E+03  0.7546771E-02  0.1262830E+00
         21   -1    0    0  501  502  0.00000000000E+00  0.00000000000E+00  0.29161200818E+02  0.29161200818E+02  0.00000000000E+00 0. -1.
          2   -1    0    0  502    0 -0.00000000000E+00 -0.00000000000E+00 -0.75612305279E+03  0.75612305279E+03  0.00000000000E+00 0. -1.
         23    2    1    2    0    0  0.51505229734E+02  0.24516417859E+02 -0.52955573205E+03  0.54031151293E+03  0.90848303399E+02 0.  0.
         23    2    1    2    0    0 -0.48243765391E+02 -0.49326403331E+02 -0.18364535309E+03  0.21641523321E+03  0.91374955477E+02 0.  0.
        -11    1    4    4    0    0  0.10532249007E+02 -0.46226446316E+02 -0.12338389170E+03  0.13217941345E+03  0.00000000000E+00 0. -1.
         11    1    4    4    0    0 -0.58776014398E+02 -0.30999570152E+01 -0.60261461388E+02  0.84235819760E+02  0.00000000000E+00 0.  1.
        -13    1    3    3    0    0 -0.17558697092E+02 -0.18497438925E+02 -0.14742382770E+03  0.14961366269E+03  0.00000000000E+00 0.  1.
         13    1    3    3    0    0  0.69063926825E+02  0.43013856784E+02 -0.38213190435E+03  0.39069785024E+03  0.00000000000E+00 0. -1.
          2    1    1    2  501    0 -0.32614643431E+01  0.24809985472E+02 -0.13760766836E+02  0.28557507467E+02  0.00000000000E+00 0. -1.
<scales pt_clust_5="13000.00000" pt_clust_6="13000.00000" pt_clust_7="13000.00000" pt_clust_8="13000.00000" pt_clust_9="25.02344"></scales>
<clustering>
<clus scale="   25.023">  1  9  2 -1</clus>
<clus scale="   90.848">  7  8 -1 -1</clus>
<clus scale="   91.375">  5  6 -1 -1</clus>
<clus scale="  108.458">  2  7  1 -1</clus>
<clus scale="   25.023">  1  5  2 -1</clus>
</clustering>
</event>
<event>
 9    1  0.3288491E-005  0.1051487E+03  0.7546771E-02  0.1269847E+00
          1   -1    0    0  502    0 -0.00000000000E+00  0.00000000000E+00  0.26844865917E+03  0.26844865917E+03  0.00000000000E+00 0. -1.
         21   -1    0    0  501  502  0.00000000000E+00 -0.00000000000E+00 -0.13126312433E+03  0.13126312433E+03  0.00000000000E+00 0. -1.
         23    2    1    2    0    0 -0.30211776609E+02 -0.40778836427E+02  0.17708624591E+03  0.20520532695E+03  0.90410302357E+02 0.  0.
         23    2    1    2    0    0  0.18462087434E+02  0.62356600423E+02  0.34178886470E+02  0.11645876685E+03  0.90361793961E+02 0.  0.
        -11    1    3    3    0    0  0.20925790197E+02  0.12471959042E+02  0.77491007427E+02  0.81229887909E+02  0.00000000000E+00 0.  1.
         11    1    3    3    0    0 -0.51137566806E+02 -0.53250795469E+02  0.99595238479E+02  0.12397543904E+03  0.00000000000E+00 0. -1.
        -13    1    4    4    0    0 -0.32123343939E+02  0.38184447378E+02  0.34022536746E+02  0.60394488606E+02  0.00000000000E+00 0. -1.
         13    1    4    4    0    0  0.50585431374E+02  0.24172153046E+02  0.15634972479E+00  0.56064278247E+02  0.00000000000E+00 0.  1.
          1    1    1    2  501    0  0.11749689175E+02 -0.21577763997E+02 -0.74079597540E+02  0.78047689693E+02  0.00000000000E+00 0. -1.
<scales pt_clust_5="13000.00000" pt_clust_6="13000.00000" pt_clust_7="13000.00000" pt_clust_8="13000.00000" pt_clust_9="24.56939"></scales>
<clustering>
<clus scale="   24.569">  2  9  1 -1</clus>
<clus scale="   90.362">  7  8 -1 -1</clus>
<clus scale="   90.410">  5  6 -1 -1</clus>
<clus scale="  105.107">  2  7  1 -1</clus>
<clus scale="   24.569">  2  5  1 -1</clus>
</clustering>
</event>
<event>
 9    1  0.3288491E-005  0.1995608E+03  0.7546771E-02  0.1150125E+00
         21   -1    0    0  501  502  0.00000000000E+00  0.00000000000E+00  0.90376163030E+02  0.90376163030E+02  0.00000000000E+00 0.  1.
          2   -1    0    0  502    0 -0.00000000000E+00 -0.00000000000E+00 -0.56617111623E+03  0.56617111623E+03  0.00000000000E+00 0. -1.
         23    2    1    2    0    0 -0.12739698433E+02  0.18136495139E+03 -0.36366244218E+03  0.41674952889E+03  0.91510941795E+02 0.  0.
         23    2    1    2    0    0 -0.29292619422E+01 -0.16784064216E+03 -0.10164913225E+03  0.21659592955E+03  0.91663454392E+02 0.  0.
        -13    1    3    3    0    0 -0.38281377988E+02  0.17074436680E+03 -0.32634982072E+03  0.37030164485E+03  0.00000000000E+00 0.  1.
         13    1    3    3    0    0  0.25541679555E+02  0.10620584591E+02 -0.37312621457E+02  0.46447884037E+02  0.00000000000E+00 0. -1.
        -13    1    4    4    0    0  0.41219350511E+02 -0.10612324914E+03 -0.47421597902E+02  0.12332877528E+03  0.00000000000E+00 0. -1.
         13    1    4    4    0    0 -0.44148612453E+02 -0.61717393020E+02 -0.54227534348E+02  0.93267154262E+02  0.00000000000E+00 0.  1.
          2    1    1    2  501    0  0.15668960375E+02 -0.13524309226E+02 -0.10483378773E+02  0.23201820829E+02  0.00000000000E+00 0. -1.
<scales pt_clust_5="13000.00000" pt_clust_6="13000.00000" pt_clust_7="13000.00000" pt_clust_8="13000.00000" pt_clust_9="20.69839"></scales>
<clustering>
<clus scale="   20.698">  1  9  2 -1</clus>
<clus scale="   91.511">  5  6 -1 -1</clus>
<clus scale="   91.663">  7  8 -1 -1</clus>
<clus scale="  199.491">  2  5  1 -1</clus>
<clus scale="   20.698">  1  5  2 -1</clus>
</clustering>
</event>
<event>
 9    1  0.3288491E-005  0.3231200E+03  0.7546771E-02  0.1074239E+00
         -4   -1    0    0    0  501 -0.00000000000E+00  0.00000000000E+00  0.20301431508E+03  0.20301431508E+03  0.00000000000E+00 0.  1.
         21   -1    0    0  501  502  0.00000000000E+00 -0.00000000000E+00 -0.68512696905E+03  0.68512696905E+03  0.00000000000E+00 0.  1.
         23    2    1    2    0    0  0.29199933120E+03 -0.62581281572E+02 -0.10343310855E+03  0.32899790119E+03  0.91439514522E+02 0.  0.
         23    2    1    2    0    0 -0.32590296389E+03  0.36284342875E+02 -0.24715306709E+03  0.42079527201E+03  0.91949589253E+02 0.  0.
        -11    1    3    3    0    0  0.92475014171E+02 -0.63017232989E+02 -0.25365554241E+02  0.11474411201E+03  0.00000000000E+00 0.  1.
         11    1    3    3    0    0  0.19952431703E+03  0.43595141693E+00 -0.78067554307E+02  0.21425378917E+03  0.00000000000E+00 0. -1.
        -13    1    4    4    0    0 -0.25611618439E+03  0.39544187193E+02 -0.23509705186E+03  0.34989979486E+03  0.00000000000E+00 0.  1.
         13    1    4    4    0    0 -0.69786779495E+02 -0.32598443177E+01 -0.12056015232E+02  0.70895477152E+02  0.00000000000E+00 0. -1.
         -4    1    1    2    0  502  0.33903632689E+02  0.26296938698E+02 -0.13152647834E+03  0.13834811093E+03  0.00000000000E+00 0.  1.
<scales pt_clust_5="13000.00000" pt_clust_6="13000.00000" pt_clust_7="13000.00000" pt_clust_8="13000.00000" pt_clust_9="42.90670"></scales>
<clustering>
<clus scale="   42.907">  2  9  1 -1</clus>
<clus scale="   91.440">  5  6 -1 -1</clus>
<clus scale="   91.950">  7  8 -1 -1</clus>
<clus scale="  322.975">  1  5  2 -1</clus>
<clus scale="   42.907">  2  5  1 -1</clus>
</clustering>
</event>
<event>
 9    1  0.3288491E-005  0.1183558E+03  0.7546771E-02  0.1246404E+00
         21   -1    0    0  501  502  0.00000000000E+00  0.00000000000E+00  0.12089650001E+04  0.12089650001E+04  0.00000000000E+00 0. -1.
         -4   -1    0    0    0  501 -0.00000000000E+00 -0.00000000000E+00 -0.14743120325E+02  0.14743120325E+02  0.00000000000E+00 0.  1.
         23    2    1    2    0    0  0.63469714412E+02 -0.12918135796E+02  0.41457811407E+03  0.42969262318E+03  0.92549742700E+02 0.  0.
         23    2    1    2    0    0 -0.83877519290E+02  0.23053466956E+02  0.60830156954E+03  0.62116483446E+03  0.90818783742E+02 0.  0.
        -11    1    4    4    0    0 -0.40397919337E+02 -0.34743787227E+02  0.27306332491E+03  0.27821341098E+03  0.00000000000E+00 0. -1.
         11    1    4    4    0    0 -0.43479599954E+02  0.57797254183E+02  0.33523824463E+03  0.34295142348E+03  0.00000000000E+00 0.  1.
        -11    1    3    3    0    0 -0.24097020315E+02 -0.72124367341E+01  0.98196409475E+02  0.10136676213E+03  0.00000000000E+00 0. -1.
         11    1    3    3    0    0  0.87566734727E+02 -0.57056990617E+01  0.31638170459E+03  0.32832586105E+03  0.00000000000E+00 0.  1.
         -4    1    1    2    0  502  0.20407804879E+02 -0.10135331161E+02  0.17134219616E+03  0.17285066278E+03  0.00000000000E+00 0.  1.
<scales pt_clust_5="13000.00000" pt_clust_6="13000.00000" pt_clust_7="13000.00000" pt_clust_8="13000.00000" pt_clust_9="22.78604"></scales>
<clustering>
<clus scale="   22.786">  1  9  2 -1</clus>
<clus scale="   90.819">  5  6 -1 -1</clus>
<clus scale="   92.550">  7  8 -1 -1</clus>
<clus scale="  117.007">  1  5  2 -1</clus>
<clus scale="   22.786">  1  5  2 -1</clus>
</clustering>
</event>
<event>
 9    1  0.3288491E-005  0.1047236E+03  0.7546771E-02  0.1271994E+00
          1   -1    0    0  502    0 -0.00000000000E+00  0.00000000000E+00  0.18054245444E+03  0.18054245444E+03  0.00000000000E+00 0. -1.
         21   -1    0    0  501  502  0.00000000000E+00 -0.00000000000E+00 -0.15622084921E+03  0.15622084921E+03  0.00000000000E+00 0. -1.
         23    2    1    2    0    0  0.25625224104E+02  0.15372137902E+02  0.68072204317E+02  0.11933440210E+03  0.93348378611E+02 0.  0.
         23    2    1    2    0    0 -0.56432256395E+02 -0.57022067921E+02  0.32603159352E+02  0.12515926225E+03  0.90364590053E+02 0.  0.
        -13    1    3    3    0    0  0.35494601869E+02  0.46781175972E+02  0.22001483948E+02  0.62708934636E+02  0.00000000000E+00 0. -1.
         13    1    3    3    0    0 -0.98693777653E+01 -0.31409038071E+02  0.46070720369E+02  0.56625467462E+02  0.00000000000E+00 0.  1.
        -13    1    4    4    0    0 -0.51060354287E+02 -0.33843293006E+01  0.46874345004E+02  0.69396092716E+02  0.00000000000E+00 0. -1.
         13    1    4    4    0    0 -0.53719021077E+01 -0.53637738620E+02 -0.14271185652E+02  0.55763169534E+02  0.00000000000E+00 0.  1.
          1    1    1    2  501    0  0.30807032291E+02  0.41649930019E+02 -0.76353758440E+02  0.92269639303E+02  0.00000000000E+00 0. -1.
<scales pt_clust_5="13000.00000" pt_clust_6="13000.00000" pt_clust_7="13000.00000" pt_clust_8="13000.00000" pt_clust_9="51.80531"></scales>
<clustering>
<clus scale="   51.805">  2  9  1 -1</clus>
<clus scale="   90.365">  7  8 -1 -1</clus>
<clus scale="   93.348">  5  6 -1 -1</clus>
<clus scale="  102.073">  2  7  1 -1</clus>
<clus scale="   51.805">  2  5  1 -1</clus>
</clustering>
</event>
<event>
 9    1  0.3288491E-005  0.1539986E+03  0.7546771E-02  0.1209844E+00
         21   -1    0    0  501  502  0.00000000000E+00  0.00000000000E+00  0.66438506161E+03  0.66438506161E+03  0.00000000000E+00 0. -1.
          1   -1    0    0  502    0 -0.00000000000E+00 -0.00000000000E+00 -0.17583271194E+03  0.17583271194E+03  0.00000000000E+00 0. -1.
         23    2    1    2    0    0  0.66435766606E+02  0.11724571405E+02 -0.58092559833E+02  0.12731613787E+03  0.91013607743E+02 0.  0.
         23    2    1    2    0    0  0.62483709485E+02 -0.28553038025E+02 -0.33305442163E+02  0.11855675348E+03  0.90702598568E+02 0.  0.
        -11    1    4    4    0    0 -0.26396799087E+01  0.27254012096E+02 -0.13531480897E+02  0.30542594203E+02  0.00000000000E+00 0.  1.
         11    1    4    4    0    0  0.65123389394E+02 -0.55807050122E+02 -0.19773961266E+02  0.88014159279E+02  0.00000000000E+00 0. -1.
        -13    1    3    3    0    0 -0.22415861365E+02 -0.32133126628E+01 -0.68176285359E+01  0.23649022768E+02  0.00000000000E+00 0.  1.
         13    1    3    3    0    0  0.88851627972E+02  0.14937884068E+02 -0.51274931298E+02  0.10366711510E+03  0.00000000000E+00 0. -1.
          1    1    1    2  501    0 -0.12891947609E+03  0.16828466620E+02  0.57995035166E+03  0.59434488220E+03  0.00000000000E+00 0. -1.
<scales pt_clust_5="13000.00000" pt_clust_6="13000.00000" pt_clust_7="13000.00000" pt_clust_8="13000.00000" pt_clust_9="124.45327"></scales>
<clustering>
<clus scale="   90.703">  5  6 -1 -1</clus>
<clus scale="   91.014">  7  8 -1 -1</clus>
<clus scale="  113.290">  2  7  1 -1</clus>
<clus scale="  124.453">  1  9  2 -1</clus>
<clus scale="  124.453">  1  5  2 -1</clus>
</clustering>
</event>
<event>
 9    1  0.3288491E-005  0.1278653E+03  0.7546771E-02  0.1234610E+00
         21   -1    0    0  501  502  0.00000000000E+00  0.00000000000E+00  0.90465980283E+02  0.90465980283E+02  0.00000000000E+00 0. -1.
          2   -1    0    0  502    0 -0.00000000000E+00 -0.00000000000E+00 -0.21043377707E+03  0.21043377707E+03  0.00000000000E+00 0. -1.
         23    2    1    2    0    0  0.27371018236E+02  0.79107029633E+02 -0.91212493721E+02  0.16132421074E+03  0.10343445840E+03 0.  0.
         23    2    1    2    0    0 -0.31091878828E+02 -0.57764133909E+02 -0.34394297165E+02  0.11718889309E+03  0.90812272798E+02 0.  0.
        -11    1    3    3    0    0  0.27084865052E+02  0.49102499210E+02  0.89293247487E+01  0.56783608409E+02  0.00000000000E+00 0. -1.
         11    1    3    3    0    0  0.28615318415E+00  0.30004530423E+02 -0.10014181847E+03  0.10454060233E+03  0.00000000000E+00 0.  1.
        -13    1    4    4    0    0 -0.43051447828E+01  0.23894155463E+02 -0.16641855018E+02  0.29434949895E+02  0.00000000000E+00 0.  1.
         13    1    4    4    0    0 -0.26786734045E+02 -0.81658289372E+02 -0.17752442147E+02  0.87753943194E+02  0.00000000000E+00 0. -1.
          2    1    1    2  501    0  0.37208605920E+01 -0.21342895724E+02  0.56389940993E+01  0.22386653521E+02  0.00000000000E+00 0. -1.
<scales pt_clust_5="13000.00000" pt_clust_6="13000.00000" pt_clust_7="13000.00000" pt_clust_8="13000.00000" pt_clust_9="21.66481"></scales>
<clustering>
<clus scale="   21.665">  1  9  2 -1</clus>
<clus scale="   90.812">  7  8 -1 -1</clus>
<clus scale="  103.434">  5  6 -1 -1</clus>
<clus scale="  117.889">  1  7  2 -1</clus>
<clus scale="   21.665">  1  5  2 -1</clus>
</clustering>
</event>
<event>
 9    1  0.3288491E-005  0.1214345E+03  0.7546771E-02  0.1243241E+00
         -1   -1    0    0    0  501 -0.00000000000E+00  0.00000000000E+00  0.79277539621E+03  0.79277539621E+03  0.00000000000E+00 0.  1.
         21   -1    0    0  501  502  0.00000000000E+00 -0.00000000000E+00 -0.49189644421E+02  0.49189644421E+02  0.00000000000E+00 0.  1.
         23    2    1    2    0    0 -0.18871435963E+02  0.69161712587E+02  0.39800450204E+03  0.41480524016E+03  0.92283964136E+02 0.  0.
         23    2    1    2    0    0  0.10953316886E+03 -0.50706953602E+02  0.27068599096E+03  0.30812439511E+03  0.84267591254E+02 0.  0.
        -11    1    3    3    0    0 -0.30340604898E+02 -0.53427443351E+01  0.49992324724E+02  0.58722480822E+02  0.00000000000E+00 0. -1.
         11    1    3    3    0    0  0.11469168935E+02  0.74504456922E+02  0.34801217731E+03  0.35608275933E+03  0.00000000000E+00 0.  1.
        -11    1    4    4    0    0  0.40949027715E+02 -0.54944331069E+02  0.79457061420E+02  0.10492438705E+03  0.00000000000E+00 0. -1.
         11    1    4    4    0    0  0.68584141144E+02  0.42373774663E+01  0.19122892954E+03  0.20320000806E+03  0.00000000000E+00 0.  1.
         -1    1    1    2    0  502 -0.90661732895E+02 -0.18454758985E+02  0.74895258792E+02  0.11903540536E+03  0.00000000000E+00 0.  1.
<scales pt_clust_5="13000.00000" pt_clust_6="13000.00000" pt_clust_7="13000.00000" pt_clust_8="13000.00000" pt_clust_9="92.52096"></scales>
<clustering>
<clus scale="   84.268">  7  8 -1 -1</clus>
<clus scale="   92.284">  5  6 -1 -1</clus>
<clus scale="   92.521">  2  9  1 -1</clus>
<clus scale="  115.460">  2  7  1 -1</clus>
<clus scale="   92.521">  2  5  1 -1</clus>
</clustering>
</event>
<event>
 9    1  0.3288491E-005  0.1005357E+03  0.7546771E-02  0.1279651E+00
         21   -1    0    0  501  502  0.00000000000E+00  0.00000000000E+00  0.24174920121E+03  0.24174920121E+03  0.00000000000E+00 0.  1.
          2   -1    0    0  502    0 -0.00000000000E+00 -0.00000000000E+00 -0.88956257390E+02  0.88956257390E+02  0.00000000000E+00 0. -1.
         23    2    1    2    0    0 -0.71875517199E+01  0.32457865947E+02 -0.30041975463E+02  0.10339618524E+03  0.93183028879E+02 0.  0.
         23    2    1    2    0    0  0.21945960359E+02 -0.52787122849E+02  0.13416029180E+03  0.17253419990E+03  0.92200654687E+02 0.  0.
        -11    1    4    4    0    0  0.50656472567E+02 -0.27150807110E+01  0.65006843991E+02  0.82458108406E+02  0.00000000000E+00 0.  1.
         11    1    4    4    0    0 -0.28710512208E+02 -0.50072042138E+02  0.69153447809E+02  0.90076091495E+02  0.00000000000E+00 0. -1.
        -11    1    3    3    0    0  0.41786936027E+02  0.19316404009E+02 -0.25140144964E+02  0.52452820469E+02  0.00000000000E+00 0.  1.
         11    1    3    3    0    0 -0.48974487747E+02  0.13141461938E+02 -0.49018304990E+01  0.50943364771E+02  0.00000000000E+00 0. -1.
          2    1    1    2  501    0 -0.14758408639E+02  0.20329256902E+02  0.48674627482E+02  0.54775073458E+02  0.00000000000E+00 0. -1.
<scales pt_clust_5="13000.00000" pt_clust_6="13000.00000" pt_clust_7="13000.00000" pt_clust_8="13000.00000" pt_clust_9="25.12149"></scales>
<clustering>
<clus scale="   25.121">  1  9  2 -1</clus>
<clus scale="   92.201">  5  6 -1 -1</clus>
<clus scale="   93.183">  7  8 -1 -1</clus>
<clus scale="   99.626">  1  5  2 -1</clus>
<clus scale="   25.121">  1  5  2 -1</clus>
</clustering>
</event>
<event>
 9    1  0.4725202E-005  0.9221059E+02  0.7546771E-02  0.1298251E+00
          2   -1    0    0  502    0 -0.00000000000E+00  0.00000000000E+00  0.25190301974E+03  0.25190301974E+03  0.00000000000E+00 0. -1.
         21   -1    0    0  501  502  0.00000000000E+00 -0.00000000000E+00 -0.17255697108E+03  0.17255697108E+03  0.00000000000E+00 0. -1.
         23    2    1    2    0    0  0.35294998912E+01 -0.97221547090E+01  0.16856452061E+03  0.19191840718E+03  0.91168523867E+02 0.  0.
         23    2    1    2    0    0  0.17437771384E+02  0.24474481183E+02  0.38392948185E+02  0.10238040605E+03  0.90025846140E+02 0.  0.
        -13    1    4    4    0    0  0.26987259075E+02 -0.16434359034E+02 -0.14557695480E+02  0.34789751465E+02  0.00000000000E+00 0.  1.
         13    1    4    4    0    0 -0.95494876914E+01  0.40908840217E+02  0.52950643666E+02  0.67590654588E+02  0.00000000000E+00 0. -1.
        -13    1    3    3    0    0 -0.19861231149E+02  0.33935016796E+02  0.99007896870E+02  0.10652989022E+03  0.00000000000E+00 0.  1.
         13    1    3    3    0    0  0.23390731040E+02 -0.43657171505E+02  0.69556623743E+02  0.85388516962E+02  0.00000000000E+00 0. -1.
          2    1    1    2  501    0 -0.20967271275E+02 -0.14752326474E+02 -0.12761142014E+03  0.13016117759E+03  0.00000000000E+00 0. -1.
<scales pt_clust_5="13000.00000" pt_clust_6="13000.00000" pt_clust_7="13000.00000" pt_clust_8="13000.00000" pt_clust_9="25.63704"></scales>
<clustering>
<clus scale="   25.637">  2  9  1 -1</clus>
<clus scale="   90.026">  5  6 -1 -1</clus>
<clus scale="   91.081">  2  5  1 -1</clus>
<clus scale="   91.169">  7  8 -1 -1</clus>
<clus scale="   25.637">  2  5  1 -1</clus>
</clustering>
</event>
<event>
 9    1  0.3288491E-005  0.1026774E+03  0.7546771E-02  0.1276619E+00
         21   -1    0    0  501  502  0.00000000000E+00  0.00000000000E+00  0.35267992355E+03  0.35267992355E+03  0.00000000000E+00 0. -1.
         -1   -1    0    0    0  501 -0.00000000000E+00 -0.00000000000E+00 -0.71085618031E+02  0.71085618031E+02  0.00000000000E+00 0.  1.
         23    2    1    2    0    0 -0.42112402719E+02 -0.92770072911E+01  0.18850916257E+02  0.10250343784E+03  0.91060860958E+02 0.  0.
         23    2    1    2    0    0  0.98786439129E+01  0.51387028163E+02  0.91084238396E+02  0.14159815872E+03  0.94949912057E+02 0.  0.
        -11    1    4    4    0    0  0.28817646063E+01 -0.21910835617E+02  0.55664216175E+02  0.59890685812E+02  0.00000000000E+00 0.  1.
         11    1    4    4    0    0  0.69968793066E+01  0.73297863780E+02  0.35420022221E+02  0.81707472907E+02  0.00000000000E+00 0. -1.
        -13    1    3    3    0    0  0.20553422379E+02 -0.27026722747E+02  0.15393510264E+02  0.37280652787E+02  0.00000000000E+00 0.  1.
         13    1    3    3    0    0 -0.62665825098E+02  0.17749715456E+02  0.34574059938E+01  0.65222785054E+02  0.00000000000E+00 0. -1.
         -1    1    1    2    0  502  0.32233758806E+02 -0.42110020871E+02  0.17165915087E+03  0.17966394502E+03  0.00000000000E+00 0.  1.
<scales pt_clust_5="13000.00000" pt_clust_6="13000.00000" pt_clust_7="13000.00000" pt_clust_8="13000.00000" pt_clust_9="53.03083"></scales>
<clustering>
<clus scale="   53.031">  1  9  2 -1</clus>
<clus scale="   91.061">  7  8 -1 -1</clus>
<clus scale="   94.950">  5  6 -1 -1</clus>
<clus scale="   99.092">  2  7  1 -1</clus>
<clus scale="   53.031">  1  5  2 -1</clus>
</clustering>
</event>
<event>
 9    1  0.3288491E-005  0.1015032E+03  0.7546771E-02  0.1278353E+00
         21   -1    0    0  501  502  0.00000000000E+00  0.00000000000E+00  0.23647761861E+02  0.23647761861E+02  0.00000000000E+00 0.  1.
          2   -1    0    0  502    0 -0.00000000000E+00 -0.00000000000E+00 -0.73052702488E+03  0.73052702488E+03  0.00000000000E+00 0. -1.
         23    2    1    2    0    0  0.45260355871E+02  0.13948020110E+01 -0.50915675110E+03  0.51961449891E+03  0.93317656413E+02 0.  0.
         23    2    1    2    0    0 -0.27441475426E+02 -0.11992612019E+02 -0.18947518748E+03  0.21224785996E+03  0.90837492639E+02 0.  0.
        -11    1    4    4    0    0 -0.55650733026E+02  0.37138887593E+01 -0.76006924590E+02  0.94275392557E+02  0.00000000000E+00 0. -1.
         11    1    4    4    0    0  0.28209257601E+02 -0.15706500778E+02 -0.11346826289E+03  0.11797246740E+03  0.00000000000E+00 0.  1.
        -11    1    3    3    0    0  0.62914034314E+02  0.30167982034E+02 -0.35768722211E+03  0.36442891174E+03  0.00000000000E+00 0. -1.
         11    1    3    3    0    0 -0.17653678442E+02 -0.28773180023E+02 -0.15146952899E+03  0.15518558717E+03  0.00000000000E+00 0.  1.
          2    1    1    2  501    0 -0.17818880445E+02  0.10597810008E+02 -0.82473244356E+01  0.22312427874E+02  0.00000000000E+00 0. -1.
<scales pt_clust_5="13000.00000" pt_clust_6="13000.00000" pt_clust_7="13000.00000" pt_clust_8="13000.00000" pt_clust_9="20.73225"></scales>
<clustering>
<clus scale="   20.732">  1  9  2 -1</clus>
<clus scale="   90.837">  5  6 -1 -1</clus>
<clus scale="   93.318">  7  8 -1 -1</clus>
<clus scale="   99.228">  1  5  2 -1</clus>
<clus scale="   20.732">  1  5  2 -1</clus>
</clustering>
</event>
<event>
 9    1  0.3288491E-005  0.1060159E+03  0.7546771E-02  0.1269722E+00
         21   -1    0    0  501  502  0.00000000000E+00  0.00000000000E+00  0.55410733770E+02  0.55410733770E+02  0.00000000000E+00 0.  1.
          1   -1    0    0  502    0 -0.00000000000E+00 -0.00000000000E+00 -0.38900606411E+03  0.38900606411E+03  0.00000000000E+00 0. -1.
         23    2    1    2    0    0  0.18107616856E+02  0.35954996185E+02 -0.17179512062E+03  0.19996814219E+03  0.94090631208E+02 0.  0.
         23    2    1    2    0    0 -0.45374396096E+02 -0.39150918480E+02 -0.18094216265E+03  0.21098067799E+03  0.90449709901E+02 0.  0.
        -11    1    3    3    0    0  0.55105500153E+02  0.80515998163E+01 -0.10146467048E+03  0.11574335300E+03  0.00000000000E+00 0. -1.
         11    1    3    3    0    0 -0.36997883296E+02  0.27903396369E+02 -0.70330450139E+02  0.84224789190E+02  0.00000000000E+00 0.  1.
        -11    1    4    4    0    0 -0.16472024424E+02  0.28995142914E+02 -0.42812515218E+02  0.54267461342E+02  0.00000000000E+00 0.  1.
         11    1    4    4    0    0 -0.28902371671E+02 -0.68146061395E+02 -0.13812964743E+03  0.15671321665E+03  0.00000000000E+00 0. -1.
          1    1    1    2  501    0  0.27266779240E+02  0.31959222949E+01  0.19141952935E+02  0.33467977704E+02  0.00000000000E+00 0. -1.
<scales pt_clust_5="13000.00000" pt_clust_6="13000.00000" pt_clust_7="13000.00000" pt_clust_8="13000.00000" pt_clust_9="27.45344"></scales>
<clustering>
<clus scale="   27.453">  1  9  2 -1</clus>
<clus scale="   90.450">  7  8 -1 -1</clus>
<clus scale="   94.091">  5  6 -1 -1</clus>
<clus scale="  102.798">  1  7  2 -1</clus>
<clus scale="   27.453">  1  5  2 -1</clus>
</clustering>
</event>
<event>
 9    1  0.3288491E-005  0.1345273E+03  0.7546771E-02  0.1221715E+00
          1   -1    0    0  502    0 -0.00000000000E+00  0.00000000000E+00  0.32362131809E+03  0.32362131809E+03  0.00000000000E+00 0. -1.
         21   -1    0    0  501  502  0.00000000000E+00 -0.00000000000E+00 -0.82008414229E+02  0.82008414229E+02  0.00000000000E+00 0.  1.
         23    2    1    2    0    0  0.26223105603E+02  0.94059953717E+02  0.19495458750E+03  0.23764195067E+03  0.94506504379E+02 0.  0.
         23    2    1    2    0    0  0.28671784694E+01 -0.94106693334E+02  0.29985650496E+02  0.13445832297E+03  0.91189971701E+02 0.  0.
        -11    1    4    4    0    0  0.18783797879E+02 -0.20824705589E+02  0.49569340830E+02  0.56952778474E+02  0.00000000000E+00 0. -1.
         11    1    4    4    0    0 -0.15916619409E+02 -0.73281987745E+02 -0.19583690333E+02  0.77505544500E+02  0.00000000000E+00 0.  1.
        -13    1    3    3    0    0  0.79614331295E+01  0.10549656521E+03  0.12156737404E+03  0.16115686805E+03  0.00000000000E+00 0. -1.
         13    1    3    3    0    0  0.18261672474E+02 -0.11436611494E+02  0.73387213454E+02  0.76485082614E+02  0.00000000000E+00 0.  1.
          1    1    1    2  501    0 -0.29090284073E+02  0.46739617105E-01  0.16672665866E+02  0.33529458676E+02  0.00000000000E+00 0. -1.
<scales pt_clust_5="13000.00000" pt_clust_6="13000.00000" pt_clust_7="13000.00000" pt_clust_8="13000.00000" pt_clust_9="29.09032"></scales>
<clustering>
<clus scale="   29.090">  2  9  1 -1</clus>
<clus scale="   91.190">  5  6 -1 -1</clus>
<clus scale="   94.507">  7  8 -1 -1</clus>
<clus scale="  132.219">  2  5  1 -1</clus>
<clus scale="   29.090">  2  5  1 -1</clus>
</clustering>
</event>
<event>
 9    1  0.3288491E-005  0.1706735E+03  0.7546771E-02  0.1177875E+00
          1   -1    0    0  502    0 -0.00000000000E+00  0.00000000000E+00  0.73108954866E+03  0.73108954866E+03  0.00000000000E+00 0. -1.
         21   -1    0    0  501  502  0.00000000000E+00 -0.00000000000E+00 -0.51812763843E+02  0.51812763843E+02  0.00000000000E+00 0. -1.
         23    2    1    2    0    0  0.11911506160E+03  0.43391339636E+02  0.28164763002E+03  0.32116483616E+03  0.88035550957E+02 0.  0.
         23    2    1    2    0    0 -0.15581244673E+03 -0.41217269799E+02  0.37469710280E+03  0.41840961390E+03  0.93232528010E+02 0.  0.
        -11    1    4    4    0    0 -0.13660085591E+03  0.31731189953E+01  0.25481958454E+03  0.28914163171E+03  0.00000000000E+00 0. -1.
         11    1    4    4    0    0 -0.19211590818E+02 -0.44390388794E+02  0.11987751825E+03  0.12926798220E+03  0.00000000000E+00 0.  1.
        -13    1    3    3    0    0  0.26280660557E+02 -0.26866658121E+02  0.59947602683E+02  0.70754544061E+02  0.00000000000E+00 0.  1.
         13    1    3    3    0    0  0.92834401043E+02  0.70257997757E+02  0.22170002734E+03  0.25041029210E+03  0.00000000000E+00 0. -1.
          1    1    1    2  501    0  0.36697385125E+02 -0.21740698369E+01  0.22932051998E+02  0.43327862439E+02  0.00000000000E+00 0. -1.
<scales pt_clust_5="13000.00000" pt_clust_6="13000.00000" pt_clust_7="13000.00000" pt_clust_8="13000.00000" pt_clust_9="36.76173"></scales>
<clustering>
<clus scale="   36.762">  2  9  1 -1</clus>
<clus scale="   88.036">  7  8 -1 -1</clus>
<clus scale="   93.233">  5  6 -1 -1</clus>
<clus scale="  167.891">  1  7  2 -1</clus>
<clus scale="   36.762">  2  5  1 -1</clus>
</clustering>
</event>
<event>
 9    1  0.3288491E-005  0.9397556E+02  0.7546771E-02  0.1293811E+00
         21   -1    0    0  501  502  0.00000000000E+00  0.00000000000E+00  0.13014861808E+03  0.13014861808E+03  0.00000000000E+00 0. -1.
         -3   -1    0    0    0  501 -0.00000000000E+00 -0.00000000000E+00 -0.27753242163E+03  0.27753242163E+03  0.00000000000E+00 0.  1.
         23    2    1    2    0    0  0.20673052337E+02  0.70258445009E+01 -0.18787830774E+03  0.21048679548E+03  0.92356347738E+02 0.  0.
         23    2    1    2    0    0  0.94897358256E+01 -0.25534950494E+02 -0.44150569358E+02  0.10544911210E+03  0.91804976367E+02 0.  0.
        -13    1    4    4    0    0  0.59217151183E+01 -0.49124360887E+02  0.60687899553E+01  0.49850774859E+02  0.00000000000E+00 0. -1.
         13    1    4    4    0    0  0.35680207073E+01  0.23589410393E+02 -0.50219359314E+02  0.55598337244E+02  0.00000000000E+00 0.  1.
        -13    1    3    3    0    0  0.49102824155E+02 -0.16243934631E+02 -0.14540191139E+03  0.15432649995E+03  0.00000000000E+00 0. -1.
         13    1    3    3    0    0 -0.28429771817E+02  0.23269779132E+02 -0.42476396349E+02  0.56160295523E+02  0.00000000000E+00 0.  1.
         -3    1    1    2    0  502 -0.30162788163E+02  0.18509105993E+02  0.84645073549E+02  0.91745132135E+02  0.00000000000E+00 0.  1.
<scales pt_clust_5="13000.00000" pt_clust_6="13000.00000" pt_clust_7="13000.00000" pt_clust_8="13000.00000" pt_clust_9="35.38899"></scales>
<clustering>
<clus scale="   35.389">  1  9  2 -1</clus>
<clus scale="   91.805">  5  6 -1 -1</clus>
<clus scale="   92.356">  7  8 -1 -1</clus>
<clus scale="   93.434">  1  5  2 -1</clus>
<clus scale="   35.389">  1  5  2 -1</clus>
</clustering>
</event>
<event>
 9    1  0.3288491E-005  0.1168722E+03  0.7546771E-02  0.1248669E+00
         21   -1    0    0  501  502  0.00000000000E+00  0.00000000000E+00  0.97736060066E+02  0.97736060066E+02  0.00000000000E+00 0.  1.
          2   -1    0    0  502    0 -0.00000000000E+00 -0.00000000000E+00 -0.43006776517E+03  0.43006776517E+03  0.00000000000E+00 0. -1.
         23    2    1    2    0    0  0.33222711849E+02 -0.67886737710E+02 -0.30465586774E+03  0.32688639510E+03  0.91253272883E+02 0.  0.
         23    2    1    2    0    0 -0.12299306944E+02  0.67230450354E+02 -0.83890652949E+02  0.14093138946E+03  0.90292903803E+02 0.  0.
        -11    1    4    4    0    0 -0.11440016835E+02 -0.19586857679E+02 -0.33771611210E+02  0.40682191468E+02  0.00000000000E+00 0.  1.
         11    1    4    4    0    0 -0.85929010914E+00  0.86817308033E+02 -0.50119041739E+02  0.10024919799E+03  0.00000000000E+00 0. -1.
        -11    1    3    3    0    0 -0.75169603202E+01 -0.68760395982E+02 -0.24546850752E+03  0.25502800814E+03  0.00000000000E+00 0.  1.
         11    1    3    3    0    0  0.40739672169E+02  0.87365827237E+00 -0.59187360214E+02  0.71858386958E+02  0.00000000000E+00 0. -1.
          2    1    1    2  501    0 -0.20923404905E+02  0.65628735561E+00  0.56214815581E+02  0.59986040682E+02  0.00000000000E+00 0. -1.
<scales pt_clust_5="13000.00000" pt_clust_6="13000.00000" pt_clust_7="13000.00000" pt_clust_8="13000.00000" pt_clust_9="20.93369"></scales>
<clustering>
<clus scale="   20.934">  1  9  2 -1</clus>
<clus scale="   90.293">  5  6 -1 -1</clus>
<clus scale="   91.253">  7  8 -1 -1</clus>
<clus scale="  116.124">  1  5  2 -1</clus>
<clus scale="   20.934">  1  5  2 -1</clus>
</clustering>
</event>
<event>
 9    1  0.3288491E-005  0.1889492E+03  0.7546771E-02  0.1159533E+00
         21   -1    0    0  501  502  0.00000000000E+00  0.00000000000E+00  0.51719482197E+03  0.51719482197E+03  0.00000000000E+00 0. -1.
          2   -1    0    0  502    0 -0.00000000000E+00 -0.00000000000E+00 -0.48999896861E+03  0.48999896861E+03  0.00000000000E+00 0. -1.
         23    2    1    2    0    0 -0.15493955678E+03  0.60619635690E+02 -0.42090263403E+03  0.46168664793E+03  0.91184028528E+02 0.  0.
         23    2    1    2    0    0  0.12948438212E+03 -0.99498218815E+02  0.13813667510E+03  0.23208117815E+03  0.90076808813E+02 0.  0.
        -11    1    3    3    0    0 -0.15162897229E+03  0.30531970065E+02 -0.38385554510E+03  0.41384613800E+03  0.00000000000E+00 0. -1.
         11    1    3    3    0    0 -0.33105844949E+01  0.30087665625E+02 -0.37047088930E+02  0.47840509933E+02  0.00000000000E+00 0.  1.
        -13    1    4    4    0    0  0.88714782146E+02 -0.10136350855E+03  0.67901327212E+02  0.15084914211E+03  0.00000000000E+00 0.  1.
         13    1    4    4    0    0  0.40769599972E+02  0.18652897368E+01  0.70235347884E+02  0.81232036045E+02  0.00000000000E+00 0. -1.
          2    1    1    2  501    0  0.25455174666E+02  0.38878583124E+02  0.30996181229E+03  0.31342596450E+03  0.00000000000E+00 0. -1.
<scales pt_clust_5="13000.00000" pt_clust_6="13000.00000" pt_clust_7="13000.00000" pt_clust_8="13000.00000" pt_clust_9="46.47053"></scales>
<clustering>
<clus scale="   46.471">  1  9  2 -1</clus>
<clus scale="   90.077">  7  8 -1 -1</clus>
<clus scale="   91.184">  5  6 -1 -1</clus>
<clus scale="  188.417">  1  7  2 -1</clus>
<clus scale="   46.471">  1  5  2 -1</clus>
</clustering>
</event>
<event>
 9    1  0.3288491E-005  0.1203143E+03  0.7546771E-02  0.1243924E+00
         21   -1    0    0  501  502  0.00000000000E+00  0.00000000000E+00  0.21053774327E+03  0.21053774327E+03  0.00000000000E+00 0.  1.
          1   -1    0    0  502    0 -0.00000000000E+00 -0.00000000000E+00 -0.12255450829E+03  0.12255450829E+03  0.00000000000E+00 0. -1.
         23    2    1    2    0    0 -0.52270285844E+02 -0.52304459513E+02 -0.44003573424E+02  0.12688196429E+03  0.93245799485E+02 0.  0.
         23    2    1    2    0    0  0.42842018824E+02  0.71070864524E+02  0.69228997959E+02  0.14003164307E+03  0.89048866037E+02 0.  0.
        -11    1    3    3    0    0  0.96641808911E+00 -0.25613586488E+02  0.24950931989E+02  0.35770641367E+02  0.00000000000E+00 0.  1.
         11    1    3    3    0    0 -0.53236703934E+02 -0.26690873025E+02 -0.68954505413E+02  0.91111322926E+02  0.00000000000E+00 0. -1.
        -13    1    4    4    0    0  0.67253255407E+02  0.67242345466E+02  0.44240668380E+02  0.10488932322E+03  0.00000000000E+00 0.  1.
         13    1    4    4    0    0 -0.24411236583E+02  0.38285190586E+01  0.24988329579E+02  0.35142319856E+02  0.00000000000E+00 0. -1.
          1    1    1    2  501    0  0.94282670206E+01 -0.18766405011E+02  0.62757810445E+02  0.66178644198E+02  0.00000000000E+00 0. -1.
<scales pt_clust_5="13000.00000" pt_clust_6="13000.00000" pt_clust_7="13000.00000" pt_clust_8="13000.00000" pt_clust_9="21.00167"></scales>
<clustering>
<clus scale="   21.002">  1  9  2 -1</clus>
<clus scale="   89.049">  7  8 -1 -1</clus>
<clus scale="   93.246">  5  6 -1 -1</clus>
<clus scale="  117.092">  1  7  2 -1</clus>
<clus scale="   21.002">  1  5  2 -1</clus>
</clustering>
</event>
<event>
 9    1  0.3288491E-005  0.1063890E+03  0.7546771E-02  0.1269144E+00
         21   -1    0    0  501  502  0.00000000000E+00  0.00000000000E+00  0.17621493999E+03  0.17621493999E+03  0.00000000000E+00 0.  1.
          3   -1    0    0  502    0 -0.00000000000E+00 -0.00000000000E+00 -0.95455689143E+02  0.95455689143E+02  0.00000000000E+00 0. -1.
         23    2    1    2    0    0 -0.18169075156E+02  0.56666903325E+02 -0.12409121025E+01  0.10980384631E+03  0.92271835234E+02 0.  0.
         23    2    1    2    0    0  0.39565290836E+02 -0.29836074469E+02  0.42992838922E+02  0.10991235327E+03  0.88185813051E+02 0.  0.
        -11    1    3    3    0    0 -0.25713482085E+02  0.80041486515E+02 -0.76552598617E+01  0.84418159942E+02  0.00000000000E+00 0.  1.
         11    1    3    3    0    0  0.75444069287E+01 -0.23374583191E+02  0.64143477592E+01  0.25385686369E+02  0.00000000000E+00 0. -1.
        -13    1    4    4    0    0  0.23586456854E+02  0.12475494530E+02  0.56690030472E+02  0.62655554148E+02  0.00000000000E+00 0.  1.
         13    1    4    4    0    0  0.15978833982E+02 -0.42311568999E+02 -0.13697191550E+02  0.47256799119E+02  0.00000000000E+00 0. -1.
          3    1    1    2  501    0 -0.21396215680E+02 -0.26830828855E+02  0.39007324023E+02  0.51954429550E+02  0.00000000000E+00 0. -1.
<scales pt_clust_5="13000.00000" pt_clust_6="13000.00000" pt_clust_7="13000.00000" pt_clust_8="13000.00000" pt_clust_9="34.31751"></scales>
<clustering>
<clus scale="   34.318">  1  9  2 -1</clus>
<clus scale="   88.186">  7  8 -1 -1</clus>
<clus scale="   92.272">  5  6 -1 -1</clus>
<clus scale="  102.865">  1  7  2 -1</clus>
<clus scale="   34.318">  1  5  2 -1</clus>
</clustering>
</event>
<event>
 9    1  0.3288491E-005  0.1820481E+03  0.7546771E-02  0.1191103E+00
         -3   -1    0    0    0  501 -0.00000000000E+00  0.00000000000E+00  0.56459684036E+02  0.56459684036E+02  0.00000000000E+00 0.  1.
         21   -1    0    0  501  502  0.00000000000E+00 -0.00000000000E+00 -0.95295502681E+03  0.95295502681E+03  0.00000000000E+00 0. -1.
         23    2    1    2    0    0 -0.12728864503E+01  0.45173955380E+02 -0.15182808632E+03  0.18346804106E+03  0.92555106887E+02 0.  0.
         23    2    1    2    0    0 -0.12155547015E+03  0.69340191388E+02 -0.22635737549E+03  0.28111143993E+03  0.90565919376E+02 0.  0.
        -11    1    4    4    0    0 -0.10056206819E+03  0.17852987666E+02 -0.99434925184E+02  0.14254389876E+03  0.00000000000E+00 0.  1.
         11    1    4    4    0    0 -0.20993401961E+02  0.51487203722E+02 -0.12692245031E+03  0.13856754117E+03  0.00000000000E+00 0. -1.
        -11    1    3    3    0    0 -0.18512195336E+02  0.34959624814E+02 -0.15770113238E+03  0.16258697333E+03  0.00000000000E+00 0. -1.
         11    1    3    3    0    0  0.17239308886E+02  0.10214330567E+02  0.58730460547E+01  0.20881067735E+02  0.00000000000E+00 0.  1.
         -3    1    1    2    0  502  0.12282835660E+03 -0.11451414677E+03 -0.51830988096E+03  0.54483522986E+03  0.00000000000E+00 0.  1.
<scales pt_clust_5="13000.00000" pt_clust_6="13000.00000" pt_clust_7="13000.00000" pt_clust_8="13000.00000" pt_clust_9="157.92191"></scales>
<clustering>
<clus scale="   90.566">  5  6 -1 -1</clus>
<clus scale="   92.555">  7  8 -1 -1</clus>
<clus scale="  102.999">  1  7  2 -1</clus>
<clus scale="  157.922">  2  9  1 -1</clus>
<clus scale="  157.922">  2  5  1 -1</clus>
</clustering>
</event>
<event>
 9    1  0.3288491E-005  0.1098588E+03  0.7546771E-02  0.1262198E+00
          1   -1    0    0  502    0 -0.00000000000E+00  0.00000000000E+00  0.57025485136E+03  0.57025485136E+03  0.00000000000E+00 0. -1.
         21   -1    0    0  501  502  0.00000000000E+00 -0.00000000000E+00 -0.40820816522E+02  0.40820816522E+02  0.00000000000E+00 0. -1.
         23    2    1    2    0    0 -0.45025827492E+01 -0.66525750370E+02  0.40029607369E+03  0.41530652860E+03  0.88298456249E+02 0.  0.
         23    2    1    2    0    0 -0.19960177380E+02  0.44725216479E+02  0.12516651371E+03  0.16276213539E+03  0.91793806395E+02 0.  0.
        -11    1    4    4    0    0  0.23116860119E+02 -0.15867220126E+02  0.22208653312E+02  0.35768452276E+02  0.00000000000E+00 0.  1.
         11    1    4    4    0    0 -0.43077037498E+02  0.60592436605E+02  0.10295786039E+03  0.12699368311E+03  0.00000000000E+00 0. -1.
        -11    1    3    3    0    0  0.24238329692E+02  0.10417168823E+02  0.66223377108E+02  0.71284989360E+02  0.00000000000E+00 0.  1.
         11    1    3    3    0    0 -0.28740912441E+02 -0.76942919193E+02  0.33407269658E+03  0.34402153924E+03  0.00000000000E+00 0. -1.
          1    1    1    2  501    0  0.24462760129E+02  0.21800533890E+02  0.39714474428E+01  0.33007003890E+02  0.00000000000E+00 0. -1.
<scales pt_clust_5="13000.00000" pt_clust_6="13000.00000" pt_clust_7="13000.00000" pt_clust_8="13000.00000" pt_clust_9="32.76721"></scales>
<clustering>
<clus scale="   32.767">  2  9  1 -1</clus>
<clus scale="   88.298">  7  8 -1 -1</clus>
<clus scale="   91.794">  5  6 -1 -1</clus>
<clus scale="  106.956">  1  7  2 -1</clus>
<clus scale="   32.767">  2  5  1 -1</clus>
</clustering>
</event>
<event>
 9    1  0.3288491E-005  0.9823408E+02  0.7546771E-02  0.1286615E+00
          4   -1    0    0  502    0 -0.00000000000E+00  0.00000000000E+00  0.30522566292E+02  0.30522566292E+02  0.00000000000E+00 0. -1.
         21   -1    0    0  501  502  0.00000000000E+00 -0.00000000000E+00 -0.82087761975E+03  0.82087761975E+03  0.00000000000E+00 0.  1.
         23    2    1    2    0    0  0.46655528562E+01 -0.87573404828E+01 -0.10581176932E+03  0.14069124922E+03  0.92192400360E+02 0.  0.
         23    2    1    2    0    0  0.54578466576E+02  0.10547358234E+02 -0.27379429618E+03  0.29570557646E+03  0.96893836494E+02 0.  0.
        -13    1    3    3    0    0  0.19491624928E+02 -0.47374079008E+02 -0.62264529344E+02  0.80629389299E+02  0.00000000000E+00 0.  1.
         13    1    3    3    0    0 -0.14826072072E+02  0.38616738525E+02 -0.43547239973E+02  0.60061859917E+02  0.00000000000E+00 0. -1.
        -13    1    4    4    0    0  0.39878779792E+02 -0.21731183332E+02 -0.24729705905E+03  0.25143268845E+03  0.00000000000E+00 0.  1.
         13    1    4    4    0    0  0.14699686784E+02  0.32278541566E+02 -0.26497237124E+02  0.44272888005E+02  0.00000000000E+00 0. -1.
          4    1    1    2  501    0 -0.59244019432E+02 -0.17900177511E+01 -0.41074898796E+03  0.41500336037E+03  0.00000000000E+00 0. -1.
<scales pt_clust_5="13000.00000" pt_clust_6="13000.00000" pt_clust_7="13000.00000" pt_clust_8="13000.00000" pt_clust_9="59.27106"></scales>
<clustering>
<clus scale="   59.271">  2  9  1 -1</clus>
<clus scale="   92.192">  5  6 -1 -1</clus>
<clus scale="   93.600">  1  5  2 -1</clus>
<clus scale="   96.894">  7  8 -1 -1</clus>
<clus scale="   59.271">  2  5  1 -1</clus>
</clustering>
</event>
<event>
 9    1  0.3288491E-005  0.1020174E+03  0.7546771E-02  0.1280148E+00
         21   -1    0    0  501  502  0.00000000000E+00  0.00000000000E+00  0.20645579815E+03  0.20645579815E+03  0.00000000000E+00 0.  1.
          3   -1    0    0  502    0 -0.00000000000E+00 -0.00000000000E+00 -0.13599159457E+03  0.13599159457E+03  0.00000000000E+00 0. -1.
         23    2    1    2    0    0  0.32131847526E+02  0.32572610245E+02 -0.69597236639E+02  0.11844494188E+03  0.84214003265E+02 0.  0.
         23    2    1    2    0    0  0.26468255310E+02 -0.55802539964E+02  0.97059192821E+02  0.14769521024E+03  0.92622331056E+02 0.  0.
        -11    1    3    3    0    0  0.85152596457E+00  0.54086783772E+02 -0.56662232560E+02  0.78337180661E+02  0.00000000000E+00 0. -1.
         11    1    3    3    0    0  0.31280321561E+02 -0.21514173527E+02 -0.12935004079E+02  0.40107761220E+02  0.00000000000E+00 0.  1.
        -13    1    4    4    0    0 -0.33219241952E+01 -0.73966387010E+02  0.50970627396E+02  0.89889189811E+02  0.00000000000E+00 0.  1.
         13    1    4    4    0    0  0.29790179505E+02  0.18163847047E+02  0.46088565425E+02  0.57806020426E+02  0.00000000000E+00 0. -1.
          3    1    1    2  501    0 -0.58600102836E+02  0.23229929719E+02  0.43002247393E+02  0.76307240600E+02  0.00000000000E+00 0. -1.
<scales pt_clust_5="13000.00000" pt_clust_6="13000.00000" pt_clust_7="13000.00000" pt_clust_8="13000.00000" pt_clust_9="63.03651"></scales>
<clustering>
<clus scale="   63.037">  1  9  2 -1</clus>
<clus scale="   84.214">  5  6 -1 -1</clus>
<clus scale="   92.622">  7  8 -1 -1</clus>
<clus scale="   94.449">  2  5  1 -1</clus>
<clus scale="   63.037">  1  5  2 -1</clus>
</clustering>
</event>
<event>
 9    1  0.3288491E-005  0.1617941E+03  0.7546771E-02  0.1188746E+00
         21   -1    0    0  501  502  0.00000000000E+00  0.00000000000E+00  0.21712192742E+03  0.21712192742E+03  0.00000000000E+00 0.  1.
         -2   -1    0    0    0  501 -0.00000000000E+00 -0.00000000000E+00 -0.10266404678E+04  0.10266404678E+04  0.00000000000E+00 0.  1.
         23    2    1    2    0    0 -0.12622816069E+03 -0.27701578149E+02 -0.66895696937E+03  0.68780302529E+03  0.94173503443E+02 0.  0.
         23    2    1    2    0    0  0.11484883083E+03 -0.47963074629E+02 -0.32091635940E+03  0.36004490252E+03  0.10561397457E+03 0.  0.
        -11    1    4    4    0    0  0.10865836492E+03 -0.60196400643E+01 -0.15904179704E+03  0.19271006601E+03  0.00000000000E+00 0. -1.
         11    1    4    4    0    0  0.61904659187E+01 -0.41943434565E+02 -0.16187456236E+03  0.16733483651E+03  0.00000000000E+00 0.  1.
        -13    1    3    3    0    0 -0.10114138968E+03  0.12740955747E+02 -0.55537874192E+03  0.56465693978E+03  0.00000000000E+00 0.  1.
         13    1    3    3    0    0 -0.25086771004E+02 -0.40442533896E+02 -0.11357822744E+03  0.12314608551E+03  0.00000000000E+00 0. -1.
         -2    1    1    2    0  502  0.11379329852E+02  0.75664652779E+02  0.18035478842E+03  0.19591446739E+03  0.00000000000E+00 0.  1.
<scales pt_clust_5="13000.00000" pt_clust_6="13000.00000" pt_clust_7="13000.00000" pt_clust_8="13000.00000" pt_clust_9="76.51555"></scales>
<clustering>
<clus scale="   76.516">  1  9  2 -1</clus>
<clus scale="   94.174">  7  8 -1 -1</clus>
<clus scale="  105.614">  5  6 -1 -1</clus>
<clus scale="  154.569">  2  7  1 -1</clus>
<clus scale="   76.516">  1  5  2 -1</clus>
</clustering>
</event>
<event>
 9    1  0.3288491E-005  0.9782568E+02  0.7546771E-02  0.1292566E+00
          1   -1    0    0  502    0 -0.00000000000E+00  0.00000000000E+00  0.40832334263E+03  0.40832334263E+03  0.00000000000E+00 0. -1.
         21   -1    0    0  501  502  0.00000000000E+00 -0.00000000000E+00 -0.47470271326E+02  0.47470271326E+02  0.00000000000E+00 0. -1.
         23    2    1    2    0    0  0.21068145024E+02 -0.38185681781E+02  0.25967849471E+03  0.27428865277E+03  0.76807105126E+02 0.  0.
         23    2    1    2    0    0 -0.13341551973E+02  0.14065681346E+02  0.11861187334E+03  0.15075542495E+03  0.91008687790E+02 0.  0.
        -11    1    3    3    0    0  0.22191487803E+02  0.60258804129E+01  0.19732401755E+02  0.30300842310E+02  0.00000000000E+00 0.  1.
         11    1    3    3    0    0 -0.11233427790E+01 -0.44211562194E+02  0.23994609295E+03  0.24398781046E+03  0.00000000000E+00 0. -1.
        -13    1    4    4    0    0 -0.14109575830E+02 -0.35397968949E+02  0.77772743059E+02  0.86606558059E+02  0.00000000000E+00 0. -1.
         13    1    4    4    0    0  0.76802385653E+00  0.49463650294E+02  0.40839130280E+02  0.64148866889E+02  0.00000000000E+00 0.  1.
          1    1    1    2  501    0 -0.77265930507E+01  0.24120000435E+02 -0.17437296742E+02  0.30749536237E+02  0.00000000000E+00 0. -1.
<scales pt_clust_5="13000.00000" pt_clust_6="13000.00000" pt_clust_7="13000.00000" pt_clust_8="13000.00000" pt_clust_9="25.32735"></scales>
<clustering>
<clus scale="   25.327">  2  9  1 -1</clus>
<clus scale="   76.807">  5  6 -1 -1</clus>
<clus scale="   84.774">  1  5  2 -1</clus>
<clus scale="   91.009">  7  8 -1 -1</clus>
<clus scale="   25.327">  2  5  1 -1</clus>
</clustering>
</event>
<event>
 9    1  0.3288491E-005  0.1200909E+03  0.7546771E-02  0.1242971E+00
         21   -1    0    0  501  502  0.00000000000E+00  0.00000000000E+00  0.81172663438E+02  0.81172663438E+02  0.00000000000E+00 0. -1.
          1   -1    0    0  502    0 -0.00000000000E+00 -0.00000000000E+00 -0.64261842260E+03  0.64261842260E+03  0.00000000000E+00 0. -1.
         23    2    1    2    0    0 -0.10369328399E+03  0.46633389510E+02 -0.41545679935E+03  0.44004462305E+03  0.90044144657E+02 0.  0.
         23    2    1    2    0    0  0.44603264390E+02 -0.28278796741E+01 -0.17731682746E+03  0.20379655117E+03  0.89968488213E+02 0.  0.
        -11    1    4    4    0    0  0.30257597735E+02  0.35527279814E+02 -0.43289444102E+02  0.63652853843E+02  0.00000000000E+00 0.  1.
         11    1    4    4    0    0  0.14345666655E+02 -0.38355159488E+02 -0.13402738336E+03  0.14014369733E+03  0.00000000000E+00 0. -1.
        -13    1    3    3    0    0 -0.41739427031E+01 -0.22561304260E+02 -0.50043761989E+02  0.55052814293E+02  0.00000000000E+00 0.  1.
         13    1    3    3    0    0 -0.99519341290E+02  0.69194693770E+02 -0.36541303736E+03  0.38499180876E+03  0.00000000000E+00 0. -1.
          1    1    1    2  501    0  0.59090019602E+02 -0.43805509836E+02  0.31327867646E+02  0.79949911819E+02  0.00000000000E+00 0. -1.
<scales pt_clust_5="13000.00000" pt_clust_6="13000.00000" pt_clust_7="13000.00000" pt_clust_8="13000.00000" pt_clust_9="73.55646"></scales>
<clustering>
<clus scale="   73.556">  1  9  2 -1</clus>
<clus scale="   89.968">  5  6 -1 -1</clus>
<clus scale="   90.044">  7  8 -1 -1</clus>
<clus scale="  120.034">  1  5  2 -1</clus>
<clus scale="   73.556">  1  5  2 -1</clus>
</clustering>
</event>
<event>
 9    1  0.3288491E-005  0.1087912E+03  0.7546771E-02  0.1266051E+00
         21   -1    0    0  501  502  0.00000000000E+00  0.00000000000E+00  0.56647923211E+02  0.56647923211E+02  0.00000000000E+00 0. -1.
          2   -1    0    0  502    0 -0.00000000000E+00 -0.00000000000E+00 -0.50663726656E+03  0.50663726656E+03  0.00000000000E+00 0. -1.
         23    2    1    2    0    0 -0.30150294390E+02 -0.43223666647E+02 -0.38411683201E+03  0.39996115626E+03  0.98213340628E+02 0.  0.
         23    2    1    2    0    0  0.36042846271E+01  0.33696886947E+02 -0.85270004196E+02  0.12909374145E+03  0.90806108865E+02 0.  0.
        -11    1    4    4    0    0  0.21206462623E+02 -0.21238870282E+02 -0.57957735655E+02  0.65267930793E+02  0.00000000000E+00 0.  1.
         11    1    4    4    0    0 -0.17602177996E+02  0.54935757228E+02 -0.27312268541E+02  0.63825810652E+02  0.00000000000E+00 0. -1.
        -11    1    3    3    0    0  0.22041014678E+02  0.19292623363E+02 -0.82608517599E+02  0.87648039477E+02  0.00000000000E+00 0.  1.
         11    1    3    3    0    0 -0.52191309068E+02 -0.62516290010E+02 -0.30150831441E+03  0.31231311679E+03  0.00000000000E+00 0. -1.
          2    1    1    2  501    0  0.26546009763E+02  0.95267797000E+01  0.19397492854E+02  0.34230292064E+02  0.00000000000E+00 0. -1.
<scales pt_clust_5="13000.00000" pt_clust_6="13000.00000" pt_clust_7="13000.00000" pt_clust_8="13000.00000" pt_clust_9="28.20373"></scales>
<clustering>
<clus scale="   28.204">  1  9  2 -1</clus>
<clus scale="   90.806">  5  6 -1 -1</clus>
<clus scale="   98.213">  7  8 -1 -1</clus>
<clus scale="  102.154">  1  5  2 -1</clus>
<clus scale="   28.204">  1  5  2 -1</clus>
</clustering>
</event>
<event>
 9    1  0.3288491E-005  0.9519184E+02  0.7546771E-02  0.1293020E+00
          2   -1    0    0  502    0 -0.00000000000E+00  0.00000000000E+00  0.10969677420E+03  0.10969677420E+03  0.00000000000E+00 0. -1.
         21   -1    0    0  501  502  0.00000000000E+00 -0.00000000000E+00 -0.40290733118E+03  0.40290733118E+03  0.00000000000E+00 0.  1.
         23    2    1    2    0    0 -0.19105274637E+02 -0.10028466927E+02  0.78485745106E+02  0.12348334964E+03  0.92857653355E+02 0.  0.
         23    2    1    2    0    0  0.16315551946E+01  0.23516790057E+02 -0.27510440346E+03  0.29003866545E+03  0.88793542949E+02 0.  0.
        -11    1    3    3    0    0  0.23889001323E+02 -0.25039483349E+02  0.68670818490E+02  0.76898253704E+02  0.00000000000E+00 0.  1.
         11    1    3    3    0    0 -0.42994275959E+02  0.15011016422E+02  0.98149266161E+01  0.46585095941E+02  0.00000000000E+00 0. -1.
        -13    1    4    4    0    0 -0.33412874962E+02 -0.15174645796E+02 -0.15113369381E+03  0.15552518604E+03  0.00000000000E+00 0. -1.
         13    1    4    4    0    0  0.35044430156E+02  0.38691435854E+02 -0.12397070965E+03  0.13451347942E+03  0.00000000000E+00 0.  1.
          2    1    1    2  501    0  0.17473719442E+02 -0.13488323130E+02 -0.96591898634E+02  0.99082090277E+02  0.00000000000E+00 0. -1.
<scales pt_clust_5="13000.00000" pt_clust_6="13000.00000" pt_clust_7="13000.00000" pt_clust_8="13000.00000" pt_clust_9="22.07410"></scales>
<clustering>
<clus scale="   22.074">  2  9  1 -1</clus>
<clus scale="   88.794">  7  8 -1 -1</clus>
<clus scale="   91.232">  2  7  1 -1</clus>
<clus scale="   92.858">  5  6 -1 -1</clus>
<clus scale="   22.074">  2  5  1 -1</clus>
</clustering>
</event>
<event>
 9    1  0.3288491E-005  0.1400314E+03  0.7546771E-02  0.1213583E+00
          1   -1    0    0  502    0 -0.00000000000E+00  0.00000000000E+00  0.17898513975E+03  0.17898513975E+03  0.00000000000E+00 0. -1.
         21   -1    0    0  501  502  0.00000000000E+00 -0.00000000000E+00 -0.31072727256E+03  0.31072727256E+03  0.00000000000E+00 0. -1.
         23    2    1    2    0    0 -0.10754984743E+03  0.44778843239E+02  0.11437714966E+03  0.18681968315E+03  0.90814906070E+02 0.  0.
         23    2    1    2    0    0  0.54697705731E+02 -0.44970780313E+02 -0.11720058018E+03  0.16356068862E+03  0.89453411186E+02 0.  0.
        -13    1    3    3    0    0 -0.34752985750E+02  0.14817151884E+01 -0.10133975358E+02  0.36230690788E+02  0.00000000000E+00 0.  1.
         13    1    3    3    0    0 -0.72796861680E+02  0.43297128051E+02  0.12451112502E+03  0.15058899236E+03  0.00000000000E+00 0. -1.
        -13    1    4    4    0    0 -0.17346662865E+01  0.21104282371E+02 -0.51991224245E+01  0.21804372853E+02  0.00000000000E+00 0. -1.
         13    1    4    4    0    0  0.56432372018E+02 -0.66075062684E+02 -0.11200145776E+03  0.14175631577E+03  0.00000000000E+00 0.  1.
          1    1    1    2  501    0  0.52852141698E+02  0.19193707349E+00 -0.12891870229E+03  0.13933204054E+03  0.00000000000E+00 0. -1.
<scales pt_clust_5="13000.00000" pt_clust_6="13000.00000" pt_clust_7="13000.00000" pt_clust_8="13000.00000" pt_clust_9="52.85249"></scales>
<clustering>
<clus scale="   52.852">  2  9  1 -1</clus>
<clus scale="   89.453">  7  8 -1 -1</clus>
<clus scale="   90.815">  5  6 -1 -1</clus>
<clus scale="  139.152">  2  7  1 -1</clus>
<clus scale="   52.852">  2  5  1 -1</clus>
</clustering>
</event>
<event>
 9    1  0.3288491E-005  0.9646662E+02  0.7546771E-02  0.1288407E+00
         -2   -1    0    0    0  501 -0.00000000000E+00  0.00000000000E+00  0.62863811637E+02  0.62863811637E+02  0.00000000000E+00 0.  1.
         21   -1    0    0  501  502  0.00000000000E+00 -0.00000000000E+00 -0.32424745722E+03  0.32424745722E+03  0.00000000000E+00 0. -1.
         23    2    1    2    0    0 -0.42553035231E+02  0.62830789623E+01 -0.93093653960E+01  0.10000031992E+03  0.89795110180E+02 0.  0.
         23    2    1    2    0    0  0.51252309959E+01  0.12169765564E+02 -0.13848935208E+03  0.16610316450E+03  0.90755657839E+02 0.  0.
        -11    1    3    3    0    0  0.17032246959E+02 -0.24621326267E+02  0.73781356120E+01  0.30834137392E+02  0.00000000000E+00 0.  1.
         11    1    3    3    0    0 -0.59585282190E+02  0.30904405229E+02 -0.16687501008E+02  0.69166182532E+02  0.00000000000E+00 0. -1.
        -11    1    4    4    0    0 -0.16472663951E+02  0.27539304619E+02 -0.13570671283E+03  0.13944918022E+03  0.00000000000E+00 0. -1.
         11    1    4    4    0    0  0.21597894947E+02 -0.15369539055E+02 -0.27826392530E+01  0.26653984282E+02  0.00000000000E+00 0.  1.
         -2    1    1    2    0  502  0.37427804235E+02 -0.18452844526E+02 -0.11358492811E+03  0.12100778444E+03  0.00000000000E+00 0.  1.
<scales pt_clust_5="13000.00000" pt_clust_6="13000.00000" pt_clust_7="13000.00000" pt_clust_8="13000.00000" pt_clust_9="41.72946"></scales>
<clustering>
<clus scale="   41.729">  2  9  1 -1</clus>
<clus scale="   89.795">  5  6 -1 -1</clus>
<clus scale="   90.756">  7  8 -1 -1</clus>
<clus scale="   95.563">  1  5  2 -1</clus>
<clus scale="   41.729">  2  5  1 -1</clus>
</clustering>
</event>
<event>
 9    1  0.3288491E-005  0.9590451E+02  0.7546771E-02  0.1289791E+00
         21   -1    0    0  501  502  0.00000000000E+00  0.00000000000E+00  0.17773503195E+03  0.17773503195E+03  0.00000000000E+00 0. -1.
         -4   -1    0    0    0  501 -0.00000000000E+00 -0.00000000000E+00 -0.12876415602E+03  0.12876415602E+03  0.00000000000E+00 0.  1.
         23    2    1    2    0    0 -0.15573746540E+02  0.26751578911E+02 -0.82861850741E+02  0.12618666331E+03  0.89993328270E+02 0.  0.
         23    2    1    2    0    0  0.84499325569E+01 -0.46913846200E+02  0.99983037189E+02  0.14195019330E+03  0.88774654747E+02 0.  0.
        -13    1    4    4    0    0  0.42286787021E+02 -0.46253917410E+01  0.24636214265E+02  0.49158007065E+02  0.00000000000E+00 0.  1.
         13    1    4    4    0    0 -0.33836854464E+02 -0.42288454459E+02  0.75346822924E+02  0.92792186230E+02  0.00000000000E+00 0. -1.
        -13    1    3    3    0    0  0.10471742906E+02  0.54458723432E+02 -0.60503943615E+02  0.82073973648E+02  0.00000000000E+00 0.  1.
         13    1    3    3    0    0 -0.26045489446E+02 -0.27707144521E+02 -0.22357907126E+02  0.44112689660E+02  0.00000000000E+00 0. -1.
         -4    1    1    2    0  502  0.71238139833E+01  0.20162267289E+02  0.31849689486E+02  0.38362331371E+02  0.00000000000E+00 0.  1.
<scales pt_clust_5="13000.00000" pt_clust_6="13000.00000" pt_clust_7="13000.00000" pt_clust_8="13000.00000" pt_clust_9="21.38377"></scales>
<clustering>
<clus scale="   21.384">  1  9  2 -1</clus>
<clus scale="   88.775">  5  6 -1 -1</clus>
<clus scale="   89.993">  7  8 -1 -1</clus>
<clus scale="   94.762">  1  5  2 -1</clus>
<clus scale="   21.384">  1  5  2 -1</clus>
</clustering>
</event>
<event>
 9    1  0.3288491E-005  0.1156756E+03  0.7546771E-02  0.1250578E+00
         21   -1    0    0  501  502  0.00000000000E+00  0.00000000000E+00  0.26615186348E+02  0.26615186348E+02  0.00000000000E+00 0. -1.
          1   -1    0    0  502    0 -0.00000000000E+00 -0.00000000000E+00 -0.70426610204E+03  0.70426610204E+03  0.00000000000E+00 0. -1.
         23    2    1    2    0    0 -0.17047602929E+02  0.54519128952E+02 -0.25807566122E+03  0.27976781528E+03  0.91673482364E+02 0.  0.
         23    2    1    2    0    0  0.48697760027E+02 -0.72289568679E+02 -0.28962199298E+03  0.31618619215E+03  0.92171338917E+02 0.  0.
        -11    1    4    4    0    0 -0.67603638620E+01 -0.56093507185E+02 -0.74856088392E+02  0.93784956348E+02  0.00000000000E+00 0. -1.
         11    1    4    4    0    0  0.55458123889E+02 -0.16196061494E+02 -0.21476590459E+03  0.22240123580E+03  0.00000000000E+00 0.  1.
        -13    1    3    3    0    0  0.17764596938E+02  0.59842109276E+02 -0.10052970305E+03  0.11833376586E+03  0.00000000000E+00 0.  1.
         13    1    3    3    0    0 -0.34812199868E+02 -0.53229803242E+01 -0.15754595816E+03  0.16143404942E+03  0.00000000000E+00 0. -1.
          1    1    1    2  501    0 -0.31650157097E+02  0.17770439727E+02 -0.12995326150E+03  0.13492728096E+03  0.00000000000E+00 0. -1.
<scales pt_clust_5="13000.00000" pt_clust_6="13000.00000" pt_clust_7="13000.00000" pt_clust_8="13000.00000" pt_clust_9="36.29769"></scales>
<clustering>
<clus scale="   36.298">  1  9  2 -1</clus>
<clus scale="   91.673">  7  8 -1 -1</clus>
<clus scale="   92.171">  5  6 -1 -1</clus>
<clus scale="  115.279">  2  7  1 -1</clus>
<clus scale="   36.298">  1  5  2 -1</clus>
</clustering>
</event>
<event>
 9    1  0.3288491E-005  0.1015338E+03  0.7546771E-02  0.1279932E+00
         21   -1    0    0  501  502  0.00000000000E+00  0.00000000000E+00  0.16187762950E+03  0.16187762950E+03  0.00000000000E+00 0. -1.
         -1   -1    0    0    0  501 -0.00000000000E+00 -0.00000000000E+00 -0.97335261629E+02  0.97335261629E+02  0.00000000000E+00 0.  1.
         23    2    1    2    0    0  0.28885401995E+02  0.53868356672E+01 -0.19994517565E+02  0.97112578988E+02  0.90375261096E+02 0.  0.
         23    2    1    2    0    0 -0.33657061096E+02 -0.26719335926E+02  0.40127232670E+02  0.11260221565E+03  0.96033033341E+02 0.  0.
        -11    1    3    3    0    0 -0.23742082828E+02  0.64649235213E+01  0.19425157623E+02  0.31349935914E+02  0.00000000000E+00 0. -1.
         11    1    3    3    0    0  0.52627484823E+02 -0.10780878541E+01 -0.39419675188E+02  0.65762643074E+02  0.00000000000E+00 0.  1.
        -11    1    4    4    0    0 -0.63492453238E+02 -0.13828218074E+01  0.12587957729E+02  0.64743034329E+02  0.00000000000E+00 0. -1.
         11    1    4    4    0    0  0.29835392143E+02 -0.25336514119E+02  0.27539274941E+02  0.47859181317E+02  0.00000000000E+00 0.  1.
         -1    1    1    2    0  502  0.47716591006E+01  0.21332500259E+02  0.44409652763E+02  0.49498096493E+02  0.00000000000E+00 0.  1.
<scales pt_clust_5="13000.00000" pt_clust_6="13000.00000" pt_clust_7="13000.00000" pt_clust_8="13000.00000" pt_clust_9="21.85965"></scales>
<clustering>
<clus scale="   21.860">  1  9  2 -1</clus>
<clus scale="   90.375">  5  6 -1 -1</clus>
<clus scale="   96.033">  7  8 -1 -1</clus>
<clus scale="   96.200">  2  5  1 -1</clus>
<clus scale="   21.860">  1  5  2 -1</clus>
</clustering>
</event>
<event>
 9    1  0.3288491E-005  0.1088027E+03  0.7546771E-02  0.1263620E+00
         -2   -1    0    0    0  501 -0.00000000000E+00  0.00000000000E+00  0.31351296889E+03  0.31351296889E+03  0.00000000000E+00 0.  1.
         21   -1    0    0  501  502  0.00000000000E+00 -0.00000000000E+00 -0.26858637933E+03  0.26858637933E+03  0.00000000000E+00 0. -1.
         23    2    1    2    0    0 -0.55338925463E+02  0.18156039641E+02  0.28736447014E+03  0.30737757688E+03  0.92252900356E+02 0.  0.
         23    2    1    2    0    0  0.36784015415E+02 -0.35588985718E+02 -0.19222236176E+03  0.21842087769E+03  0.90214210406E+02 0.  0.
        -11    1    3    3    0    0  0.57016141354E+01  0.41728195133E+02  0.13862201164E+03  0.14487861397E+03  0.00000000000E+00 0.  1.
         11    1    3    3    0    0 -0.61040539598E+02 -0.23572155492E+02  0.14874245849E+03  0.16249896291E+03  0.00000000000E+00 0. -1.
        -13    1    4    4    0    0 -0.24093166971E+01  0.22033085963E+02 -0.10220592380E+03  0.10458160710E+03  0.00000000000E+00 0. -1.
         13    1    4    4    0    0  0.39193332112E+02 -0.57622071681E+02 -0.90016437955E+02  0.11383927059E+03  0.00000000000E+00 0.  1.
         -2    1    1    2    0  502  0.18554910048E+02  0.17432946077E+02 -0.50215518821E+02  0.56300893654E+02  0.00000000000E+00 0.  1.
<scales pt_clust_5="13000.00000" pt_clust_6="13000.00000" pt_clust_7="13000.00000" pt_clust_8="13000.00000" pt_clust_9="25.45962"></scales>
<clustering>
<clus scale="   25.460">  2  9  1 -1</clus>
<clus scale="   90.214">  7  8 -1 -1</clus>
<clus scale="   92.253">  5  6 -1 -1</clus>
<clus scale="  107.080">  2  7  1 -1</clus>
<clus scale="   25.460">  2  5  1 -1</clus>
</clustering>
</event>
<event>
 9    1  0.3288491E-005  0.2202174E+03  0.7546771E-02  0.1133733E+00
          1   -1    0    0  502    0 -0.00000000000E+00  0.00000000000E+00  0.16228787349E+04  0.16228787349E+04  0.00000000000E+00 0. -1.
         21   -1    0    0  501  502  0.00000000000E+00 -0.00000000000E+00 -0.42974314185E+02  0.42974314185E+02  0.00000000000E+00 0.  1.
         23    2    1    2    0    0 -0.10571015118E+03  0.15010287577E+03  0.77241109590E+03  0.79889974030E+03  0.88974066996E+02 0.  0.
         23    2    1    2    0    0  0.16319296339E+03 -0.17137745763E+03  0.61427834190E+03  0.66424930993E+03  0.88809279503E+02 0.  0.
        -11    1    3    3    0    0 -0.74653297981E+02  0.13699732538E+03  0.71906402102E+03  0.73579511305E+03  0.00000000000E+00 0. -1.
         11    1    3    3    0    0 -0.31056853203E+02  0.13105550384E+02  0.53347074885E+02  0.63104627251E+02  0.00000000000E+00 0.  1.
        -13    1    4    4    0    0  0.12468331445E+03 -0.17349839184E+03  0.50375155445E+03  0.54718666786E+03  0.00000000000E+00 0.  1.
         13    1    4    4    0    0  0.38509648945E+02  0.21209342075E+01  0.11052678745E+03  0.11706264207E+03  0.00000000000E+00 0. -1.
          1    1    1    2  501    0 -0.57482812208E+02  0.21274581866E+02  0.19321498293E+03  0.20270399888E+03  0.00000000000E+00 0. -1.
<scales pt_clust_5="13000.00000" pt_clust_6="13000.00000" pt_clust_7="13000.00000" pt_clust_8="13000.00000" pt_clust_9="61.29344"></scales>
<clustering>
<clus scale="   61.293">  2  9  1 -1</clus>
<clus scale="   88.809">  7  8 -1 -1</clus>
<clus scale="   88.974">  5  6 -1 -1</clus>
<clus scale="  220.151">  2  7  1 -1</clus>
<clus scale="   61.293">  2  5  1 -1</clus>
</clustering>
</event>
<event>
 9    1  0.3288491E-005  0.1537155E+03  0.7546771E-02  0.1218671E+00
          1   -1    0    0  502    0 -0.00000000000E+00  0.00000000000E+00  0.26615313871E+03  0.26615313871E+03  0.00000000000E+00 0. -1.
         21   -1    0    0  501  502  0.00000000000E+00 -0.00000000000E+00 -0.13873142045E+03  0.13873142045E+03  0.00000000000E+00 0. -1.
         23    2    1    2    0    0  0.82770487501E+01 -0.19446994338E+02  0.65719244371E+02  0.11508492754E+03  0.92080542687E+02 0.  0.
         23    2    1    2    0    0 -0.12906662294E+03  0.19118370372E+02  0.56899793558E+02  0.16891416946E+03  0.90943415902E+02 0.  0.
        -11    1    3    3    0    0  0.16727447154E+01 -0.43203223253E+02 -0.17298613427E+01  0.43270185978E+02  0.00000000000E+00 0.  1.
         11    1    3    3    0    0  0.66043040347E+01  0.23756228915E+02  0.67449105714E+02  0.71814741562E+02  0.00000000000E+00 0. -1.
        -13    1    4    4    0    0 -0.68714619047E+01  0.26296482629E+02 -0.10549652477E+02  0.29155053674E+02  0.00000000000E+00 0.  1.
         13    1    4    4    0    0 -0.12219516103E+03 -0.71781122567E+01  0.67449446035E+02  0.13975911579E+03  0.00000000000E+00 0. -1.
          1    1    1    2  501    0  0.12078957418E+03  0.32862396543E+00  0.48026803314E+01  0.12088546217E+03  0.00000000000E+00 0. -1.
<scales pt_clust_5="13000.00000" pt_clust_6="13000.00000" pt_clust_7="13000.00000" pt_clust_8="13000.00000" pt_clust_9="123.92645"></scales>
<clustering>
<clus scale="   90.943">  7  8 -1 -1</clus>
<clus scale="   92.081">  5  6 -1 -1</clus>
<clus scale="   94.475">  1  5  2 -1</clus>
<clus scale="  123.926">  2  9  1 -1</clus>
<clus scale="  123.926">  2  5  1 -1</clus>
</clustering>
</event>
<event>
 9    1  0.3288491E-005  0.1065478E+03  0.7546771E-02  0.1277525E+00
          1   -1    0    0  502    0 -0.00000000000E+00  0.00000000000E+00  0.66641972974E+02  0.66641972974E+02  0.00000000000E+00 0. -1.
         21   -1    0    0  501  502  0.00000000000E+00 -0.00000000000E+00 -0.20609583341E+03  0.20609583341E+03  0.00000000000E+00 0.  1.
         23    2    1    2    0    0  0.17257047952E+01  0.57251091666E+02 -0.41709834296E+02  0.96353533895E+02  0.65296459804E+02 0.  0.
         23    2    1    2    0    0  0.32976719319E+02 -0.55483328664E+02 -0.85195843112E+02  0.13944052982E+03  0.89551470649E+02 0.  0.
        -11    1    3    3    0    0 -0.15976130309E+02  0.27325542595E+02  0.10740332995E+02  0.33425690279E+02  0.00000000000E+00 0. -1.
         11    1    3    3    0    0  0.17701835104E+02  0.29925549071E+02 -0.52450167292E+02  0.62927843616E+02  0.00000000000E+00 0.  1.
        -13    1    4    4    0    0 -0.20053735284E+02  0.12024570365E+02 -0.27053246324E+02  0.35757806532E+02  0.00000000000E+00 0. -1.
         13    1    4    4    0    0  0.53030454603E+02 -0.67507899028E+02 -0.58142596787E+02  0.10368272328E+03  0.00000000000E+00 0.  1.
          1    1    1    2  501    0 -0.34702424114E+02 -0.17677630030E+01 -0.12548183030E+02  0.36943742675E+02  0.00000000000E+00 0. -1.
<scales pt_clust_5="13000.00000" pt_clust_6="13000.00000" pt_clust_7="13000.00000" pt_clust_8="13000.00000" pt_clust_9="34.74744"></scales>
<clustering>
<clus scale="   34.747">  2  9  1 -1</clus>
<clus scale="   65.296">  5  6 -1 -1</clus>
<clus scale="   87.158">  1  5  2 -1</clus>
<clus scale="   89.551">  7  8 -1 -1</clus>
<clus scale="   34.747">  2  5  1 -1</clus>
</clustering>
</event>
<event>
 9    1  0.3288491E-005  0.1939808E+03  0.7546771E-02  0.1162412E+00
          1   -1    0    0  502    0 -0.00000000000E+00  0.00000000000E+00  0.26041512472E+03  0.26041512472E+03  0.00000000000E+00 0. -1.
         21   -1    0    0  501  502  0.00000000000E+00 -0.00000000000E+00 -0.34108734085E+03  0.34108734085E+03  0.00000000000E+00 0. -1.
         23    2    1    2    0    0  0.99472881307E+02 -0.91764634743E+02 -0.11201792247E+03  0.19767050898E+03  0.90609121300E+02 0.  0.
         23    2    1    2    0    0 -0.21074235866E+03 -0.37376539473E+02  0.42471864389E+02  0.23300417529E+03  0.81717433902E+02 0.  0.
        -13    1    3    3    0    0  0.44543327826E+02 -0.76320559899E+02 -0.21956352235E+02  0.91055023588E+02  0.00000000000E+00 0. -1.
         13    1    3    3    0    0  0.54929553481E+02 -0.15444074844E+02 -0.90061570231E+02  0.10661548539E+03  0.00000000000E+00 0.  1.
        -13    1    4    4    0    0 -0.24660786364E+02  0.27908895250E+01 -0.20816181778E+02  0.32392234753E+02  0.00000000000E+00 0.  1.
         13    1    4    4    0    0 -0.18608157229E+03 -0.40167428998E+02  0.63288046168E+02  0.20061194054E+03  0.00000000000E+00 0. -1.
          1    1    1    2  501    0  0.11126947735E+03  0.12914117422E+03 -0.11126158054E+02  0.17082778129E+03  0.00000000000E+00 0. -1.
<scales pt_clust_5="13000.00000" pt_clust_6="13000.00000" pt_clust_7="13000.00000" pt_clust_8="13000.00000" pt_clust_9="175.92842"></scales>
<clustering>
<clus scale="   81.717">  7  8 -1 -1</clus>
<clus scale="   90.609">  5  6 -1 -1</clus>
<clus scale="  162.867">  1  5  2 -1</clus>
<clus scale="  175.928">  2  9  1 -1</clus>
<clus scale="  175.928">  2  5  1 -1</clus>
</clustering>
</event>
<event>
 9    1  0.3288491E-005  0.1857983E+03  0.7546771E-02  0.1162833E+00
          1   -1    0    0  502    0 -0.00000000000E+00  0.00000000000E+00  0.87771181337E+02  0.87771181337E+02  0.00000000000E+00 0. -1.
         21   -1    0    0  501  502  0.00000000000E+00 -0.00000000000E+00 -0.57110421640E+03  0.57110421640E+03  0.00000000000E+00 0. -1.
         23    2    1    2    0    0  0.96535718307E+02  0.10541741821E+03 -0.15418698354E+03  0.23011162652E+03  0.93518756383E+02 0.  0.
         23    2    1    2    0    0 -0.93729303837E+02 -0.15773320494E+03 -0.18474518965E+03  0.27515248773E+03  0.88955944527E+02 0.  0.
        -11    1    4    4    0    0 -0.25998212045E+02  0.60116603535E+01 -0.22807404123E+02  0.35103059305E+02  0.00000000000E+00 0.  1.
         11    1    4    4    0    0 -0.67731091791E+02 -0.16374486530E+03 -0.16193778552E+03  0.24004942842E+03  0.00000000000E+00 0. -1.
        -13    1    3    3    0    0 -0.75340514920E+01  0.54225015044E+02 -0.45989572456E+02  0.71499335403E+02  0.00000000000E+00 0. -1.
         13    1    3    3    0    0  0.10406976980E+03  0.51192403164E+02 -0.10819741109E+03  0.15861229112E+03  0.00000000000E+00 0.  1.
          1    1    1    2  501    0 -0.28064144710E+01  0.52315786737E+02 -0.14440086187E+03  0.15361128348E+03  0.00000000000E+00 0. -1.
<scales pt_clust_5="13000.00000" pt_clust_6="13000.00000" pt_clust_7="13000.00000" pt_clust_8="13000.00000" pt_clust_9="52.39101"></scales>
<clustering>
<clus scale="   52.391">  2  9  1 -1</clus>
<clus scale="   88.956">  5  6 -1 -1</clus>
<clus scale="   93.519">  7  8 -1 -1</clus>
<clus scale="  183.544">  2  5  1 -1</clus>
<clus scale="   52.391">  2  5  1 -1</clus>
</clustering>
</event>
<event>
 9    1  0.3288491E-005  0.1022390E+03  0.7546771E-02  0.1276271E+00
         21   -1    0    0  501  502  0.00000000000E+00  0.00000000000E+00  0.67296219989E+02  0.67296219989E+02  0.00000000000E+00 0.  1.
          2   -1    0    0  502    0 -0.00000000000E+00 -0.00000000000E+00 -0.26037474566E+03  0.26037474566E+03  0.00000000000E+00 0. -1.
         23    2    1    2    0    0  0.50619524169E+02 -0.29251699025E+02 -0.97741193963E+02  0.14590763840E+03  0.91201424452E+02 0.  0.
         23    2    1    2    0    0  0.14146201825E+00  0.40875216746E+02 -0.74721398679E+02  0.12575617970E+03  0.92523110389E+02 0.  0.
        -11    1    4    4    0    0 -0.44056610831E+02  0.35575555134E+02 -0.41026352097E+02  0.69926866421E+02  0.00000000000E+00 0.  1.
         11    1    4    4    0    0  0.44198072850E+02  0.52996616116E+01 -0.33695046581E+02  0.55829313277E+02  0.00000000000E+00 0. -1.
        -13    1    3    3    0    0  0.76395687804E+02 -0.26680453477E+02 -0.83789609718E+02  0.11648539140E+03  0.00000000000E+00 0. -1.
         13    1    3    3    0    0 -0.25776163635E+02 -0.25712455480E+01 -0.13951584245E+02  0.29422246997E+02  0.00000000000E+00 0.  1.
          2    1    1    2  501    0 -0.50760986187E+02 -0.11623517721E+02 -0.20615933033E+02  0.56007147559E+02  0.00000000000E+00 0. -1.
<scales pt_clust_5="13000.00000" pt_clust_6="13000.00000" pt_clust_7="13000.00000" pt_clust_8="13000.00000" pt_clust_9="52.07479"></scales>
<clustering>
<clus scale="   52.075">  1  9  2 -1</clus>
<clus scale="   91.201">  7  8 -1 -1</clus>
<clus scale="   92.523">  5  6 -1 -1</clus>
<clus scale="  101.044">  2  7  1 -1</clus>
<clus scale="   52.075">  1  5  2 -1</clus>
</clustering>
</event>
<event>
 9    1  0.3288491E-005  0.1037503E+03  0.7546771E-02  0.1275819E+00
          2   -1    0    0  502    0 -0.00000000000E+00  0.00000000000E+00  0.25630530564E+03  0.25630530564E+03  0.00000000000E+00 0. -1.
         21   -1    0    0  501  502  0.00000000000E+00 -0.00000000000E+00 -0.86962989381E+02  0.86962989381E+02  0.00000000000E+00 0. -1.
         23    2    1    2    0    0 -0.23578566893E+02  0.11628027595E+02  0.14770350143E+03  0.17690268019E+03  0.93739394490E+02 0.  0.
         23    2    1    2    0    0  0.35616453134E+02  0.29525624755E+02  0.43027795930E+02  0.11844878774E+03  0.10019196496E+03 0.  0.
        -11    1    4    4    0    0 -0.13517251964E+02 -0.29109352781E+02  0.33429365764E+01  0.32268339668E+02  0.00000000000E+00 0.  1.
         11    1    4    4    0    0  0.49133705098E+02  0.58634977536E+02  0.39684859353E+02  0.86180448068E+02  0.00000000000E+00 0. -1.
        -11    1    3    3    0    0 -0.48781098768E+02 -0.19726497812E+02  0.56423464619E+02  0.77151394495E+02  0.00000000000E+00 0.  1.
         11    1    3    3    0    0  0.25202531875E+02  0.31354525408E+02  0.91280036813E+02  0.99751285691E+02  0.00000000000E+00 0. -1.
          2    1    1    2  501    0 -0.12037886241E+02 -0.41153652351E+02 -0.21388981099E+02  0.47916827101E+02  0.00000000000E+00 0. -1.
<scales pt_clust_5="13000.00000" pt_clust_6="13000.00000" pt_clust_7="13000.00000" pt_clust_8="13000.00000" pt_clust_9="42.87813"></scales>
<clustering>
<clus scale="   42.878">  2  9  1 -1</clus>
<clus scale="   93.739">  7  8 -1 -1</clus>
<clus scale="   97.533">  1  7  2 -1</clus>
<clus scale="  100.192">  5  6 -1 -1</clus>
<clus scale="   42.878">  2  5  1 -1</clus>
</clustering>
</event>
<event>
 9    1  0.3288491E-005  0.1761393E+03  0.7546771E-02  0.1172022E+00
         21   -1    0    0  501  502  0.00000000000E+00  0.00000000000E+00  0.16085634117E+03  0.16085634117E+03  0.00000000000E+00 0.  1.
          2   -1    0    0  502    0 -0.00000000000E+00 -0.00000000000E+00 -0.33190990253E+03  0.33190990253E+03  0.00000000000E+00 0. -1.
         23    2    1    2    0    0 -0.16636318882E+03  0.41062462598E+02 -0.19397286420E+03  0.27554062730E+03  0.94521578582E+02 0.  0.
         23    2    1    2    0    0  0.91056473017E+02 -0.45092403894E+02  0.34619422806E+02  0.14090894273E+03  0.91280992210E+02 0.  0.
        -13    1    4    4    0    0  0.52121039495E+02  0.35084995634E+00 -0.23782552365E+02  0.57291671740E+02  0.00000000000E+00 0. -1.
         13    1    4    4    0    0  0.38935433522E+02 -0.45443253851E+02  0.58401975171E+02  0.83617270991E+02  0.00000000000E+00 0.  1.
        -13    1    3    3    0    0 -0.83652056760E+02 -0.24641464270E+02 -0.64630040233E+02  0.10854450913E+03  0.00000000000E+00 0.  1.
         13    1    3    3    0    0 -0.82711132064E+02  0.65703926867E+02 -0.12934282396E+03  0.16699611817E+03  0.00000000000E+00 0. -1.
          2    1    1    2  501    0  0.75306715807E+02  0.40299412963E+01 -0.11700119966E+02  0.76316673668E+02  0.00000000000E+00 0. -1.
<scales pt_clust_5="13000.00000" pt_clust_6="13000.00000" pt_clust_7="13000.00000" pt_clust_8="13000.00000" pt_clust_9="75.41447"></scales>
<clustering>
<clus scale="   75.414">  1  9  2 -1</clus>
<clus scale="   91.281">  5  6 -1 -1</clus>
<clus scale="   94.522">  7  8 -1 -1</clus>
<clus scale="  174.422">  1  5  2 -1</clus>
<clus scale="   75.414">  1  5  2 -1</clus>
</clustering>
</event>
<event>
 9    1  0.3288491E-005  0.1950301E+03  0.7546771E-02  0.1154140E+00
         21   -1    0    0  501  502  0.00000000000E+00  0.00000000000E+00  0.20344514694E+03  0.20344514694E+03  0.00000000000E+00 0. -1.
          2   -1    0    0  502    0 -0.00000000000E+00 -0.00000000000E+00 -0.63395725882E+03  0.63395725882E+03  0.00000000000E+00 0. -1.
         23    2    1    2    0    0  0.15664593158E+03 -0.10103524021E+03 -0.54494897568E+03  0.58291018733E+03  0.89826681746E+02 0.  0.
         23    2    1    2    0    0 -0.67587428233E+02  0.67948336026E+02  0.65383031324E+02  0.14756963557E+03  0.91196599350E+02 0.  0.
        -11    1    3    3    0    0  0.55408135659E+02 -0.84520792140E+02 -0.32218804369E+03  0.33766693841E+03  0.00000000000E+00 0. -1.
         11    1    3    3    0    0  0.10123779592E+03 -0.16514448067E+02 -0.22276093200E+03  0.24524324892E+03  0.00000000000E+00 0.  1.
        -13    1    4    4    0    0 -0.39788751364E+02  0.53388530894E+02 -0.86657317044E+01  0.67145922230E+02  0.00000000000E+00 0.  1.
         13    1    4    4    0    0 -0.27798676869E+02  0.14559805132E+02  0.74048763029E+02  0.80423713339E+02  0.00000000000E+00 0. -1.
          2    1    1    2  501    0 -0.89058503342E+02  0.33086904181E+02  0.49053832480E+02  0.10692258287E+03  0.00000000000E+00 0. -1.
<scales pt_clust_5="13000.00000" pt_clust_6="13000.00000" pt_clust_7="13000.00000" pt_clust_8="13000.00000" pt_clust_9="95.00611"></scales>
<clustering>
<clus scale="   89.827">  5  6 -1 -1</clus>
<clus scale="   91.197">  7  8 -1 -1</clus>
<clus scale="   95.006">  1  9  2 -1</clus>
<clus scale="  194.393">  2  5  1 -1</clus>
<clus scale="   95.006">  1  5  2 -1</clus>
</clustering>
</event>
<event>
 9    1  0.3288491E-005  0.1064358E+03  0.7546771E-02  0.1269890E+00
         21   -1    0    0  501  502  0.00000000000E+00  0.00000000000E+00  0.13214841459E+03  0.13214841459E+03  0.00000000000E+00 0.  1.
          3   -1    0    0  502    0 -0.00000000000E+00 -0.00000000000E+00 -0.23969101249E+03  0.23969101249E+03  0.00000000000E+00 0. -1.
         23    2    1    2    0    0 -0.39601603859E+02 -0.10397200990E+02 -0.17372217896E+03  0.20085271362E+03  0.92119641165E+02 0.  0.
         23    2    1    2    0    0  0.39154522519E+02  0.31669688401E+02  0.94458936849E+01  0.11039438815E+03  0.97783691024E+02 0.  0.
        -11    1    3    3    0    0  0.16132997278E+02  0.19597904462E+02 -0.13870418829E+02  0.28926458113E+02  0.00000000000E+00 0.  1.
         11    1    3    3    0    0 -0.55734601136E+02 -0.29995105452E+02 -0.15985176013E+03  0.17192625551E+03  0.00000000000E+00 0. -1.
        -13    1    4    4    0    0  0.20309551450E+02  0.62076553791E+02 -0.15065499878E+02  0.67029439034E+02  0.00000000000E+00 0.  1.
         13    1    4    4    0    0  0.18844971069E+02 -0.30406865390E+02  0.24511393563E+02  0.43364949116E+02  0.00000000000E+00 0. -1.
          3    1    1    2  501    0  0.44708133963E+00 -0.21272487411E+02  0.56733687381E+02  0.60592325308E+02  0.00000000000E+00 0. -1.
<scales pt_clust_5="13000.00000" pt_clust_6="13000.00000" pt_clust_7="13000.00000" pt_clust_8="13000.00000" pt_clust_9="21.27719"></scales>
<clustering>
<clus scale="   21.277">  1  9  2 -1</clus>
<clus scale="   92.120">  5  6 -1 -1</clus>
<clus scale="   97.784">  7  8 -1 -1</clus>
<clus scale="  101.257">  2  5  1 -1</clus>
<clus scale="   21.277">  1  5  2 -1</clus>
</clustering>
</event>
<event>
 9    1  0.3288491E-005  0.1121343E+03  0.7546771E-02  0.1256780E+00
         21   -1    0    0  501  502  0.00000000000E+00  0.00000000000E+00  0.13266170780E+03  0.13266170780E+03  0.00000000000E+00 0.  1.
          1   -1    0    0  502    0 -0.00000000000E+00 -0.00000000000E+00 -0.12797618721E+03  0.12797618721E+03  0.00000000000E+00 0. -1.
         23    2    1    2    0    0  0.45862249383E+02 -0.37126879464E+02 -0.23752990794E+02  0.10999970190E+03  0.89743962193E+02 0.  0.
         23    2    1    2    0    0 -0.72581719514E+02  0.35927578667E+02  0.21516945641E+02  0.12301073432E+03  0.90054233062E+02 0.  0.
        -11    1    4    4    0    0 -0.49983178483E+02 -0.24798020198E+02  0.42664609718E+01  0.55959473070E+02  0.00000000000E+00 0. -1.
         11    1    4    4    0    0 -0.22598541031E+02  0.60725598865E+02  0.17250484669E+02  0.67051261253E+02  0.00000000000E+00 0.  1.
        -11    1    3    3    0    0  0.65017151252E+02 -0.24532882564E+02  0.89463515882E+01  0.70065180300E+02  0.00000000000E+00 0.  1.
         11    1    3    3    0    0 -0.19154901869E+02 -0.12593996900E+02 -0.32699342382E+02  0.39934521604E+02  0.00000000000E+00 0. -1.
          1    1    1    2  501    0  0.26719470131E+02  0.11993007967E+01  0.69215657458E+01  0.27627458784E+02  0.00000000000E+00 0. -1.
<scales pt_clust_5="13000.00000" pt_clust_6="13000.00000" pt_clust_7="13000.00000" pt_clust_8="13000.00000" pt_clust_9="26.74637"></scales>
<clustering>
<clus scale="   26.746">  1  9  2 -1</clus>
<clus scale="   89.744">  7  8 -1 -1</clus>
<clus scale="   90.054">  5  6 -1 -1</clus>
<clus scale="  111.885">  2  7  1 -1</clus>
<clus scale="   26.746">  1  5  2 -1</clus>
</clustering>
</event>
<event>
 9    1  0.3288491E-005  0.2119468E+03  0.7546771E-02  0.1140054E+00
          2   -1    0    0  502    0 -0.00000000000E+00  0.00000000000E+00  0.84098582241E+03  0.84098582241E+03  0.00000000000E+00 0. -1.
         21   -1    0    0  501  502  0.00000000000E+00 -0.00000000000E+00 -0.24607329691E+03  0.24607329691E+03  0.00000000000E+00 0. -1.
         23    2    1    2    0    0  0.36107528775E+02 -0.20042673165E+03  0.74059487377E+03  0.77330685876E+03  0.89711216451E+02 0.  0.
         23    2    1    2    0    0 -0.17036760683E+02  0.13086996280E+03 -0.95867611046E+01  0.15972678496E+03  0.89462514310E+02 0.  0.
        -11    1    3    3    0    0  0.31749662507E+02 -0.27918661469E+02  0.24272207867E+03  0.24637674444E+03  0.00000000000E+00 0.  1.
         11    1    3    3    0    0  0.43578662677E+01 -0.17250807018E+03  0.49787279510E+03  0.52693011432E+03  0.00000000000E+00 0. -1.
        -13    1    4    4    0    0  0.26064943965E+02  0.10394016162E+03 -0.16550278535E+02  0.10842901005E+03  0.00000000000E+00 0.  1.
         13    1    4    4    0    0 -0.43101704648E+02  0.26929801179E+02  0.69635174308E+01  0.51297774904E+02  0.00000000000E+00 0. -1.
          2    1    1    2  501    0 -0.19070768092E+02  0.69556768847E+02 -0.13609558716E+03  0.15402547560E+03  0.00000000000E+00 0. -1.
<scales pt_clust_5="13000.00000" pt_clust_6="13000.00000" pt_clust_7="13000.00000" pt_clust_8="13000.00000" pt_clust_9="72.12377"></scales>
<clustering>
<clus scale="   72.124">  2  9  1 -1</clus>
<clus scale="   89.463">  7  8 -1 -1</clus>
<clus scale="   89.711">  5  6 -1 -1</clus>
<clus scale="  211.842">  2  7  1 -1</clus>
<clus scale="   72.124">  2  5  1 -1</clus>
</clustering>
</event>
<event>
 9    1  0.3288491E-005  0.1489809E+03  0.7546771E-02  0.1205288E+00
         21   -1    0    0  501  502  0.00000000000E+00  0.00000000000E+00  0.18851935242E+03  0.18851935242E+03  0.00000000000E+00 0.  1.
          3   -1    0    0  502    0 -0.00000000000E+00 -0.00000000000E+00 -0.23232219030E+03  0.23232219030E+03  0.00000000000E+00 0. -1.
         23    2    1    2    0    0  0.14309220515E+02 -0.10221735303E+03 -0.92722479934E+02  0.15984966163E+03  0.79380822519E+02 0.  0.
         23    2    1    2    0    0 -0.27200226807E+02  0.12872059856E+03 -0.39054013086E+02  0.16821276671E+03  0.97270109048E+02 0.  0.
        -11    1    4    4    0    0  0.22155380306E+02  0.40967680708E+02 -0.48313513319E+02  0.67107431096E+02  0.00000000000E+00 0. -1.
         11    1    4    4    0    0 -0.49355607113E+02  0.87752917856E+02  0.92595002324E+01  0.10110533562E+03  0.00000000000E+00 0.  1.
        -13    1    3    3    0    0  0.11488266368E+02 -0.53243171187E+02  0.54164576246E+00  0.54471175150E+02  0.00000000000E+00 0.  1.
         13    1    3    3    0    0  0.28209541477E+01 -0.48974181847E+02 -0.93264125697E+02  0.10537848648E+03  0.00000000000E+00 0. -1.
          3    1    1    2  501    0  0.12891006292E+02 -0.26503245530E+02  0.87973655135E+02  0.92779114378E+02  0.00000000000E+00 0. -1.
<scales pt_clust_5="13000.00000" pt_clust_6="13000.00000" pt_clust_7="13000.00000" pt_clust_8="13000.00000" pt_clust_9="29.47202"></scales>
<clustering>
<clus scale="   29.472">  1  9  2 -1</clus>
<clus scale="   79.381">  7  8 -1 -1</clus>
<clus scale="   97.270">  5  6 -1 -1</clus>
<clus scale="  137.968">  2  7  1 -1</clus>
<clus scale="   29.472">  1  5  2 -1</clus>
</clustering>
</event>
<event>
 9    1  0.3288491E-005  0.1358053E+03  0.7546771E-02  0.1219655E+00
         21   -1    0    0  501  502  0.00000000000E+00  0.00000000000E+00  0.49830895313E+03  0.49830895313E+03  0.00000000000E+00 0. -1.
          1   -1    0    0  502    0 -0.00000000000E+00 -0.00000000000E+00 -0.10569339551E+03  0.10569339551E+03  0.00000000000E+00 0. -1.
         23    2    1    2    0    0 -0.86539849523E+02 -0.66145408281E+02 -0.18745240531E+02  0.14304499742E+03  0.90808186040E+02 0.  0.
         23    2    1    2    0    0  0.86330983223E+01  0.84632139178E+02  0.29714532358E+03  0.32147116648E+03  0.88381209429E+02 0.  0.
        -13    1    4    4    0    0 -0.27838854009E+02  0.22756834003E+02  0.37002389011E+02  0.51595078049E+02  0.00000000000E+00 0. -1.
         13    1    4    4    0    0  0.36471952331E+02  0.61875305175E+02  0.26014293457E+03  0.26987608843E+03  0.00000000000E+00 0.  1.
        -13    1    3    3    0    0  0.18975763716E+02 -0.10837100589E+02 -0.85915758127E+01  0.23480577777E+02  0.00000000000E+00 0.  1.
         13    1    3    3    0    0 -0.10551561324E+03 -0.55308307692E+02 -0.10153664718E+02  0.11956441964E+03  0.00000000000E+00 0. -1.
          1    1    1    2  501    0  0.77906751201E+02 -0.18486730896E+02  0.11421547457E+03  0.13948618474E+03  0.00000000000E+00 0. -1.
<scales pt_clust_5="13000.00000" pt_clust_6="13000.00000" pt_clust_7="13000.00000" pt_clust_8="13000.00000" pt_clust_9="80.07010"></scales>
<clustering>
<clus scale="   80.070">  1  9  2 -1</clus>
<clus scale="   88.381">  5  6 -1 -1</clus>
<clus scale="   90.808">  7  8 -1 -1</clus>
<clus scale="  134.195">  1  5  2 -1</clus>
<clus scale="   80.070">  1  5  2 -1</clus>
</clustering>
</event>
<event>
 9    1  0.3288491E-005  0.1337205E+03  0.7546771E-02  0.1226926E+00
          3   -1    0    0  502    0 -0.00000000000E+00  0.00000000000E+00  0.27905082222E+03  0.27905082222E+03  0.00000000000E+00 0. -1.
         21   -1    0    0  501  502  0.00000000000E+00 -0.00000000000E+00 -0.13165634693E+03  0.13165634693E+03  0.00000000000E+00 0. -1.
         23    2    1    2    0    0 -0.64680668013E+02  0.79862011004E+02  0.16346197794E+03  0.21340623597E+03  0.90889348679E+02 0.  0.
         23    2    1    2    0    0 -0.53002816806E+01 -0.35061770799E+02 -0.34418949324E+01  0.11325451260E+03  0.10750496372E+03 0.  0.
        -11    1    3    3    0    0 -0.87832341044E+02  0.63534697062E+02  0.12216720061E+03  0.16332789954E+03  0.00000000000E+00 0. -1.
         11    1    3    3    0    0  0.23151673031E+02  0.16327313941E+02  0.41294777336E+02  0.50078336434E+02  0.00000000000E+00 0.  1.
        -13    1    4    4    0    0 -0.33053413308E+02 -0.57449833260E+02  0.21567694946E+02  0.69700623657E+02  0.00000000000E+00 0. -1.
         13    1    4    4    0    0  0.27753131627E+02  0.22388062461E+02 -0.25009589879E+02  0.43553888940E+02  0.00000000000E+00 0.  1.
          3    1    1    2  501    0  0.69980949694E+02 -0.44800240205E+02 -0.12625607726E+02  0.84046420583E+02  0.00000000000E+00 0. -1.
<scales pt_clust_5="13000.00000" pt_clust_6="13000.00000" pt_clust_7="13000.00000" pt_clust_8="13000.00000" pt_clust_9="83.09269"></scales>
<clustering>
<clus scale="   83.093">  2  9  1 -1</clus>
<clus scale="   90.889">  5  6 -1 -1</clus>
<clus scale="  107.505">  7  8 -1 -1</clus>
<clus scale="  120.767">  1  5  2 -1</clus>
<clus scale="   83.093">  2  5  1 -1</clus>
</clustering>
</event>
<event>
 9    1  0.3288491E-005  0.1751132E+03  0.7546771E-02  0.1173942E+00
         -1   -1    0    0    0  501 -0.00000000000E+00  0.00000000000E+00  0.44029603811E+03  0.44029603811E+03  0.00000000000E+00 0.  1.
         21   -1    0    0  501  502  0.00000000000E+00 -0.00000000000E+00 -0.33397936130E+03  0.33397936130E+03  0.00000000000E+00 0.  1.
         23    2    1    2    0    0 -0.92159753880E+02 -0.11145811126E+03  0.37554796990E+03  0.41464174115E+03  0.99875747840E+02 0.  0.
         23    2    1    2    0    0  0.72884151211E+02  0.11814700486E+03 -0.10950075740E+03  0.19860529373E+03  0.90459010440E+02 0.  0.
        -11    1    4    4    0    0  0.83030481631E+02  0.93815144516E+02 -0.11676695014E+03  0.17125963583E+03  0.00000000000E+00 0. -1.
         11    1    4    4    0    0 -0.10146330420E+02  0.24331860344E+02  0.72661927380E+01  0.27345657895E+02  0.00000000000E+00 0.  1.
        -11    1    3    3    0    0 -0.98780924548E+02 -0.51757729590E+02  0.19849146594E+03  0.22767388009E+03  0.00000000000E+00 0.  1.
         11    1    3    3    0    0  0.66211706674E+01 -0.59700381669E+02  0.17705650396E+03  0.18696786105E+03  0.00000000000E+00 0. -1.
         -1    1    1    2    0  502  0.19275602670E+02 -0.66888936017E+01 -0.15973053569E+03  0.16102836454E+03  0.00000000000E+00 0.  1.
<scales pt_clust_5="13000.00000" pt_clust_6="13000.00000" pt_clust_7="13000.00000" pt_clust_8="13000.00000" pt_clust_9="20.40319"></scales>
<clustering>
<clus scale="   20.403">  2  9  1 -1</clus>
<clus scale="   90.459">  5  6 -1 -1</clus>
<clus scale="   99.876">  7  8 -1 -1</clus>
<clus scale="  169.918">  2  5  1 -1</clus>
<clus scale="   20.403">  2  5  1 -1</clus>
</clustering>
</event>
<event>
 9    1  0.5162676E-005  0.1187999E+03  0.7546771E-02  0.1245681E+00
          3   -1    0    0  502    0 -0.00000000000E+00  0.00000000000E+00  0.64515140286E+03  0.64515140286E+03  0.00000000000E+00 0. -1.
         21   -1    0    0  501  502  0.00000000000E+00 -0.00000000000E+00 -0.12805666375E+03  0.12805666375E+03  0.00000000000E+00 0. -1.
         23    2    1    2    0    0  0.47419907107E+02  0.68668348071E+02  0.56767675140E+03  0.58081298014E+03  0.90126767407E+02 0.  0.
         23    2    1    2    0    0 -0.35192708195E+02  0.18486814415E+01  0.95292162372E+01  0.98931106031E+02  0.91948971964E+02 0.  0.
        -11    1    3    3    0    0  0.71666015648E+02  0.58869240644E+02  0.49404919715E+03  0.50267903726E+03  0.00000000000E+00 0. -1.
         11    1    3    3    0    0 -0.24246108542E+02  0.97991074268E+01  0.73627554252E+02  0.78133942886E+02  0.00000000000E+00 0.  1.
        -11    1    4    4    0    0 -0.10840480177E+02  0.40507018283E+02  0.27158057746E+02  0.49958929545E+02  0.00000000000E+00 0. -1.
         11    1    4    4    0    0 -0.24352228018E+02 -0.38658336842E+02 -0.17628841509E+02  0.48972176486E+02  0.00000000000E+00 0.  1.
          3    1    1    2  501    0 -0.12227198912E+02 -0.70517029512E+02 -0.60111228527E+02  0.93463980439E+02  0.00000000000E+00 0. -1.
<scales pt_clust_5="13000.00000" pt_clust_6="13000.00000" pt_clust_7="13000.00000" pt_clust_8="13000.00000" pt_clust_9="71.56924"></scales>
<clustering>
<clus scale="   71.569">  2  9  1 -1</clus>
<clus scale="   90.127">  5  6 -1 -1</clus>
<clus scale="   91.949">  7  8 -1 -1</clus>
<clus scale="  117.395">  1  5  2 -1</clus>
<clus scale="   71.569">  2  5  1 -1</clus>
</clustering>
</event>
<event>
 9    1  0.3288491E-005  0.2119222E+03  0.7546771E-02  0.1140847E+00
         -4   -1    0    0    0  501 -0.00000000000E+00  0.00000000000E+00  0.11422753349E+04  0.11422753349E+04  0.00000000000E+00 0.  1.
         21   -1    0    0  501  502  0.00000000000E+00 -0.00000000000E+00 -0.88551948778E+02  0.88551948778E+02  0.00000000000E+00 0.  1.
         23    2    1    2    0    0 -0.17965254369E+03  0.19422411152E+01  0.50789074480E+03  0.54647650549E+03  0.91677443487E+02 0.  0.
         23    2    1    2    0    0  0.19206667005E+03 -0.33063531155E+02  0.58970468516E+03  0.62914750427E+03  0.10045976104E+03 0.  0.
        -11    1    4    4    0    0  0.18884102155E+02 -0.36108754879E+02  0.66237347692E+02  0.77767845042E+02  0.00000000000E+00 0. -1.
         11    1    4    4    0    0  0.17318256789E+03  0.30452237248E+01  0.52346733747E+03  0.55137965923E+03  0.00000000000E+00 0.  1.
        -11    1    3    3    0    0 -0.16962462806E+03  0.27412014235E+02  0.46350895248E+03  0.49433235985E+03  0.00000000000E+00 0. -1.
         11    1    3    3    0    0 -0.10027915628E+02 -0.25469773120E+02  0.44381792325E+02  0.52144145640E+02  0.00000000000E+00 0.  1.
         -4    1    1    2    0  502 -0.12414126359E+02  0.31121290040E+02 -0.43872043810E+02  0.55203273952E+02  0.00000000000E+00 0.  1.
<scales pt_clust_5="13000.00000" pt_clust_6="13000.00000" pt_clust_7="13000.00000" pt_clust_8="13000.00000" pt_clust_9="33.50590"></scales>
<clustering>
<clus scale="   33.506">  2  9  1 -1</clus>
<clus scale="   91.677">  7  8 -1 -1</clus>
<clus scale="  100.460">  5  6 -1 -1</clus>
<clus scale="  207.903">  1  7  2 -1</clus>
<clus scale="   33.506">  2  5  1 -1</clus>
</clustering>
</event>
<event>
 9    1  0.3288491E-005  0.9471947E+02  0.7546771E-02  0.1295743E+00
         21   -1    0    0  501  502  0.00000000000E+00  0.00000000000E+00  0.12134938683E+03  0.12134938683E+03  0.00000000000E+00 0.  1.
          3   -1    0    0  502    0 -0.00000000000E+00 -0.00000000000E+00 -0.10874445379E+03  0.10874445379E+03  0.00000000000E+00 0. -1.
         23    2    1    2    0    0  0.11580343350E+01  0.33727881532E+02 -0.43525294260E+02  0.10002594112E+03  0.83497464751E+02 0.  0.
         23    2    1    2    0    0  0.77401927363E+01 -0.14527432313E+02  0.30720621145E+02  0.97000033227E+02  0.90522334312E+02 0.  0.
        -11    1    4    4    0    0 -0.23972457309E+01 -0.50439948819E+02  0.31336404864E+01  0.50594020661E+02  0.00000000000E+00 0. -1.
         11    1    4    4    0    0  0.10137438467E+02  0.35912516506E+02  0.27586980659E+02  0.46406012566E+02  0.00000000000E+00 0.  1.
        -13    1    3    3    0    0  0.42214710105E+02  0.13741980465E+02 -0.21140577962E+02  0.49171615928E+02  0.00000000000E+00 0.  1.
         13    1    3    3    0    0 -0.41056675770E+02  0.19985901067E+02 -0.22384716298E+02  0.50854325190E+02  0.00000000000E+00 0. -1.
          3    1    1    2  501    0 -0.88982270713E+01 -0.19200449219E+02  0.25409606150E+02  0.33067866274E+02  0.00000000000E+00 0. -1.
<scales pt_clust_5="13000.00000" pt_clust_6="13000.00000" pt_clust_7="13000.00000" pt_clust_8="13000.00000" pt_clust_9="21.16213"></scales>
<clustering>
<clus scale="   21.162">  1  9  2 -1</clus>
<clus scale="   83.497">  7  8 -1 -1</clus>
<clus scale="   88.030">  2  7  1 -1</clus>
<clus scale="   90.522">  5  6 -1 -1</clus>
<clus scale="   21.162">  1  5  2 -1</clus>
</clustering>
</event>
<event>
 9    1  0.3288491E-005  0.1089666E+03  0.7546771E-02  0.1263377E+00
          1   -1    0    0  502    0 -0.00000000000E+00  0.00000000000E+00  0.36593627520E+03  0.36593627520E+03  0.00000000000E+00 0. -1.
         21   -1    0    0  501  502  0.00000000000E+00 -0.00000000000E+00 -0.60410031876E+02  0.60410031876E+02  0.00000000000E+00 0.  1.
         23    2    1    2    0    0 -0.29523528349E+02 -0.35718110601E+02  0.15914816876E+03  0.18803253514E+03  0.88773151916E+02 0.  0.
         23    2    1    2    0    0  0.20715973135E+02  0.83832342238E+02  0.14157331012E+03  0.18916463078E+03  0.91012319243E+02 0.  0.
        -13    1    4    4    0    0 -0.14412828453E+02  0.15847166750E+02  0.99614643253E+02  0.10189180275E+03  0.00000000000E+00 0. -1.
         13    1    4    4    0    0  0.35128801589E+02  0.67985175488E+02  0.41958666862E+02  0.87272828028E+02  0.00000000000E+00 0.  1.
        -13    1    3    3    0    0 -0.14876578525E+02  0.21216971532E+02  0.10104018387E+02  0.27813012371E+02  0.00000000000E+00 0.  1.
         13    1    3    3    0    0 -0.14646949824E+02 -0.56935082133E+02  0.14904415037E+03  0.16021952277E+03  0.00000000000E+00 0. -1.
          1    1    1    2  501    0  0.88075552134E+01 -0.48114231637E+02  0.48047644508E+01  0.49149141155E+02  0.00000000000E+00 0. -1.
<scales pt_clust_5="13000.00000" pt_clust_6="13000.00000" pt_clust_7="13000.00000" pt_clust_8="13000.00000" pt_clust_9="48.91372"></scales>
<clustering>
<clus scale="   48.914">  2  9  1 -1</clus>
<clus scale="   88.773">  7  8 -1 -1</clus>
<clus scale="   91.012">  5  6 -1 -1</clus>
<clus scale="  107.103">  1  7  2 -1</clus>
<clus scale="   48.914">  2  5  1 -1</clus>
</clustering>
</event>
<event>
 9    1  0.3288491E-005  0.1737410E+03  0.7546771E-02  0.1196739E+00
         21   -1    0    0  501  502  0.00000000000E+00  0.00000000000E+00  0.13705743683E+03  0.13705743683E+03  0.00000000000E+00 0. -1.
          2   -1    0    0  502    0 -0.00000000000E+00 -0.00000000000E+00 -0.43631021510E+03  0.43631021510E+03  0.00000000000E+00 0. -1.
         23    2    1    2    0    0  0.37302318027E+00  0.25732957647E+02 -0.15334088490E+03  0.18567858904E+03  0.10149279380E+03 0.  0.
         23    2    1    2    0    0 -0.11110412768E+01  0.12862015345E+03 -0.16961139036E+03  0.23152538679E+03  0.91058237959E+02 0.  0.
        -11    1    4    4    0    0  0.42871207343E+02  0.77255682716E+02 -0.79442736416E+02  0.11881720961E+03  0.00000000000E+00 0. -1.
         11    1    4    4    0    0 -0.43982248620E+02  0.51364470734E+02 -0.90168653946E+02  0.11270817717E+03  0.00000000000E+00 0.  1.
        -13    1    3    3    0    0  0.20748074406E+02 -0.32335620154E+02 -0.33556809498E+02  0.51011120219E+02  0.00000000000E+00 0.  1.
         13    1    3    3    0    0 -0.20375051226E+02  0.58068577801E+02 -0.11978407540E+03  0.13466746882E+03  0.00000000000E+00 0. -1.
          2    1    1    2  501    0  0.73801809657E+00 -0.15435311110E+03  0.23699496991E+02  0.15616367610E+03  0.00000000000E+00 0. -1.
<scales pt_clust_5="13000.00000" pt_clust_6="13000.00000" pt_clust_7="13000.00000" pt_clust_8="13000.00000" pt_clust_9="147.96734"></scales>
<clustering>
<clus scale="   91.058">  5  6 -1 -1</clus>
<clus scale="  101.493">  7  8 -1 -1</clus>
<clus scale="  104.705">  2  7  1 -1</clus>
<clus scale="  147.967">  1  9  2 -1</clus>
<clus scale="  147.967">  1  5  2 -1</clus>
</clustering>
</event>
<event>
 9    1  0.3288491E-005  0.1222895E+03  0.7546771E-02  0.1240088E+00
         -2   -1    0    0    0  501 -0.00000000000E+00  0.00000000000E+00  0.22541434643E+03  0.22541434643E+03  0.00000000000E+00 0.  1.
         21   -1    0    0  501  502  0.00000000000E+00 -0.00000000000E+00 -0.94334561965E+02  0.94334561965E+02  0.00000000000E+00 0.  1.
         23    2    1    2    0    0  0.74434403565E+01 -0.87446610692E+02  0.10567054460E+03  0.16895586668E+03  0.98374317603E+02 0.  0.
         23    2    1    2    0    0  0.78038358536E+00  0.53303649002E+02  0.33144100262E+02  0.11483193525E+03  0.96155883729E+02 0.  0.
        -13    1    3    3    0    0  0.18280935939E+02  0.13136289606E+02  0.46739157062E+02  0.51877774878E+02  0.00000000000E+00 0. -1.
         13    1    3    3    0    0 -0.10837495582E+02 -0.10058290030E+03  0.58931387534E+02  0.11707809180E+03  0.00000000000E+00 0.  1.
        -13    1    4    4    0    0  0.14485484930E+02 -0.18807032896E+02 -0.14033361399E+02  0.27576602259E+02  0.00000000000E+00 0.  1.
         13    1    4    4    0    0 -0.13705101344E+02  0.72110681898E+02  0.47177461661E+02  0.87255332991E+02  0.00000000000E+00 0. -1.
         -2    1    1    2    0  502 -0.82238239419E+01  0.34142961690E+02 -0.77348603905E+01  0.35961106469E+02  0.00000000000E+00 0.  1.
<scales pt_clust_5="13000.00000" pt_clust_6="13000.00000" pt_clust_7="13000.00000" pt_clust_8="13000.00000" pt_clust_9="35.11941"></scales>
<clustering>
<clus scale="   35.119">  2  9  1 -1</clus>
<clus scale="   96.156">  7  8 -1 -1</clus>
<clus scale="   98.374">  5  6 -1 -1</clus>
<clus scale="  120.512">  2  7  1 -1</clus>
<clus scale="   35.119">  2  5  1 -1</clus>
</clustering>
</event>
<event>
 9    1  0.3288491E-005  0.1260056E+03  0.7546771E-02  0.1233518E+00
         21   -1    0    0  501  502  0.00000000000E+00  0.00000000000E+00  0.12521770110E+03  0.12521770110E+03  0.00000000000E+00 0. -1.
          2   -1    0    0  502    0 -0.00000000000E+00 -0.00000000000E+00 -0.19004842164E+03  0.19004842164E+03  0.00000000000E+00 0.  1.
         23    2    1    2    0    0 -0.22292209040E+02 -0.76318625859E+02 -0.52886813042E+02  0.13146802649E+03  0.90362335951E+02 0.  0.
         23    2    1    2    0    0  0.41021473774E+02  0.89338742212E+02 -0.47379319198E+02  0.14165575188E+03  0.90318215122E+02 0.  0.
        -11    1    4    4    0    0  0.45266989670E+02  0.44420973578E+02 -0.67176851643E+02  0.92385348644E+02  0.00000000000E+00 0.  1.
         11    1    4    4    0    0 -0.42455158958E+01  0.44917768635E+02  0.19797532445E+02  0.49270403238E+02  0.00000000000E+00 0. -1.
        -11    1    3    3    0    0 -0.50613736433E+02 -0.33999796579E+02 -0.43629341954E+01  0.61129139352E+02  0.00000000000E+00 0.  1.
         11    1    3    3    0    0  0.28321527393E+02 -0.42318829280E+02 -0.48523878846E+02  0.70338887138E+02  0.00000000000E+00 0. -1.
          2    1    1    2  501    0 -0.18729264734E+02 -0.13020116353E+02  0.35435411699E+02  0.42142344377E+02  0.00000000000E+00 0.  1.
<scales pt_clust_5="13000.00000" pt_clust_6="13000.00000" pt_clust_7="13000.00000" pt_clust_8="13000.00000" pt_clust_9="22.81028"></scales>
<clustering>
<clus scale="   22.810">  1  9  2 -1</clus>
<clus scale="   90.318">  5  6 -1 -1</clus>
<clus scale="   90.362">  7  8 -1 -1</clus>
<clus scale="  125.974">  1  5  2 -1</clus>
<clus scale="   22.810">  1  5  2 -1</clus>
</clustering>
</event>
<event>
 9    1  0.3288491E-005  0.1386177E+03  0.7546771E-02  0.1215634E+00
         21   -1    0    0  501  502  0.00000000000E+00  0.00000000000E+00  0.60462126705E+02  0.60462126705E+02  0.00000000000E+00 0. -1.
          1   -1    0    0  502    0 -0.00000000000E+00 -0.00000000000E+00 -0.82972362147E+03  0.82972362147E+03  0.00000000000E+00 0. -1.
         23    2    1    2    0    0 -0.12048506221E+03  0.77055169689E+02 -0.50021642384E+03  0.52803320638E+03  0.90268748567E+02 0.  0.
         23    2    1    2    0    0  0.24724299273E+02 -0.69315810210E+02 -0.22993395246E+03  0.25842356325E+03  0.92179949172E+02 0.  0.
        -11    1    4    4    0    0  0.93562722686E+01 -0.85138641554E+02 -0.12720562547E+03  0.15335383682E+03  0.00000000000E+00 0. -1.
         11    1    4    4    0    0  0.15368027005E+02  0.15822831343E+02 -0.10272832699E+03  0.10506972643E+03  0.00000000000E+00 0.  1.
        -13    1    3    3    0    0 -0.16211579641E+02 -0.19465037071E+02 -0.52144761314E+02  0.57972227101E+02  0.00000000000E+00 0.  1.
         13    1    3    3    0    0 -0.10427348257E+03  0.96520206761E+02 -0.44807166252E+03  0.47006097927E+03  0.00000000000E+00 0. -1.
          1    1    1    2  501    0  0.95760762934E+02 -0.77393594789E+01 -0.39111118464E+02  0.10372897855E+03  0.00000000000E+00 0. -1.
<scales pt_clust_5="13000.00000" pt_clust_6="13000.00000" pt_clust_7="13000.00000" pt_clust_8="13000.00000" pt_clust_9="96.07300"></scales>
<clustering>
<clus scale="   90.269">  7  8 -1 -1</clus>
<clus scale="   92.180">  5  6 -1 -1</clus>
<clus scale="   96.073">  1  9  2 -1</clus>
<clus scale="  137.354">  2  7  1 -1</clus>
<clus scale="   96.073">  1  5  2 -1</clus>
</clustering>
</event>
<event>
 9    1  0.3288491E-005  0.1082559E+03  0.7546771E-02  0.1264198E+00
         -1   -1    0    0    0  501 -0.00000000000E+00  0.00000000000E+00  0.33507386287E+03  0.33507386287E+03  0.00000000000E+00 0.  1.
         21   -1    0    0  501  502  0.00000000000E+00 -0.00000000000E+00 -0.53647924782E+02  0.53647924782E+02  0.00000000000E+00 0. -1.
         23    2    1    2    0    0 -0.25972766820E+02 -0.47009860092E+02  0.17419118156E+03  0.20360943912E+03  0.90717828476E+02 0.  0.
         23    2    1    2    0    0  0.49919745498E+02  0.48154075594E+02  0.11333395157E+03  0.16037437778E+03  0.89802897976E+02 0.  0.
        -11    1    3    3    0    0 -0.21714012867E+02  0.24434471148E+02  0.41302614216E+02  0.52673026077E+02  0.00000000000E+00 0. -1.
         11    1    3    3    0    0 -0.42587539538E+01 -0.71444331240E+02  0.13288856734E+03  0.15093641304E+03  0.00000000000E+00 0.  1.
        -13    1    4    4    0    0  0.23584793731E+02  0.39993054097E+02  0.28658453782E+01  0.46517737919E+02  0.00000000000E+00 0. -1.
         13    1    4    4    0    0  0.26334951767E+02  0.81610214964E+01  0.11046810619E+03  0.11385663986E+03  0.00000000000E+00 0.  1.
         -1    1    1    2    0  502 -0.23946978678E+02 -0.11442155016E+01 -0.60991950341E+01  0.24737970753E+02  0.00000000000E+00 0.  1.
<scales pt_clust_5="13000.00000" pt_clust_6="13000.00000" pt_clust_7="13000.00000" pt_clust_8="13000.00000" pt_clust_9="23.97430"></scales>
<clustering>
<clus scale="   23.974">  2  9  1 -1</clus>
<clus scale="   89.803">  7  8 -1 -1</clus>
<clus scale="   90.718">  5  6 -1 -1</clus>
<clus scale="  107.490">  2  7  1 -1</clus>
<clus scale="   23.974">  2  5  1 -1</clus>
</clustering>
</event>
<event>
 9    1  0.3288491E-005  0.2966274E+03  0.7546771E-02  0.1134456E+00
         21   -1    0    0  501  502  0.00000000000E+00  0.00000000000E+00  0.65371841768E+03  0.65371841768E+03  0.00000000000E+00 0. -1.
          1   -1    0    0  502    0 -0.00000000000E+00 -0.00000000000E+00 -0.17707026323E+03  0.17707026323E+03  0.00000000000E+00 0. -1.
         23    2    1    2    0    0  0.96840896472E+00 -0.51554610501E+01  0.13518291226E+02  0.89537197598E+02  0.88355242977E+02 0.  0.
         23    2    1    2    0    0 -0.57237498876E+01  0.28408305350E+03  0.22396947629E+03  0.37379957384E+03  0.93956652214E+02 0.  0.
        -11    1    4    4    0    0 -0.42154233262E+02  0.19466494712E+03  0.12300392579E+03  0.23409696021E+03  0.00000000000E+00 0. -1.
         11    1    4    4    0    0  0.36430483375E+02  0.89418106377E+02  0.10096555051E+03  0.13970261363E+03  0.00000000000E+00 0.  1.
        -13    1    3    3    0    0 -0.27204142459E+02  0.26733129962E+02 -0.11922536222E+02  0.39960886807E+02  0.00000000000E+00 0.  1.
         13    1    3    3    0    0  0.28172551424E+02 -0.31888591012E+02  0.25440827448E+02  0.49576310791E+02  0.00000000000E+00 0. -1.
          1    1    1    2  501    0  0.47553409228E+01 -0.27892759245E+03  0.23916038694E+03  0.36745190947E+03  0.00000000000E+00 0. -1.
<scales pt_clust_5="13000.00000" pt_clust_6="13000.00000" pt_clust_7="13000.00000" pt_clust_8="13000.00000" pt_clust_9="281.35379"></scales>
<clustering>
<clus scale="   88.355">  7  8 -1 -1</clus>
<clus scale="   88.511">  2  7  1 -1</clus>
<clus scale="   93.957">  5  6 -1 -1</clus>
<clus scale="  281.354">  1  9  2 -1</clus>
<clus scale="  281.354">  1  5  2 -1</clus>
</clustering>
</event>
<event>
 9    1  0.3288491E-005  0.2355838E+03  0.7546771E-02  0.1122833E+00
         21   -1    0    0  501  502  0.00000000000E+00  0.00000000000E+00  0.21810522131E+03  0.21810522131E+03  0.00000000000E+00 0. -1.
          2   -1    0    0  502    0 -0.00000000000E+00 -0.00000000000E+00 -0.15717152657E+04  0.15717152657E+04  0.00000000000E+00 0. -1.
         23    2    1    2    0    0  0.11127514267E+03  0.14371478679E+03 -0.70941483884E+03  0.73799553953E+03  0.91279271943E+02 0.  0.
         23    2    1    2    0    0 -0.20307777115E+03 -0.19835848006E+03 -0.80511879164E+03  0.85866683507E+03  0.92226879189E+02 0.  0.
        -11    1    3    3    0    0  0.82732382667E+02  0.15224758064E+03 -0.58973301428E+03  0.61466169645E+03  0.00000000000E+00 0.  1.
         11    1    3    3    0    0  0.28542760001E+02 -0.85327938503E+01 -0.11968182456E+03  0.12333384308E+03  0.00000000000E+00 0. -1.
        -13    1    4    4    0    0 -0.70300696974E+02 -0.10024526791E+03 -0.46118634359E+03  0.47716259833E+03  0.00000000000E+00 0. -1.
         13    1    4    4    0    0 -0.13277707418E+03 -0.98113212146E+02 -0.34393244805E+03  0.38150423674E+03  0.00000000000E+00 0.  1.
          2    1    1    2  501    0  0.91802628481E+02  0.54643693273E+02  0.16092358612E+03  0.19315811238E+03  0.00000000000E+00 0. -1.
<scales pt_clust_5="13000.00000" pt_clust_6="13000.00000" pt_clust_7="13000.00000" pt_clust_8="13000.00000" pt_clust_9="106.83471"></scales>
<clustering>
<clus scale="   91.279">  5  6 -1 -1</clus>
<clus scale="   92.227">  7  8 -1 -1</clus>
<clus scale="  106.835">  1  9  2 -1</clus>
<clus scale="  235.214">  2  5  1 -1</clus>
<clus scale="  106.835">  1  5  2 -1</clus>
</clustering>
</event>
<event>
 9    1  0.3288491E-005  0.1183215E+03  0.7546771E-02  0.1247620E+00
         21   -1    0    0  501  502  0.00000000000E+00  0.00000000000E+00  0.37288840738E+03  0.37288840738E+03  0.00000000000E+00 0. -1.
         -1   -1    0    0    0  501 -0.00000000000E+00 -0.00000000000E+00 -0.55459570147E+02  0.55459570147E+02  0.00000000000E+00 0.  1.
         23    2    1    2    0    0 -0.25100675483E+02 -0.55724398714E+02  0.64171781056E+02  0.12698534862E+03  0.90950584157E+02 0.  0.
         23    2    1    2    0    0  0.27082556800E+02  0.85713964195E+02  0.22184613989E+03  0.25788910187E+03  0.95972550951E+02 0.  0.
        -11    1    3    3    0    0 -0.39662052113E+02 -0.21030105450E+02  0.75371232015E+02  0.87727796784E+02  0.00000000000E+00 0. -1.
         11    1    3    3    0    0  0.14561376630E+02 -0.34694293264E+02 -0.11199450959E+02  0.39257551837E+02  0.00000000000E+00 0.  1.
        -11    1    4    4    0    0 -0.27261882692E+02  0.10348951476E+02  0.10291207188E+03  0.10696357129E+03  0.00000000000E+00 0.  1.
         11    1    4    4    0    0  0.54344439493E+02  0.75365012720E+02  0.11893406801E+03  0.15092553058E+03  0.00000000000E+00 0. -1.
         -1    1    1    2    0  502 -0.19818813176E+01 -0.29989565481E+02  0.31410916285E+02  0.43473527038E+02  0.00000000000E+00 0.  1.
<scales pt_clust_5="13000.00000" pt_clust_6="13000.00000" pt_clust_7="13000.00000" pt_clust_8="13000.00000" pt_clust_9="30.05500"></scales>
<clustering>
<clus scale="   30.055">  1  9  2 -1</clus>
<clus scale="   90.951">  5  6 -1 -1</clus>
<clus scale="   95.973">  7  8 -1 -1</clus>
<clus scale="  114.286">  2  5  1 -1</clus>
<clus scale="   30.055">  1  5  2 -1</clus>
</clustering>
</event>
<event>
 9    1  0.3288491E-005  0.9292318E+02  0.7546771E-02  0.1297245E+00
         21   -1    0    0  501  502  0.00000000000E+00  0.00000000000E+00  0.25565464450E+03  0.25565464450E+03  0.00000000000E+00 0. -1.
          3   -1    0    0  502    0 -0.00000000000E+00 -0.00000000000E+00 -0.65930948562E+02  0.65930948562E+02  0.00000000000E+00 0. -1.
         23    2    1    2    0    0  0.18311497571E+02 -0.14351145035E+01 -0.54393646892E+00  0.91655628118E+02  0.89794698072E+02 0.  0.
         23    2    1    2    0    0  0.38849588106E+01  0.90569663127E+01  0.98405951487E+02  0.13511781529E+03  0.92065037752E+02 0.  0.
        -13    1    4    4    0    0 -0.32088879659E+02 -0.86000343645E+01  0.87488709359E+02  0.93583818335E+02  0.00000000000E+00 0.  1.
         13    1    4    4    0    0  0.35973838470E+02  0.17657000677E+02  0.10917242128E+02  0.41533996953E+02  0.00000000000E+00 0. -1.
        -13    1    3    3    0    0  0.40940100531E+02 -0.18753844726E+02 -0.27222963359E+02  0.52620226696E+02  0.00000000000E+00 0. -1.
         13    1    3    3    0    0 -0.22628602960E+02  0.17318730222E+02  0.26679026890E+02  0.39035401422E+02  0.00000000000E+00 0.  1.
          3    1    1    2  501    0 -0.22196456382E+02 -0.76218518093E+01  0.91861680923E+02  0.94812149659E+02  0.00000000000E+00 0. -1.
<scales pt_clust_5="13000.00000" pt_clust_6="13000.00000" pt_clust_7="13000.00000" pt_clust_8="13000.00000" pt_clust_9="23.46860"></scales>
<clustering>
<clus scale="   23.469">  1  9  2 -1</clus>
<clus scale="   89.795">  7  8 -1 -1</clus>
<clus scale="   90.674">  2  7  1 -1</clus>
<clus scale="   92.065">  5  6 -1 -1</clus>
<clus scale="   23.469">  1  5  2 -1</clus>
</clustering>
</event>
<event>
 9    1  0.3288491E-005  0.1215856E+03  0.7546771E-02  0.1242504E+00
          1   -1    0    0  502    0 -0.00000000000E+00  0.00000000000E+00  0.40598060438E+03  0.40598060438E+03  0.00000000000E+00 0. -1.
         21   -1    0    0  501  502  0.00000000000E+00 -0.00000000000E+00 -0.49524570430E+02  0.49524570430E+02  0.00000000000E+00 0.  1.
         23    2    1    2    0    0  0.42056150882E+02  0.58016492525E+02  0.15499263253E+03  0.19229801510E+03  0.88437419919E+02 0.  0.
         23    2    1    2    0    0 -0.14731191598E+02 -0.84236625091E+02  0.17668843036E+03  0.21795290088E+03  0.94719842505E+02 0.  0.
        -11    1    4    4    0    0 -0.10289931630E+02  0.20258322633E+02  0.26070382504E+02  0.34582469153E+02  0.00000000000E+00 0. -1.
         11    1    4    4    0    0 -0.44412599678E+01 -0.10449494772E+03  0.15061804786E+03  0.18337043172E+03  0.00000000000E+00 0.  1.
        -13    1    3    3    0    0  0.65160585990E+02  0.62497881035E+02  0.12265986635E+03  0.15230669688E+03  0.00000000000E+00 0. -1.
         13    1    3    3    0    0 -0.23104435108E+02 -0.44813885101E+01  0.32332766174E+02  0.39991318222E+02  0.00000000000E+00 0.  1.
          1    1    1    2  501    0 -0.27324959284E+02  0.26220132566E+02  0.24774971065E+02  0.45254258837E+02  0.00000000000E+00 0. -1.
<scales pt_clust_5="13000.00000" pt_clust_6="13000.00000" pt_clust_7="13000.00000" pt_clust_8="13000.00000" pt_clust_9="37.87016"></scales>
<clustering>
<clus scale="   37.870">  2  9  1 -1</clus>
<clus scale="   88.437">  7  8 -1 -1</clus>
<clus scale="   94.720">  5  6 -1 -1</clus>
<clus scale="  116.758">  1  7  2 -1</clus>
<clus scale="   37.870">  2  5  1 -1</clus>
</clustering>
</event>
<event>
 9    1  0.3288491E-005  0.2144979E+03  0.7546771E-02  0.1139642E+00
          1   -1    0    0  502    0 -0.00000000000E+00  0.00000000000E+00  0.56218720532E+03  0.56218720532E+03  0.00000000000E+00 0. -1.
         21   -1    0    0  501  502  0.00000000000E+00 -0.00000000000E+00 -0.18078805182E+03  0.18078805182E+03  0.00000000000E+00 0.  1.
         23    2    1    2    0    0 -0.17363887849E+03  0.20327722579E+02  0.36015724904E+03  0.41459031640E+03  0.10774140331E+03 0.  0.
         23    2    1    2    0    0  0.21434733926E+03 -0.46578297945E+02  0.81635369853E+02  0.25096632446E+03  0.90583898740E+02 0.  0.
        -11    1    3    3    0    0 -0.24161908797E+02  0.36784934497E+02  0.34611907210E+02  0.55990297047E+02  0.00000000000E+00 0.  1.
         11    1    3    3    0    0 -0.14947696970E+03 -0.16457211919E+02  0.32554534183E+03  0.35860001935E+03  0.00000000000E+00 0. -1.
        -13    1    4    4    0    0  0.12098538834E+03 -0.34502054326E+02 -0.83535477189E+00  0.12581158040E+03  0.00000000000E+00 0.  1.
         13    1    4    4    0    0  0.93361950925E+02 -0.12076243619E+02  0.82470724625E+02  0.12515474406E+03  0.00000000000E+00 0. -1.
          1    1    1    2  501    0 -0.40708460770E+02  0.26250575367E+02 -0.60393465397E+02  0.77418616289E+02  0.00000000000E+00 0. -1.
<scales pt_clust_5="13000.00000" pt_clust_6="13000.00000" pt_clust_7="13000.00000" pt_clust_8="13000.00000" pt_clust_9="48.43833"></scales>
<clustering>
<clus scale="   48.438">  2  9  1 -1</clus>
<clus scale="   90.584">  7  8 -1 -1</clus>
<clus scale="  107.741">  5  6 -1 -1</clus>
<clus scale="  206.414">  2  7  1 -1</clus>
<clus scale="   48.438">  2  5  1 -1</clus>
</clustering>
</event>
<event>
 9    1  0.3288491E-005  0.1032454E+03  0.7546771E-02  0.1274418E+00
          2   -1    0    0  502    0 -0.00000000000E+00  0.00000000000E+00  0.61664264984E+03  0.61664264984E+03  0.00000000000E+00 0. -1.
         21   -1    0    0  501  502  0.00000000000E+00 -0.00000000000E+00 -0.98953360618E+02  0.98953360618E+02  0.00000000000E+00 0. -1.
         23    2    1    2    0    0  0.27198525909E+02  0.38479928320E+02  0.47989301949E+03  0.49061134725E+03  0.90452856216E+02 0.  0.
         23    2    1    2    0    0 -0.63603803296E+02 -0.28579305020E+02  0.10098674685E+03  0.15138844752E+03  0.88644901348E+02 0.  0.
        -11    1    4    4    0    0 -0.21891305336E+01 -0.46708595406E+02  0.56882204554E+02  0.73634709018E+02  0.00000000000E+00 0.  1.
         11    1    4    4    0    0 -0.61414672762E+02  0.18129290385E+02  0.44104542293E+02  0.77753738503E+02  0.00000000000E+00 0. -1.
        -13    1    3    3    0    0  0.17573190956E+02 -0.28924629901E+02  0.16723768700E+03  0.17062794381E+03  0.00000000000E+00 0.  1.
         13    1    3    3    0    0  0.96253349536E+01  0.67404558220E+02  0.31265533250E+03  0.31998340345E+03  0.00000000000E+00 0. -1.
          2    1    1    2  501    0  0.36405277386E+02 -0.99006232996E+01 -0.63190477124E+02  0.73596215680E+02  0.00000000000E+00 0. -1.
<scales pt_clust_5="13000.00000" pt_clust_6="13000.00000" pt_clust_7="13000.00000" pt_clust_8="13000.00000" pt_clust_9="37.72753"></scales>
<clustering>
<clus scale="   37.728">  2  9  1 -1</clus>
<clus scale="   88.645">  5  6 -1 -1</clus>
<clus scale="   90.453">  7  8 -1 -1</clus>
<clus scale="  101.665">  2  5  1 -1</clus>
<clus scale="   37.728">  2  5  1 -1</clus>
</clustering>
</event>
<event>
 9    1  0.3288491E-005  0.1283388E+03  0.7546771E-02  0.1245053E+00
          2   -1    0    0  502    0 -0.00000000000E+00  0.00000000000E+00  0.10258336247E+03  0.10258336247E+03  0.00000000000E+00 0. -1.
         21   -1    0    0  501  502  0.00000000000E+00 -0.00000000000E+00 -0.28203935110E+03  0.28203935110E+03  0.00000000000E+00 0.  1.
         23    2    1    2    0    0  0.32652700175E+01 -0.96921657217E+01 -0.57241386720E+01  0.94474905831E+02  0.93745090557E+02 0.  0.
         23    2    1    2    0    0 -0.86609524429E+02  0.54701186416E+02 -0.70378441052E+02  0.14995506963E+03  0.83904519697E+02 0.  0.
        -11    1    3    3    0    0 -0.12306702292E+02  0.38737755887E+02  0.87649123172E+01  0.41579951183E+02  0.00000000000E+00 0.  1.
         11    1    3    3    0    0  0.15571972309E+02 -0.48429921608E+02 -0.14489050989E+02  0.52894954648E+02  0.00000000000E+00 0. -1.
        -13    1    4    4    0    0 -0.32070291832E+02  0.55079601019E+02 -0.70999927462E+02  0.95410983467E+02  0.00000000000E+00 0.  1.
         13    1    4    4    0    0 -0.54539232597E+02 -0.37841460339E+00  0.62148640984E+00  0.54544086162E+02  0.00000000000E+00 0. -1.
          2    1    1    2  501    0  0.83344254412E+02 -0.45009020694E+02 -0.10335340890E+03  0.14019273811E+03  0.00000000000E+00 0. -1.
<scales pt_clust_5="13000.00000" pt_clust_6="13000.00000" pt_clust_7="13000.00000" pt_clust_8="13000.00000" pt_clust_9="97.11270"></scales>
<clustering>
<clus scale="   83.905">  7  8 -1 -1</clus>
<clus scale="   93.745">  5  6 -1 -1</clus>
<clus scale="   94.301">  1  5  2 -1</clus>
<clus scale="   97.113">  2  9  1 -1</clus>
<clus scale="   97.113">  2  5  1 -1</clus>
</clustering>
</event>
<event>
 9    1  0.3288491E-005  0.9638322E+02  0.7546771E-02  0.1290148E+00
         21   -1    0    0  501  502  0.00000000000E+00  0.00000000000E+00  0.16762862879E+03  0.16762862879E+03  0.00000000000E+00 0. -1.
          2   -1    0    0  502    0 -0.00000000000E+00 -0.00000000000E+00 -0.21125208953E+03  0.21125208953E+03  0.00000000000E+00 0. -1.
         23    2    1    2    0    0 -0.35239650964E+02 -0.14774141267E+02 -0.98126519953E+02  0.13973520243E+03  0.91853168860E+02 0.  0.
         23    2    1    2    0    0 -0.15432489595E+02  0.40683633037E+02 -0.57306131073E+02  0.11368531253E+03  0.88017259071E+02 0.  0.
        -11    1    3    3    0    0  0.26075007401E+02 -0.45442788653E+01 -0.63001629000E+02  0.68335654954E+02  0.00000000000E+00 0.  1.
         11    1    3    3    0    0 -0.61314658365E+02 -0.10229862402E+02 -0.35124890953E+02  0.71399547475E+02  0.00000000000E+00 0. -1.
        -13    1    4    4    0    0  0.47014838138E+01  0.44181781986E+02  0.80978101403E+01  0.45163130301E+02  0.00000000000E+00 0.  1.
         13    1    4    4    0    0 -0.20133973409E+02 -0.34981489485E+01 -0.65403941214E+02  0.68522182230E+02  0.00000000000E+00 0. -1.
          2    1    1    2  501    0  0.50672140559E+02 -0.25909491771E+02  0.11180919029E+03  0.12546020335E+03  0.00000000000E+00 0. -1.
<scales pt_clust_5="13000.00000" pt_clust_6="13000.00000" pt_clust_7="13000.00000" pt_clust_8="13000.00000" pt_clust_9="56.91193"></scales>
<clustering>
<clus scale="   56.912">  1  9  2 -1</clus>
<clus scale="   88.017">  7  8 -1 -1</clus>
<clus scale="   91.853">  5  6 -1 -1</clus>
<clus scale="   92.735">  1  7  2 -1</clus>
<clus scale="   56.912">  1  5  2 -1</clus>
</clustering>
</event>
<event>
 9    1  0.3288491E-005  0.1346172E+03  0.7546771E-02  0.1220867E+00
         21   -1    0    0  501  502  0.00000000000E+00  0.00000000000E+00  0.70873478823E+02  0.70873478823E+02  0.00000000000E+00 0.  1.
          1   -1    0    0  502    0 -0.00000000000E+00 -0.00000000000E+00 -0.66963370938E+03  0.66963370938E+03  0.00000000000E+00 0. -1.
         23    2    1    2    0    0  0.87048015741E+02  0.87942402925E+02 -0.46703337436E+03  0.49178152126E+03  0.91747853433E+02 0.  0.
         23    2    1    2    0    0  0.29122440490E+01 -0.64750323421E+02 -0.10122015659E+03  0.15094335968E+03  0.91308773848E+02 0.  0.
        -11    1    3    3    0    0  0.49048144878E+02  0.23524104376E+02 -0.74842608945E+02  0.92523078831E+02  0.00000000000E+00 0.  1.
         11    1    3    3    0    0  0.37999870863E+02  0.64418298549E+02 -0.39219076542E+03  0.39925844243E+03  0.00000000000E+00 0. -1.
        -13    1    4    4    0    0 -0.25424399745E+02 -0.29038516673E+02 -0.97901127520E+02  0.10523434004E+03  0.00000000000E+00 0. -1.
         13    1    4    4    0    0  0.28336643794E+02 -0.35711806748E+02 -0.33190290730E+01  0.45709019643E+02  0.00000000000E+00 0.  1.
          1    1    1    2  501    0 -0.89960259790E+02 -0.23192079504E+02 -0.30506699601E+02  0.97782307263E+02  0.00000000000E+00 0. -1.
<scales pt_clust_5="13000.00000" pt_clust_6="13000.00000" pt_clust_7="13000.00000" pt_clust_8="13000.00000" pt_clust_9="92.90167"></scales>
<clustering>
<clus scale="   91.309">  7  8 -1 -1</clus>
<clus scale="   91.748">  5  6 -1 -1</clus>
<clus scale="   92.902">  1  9  2 -1</clus>
<clus scale="  134.318">  1  7  2 -1</clus>
<clus scale="   92.902">  1  5  2 -1</clus>
</clustering>
</event>
<event>
 9    1  0.3288491E-005  0.1335614E+03  0.7546771E-02  0.1222988E+00
          3   -1    0    0  502    0 -0.00000000000E+00  0.00000000000E+00  0.31234909162E+03  0.31234909162E+03  0.00000000000E+00 0. -1.
         21   -1    0    0  501  502  0.00000000000E+00 -0.00000000000E+00 -0.11570833973E+03  0.11570833973E+03  0.00000000000E+00 0. -1.
         23    2    1    2    0    0 -0.13997537001E+02 -0.11195117579E+03  0.18211520179E+03  0.23181324251E+03  0.88557528649E+02 0.  0.
         23    2    1    2    0    0  0.40503996968E+02  0.46670134927E+02 -0.28046458598E+02  0.11392418737E+03  0.91506509955E+02 0.  0.
        -11    1    4    4    0    0 -0.21563212017E+02 -0.10715857068E+01 -0.28330160818E+02  0.35619073828E+02  0.00000000000E+00 0.  1.
         11    1    4    4    0    0  0.62067208985E+02  0.47741720634E+02  0.28370221997E+00  0.78305113544E+02  0.00000000000E+00 0. -1.
        -13    1    3    3    0    0 -0.98910279734E+01 -0.25446451240E+02  0.12529506194E+03  0.12823496739E+03  0.00000000000E+00 0.  1.
         13    1    3    3    0    0 -0.41065090279E+01 -0.86504724549E+02  0.56820139850E+02  0.10357827513E+03  0.00000000000E+00 0. -1.
          3    1    1    2  501    0 -0.26506459966E+02  0.65281040862E+02  0.42572008702E+02  0.82320001463E+02  0.00000000000E+00 0. -1.
<scales pt_clust_5="13000.00000" pt_clust_6="13000.00000" pt_clust_7="13000.00000" pt_clust_8="13000.00000" pt_clust_9="70.45716"></scales>
<clustering>
<clus scale="   70.457">  2  9  1 -1</clus>
<clus scale="   88.558">  7  8 -1 -1</clus>
<clus scale="   91.507">  5  6 -1 -1</clus>
<clus scale="  131.559">  1  7  2 -1</clus>
<clus scale="   70.457">  2  5  1 -1</clus>
</clustering>
</event>
<event>
 9    1  0.3288491E-005  0.1504556E+03  0.7546771E-02  0.1200011E+00
          1   -1    0    0  502    0 -0.00000000000E+00  0.00000000000E+00  0.26748903857E+03  0.26748903857E+03  0.00000000000E+00 0. -1.
         21   -1    0    0  501  502  0.00000000000E+00 -0.00000000000E+00 -0.18952961929E+03  0.18952961929E+03  0.00000000000E+00 0. -1.
         23    2    1    2    0    0 -0.66595565869E+02  0.11559874308E+03  0.13554240802E+03  0.21097670518E+03  0.91331193789E+02 0.  0.
         23    2    1    2    0    0  0.97178268724E+02 -0.27486269536E+02 -0.67424664235E+02  0.15225512906E+03  0.91850030227E+02 0.  0.
        -11    1    3    3    0    0 -0.88791180496E+02  0.78902705714E+02  0.98714715861E+02  0.15444774466E+03  0.00000000000E+00 0. -1.
         11    1    3    3    0    0  0.22195614627E+02  0.36696037366E+02  0.36827692163E+02  0.56528960517E+02  0.00000000000E+00 0.  1.
        -11    1    4    4    0    0  0.30780909538E+02 -0.52699826329E+02 -0.12081009908E+02  0.62214844591E+02  0.00000000000E+00 0.  1.
         11    1    4    4    0    0  0.66397359186E+02  0.25213556793E+02 -0.55343654327E+02  0.90040284469E+02  0.00000000000E+00 0. -1.
          1    1    1    2  501    0 -0.30582702855E+02 -0.88112473544E+02  0.98416754883E+01  0.93786823618E+02  0.00000000000E+00 0. -1.
<scales pt_clust_5="13000.00000" pt_clust_6="13000.00000" pt_clust_7="13000.00000" pt_clust_8="13000.00000" pt_clust_9="93.26902"></scales>
<clustering>
<clus scale="   91.331">  5  6 -1 -1</clus>
<clus scale="   91.850">  7  8 -1 -1</clus>
<clus scale="   93.269">  2  9  1 -1</clus>
<clus scale="  150.139">  1  5  2 -1</clus>
<clus scale="   93.269">  2  5  1 -1</clus>
</clustering>
</event>
<event>
 9    1  0.3288491E-005  0.1097248E+03  0.7546771E-02  0.1261155E+00
         21   -1    0    0  501  502  0.00000000000E+00  0.00000000000E+00  0.55284541517E+02  0.55284541517E+02  0.00000000000E+00 0. -1.
          1   -1    0    0  502    0 -0.00000000000E+00 -0.00000000000E+00 -0.43764978376E+03  0.43764978376E+03  0.00000000000E+00 0. -1.
         23    2    1    2    0    0  0.16381254387E+02  0.55110758636E+02 -0.22691229479E+03  0.25144231566E+03  0.91806902596E+02 0.  0.
         23    2    1    2    0    0 -0.65876491667E+02 -0.39002791284E+02 -0.14598128650E+03  0.18858683514E+03  0.91616202150E+02 0.  0.
        -11    1    4    4    0    0 -0.32646180529E+02 -0.18181730251E+02  0.64685438024E-01  0.37367801678E+02  0.00000000000E+00 0.  1.
         11    1    4    4    0    0 -0.33230311139E+02 -0.20821061034E+02 -0.14604597194E+03  0.15121903346E+03  0.00000000000E+00 0. -1.
        -11    1    3    3    0    0  0.45998415930E+02  0.59373347342E+02 -0.18730784242E+03  0.20180504571E+03  0.00000000000E+00 0. -1.
         11    1    3    3    0    0 -0.29617161543E+02 -0.42625887055E+01 -0.39604452373E+02  0.49637269950E+02  0.00000000000E+00 0.  1.
          1    1    1    2  501    0  0.49495237280E+02 -0.16107967352E+02 -0.94716609524E+01  0.52905174481E+02  0.00000000000E+00 0. -1.
<scales pt_clust_5="13000.00000" pt_clust_6="13000.00000" pt_clust_7="13000.00000" pt_clust_8="13000.00000" pt_clust_9="52.05041"></scales>
<clustering>
<clus scale="   52.050">  1  9  2 -1</clus>
<clus scale="   91.616">  5  6 -1 -1</clus>
<clus scale="   91.807">  7  8 -1 -1</clus>
<clus scale="  109.565">  1  5  2 -1</clus>
<clus scale="   52.050">  1  5  2 -1</clus>
</clustering>
</event>
<event>
 9    1  0.3288491E-005  0.1002626E+03  0.7546771E-02  0.1280157E+00
          2   -1    0    0  502    0 -0.00000000000E+00  0.00000000000E+00  0.18173023582E+03  0.18173023582E+03  0.00000000000E+00 0. -1.
         21   -1    0    0  501  502  0.00000000000E+00 -0.00000000000E+00 -0.19149922799E+03  0.19149922799E+03  0.00000000000E+00 0. -1.
         23    2    1    2    0    0 -0.24305263266E+02  0.13073435286E+02  0.66195250566E+02  0.11517092148E+03  0.90115866662E+02 0.  0.
         23    2    1    2    0    0  0.54804835795E+02 -0.30064367070E+02  0.54427649144E+02  0.12307350184E+03  0.90979567325E+02 0.  0.
        -11    1    4    4    0    0  0.29306852889E+02 -0.13179972037E+02 -0.23203522817E+02  0.39635927645E+02  0.00000000000E+00 0.  1.
         11    1    4    4    0    0  0.25497982906E+02 -0.16884395033E+02  0.77631171961E+02  0.83437574198E+02  0.00000000000E+00 0. -1.
        -13    1    3    3    0    0 -0.42978439050E+02 -0.67646876228E+01  0.74857754583E+02  0.86582854209E+02  0.00000000000E+00 0.  1.
         13    1    3    3    0    0  0.18673175784E+02  0.19838122909E+02 -0.86625040168E+01  0.28588067270E+02  0.00000000000E+00 0. -1.
          2    1    1    2  501    0 -0.30499572529E+02  0.16990931785E+02 -0.13039189188E+03  0.13498504049E+03  0.00000000000E+00 0. -1.
<scales pt_clust_5="13000.00000" pt_clust_6="13000.00000" pt_clust_7="13000.00000" pt_clust_8="13000.00000" pt_clust_9="34.91297"></scales>
<clustering>
<clus scale="   34.913">  2  9  1 -1</clus>
<clus scale="   90.116">  7  8 -1 -1</clus>
<clus scale="   90.980">  5  6 -1 -1</clus>
<clus scale="   99.480">  1  7  2 -1</clus>
<clus scale="   34.913">  2  5  1 -1</clus>
</clustering>
</event>
<event>
 9    1  0.3288491E-005  0.1035373E+03  0.7546771E-02  0.1273098E+00
          1   -1    0    0  502    0 -0.00000000000E+00  0.00000000000E+00  0.65120894330E+03  0.65120894330E+03  0.00000000000E+00 0. -1.
         21   -1    0    0  501  502  0.00000000000E+00 -0.00000000000E+00 -0.34032722990E+02  0.34032722990E+02  0.00000000000E+00 0.  1.
         23    2    1    2    0    0 -0.34508287509E+02 -0.48285579567E+02  0.35855926939E+03  0.37494001631E+03  0.92157186716E+02 0.  0.
         23    2    1    2    0    0  0.47811394604E+02 -0.91733634551E+01  0.20795709122E+03  0.23255253953E+03  0.92002455413E+02 0.  0.
        -11    1    3    3    0    0  0.21322054918E+02 -0.47309440245E+02  0.20751218437E+03  0.21390212674E+03  0.00000000000E+00 0.  1.
         11    1    3    3    0    0 -0.55830342427E+02 -0.97613932206E+00  0.15104708501E+03  0.16103788956E+03  0.00000000000E+00 0. -1.
        -13    1    4    4    0    0  0.63896999322E+02 -0.35494620125E+02  0.14045463054E+03  0.15833571240E+03  0.00000000000E+00 0.  1.
         13    1    4    4    0    0 -0.16085604718E+02  0.26321256670E+02  0.67502460674E+02  0.74216827128E+02  0.00000000000E+00 0. -1.
          1    1    1    2  501    0 -0.13303107095E+02  0.57458943022E+02  0.50659859708E+02  0.77749110459E+02  0.00000000000E+00 0. -1.
<scales pt_clust_5="13000.00000" pt_clust_6="13000.00000" pt_clust_7="13000.00000" pt_clust_8="13000.00000" pt_clust_9="58.97883"></scales>
<clustering>
<clus scale="   58.979">  2  9  1 -1</clus>
<clus scale="   92.002">  7  8 -1 -1</clus>
<clus scale="   92.157">  5  6 -1 -1</clus>
<clus scale="  103.400">  2  7  1 -1</clus>
<clus scale="   58.979">  2  5  1 -1</clus>
</clustering>
</event>
<event>
 9    1  0.3288491E-005  0.9344080E+02  0.7546771E-02  0.1300335E+00
         -2   -1    0    0    0  501 -0.00000000000E+00  0.00000000000E+00  0.82835555295E+02  0.82835555295E+02  0.00000000000E+00 0.  1.
         21   -1    0    0  501  502  0.00000000000E+00 -0.00000000000E+00 -0.15787251097E+03  0.15787251097E+03  0.00000000000E+00 0.  1.
         23    2    1    2    0    0 -0.24887873091E+02  0.16628852037E+02 -0.20450296592E+02  0.98060863823E+02  0.91114178018E+02 0.  0.
         23    2    1    2    0    0  0.15422392816E+02  0.26278675107E+02 -0.29210110068E+02  0.91906484649E+02  0.81640384766E+02 0.  0.
        -13    1    3    3    0    0  0.17114494750E+02  0.23540794873E+02  0.23103740667E+02  0.37159894868E+02  0.00000000000E+00 0.  1.
         13    1    3    3    0    0 -0.42002367841E+02 -0.69119428369E+01 -0.43554037259E+02  0.60900968955E+02  0.00000000000E+00 0. -1.
        -13    1    4    4    0    0 -0.29385951424E+02  0.30228626638E+02 -0.13921705746E+02  0.44397273569E+02  0.00000000000E+00 0.  1.
         13    1    4    4    0    0  0.44808344240E+02 -0.39499515317E+01 -0.15288404322E+02  0.47509211079E+02  0.00000000000E+00 0. -1.
         -2    1    1    2    0  502  0.94654802752E+01 -0.42907527143E+02 -0.25376549017E+02  0.50740717795E+02  0.00000000000E+00 0.  1.
<scales pt_clust_5="13000.00000" pt_clust_6="13000.00000" pt_clust_7="13000.00000" pt_clust_8="13000.00000" pt_clust_9="43.93918"></scales>
<clustering>
<clus scale="   43.939">  2  9  1 -1</clus>
<clus scale="   81.640">  7  8 -1 -1</clus>
<clus scale="   84.229">  2  7  1 -1</clus>
<clus scale="   91.114">  5  6 -1 -1</clus>
<clus scale="   43.939">  2  5  1 -1</clus>
</clustering>
</event>
<event>
 9    1  0.3288491E-005  0.1681713E+03  0.7546771E-02  0.1179924E+00
         21   -1    0    0  501  502  0.00000000000E+00  0.00000000000E+00  0.51177171632E+03  0.51177171632E+03  0.00000000000E+00 0. -1.
          1   -1    0    0  502    0 -0.00000000000E+00 -0.00000000000E+00 -0.67758506118E+02  0.67758506118E+02  0.00000000000E+00 0. -1.
         23    2    1    2    0    0  0.33594839752E+02  0.14439041389E+03  0.15650479259E+03  0.23522365070E+03  0.94123381052E+02 0.  0.
         23    2    1    2    0    0 -0.36530028325E+02 -0.12361835632E+03  0.20643552854E+03  0.26056347023E+03  0.93068542433E+02 0.  0.
        -13    1    3    3    0    0 -0.12308182159E+02  0.71043545525E+02  0.12272307533E+03  0.14233632680E+03  0.00000000000E+00 0.  1.
         13    1    3    3    0    0  0.45903021911E+02  0.73346868364E+02  0.33781717268E+02  0.92887323898E+02  0.00000000000E+00 0. -1.
        -13    1    4    4    0    0 -0.57442185826E+01 -0.12727200942E+03  0.15668259951E+03  0.20194206451E+03  0.00000000000E+00 0.  1.
         13    1    4    4    0    0 -0.30785809742E+02  0.36536531042E+01  0.49752929022E+02  0.58621405721E+02  0.00000000000E+00 0. -1.
          1    1    1    2  501    0  0.29351885721E+01 -0.20772057572E+02  0.81072889076E+02  0.83743101512E+02  0.00000000000E+00 0. -1.
<scales pt_clust_5="13000.00000" pt_clust_6="13000.00000" pt_clust_7="13000.00000" pt_clust_8="13000.00000" pt_clust_9="20.97841"></scales>
<clustering>
<clus scale="   20.978">  1  9  2 -1</clus>
<clus scale="   93.069">  7  8 -1 -1</clus>
<clus scale="   94.123">  5  6 -1 -1</clus>
<clus scale="  167.583">  1  7  2 -1</clus>
<clus scale="   20.978">  1  5  2 -1</clus>
</clustering>
</event>
<event>
 9    1  0.3288491E-005  0.1088153E+03  0.7546771E-02  0.1263624E+00
         21   -1    0    0  501  502  0.00000000000E+00  0.00000000000E+00  0.58549643745E+03  0.58549643745E+03  0.00000000000E+00 0. -1.
         -1   -1    0    0    0  501 -0.00000000000E+00 -0.00000000000E+00 -0.44099840545E+02  0.44099840545E+02  0.00000000000E+00 0.  1.
         23    2    1    2    0    0 -0.36954152731E+02 -0.97485094114E+00  0.10594497497E+03  0.14450589525E+03  0.91055237640E+02 0.  0.
         23    2    1    2    0    0  0.80399771950E+02  0.26056187202E+02  0.15225551584E+03  0.19748539363E+03  0.93143386092E+02 0.  0.
        -13    1    4    4    0    0  0.41531696475E+02  0.60805658126E+02  0.89220571823E+02  0.11568284362E+03  0.00000000000E+00 0.  1.
         13    1    4    4    0    0  0.38868075475E+02 -0.34749470924E+02  0.63034944014E+02  0.81802550005E+02  0.00000000000E+00 0. -1.
        -13    1    3    3    0    0 -0.72700963580E+00  0.40418827828E+02  0.28285245941E+02  0.49338274432E+02  0.00000000000E+00 0.  1.
         13    1    3    3    0    0 -0.36227143095E+02 -0.41393678769E+02  0.77659729033E+02  0.95167620819E+02  0.00000000000E+00 0. -1.
         -1    1    1    2    0  502 -0.43445619219E+02 -0.25081336261E+02  0.28319610610E+03  0.28760498912E+03  0.00000000000E+00 0.  1.
<scales pt_clust_5="13000.00000" pt_clust_6="13000.00000" pt_clust_7="13000.00000" pt_clust_8="13000.00000" pt_clust_9="50.16568"></scales>
<clustering>
<clus scale="   50.166">  1  9  2 -1</clus>
<clus scale="   91.055">  7  8 -1 -1</clus>
<clus scale="   93.143">  5  6 -1 -1</clus>
<clus scale="  107.033">  2  7  1 -1</clus>
<clus scale="   50.166">  1  5  2 -1</clus>
</clustering>
</event>
<event>
 9    1  0.3288491E-005  0.1346257E+03  0.7546771E-02  0.1225947E+00
          1   -1    0    0  502    0 -0.00000000000E+00  0.00000000000E+00  0.52260287765E+02  0.52260287765E+02  0.00000000000E+00 0. -1.
         21   -1    0    0  501  502  0.00000000000E+00 -0.00000000000E+00 -0.47067982287E+03  0.47067982287E+03  0.00000000000E+00 0.  1.
         23    2    1    2    0    0  0.78801068202E+01 -0.51247740643E+02 -0.19327110247E+03  0.22843274751E+03  0.11017882773E+03 0.  0.
         23    2    1    2    0    0  0.39677209086E+01  0.10163831967E+03 -0.17220642868E+03  0.22046388090E+03  0.92753317302E+02 0.  0.
        -13    1    3    3    0    0 -0.26728149203E+02  0.24641195848E+02 -0.78961765549E+02  0.86928378055E+02  0.00000000000E+00 0.  1.
         13    1    3    3    0    0  0.34608256024E+02 -0.75888936492E+02 -0.11430933692E+03  0.14150436945E+03  0.00000000000E+00 0. -1.
        -13    1    4    4    0    0 -0.12373924296E+02  0.59028883029E+02 -0.16314642898E+03  0.17393757594E+03  0.00000000000E+00 0.  1.
         13    1    4    4    0    0  0.16341645205E+02  0.42609436643E+02 -0.90599996926E+01  0.46526304962E+02  0.00000000000E+00 0. -1.
          1    1    1    2  501    0 -0.11847827729E+02 -0.50390579028E+02 -0.52942003953E+02  0.74043482220E+02  0.00000000000E+00 0. -1.
<scales pt_clust_5="13000.00000" pt_clust_6="13000.00000" pt_clust_7="13000.00000" pt_clust_8="13000.00000" pt_clust_9="51.76470"></scales>
<clustering>
<clus scale="   51.765">  2  9  1 -1</clus>
<clus scale="   92.753">  7  8 -1 -1</clus>
<clus scale="  110.179">  5  6 -1 -1</clus>
<clus scale="  120.780">  2  7  1 -1</clus>
<clus scale="   51.765">  2  5  1 -1</clus>
</clustering>
</event>
<event>
 9    1  0.3288491E-005  0.1039710E+03  0.7546771E-02  0.1273274E+00
          1   -1    0    0  502    0 -0.00000000000E+00  0.00000000000E+00  0.38966185991E+03  0.38966185991E+03  0.00000000000E+00 0. -1.
         21   -1    0    0  501  502  0.00000000000E+00 -0.00000000000E+00 -0.86454086758E+02  0.86454086758E+02  0.00000000000E+00 0. -1.
         23    2    1    2    0    0 -0.19498603653E+02  0.17581250640E+02  0.15938978284E+03  0.18537769314E+03  0.90942236167E+02 0.  0.
         23    2    1    2    0    0  0.27191095531E+02 -0.68830512923E+02  0.18803318214E+03  0.22261597740E+03  0.93404500017E+02 0.  0.
        -11    1    3    3    0    0 -0.43751849617E+02  0.35398708798E+02  0.63373042177E+02  0.84755149721E+02  0.00000000000E+00 0.  1.
         11    1    3    3    0    0  0.24253245964E+02 -0.17817458159E+02  0.96016740667E+02  0.10062254342E+03  0.00000000000E+00 0. -1.
        -13    1    4    4    0    0  0.33147903927E+02  0.89440639724E+01  0.26973288236E+02  0.43661631822E+02  0.00000000000E+00 0.  1.
         13    1    4    4    0    0 -0.59568083961E+01 -0.77774576896E+02  0.16105989390E+03  0.17895434558E+03  0.00000000000E+00 0. -1.
          1    1    1    2  501    0 -0.76924918778E+01  0.51249262283E+02 -0.44215191833E+02  0.68122276127E+02  0.00000000000E+00 0. -1.
<scales pt_clust_5="13000.00000" pt_clust_6="13000.00000" pt_clust_7="13000.00000" pt_clust_8="13000.00000" pt_clust_9="51.82337"></scales>
<clustering>
<clus scale="   51.823">  2  9  1 -1</clus>
<clus scale="   90.942">  5  6 -1 -1</clus>
<clus scale="   93.405">  7  8 -1 -1</clus>
<clus scale="  101.765">  1  5  2 -1</clus>
<clus scale="   51.823">  2  5  1 -1</clus>
</clustering>
</event>
<event>
 9    1  0.3288491E-005  0.1710862E+03  0.7546771E-02  0.1191527E+00
         -1   -1    0    0    0  501 -0.00000000000E+00  0.00000000000E+00  0.23064608147E+03  0.23064608147E+03  0.00000000000E+00 0.  1.
         21   -1    0    0  501  502  0.00000000000E+00 -0.00000000000E+00 -0.24800314360E+03  0.24800314360E+03  0.00000000000E+00 0.  1.
         23    2    1    2    0    0  0.29878509827E+02  0.75151750176E+02 -0.33624408230E+02  0.12745117184E+03  0.92588819360E+02 0.  0.
         23    2    1    2    0    0 -0.13446686234E+03  0.33006865825E+02  0.82764478102E+02  0.18670222271E+03  0.94005164070E+02 0.  0.
        -11    1    3    3    0    0 -0.68564471951E+01  0.83768208388E+02 -0.15012455647E+02  0.85378553684E+02  0.00000000000E+00 0.  1.
         11    1    3    3    0    0  0.36734957022E+02 -0.86164582118E+01 -0.18611952583E+02  0.42072618156E+02  0.00000000000E+00 0. -1.
        -11    1    4    4    0    0 -0.78643076822E+02  0.63908983646E+02  0.65283390602E+02  0.12054465069E+03  0.00000000000E+00 0.  1.
         11    1    4    4    0    0 -0.55823785514E+02 -0.30902117821E+02  0.17481087501E+02  0.66157572017E+02  0.00000000000E+00 0. -1.
         -1    1    1    2    0  502  0.10458835251E+03 -0.10815861600E+03 -0.66497132000E+02  0.16449583052E+03  0.00000000000E+00 0.  1.
<scales pt_clust_5="13000.00000" pt_clust_6="13000.00000" pt_clust_7="13000.00000" pt_clust_8="13000.00000" pt_clust_9="142.94583"></scales>
<clustering>
<clus scale="   92.589">  5  6 -1 -1</clus>
<clus scale="   94.005">  7  8 -1 -1</clus>
<clus scale="  122.936">  1  5  2 -1</clus>
<clus scale="  142.946">  2  9  1 -1</clus>
<clus scale="  142.946">  2  5  1 -1</clus>
</clustering>
</event>
<event>
 9    1  0.3288491E-005  0.9759771E+02  0.7546771E-02  0.1285487E+00
          1   -1    0    0  502    0 -0.00000000000E+00  0.00000000000E+00  0.41691782478E+03  0.41691782478E+03  0.00000000000E+00 0. -1.
         21   -1    0    0  501  502  0.00000000000E+00 -0.00000000000E+00 -0.86217761789E+02  0.86217761789E+02  0.00000000000E+00 0. -1.
         23    2    1    2    0    0 -0.28051729923E+02  0.14498515696E+02  0.31537946105E+03  0.32963844193E+03  0.90554908417E+02 0.  0.
         23    2    1    2    0    0  0.35772672798E+02 -0.62710629079E+02  0.34672302971E+02  0.12097563315E+03  0.90667679491E+02 0.  0.
        -11    1    4    4    0    0  0.65366329377E+02 -0.33314597242E+02  0.15119634757E+02  0.74908095429E+02  0.00000000000E+00 0.  1.
         11    1    4    4    0    0 -0.29593656578E+02 -0.29396031838E+02  0.19552668213E+02  0.46067537722E+02  0.00000000000E+00 0. -1.
        -11    1    3    3    0    0  0.16388426353E+02 -0.28216164531E+02  0.13966455357E+03  0.14342566013E+03  0.00000000000E+00 0.  1.
         11    1    3    3    0    0 -0.44440156276E+02  0.42714680227E+02  0.17571490748E+03  0.18621278180E+03  0.00000000000E+00 0. -1.
          1    1    1    2  501    0 -0.77209428750E+01  0.48212113383E+02 -0.19351701032E+02  0.52521511484E+02  0.00000000000E+00 0. -1.
<scales pt_clust_5="13000.00000" pt_clust_6="13000.00000" pt_clust_7="13000.00000" pt_clust_8="13000.00000" pt_clust_9="48.82644"></scales>
<clustering>
<clus scale="   48.826">  2  9  1 -1</clus>
<clus scale="   90.555">  7  8 -1 -1</clus>
<clus scale="   90.668">  5  6 -1 -1</clus>
<clus scale="   97.493">  1  7  2 -1</clus>
<clus scale="   48.826">  2  5  1 -1</clus>
</clustering>
</event>
<event>
 9    1  0.3288491E-005  0.1345958E+03  0.7546771E-02  0.1221404E+00
          2   -1    0    0  502    0 -0.00000000000E+00  0.00000000000E+00  0.45984456544E+03  0.45984456544E+03  0.00000000000E+00 0. -1.
         21   -1    0    0  501  502  0.00000000000E+00 -0.00000000000E+00 -0.54337330713E+02  0.54337330713E+02  0.00000000000E+00 0.  1.
         23    2    1    2    0    0  0.65863650225E+02 -0.59518339015E+02  0.19962095829E+03  0.23495675119E+03  0.86462100614E+02 0.  0.
         23    2    1    2    0    0 -0.77377355142E+02  0.94767863285E+02  0.16010678053E+03  0.22031116862E+03  0.89076522433E+02 0.  0.
        -13    1    4    4    0    0  0.19617722355E+02  0.15847629046E+02  0.17785030924E+02  0.30859515579E+02  0.00000000000E+00 0. -1.
         13    1    4    4    0    0 -0.96995077497E+02  0.78920234239E+02  0.14232174960E+03  0.18945165304E+03  0.00000000000E+00 0.  1.
        -13    1    3    3    0    0  0.40866272693E+02 -0.14679479225E+02  0.19386657640E+02  0.47553988777E+02  0.00000000000E+00 0.  1.
         13    1    3    3    0    0  0.24997377532E+02 -0.44838859790E+02  0.18023430065E+03  0.18740276242E+03  0.00000000000E+00 0. -1.
          2    1    1    2  501    0  0.11513704917E+02 -0.35249524270E+02  0.45779495911E+02  0.58913976338E+02  0.00000000000E+00 0. -1.
<scales pt_clust_5="13000.00000" pt_clust_6="13000.00000" pt_clust_7="13000.00000" pt_clust_8="13000.00000" pt_clust_9="37.08226"></scales>
<clustering>
<clus scale="   37.082">  2  9  1 -1</clus>
<clus scale="   86.462">  7  8 -1 -1</clus>
<clus scale="   89.077">  5  6 -1 -1</clus>
<clus scale="  132.880">  1  7  2 -1</clus>
<clus scale="   37.082">  2  5  1 -1</clus>
</clustering>
</event>
<event>
 9    1  0.3288491E-005  0.9424870E+02  0.7546771E-02  0.1295321E+00
         21   -1    0    0  501  502  0.00000000000E+00  0.00000000000E+00  0.65956545998E+02  0.65956545998E+02  0.00000000000E+00 0.  1.
          1   -1    0    0  502    0 -0.00000000000E+00 -0.00000000000E+00 -0.22691343187E+03  0.22691343187E+03  0.00000000000E+00 0. -1.
         23    2    1    2    0    0  0.54729067718E+01 -0.51445875034E+00 -0.13071636482E+03  0.15869182449E+03  0.89811523491E+02 0.  0.
         23    2    1    2    0    0  0.44608544681E+01  0.18463883394E+02 -0.47810175764E+02  0.10716789192E+03  0.94012392483E+02 0.  0.
        -11    1    4    4    0    0  0.17737706288E+02 -0.29249350632E+02  0.52244573098E+01  0.34604128236E+02  0.00000000000E+00 0.  1.
         11    1    4    4    0    0 -0.13276851820E+02  0.47713234026E+02 -0.53034633073E+02  0.72563763689E+02  0.00000000000E+00 0. -1.
        -11    1    3    3    0    0 -0.15603609223E+02  0.27688385616E+02 -0.11643943545E+03  0.12069905322E+03  0.00000000000E+00 0. -1.
         11    1    3    3    0    0  0.21076515995E+02 -0.28202844367E+02 -0.14276929367E+02  0.37992771273E+02  0.00000000000E+00 0.  1.
          1    1    1    2  501    0 -0.99337612399E+01 -0.17949424643E+02  0.17569654708E+02  0.27010261457E+02  0.00000000000E+00 0. -1.
<scales pt_clust_5="13000.00000" pt_clust_6="13000.00000" pt_clust_7="13000.00000" pt_clust_8="13000.00000" pt_clust_9="20.51491"></scales>
<clustering>
<clus scale="   20.515">  1  9  2 -1</clus>
<clus scale="   89.812">  7  8 -1 -1</clus>
<clus scale="   90.059">  2  7  1 -1</clus>
<clus scale="   94.012">  5  6 -1 -1</clus>
<clus scale="   20.515">  1  5  2 -1</clus>
</clustering>
</event>
<event>
 9    1  0.3288491E-005  0.1522816E+03  0.7546771E-02  0.1198854E+00
         21   -1    0    0  501  502  0.00000000000E+00  0.00000000000E+00  0.55162648172E+02  0.55162648172E+02  0.00000000000E+00 0.  1.
          1   -1    0    0  502    0 -0.00000000000E+00 -0.00000000000E+00 -0.67128112758E+03  0.67128112758E+03  0.00000000000E+00 0. -1.
         23    2    1    2    0    0 -0.12059965861E+03  0.67393743564E+02 -0.45170087604E+03  0.48015918034E+03  0.86214631744E+02 0.  0.
         23    2    1    2    0    0  0.84160932215E+02 -0.25235535792E+02 -0.11404758808E+03  0.17116979192E+03  0.92586989037E+02 0.  0.
        -13    1    4    4    0    0  0.73128924773E+02 -0.57297861143E+02 -0.74560489789E+02  0.11912242093E+03  0.00000000000E+00 0.  1.
         13    1    4    4    0    0  0.11032007442E+02  0.32062325351E+02 -0.39487098294E+02  0.52047370988E+02  0.00000000000E+00 0. -1.
        -13    1    3    3    0    0 -0.48394678269E+02  0.63069290097E+02 -0.32182705866E+03  0.33150028043E+03  0.00000000000E+00 0. -1.
         13    1    3    3    0    0 -0.72204980339E+02  0.43244534665E+01 -0.12987381737E+03  0.14865889991E+03  0.00000000000E+00 0.  1.
          1    1    1    2  501    0  0.36438726393E+02 -0.42158207772E+02 -0.50370015285E+02  0.75114803491E+02  0.00000000000E+00 0. -1.
<scales pt_clust_5="13000.00000" pt_clust_6="13000.00000" pt_clust_7="13000.00000" pt_clust_8="13000.00000" pt_clust_9="55.72338"></scales>
<clustering>
<clus scale="   55.723">  1  9  2 -1</clus>
<clus scale="   86.215">  7  8 -1 -1</clus>
<clus scale="   92.587">  5  6 -1 -1</clus>
<clus scale="  148.493">  2  7  1 -1</clus>
<clus scale="   55.723">  1  5  2 -1</clus>
</clustering>
</event>
<event>
 9    1  0.3288491E-005  0.1097343E+03  0.7546771E-02  0.1261191E+00
         21   -1    0    0  501  502  0.00000000000E+00  0.00000000000E+00  0.13063929543E+03  0.13063929543E+03  0.00000000000E+00 0. -1.
         -1   -1    0    0    0  501 -0.00000000000E+00 -0.00000000000E+00 -0.15919263838E+03  0.15919263838E+03  0.00000000000E+00 0.  1.
         23    2    1    2    0    0  0.51242308030E+02  0.17263677524E+02 -0.74674842113E+02  0.12934023546E+03  0.90712489605E+02 0.  0.
         23    2    1    2    0    0 -0.78504522561E+02 -0.17685800489E+02  0.20792387129E+02  0.12327650729E+03  0.91044089794E+02 0.  0.
        -11    1    3    3    0    0  0.13191916689E+02  0.39805868559E+02 -0.74061401644E+02  0.85109488608E+02  0.00000000000E+00 0.  1.
         11    1    3    3    0    0  0.38050391341E+02 -0.22542191035E+02 -0.61344046933E+00  0.44230746852E+02  0.00000000000E+00 0. -1.
        -11    1    4    4    0    0 -0.40717695161E+02 -0.54725950597E+02  0.68358450117E+01  0.68553549471E+02  0.00000000000E+00 0.  1.
         11    1    4    4    0    0 -0.37786827400E+02  0.37040150108E+02  0.13956542117E+02  0.54722957823E+02  0.00000000000E+00 0. -1.
         -1    1    1    2    0  502  0.27262214531E+02  0.42212296486E+00  0.25329112035E+02  0.37215191057E+02  0.00000000000E+00 0.  1.
<scales pt_clust_5="13000.00000" pt_clust_6="13000.00000" pt_clust_7="13000.00000" pt_clust_8="13000.00000" pt_clust_9="27.26548"></scales>
<clustering>
<clus scale="   27.265">  1  9  2 -1</clus>
<clus scale="   90.712">  5  6 -1 -1</clus>
<clus scale="   91.044">  7  8 -1 -1</clus>
<clus scale="  109.459">  2  5  1 -1</clus>
<clus scale="   27.265">  1  5  2 -1</clus>
</clustering>
</event>
<event>
 9    1  0.3288491E-005  0.1568750E+03  0.7546771E-02  0.1210059E+00
         21   -1    0    0  501  502  0.00000000000E+00  0.00000000000E+00  0.23470984109E+03  0.23470984109E+03  0.00000000000E+00 0.  1.
         -3   -1    0    0    0  501 -0.00000000000E+00 -0.00000000000E+00 -0.22460283436E+03  0.22460283436E+03  0.00000000000E+00 0.  1.
         23    2    1    2    0    0  0.33630887661E+02 -0.45508650470E+02  0.75687662196E+02  0.13080252035E+03  0.90435630415E+02 0.  0.
         23    2    1    2    0    0  0.93064695782E+02 -0.10911348711E+02 -0.12163933607E+03  0.17891883569E+03  0.91846211429E+02 0.  0.
        -11    1    3    3    0    0 -0.26234535937E+01  0.24911028145E+02  0.31021261787E+02  0.39871800998E+02  0.00000000000E+00 0. -1.
         11    1    3    3    0    0  0.36254341254E+02 -0.70419678616E+02  0.44666400409E+02  0.90930719351E+02  0.00000000000E+00 0.  1.
        -11    1    4    4    0    0  0.94152851566E+02 -0.39853396080E+02 -0.94051154969E+02  0.13891966163E+03  0.00000000000E+00 0.  1.
         11    1    4    4    0    0 -0.10881557839E+01  0.28942047369E+02 -0.27588181098E+02  0.39999174057E+02  0.00000000000E+00 0. -1.
         -3    1    1    2    0  502 -0.12669558344E+03  0.56419999181E+02  0.56058680600E+02  0.14959131941E+03  0.00000000000E+00 0.  1.
<scales pt_clust_5="13000.00000" pt_clust_6="13000.00000" pt_clust_7="13000.00000" pt_clust_8="13000.00000" pt_clust_9="127.17721"></scales>
<clustering>
<clus scale="   90.436">  5  6 -1 -1</clus>
<clus scale="   91.846">  7  8 -1 -1</clus>
<clus scale="  106.680">  2  5  1 -1</clus>
<clus scale="  127.177">  1  9  2 -1</clus>
<clus scale="  127.177">  1  5  2 -1</clus>
</clustering>
</event>
<event>
 9    1  0.3288491E-005  0.9896217E+02  0.7546771E-02  0.1290322E+00
         -3   -1    0    0    0  501 -0.00000000000E+00  0.00000000000E+00  0.22291563655E+02  0.22291563655E+02  0.00000000000E+00 0.  1.
         21   -1    0    0  501  502  0.00000000000E+00 -0.00000000000E+00 -0.73398789320E+03  0.73398789320E+03  0.00000000000E+00 0. -1.
         23    2    1    2    0    0 -0.17329159519E+02 -0.19767738356E+02 -0.12753110951E+03  0.16047105289E+03  0.93785455551E+02 0.  0.
         23    2    1    2    0    0  0.23728451477E+02  0.41693531631E+02 -0.42364551378E+03  0.43367183362E+03  0.79336926695E+02 0.  0.
        -11    1    3    3    0    0 -0.34678138728E+02 -0.87362904856E+01 -0.13417970223E+03  0.13886356097E+03  0.00000000000E+00 0. -1.
         11    1    3    3    0    0  0.17348979209E+02 -0.11031447870E+02  0.66485927163E+01  0.21607491914E+02  0.00000000000E+00 0.  1.
        -11    1    4    4    0    0  0.41122324670E+01 -0.23839385228E+02 -0.10140511456E+03  0.10425077459E+03  0.00000000000E+00 0.  1.
         11    1    4    4    0    0  0.19616219010E+02  0.65532916858E+02 -0.32224039922E+03  0.32942105903E+03  0.00000000000E+00 0. -1.
         -3    1    1    2    0  502 -0.63992919582E+01 -0.21925793275E+02 -0.16051970626E+03  0.16213657035E+03  0.00000000000E+00 0.  1.
<scales pt_clust_5="13000.00000" pt_clust_6="13000.00000" pt_clust_7="13000.00000" pt_clust_8="13000.00000" pt_clust_9="22.84056"></scales>
<clustering>
<clus scale="   22.841">  2  9  1 -1</clus>
<clus scale="   79.337">  7  8 -1 -1</clus>
<clus scale="   85.394">  2  7  1 -1</clus>
<clus scale="   93.785">  5  6 -1 -1</clus>
<clus scale="   22.841">  2  5  1 -1</clus>
</clustering>
</event>
<event>
 9    1  0.3288491E-005  0.9173171E+02  0.7546771E-02  0.1298884E+00
         21   -1    0    0  501  502  0.00000000000E+00  0.00000000000E+00  0.14498161373E+03  0.14498161373E+03  0.00000000000E+00 0. -1.
          4   -1    0    0  502    0 -0.00000000000E+00 -0.00000000000E+00 -0.22597272207E+03  0.22597272207E+03  0.00000000000E+00 0. -1.
         23    2    1    2    0    0 -0.22337362248E+02  0.36137295805E+01 -0.13889925889E+03  0.16734387268E+03  0.90548058026E+02 0.  0.
         23    2    1    2    0    0 -0.52087128980E+01 -0.11394263749E+02 -0.41529464793E+02  0.10013504423E+03  0.90251707468E+02 0.  0.
        -11    1    3    3    0    0 -0.27507831928E+02 -0.32500931483E+02 -0.11766329666E+03  0.12513050286E+03  0.00000000000E+00 0.  1.
         11    1    3    3    0    0  0.51704696795E+01  0.36114661063E+02 -0.21235962225E+02  0.42213369826E+02  0.00000000000E+00 0. -1.
        -13    1    4    4    0    0 -0.16849812377E+02  0.28783802860E+02 -0.47333182431E+02  0.57903830990E+02  0.00000000000E+00 0. -1.
         13    1    4    4    0    0  0.11641099479E+02 -0.40178066609E+02  0.58037176379E+01  0.42231213242E+02  0.00000000000E+00 0.  1.
          4    1    1    2  501    0  0.27546075146E+02  0.77805341687E+01  0.99437615342E+02  0.10347541888E+03  0.00000000000E+00 0. -1.
<scales pt_clust_5="13000.00000" pt_clust_6="13000.00000" pt_clust_7="13000.00000" pt_clust_8="13000.00000" pt_clust_9="28.62382"></scales>
<clustering>
<clus scale="   28.624">  1  9  2 -1</clus>
<clus scale="   90.252">  7  8 -1 -1</clus>
<clus scale="   90.548">  5  6 -1 -1</clus>
<clus scale="   91.439">  1  7  2 -1</clus>
<clus scale="   28.624">  1  5  2 -1</clus>
</clustering>
</event>
<event>
 9    1  0.3288491E-005  0.1166502E+03  0.7546771E-02  0.1249141E+00
         21   -1    0    0  501  502  0.00000000000E+00  0.00000000000E+00  0.57091220269E+02  0.57091220269E+02  0.00000000000E+00 0. -1.
          3   -1    0    0  502    0 -0.00000000000E+00 -0.00000000000E+00 -0.39814162469E+03  0.39814162469E+03  0.00000000000E+00 0. -1.
         23    2    1    2    0    0  0.71705102941E+02  0.20401927321E+02 -0.25554277133E+03  0.28159436740E+03  0.91844539020E+02 0.  0.
         23    2    1    2    0    0 -0.69891951435E+02  0.14695537496E+02 -0.71903937196E+02  0.13595320063E+03  0.90621481343E+02 0.  0.
        -11    1    3    3    0    0  0.25170424981E+02 -0.22916647898E+02 -0.17845198155E+03  0.18166957028E+03  0.00000000000E+00 0.  1.
         11    1    3    3    0    0  0.46534677961E+02  0.43318575219E+02 -0.77090789771E+02  0.99924797120E+02  0.00000000000E+00 0. -1.
        -13    1    4    4    0    0 -0.41150414925E+02  0.53019119233E+02 -0.47238241740E+02  0.82072133733E+02  0.00000000000E+00 0. -1.
         13    1    4    4    0    0 -0.28741536510E+02 -0.38323581738E+02 -0.24665695455E+02  0.53881066902E+02  0.00000000000E+00 0.  1.
          3    1    1    2  501    0 -0.18131515059E+01 -0.35097464817E+02 -0.13603695904E+02  0.37685276929E+02  0.00000000000E+00 0. -1.
<scales pt_clust_5="13000.00000" pt_clust_6="13000.00000" pt_clust_7="13000.00000" pt_clust_8="13000.00000" pt_clust_9="35.14427"></scales>
<clustering>
<clus scale="   35.144">  1  9  2 -1</clus>
<clus scale="   90.621">  7  8 -1 -1</clus>
<clus scale="   91.845">  5  6 -1 -1</clus>
<clus scale="  115.690">  1  7  2 -1</clus>
<clus scale="   35.144">  1  5  2 -1</clus>
</clustering>
</event>
<event>
 9    1  0.4108420E-005  0.1055597E+03  0.7546771E-02  0.1269383E+00
         21   -1    0    0  501  502  0.00000000000E+00  0.00000000000E+00  0.15375251684E+03  0.15375251684E+03  0.00000000000E+00 0. -1.
         -1   -1    0    0    0  501 -0.00000000000E+00 -0.00000000000E+00 -0.32281377378E+03  0.32281377378E+03  0.00000000000E+00 0.  1.
         23    2    1    2    0    0 -0.34632399877E+02 -0.38411314667E+02 -0.27262208953E+03  0.29178923234E+03  0.90240346805E+02 0.  0.
         23    2    1    2    0    0  0.29959677241E+02  0.71035562936E+02  0.88315343405E+02  0.14846451427E+03  0.91095985948E+02 0.  0.
        -13    1    4    4    0    0  0.59460524266E+02  0.42334361964E+02  0.76292558857E+02  0.10558554203E+03  0.00000000000E+00 0. -1.
         13    1    4    4    0    0 -0.29500847025E+02  0.28701200972E+02  0.12022784548E+02  0.42878972244E+02  0.00000000000E+00 0.  1.
        -13    1    3    3    0    0 -0.60110908288E+02 -0.17042082949E+02 -0.22630144227E+03  0.23476817642E+03  0.00000000000E+00 0.  1.
         13    1    3    3    0    0  0.25478508411E+02 -0.21369231718E+02 -0.46320647262E+02  0.57021055916E+02  0.00000000000E+00 0. -1.
         -1    1    1    2    0  502  0.46727226357E+01 -0.32624248269E+02  0.15245489182E+02  0.36312544008E+02  0.00000000000E+00 0.  1.
<scales pt_clust_5="13000.00000" pt_clust_6="13000.00000" pt_clust_7="13000.00000" pt_clust_8="13000.00000" pt_clust_9="32.95718"></scales>
<clustering>
<clus scale="   32.957">  1  9  2 -1</clus>
<clus scale="   90.240">  7  8 -1 -1</clus>
<clus scale="   91.096">  5  6 -1 -1</clus>
<clus scale="  104.822">  2  7  1 -1</clus>
<clus scale="   32.957">  1  5  2 -1</clus>
</clustering>
</event>
<event>
 9    1  0.3288491E-005  0.1167676E+03  0.7546771E-02  0.1249960E+00
         21   -1    0    0  501  502  0.00000000000E+00  0.00000000000E+00  0.67415867610E+02  0.67415867610E+02  0.00000000000E+00 0. -1.
         -1   -1    0    0    0  501 -0.00000000000E+00 -0.00000000000E+00 -0.52828518773E+03  0.52828518773E+03  0.00000000000E+00 0.  1.
         23    2    1    2    0    0  0.23317635566E+02  0.52257925964E+02 -0.32980218611E+03  0.34696785000E+03  0.91337856426E+02 0.  0.
         23    2    1    2    0    0 -0.43324084449E+02 -0.88822677098E+02 -0.14961725970E+03  0.20311143219E+03  0.95406945392E+02 0.  0.
        -11    1    4    4    0    0 -0.70578247071E+02 -0.46454863595E+02 -0.11170809318E+03  0.14006441873E+03  0.00000000000E+00 0.  1.
         11    1    4    4    0    0  0.27254162622E+02 -0.42367813502E+02 -0.37909166514E+02  0.63047013466E+02  0.00000000000E+00 0. -1.
        -13    1    3    3    0    0  0.40294801661E+02  0.71094990365E+02 -0.26744615404E+03  0.27965266673E+03  0.00000000000E+00 0. -1.
         13    1    3    3    0    0 -0.16977166094E+02 -0.18837064401E+02 -0.62356032065E+02  0.67315183271E+02  0.00000000000E+00 0.  1.
         -1    1    1    2    0  502  0.20006448883E+02  0.36564751134E+02  0.18550125683E+02  0.45621773149E+02  0.00000000000E+00 0.  1.
<scales pt_clust_5="13000.00000" pt_clust_6="13000.00000" pt_clust_7="13000.00000" pt_clust_8="13000.00000" pt_clust_9="41.68020"></scales>
<clustering>
<clus scale="   41.680">  1  9  2 -1</clus>
<clus scale="   91.338">  7  8 -1 -1</clus>
<clus scale="   95.407">  5  6 -1 -1</clus>
<clus scale="  113.467">  2  7  1 -1</clus>
<clus scale="   41.680">  1  5  2 -1</clus>
</clustering>
</event>
<event>
 9    1  0.3288491E-005  0.2486019E+03  0.7546771E-02  0.1114525E+00
         21   -1    0    0  501  502  0.00000000000E+00  0.00000000000E+00  0.28030442465E+03  0.28030442465E+03  0.00000000000E+00 0.  1.
         -3   -1    0    0    0  501 -0.00000000000E+00 -0.00000000000E+00 -0.50002635556E+03  0.50002635556E+03  0.00000000000E+00 0.  1.
         23    2    1    2    0    0  0.69454592276E+02  0.20970706177E+03 -0.26270322525E+03  0.35509125593E+03  0.90971552346E+02 0.  0.
         23    2    1    2    0    0 -0.13826540630E+03 -0.21960444362E+03 -0.79465805230E+02  0.28443406101E+03  0.85114549986E+02 0.  0.
        -11    1    4    4    0    0 -0.84439907959E+02 -0.13073764842E+03 -0.34069028473E+01  0.15567285492E+03  0.00000000000E+00 0. -1.
         11    1    4    4    0    0 -0.53825498344E+02 -0.88866795199E+02 -0.76058902383E+02  0.12876120609E+03  0.00000000000E+00 0.  1.
        -11    1    3    3    0    0  0.54668140046E+02  0.38558454136E+02 -0.80632611378E+02  0.10477107396E+03  0.00000000000E+00 0. -1.
         11    1    3    3    0    0  0.14786452231E+02  0.17114860763E+03 -0.18207061387E+03  0.25032018196E+03  0.00000000000E+00 0.  1.
         -3    1    1    2    0  502  0.68810814027E+02  0.98973818552E+01  0.12244709957E+03  0.14080546327E+03  0.00000000000E+00 0.  1.
<scales pt_clust_5="13000.00000" pt_clust_6="13000.00000" pt_clust_7="13000.00000" pt_clust_8="13000.00000" pt_clust_9="69.51896"></scales>
<clustering>
<clus scale="   69.519">  1  9  2 -1</clus>
<clus scale="   85.115">  5  6 -1 -1</clus>
<clus scale="   90.972">  7  8 -1 -1</clus>
<clus scale="  246.519">  1  5  2 -1</clus>
<clus scale="   69.519">  1  5  2 -1</clus>
</clustering>
</event>
<event>
 9    1  0.3627923E-005  0.1225358E+03  0.7546771E-02  0.1240963E+00
         21   -1    0    0  501  502  0.00000000000E+00  0.00000000000E+00  0.38276187376E+03  0.38276187376E+03  0.00000000000E+00 0. -1.
          3   -1    0    0  502    0 -0.00000000000E+00 -0.00000000000E+00 -0.28323800893E+03  0.28323800893E+03  0.00000000000E+00 0. -1.
         23    2    1    2    0    0 -0.16057705088E+02 -0.94830251171E+02 -0.18331104890E+03  0.22892982653E+03  0.97751206619E+02 0.  0.
         23    2    1    2    0    0 -0.21143997979E+02  0.41124450386E+02 -0.38181856573E+02  0.10947267130E+03  0.91586694011E+02 0.  0.
        -11    1    4    4    0    0  0.18581257682E+01  0.59338193502E+02  0.23761407056E+01  0.59414811992E+02  0.00000000000E+00 0.  1.
         11    1    4    4    0    0 -0.23002123747E+02 -0.18213743115E+02 -0.40557997279E+02  0.50057859307E+02  0.00000000000E+00 0. -1.
        -13    1    3    3    0    0 -0.21560799295E+02 -0.41703997473E+01  0.25057349548E+01  0.22102918540E+02  0.00000000000E+00 0.  1.
         13    1    3    3    0    0  0.55030942076E+01 -0.90659851424E+02 -0.18581678385E+03  0.20682690799E+03  0.00000000000E+00 0. -1.
          3    1    1    2  501    0  0.37201703066E+02  0.53705800785E+02  0.32101677031E+03  0.32759738486E+03  0.00000000000E+00 0. -1.
<scales pt_clust_5="13000.00000" pt_clust_6="13000.00000" pt_clust_7="13000.00000" pt_clust_8="13000.00000" pt_clust_9="65.33207"></scales>
<clustering>
<clus scale="   65.332">  1  9  2 -1</clus>
<clus scale="   91.587">  5  6 -1 -1</clus>
<clus scale="   97.751">  7  8 -1 -1</clus>
<clus scale="  117.677">  1  5  2 -1</clus>
<clus scale="   65.332">  1  5  2 -1</clus>
</clustering>
</event>
<event>
 9    1  0.3288491E-005  0.2524440E+03  0.7546771E-02  0.1111899E+00
         21   -1    0    0  501  502  0.00000000000E+00  0.00000000000E+00  0.28074465473E+03  0.28074465473E+03  0.00000000000E+00 0.  1.
          1   -1    0    0  502    0 -0.00000000000E+00 -0.00000000000E+00 -0.54005409826E+03  0.54005409826E+03  0.00000000000E+00 0. -1.
         23    2    1    2    0    0 -0.79946633338E+02 -0.21121055811E+03 -0.33949185599E+03  0.41827182754E+03  0.93248256774E+02 0.  0.
         23    2    1    2    0    0  0.22342780863E+02  0.27526656102E+03  0.92323656191E+01  0.29092367964E+03  0.90997095136E+02 0.  0.
        -11    1    4    4    0    0 -0.26332908474E+02  0.10241107312E+03  0.30594302804E+02  0.11007934107E+03  0.00000000000E+00 0.  1.
         11    1    4    4    0    0  0.48675689337E+02  0.17285548790E+03 -0.21361937185E+02  0.18084433856E+03  0.00000000000E+00 0. -1.
        -13    1    3    3    0    0 -0.45719947781E+02 -0.20824357493E+02 -0.58158295023E+02  0.76852812376E+02  0.00000000000E+00 0.  1.
         13    1    3    3    0    0 -0.34226685558E+02 -0.19038620062E+03 -0.28133356097E+03  0.34141901517E+03  0.00000000000E+00 0. -1.
          1    1    1    2  501    0  0.57603852475E+02 -0.64056002912E+02  0.70950046843E+02  0.11160324581E+03  0.00000000000E+00 0. -1.
<scales pt_clust_5="13000.00000" pt_clust_6="13000.00000" pt_clust_7="13000.00000" pt_clust_8="13000.00000" pt_clust_9="86.14740"></scales>
<clustering>
<clus scale="   86.147">  1  9  2 -1</clus>
<clus scale="   90.997">  5  6 -1 -1</clus>
<clus scale="   93.248">  7  8 -1 -1</clus>
<clus scale="  251.621">  1  5  2 -1</clus>
<clus scale="   86.147">  1  5  2 -1</clus>
</clustering>
</event>
<event>
 9    1  0.3288491E-005  0.2577390E+03  0.7546771E-02  0.1110690E+00
          2   -1    0    0  502    0 -0.00000000000E+00  0.00000000000E+00  0.11684997227E+04  0.11684997227E+04  0.00000000000E+00 0. -1.
         21   -1    0    0  501  502  0.00000000000E+00 -0.00000000000E+00 -0.79242436942E+02  0.79242436942E+02  0.00000000000E+00 0. -1.
         23    2    1    2    0    0 -0.17499870421E+03  0.12886516703E+03  0.51347892067E+03  0.56498756230E+03  0.91211654026E+02 0.  0.
         23    2    1    2    0    0  0.18508152435E+03 -0.14614779458E+03  0.59692781736E+03  0.65364013686E+03  0.12372655682E+03 0.  0.
        -13    1    3    3    0    0 -0.38818977400E+02  0.52493574646E+02  0.74448406666E+02  0.99020470816E+02  0.00000000000E+00 0.  1.
         13    1    3    3    0    0 -0.13617972681E+03  0.76371592381E+02  0.43903051401E+03  0.46596709149E+03  0.00000000000E+00 0. -1.
        -13    1    4    4    0    0  0.14210296556E+03 -0.64483438271E+02  0.25048595286E+03  0.29511790731E+03  0.00000000000E+00 0.  1.
         13    1    4    4    0    0  0.42978558784E+02 -0.81664356306E+02  0.34644186450E+03  0.35852222955E+03  0.00000000000E+00 0. -1.
          2    1    1    2  501    0 -0.10082820136E+02  0.17282627550E+02 -0.21149452282E+02  0.29114460475E+02  0.00000000000E+00 0. -1.
<scales pt_clust_5="13000.00000" pt_clust_6="13000.00000" pt_clust_7="13000.00000" pt_clust_8="13000.00000" pt_clust_9="20.00881"></scales>
<clustering>
<clus scale="   20.009">  2  9  1 -1</clus>
<clus scale="   91.212">  5  6 -1 -1</clus>
<clus scale="  123.727">  7  8 -1 -1</clus>
<clus scale="  243.805">  1  5  2 -1</clus>
<clus scale="   20.009">  2  5  1 -1</clus>
</clustering>
</event>
<event>
 9    1  0.3288491E-005  0.1042449E+03  0.7546771E-02  0.1275134E+00
         -4   -1    0    0    0  501 -0.00000000000E+00  0.00000000000E+00  0.52557382883E+03  0.52557382883E+03  0.00000000000E+00 0.  1.
         21   -1    0    0  501  502  0.00000000000E+00 -0.00000000000E+00 -0.24309016729E+02  0.24309016729E+02  0.00000000000E+00 0. -1.
         23    2    1    2    0    0 -0.39516347976E+02 -0.34427339464E+02  0.25439885791E+03  0.27333780552E+03  0.85135148775E+02 0.  0.
         23    2    1    2    0    0  0.41337762789E+02  0.12351587900E+02  0.19886284357E+03  0.22367770619E+03  0.92865027543E+02 0.  0.
        -11    1    4    4    0    0 -0.17925156967E+02 -0.11240713078E+02  0.83087094734E+01  0.22731025844E+02  0.00000000000E+00 0. -1.
         11    1    4    4    0    0  0.59262919756E+02  0.23592300979E+02  0.19055413409E+03  0.20094668035E+03  0.00000000000E+00 0.  1.
        -13    1    3    3    0    0 -0.39324085912E+02  0.15642685957E+02  0.66035256539E+02  0.78432980709E+02  0.00000000000E+00 0.  1.
         13    1    3    3    0    0 -0.19226206440E+00 -0.50070025422E+02  0.18836360138E+03  0.19490482481E+03  0.00000000000E+00 0. -1.
         -4    1    1    2    0  502 -0.18214148129E+01  0.22075751564E+02  0.48003110622E+02  0.52867333850E+02  0.00000000000E+00 0.  1.
<scales pt_clust_5="13000.00000" pt_clust_6="13000.00000" pt_clust_7="13000.00000" pt_clust_8="13000.00000" pt_clust_9="22.15076"></scales>
<clustering>
<clus scale="   22.151">  2  9  1 -1</clus>
<clus scale="   85.135">  7  8 -1 -1</clus>
<clus scale="   92.865">  5  6 -1 -1</clus>
<clus scale="   97.422">  1  7  2 -1</clus>
<clus scale="   22.151">  2  5  1 -1</clus>
</clustering>
</event>
<event>
 9    1  0.3288491E-005  0.1461294E+03  0.7546771E-02  0.1205428E+00
         -3   -1    0    0    0  501 -0.00000000000E+00  0.00000000000E+00  0.33707590797E+03  0.33707590797E+03  0.00000000000E+00 0.  1.
         21   -1    0    0  501  502  0.00000000000E+00 -0.00000000000E+00 -0.17534381861E+03  0.17534381861E+03  0.00000000000E+00 0. -1.
         23    2    1    2    0    0 -0.41472175172E+02  0.95338307943E+02  0.18252604505E+03  0.22985061710E+03  0.93307099321E+02 0.  0.
         23    2    1    2    0    0  0.61065931221E+02 -0.11537851332E+03  0.79256052463E+02  0.17866757321E+03  0.92732575589E+02 0.  0.
        -11    1    4    4    0    0  0.73188477830E+02 -0.47941005398E+02  0.64186015536E+02  0.10851146426E+03  0.00000000000E+00 0.  1.
         11    1    4    4    0    0 -0.12122546609E+02 -0.67437507919E+02  0.15070036927E+02  0.70156108954E+02  0.00000000000E+00 0. -1.
        -13    1    3    3    0    0  0.10378174927E+02  0.84288493457E+02  0.94150916481E+02  0.12679373690E+03  0.00000000000E+00 0.  1.
         13    1    3    3    0    0 -0.51850350099E+02  0.11049814486E+02  0.88375128568E+02  0.10305688019E+03  0.00000000000E+00 0. -1.
         -3    1    1    2    0  502 -0.19593756049E+02  0.20040205373E+02 -0.10005000815E+03  0.10390153627E+03  0.00000000000E+00 0.  1.
<scales pt_clust_5="13000.00000" pt_clust_6="13000.00000" pt_clust_7="13000.00000" pt_clust_8="13000.00000" pt_clust_9="28.02722"></scales>
<clustering>
<clus scale="   28.027">  2  9  1 -1</clus>
<clus scale="   92.733">  5  6 -1 -1</clus>
<clus scale="   93.307">  7  8 -1 -1</clus>
<clus scale="  145.763">  2  5  1 -1</clus>
<clus scale="   28.027">  2  5  1 -1</clus>
</clustering>
</event>
<event>
 9    1  0.3288491E-005  0.9570504E+02  0.7546771E-02  0.1289760E+00
          1   -1    0    0  502    0 -0.00000000000E+00  0.00000000000E+00  0.66416777606E+02  0.66416777606E+02  0.00000000000E+00 0. -1.
         21   -1    0    0  501  502  0.00000000000E+00 -0.00000000000E+00 -0.28994553317E+03  0.28994553317E+03  0.00000000000E+00 0.  1.
         23    2    1    2    0    0 -0.64683283217E+01  0.45341297660E+01 -0.40468712071E+02  0.10008899175E+03  0.91201381616E+02 0.  0.
         23    2    1    2    0    0  0.18189709631E+02 -0.66366367393E+02 -0.97179466807E+02  0.14980224389E+03  0.90892811857E+02 0.  0.
        -11    1    4    4    0    0  0.44000354800E+02 -0.30119026023E+01 -0.50158238103E+02  0.66790355811E+02  0.00000000000E+00 0. -1.
         11    1    4    4    0    0 -0.25810645170E+02 -0.63354464790E+02 -0.47021228705E+02  0.83011888076E+02  0.00000000000E+00 0.  1.
        -13    1    3    3    0    0 -0.23711592328E+02  0.42963827060E+02 -0.17410664418E+02  0.52069773208E+02  0.00000000000E+00 0. -1.
         13    1    3    3    0    0  0.17243264006E+02 -0.38429697294E+02 -0.23058047653E+02  0.48019218541E+02  0.00000000000E+00 0.  1.
          1    1    1    2  501    0 -0.11721381309E+02  0.61832237627E+02 -0.85880576684E+02  0.10647107514E+03  0.00000000000E+00 0. -1.
<scales pt_clust_5="13000.00000" pt_clust_6="13000.00000" pt_clust_7="13000.00000" pt_clust_8="13000.00000" pt_clust_9="62.93343"></scales>
<clustering>
<clus scale="   62.933">  2  9  1 -1</clus>
<clus scale="   90.893">  5  6 -1 -1</clus>
<clus scale="   91.201">  7  8 -1 -1</clus>
<clus scale="   95.411">  2  5  1 -1</clus>
<clus scale="   62.933">  2  5  1 -1</clus>
</clustering>
</event>
<event>
 9    1  0.3288491E-005  0.1497434E+03  0.7546771E-02  0.1200802E+00
         21   -1    0    0  501  502  0.00000000000E+00  0.00000000000E+00  0.28184583682E+03  0.28184583682E+03  0.00000000000E+00 0. -1.
          1   -1    0    0  502    0 -0.00000000000E+00 -0.00000000000E+00 -0.65522789083E+03  0.65522789083E+03  0.00000000000E+00 0. -1.
         23    2    1    2    0    0  0.23932841322E+02  0.11116090270E+03 -0.51937292914E+03  0.53951780930E+03  0.91660786856E+02 0.  0.
         23    2    1    2    0    0 -0.82883857869E+02 -0.13420230778E+03 -0.51967851386E+02  0.18972477029E+03  0.91732423782E+02 0.  0.
        -11    1    3    3    0    0 -0.17605365442E+02  0.83879565662E+02 -0.22105206846E+03  0.23708594939E+03  0.00000000000E+00 0. -1.
         11    1    3    3    0    0  0.41538206764E+02  0.27281337034E+02 -0.29832086068E+03  0.30243185991E+03  0.00000000000E+00 0.  1.
        -13    1    4    4    0    0 -0.54832236513E+02 -0.62897480391E+02 -0.72344677492E+02  0.11043740110E+03  0.00000000000E+00 0. -1.
         13    1    4    4    0    0 -0.28051621356E+02 -0.71304827394E+02  0.20376826105E+02  0.79287369187E+02  0.00000000000E+00 0.  1.
          1    1    1    2  501    0  0.58951016547E+02  0.23041405089E+02  0.19795872652E+03  0.20783114806E+03  0.00000000000E+00 0. -1.
<scales pt_clust_5="13000.00000" pt_clust_6="13000.00000" pt_clust_7="13000.00000" pt_clust_8="13000.00000" pt_clust_9="63.29399"></scales>
<clustering>
<clus scale="   63.294">  1  9  2 -1</clus>
<clus scale="   91.661">  5  6 -1 -1</clus>
<clus scale="   91.732">  7  8 -1 -1</clus>
<clus scale="  149.700">  2  5  1 -1</clus>
<clus scale="   63.294">  1  5  2 -1</clus>
</clustering>
</event>
<event>
 9    1  0.3288491E-005  0.1016969E+03  0.7546771E-02  0.1277477E+00
          4   -1    0    0  502    0 -0.00000000000E+00  0.00000000000E+00  0.40566628447E+03  0.40566628447E+03  0.00000000000E+00 0. -1.
         21   -1    0    0  501  502  0.00000000000E+00 -0.00000000000E+00 -0.51141750666E+02  0.51141750666E+02  0.00000000000E+00 0. -1.
         23    2    1    2    0    0 -0.49170092738E+02  0.35325863023E+02  0.22121905417E+03  0.24748053296E+03  0.92968433618E+02 0.  0.
         23    2    1    2    0    0 -0.93009185698E+01 -0.29693283197E+02  0.10927213073E+03  0.14585950254E+03  0.91468015026E+02 0.  0.
        -11    1    3    3    0    0  0.47520481402E+01 -0.23965348246E+02  0.93988765976E+02  0.97112347350E+02  0.00000000000E+00 0.  1.
         11    1    3    3    0    0 -0.53922140878E+02  0.59291211269E+02  0.12723028819E+03  0.15036818561E+03  0.00000000000E+00 0. -1.
        -11    1    4    4    0    0  0.23466105942E+02 -0.32644383363E+02  0.10213615787E+02  0.41480499523E+02  0.00000000000E+00 0.  1.
         11    1    4    4    0    0 -0.32767024512E+02  0.29511001662E+01  0.99058514943E+02  0.10437900301E+03  0.00000000000E+00 0. -1.
          4    1    1    2  501    0  0.58471011308E+02 -0.56325798260E+01  0.24033348913E+02  0.63467999644E+02  0.00000000000E+00 0. -1.
<scales pt_clust_5="13000.00000" pt_clust_6="13000.00000" pt_clust_7="13000.00000" pt_clust_8="13000.00000" pt_clust_9="58.74168"></scales>
<clustering>
<clus scale="   58.742">  2  9  1 -1</clus>
<clus scale="   91.468">  7  8 -1 -1</clus>
<clus scale="   92.968">  5  6 -1 -1</clus>
<clus scale="  100.327">  2  7  1 -1</clus>
<clus scale="   58.742">  2  5  1 -1</clus>
</clustering>
</event>
<event>
 9    1  0.3288491E-005  0.9926493E+02  0.7546771E-02  0.1283184E+00
         -3   -1    0    0    0  501 -0.00000000000E+00  0.00000000000E+00  0.31356559661E+03  0.31356559661E+03  0.00000000000E+00 0.  1.
         21   -1    0    0  501  502  0.00000000000E+00 -0.00000000000E+00 -0.85616878346E+02  0.85616878346E+02  0.00000000000E+00 0.  1.
         23    2    1    2    0    0 -0.14907313346E+02  0.23563002658E+02  0.21148048486E+03  0.23294614314E+03  0.93608050092E+02 0.  0.
         23    2    1    2    0    0  0.10843265629E+02 -0.48257557741E+02  0.57298602886E+02  0.11834628476E+03  0.90974419127E+02 0.  0.
        -11    1    4    4    0    0 -0.25757650409E+02  0.77365314991E+00 -0.97720932797E+01  0.27559914747E+02  0.00000000000E+00 0. -1.
         11    1    4    4    0    0  0.36600916038E+02 -0.49031210891E+02  0.67070696166E+02  0.90786370015E+02  0.00000000000E+00 0.  1.
        -13    1    3    3    0    0 -0.42300974000E+02 -0.19466106113E+02  0.95711286143E+02  0.10643754969E+03  0.00000000000E+00 0.  1.
         13    1    3    3    0    0  0.27393660654E+02  0.43029108771E+02  0.11576919872E+03  0.12650859346E+03  0.00000000000E+00 0. -1.
         -3    1    1    2    0  502  0.40640477165E+01  0.24694555083E+02 -0.40830369484E+02  0.47890047053E+02  0.00000000000E+00 0.  1.
<scales pt_clust_5="13000.00000" pt_clust_6="13000.00000" pt_clust_7="13000.00000" pt_clust_8="13000.00000" pt_clust_9="25.02674"></scales>
<clustering>
<clus scale="   25.027">  2  9  1 -1</clus>
<clus scale="   90.974">  5  6 -1 -1</clus>
<clus scale="   93.608">  7  8 -1 -1</clus>
<clus scale="   96.785">  2  5  1 -1</clus>
<clus scale="   25.027">  2  5  1 -1</clus>
</clustering>
</event>
<event>
 9    1  0.3288491E-005  0.1297969E+03  0.7546771E-02  0.1228370E+00
         21   -1    0    0  501  502  0.00000000000E+00  0.00000000000E+00  0.67941626069E+02  0.67941626069E+02  0.00000000000E+00 0.  1.
          3   -1    0    0  502    0 -0.00000000000E+00 -0.00000000000E+00 -0.48791867259E+03  0.48791867259E+03  0.00000000000E+00 0. -1.
         23    2    1    2    0    0  0.37159384788E+02  0.77607133100E+02 -0.31328653665E+03  0.33799740464E+03  0.93220730057E+02 0.  0.
         23    2    1    2    0    0 -0.69589024806E+02 -0.77427656647E+02 -0.11976929796E+03  0.18289478768E+03  0.90929336523E+02 0.  0.
        -11    1    3    3    0    0 -0.12376098385E+02  0.18706590038E+02 -0.90657570681E+01  0.24192814497E+02  0.00000000000E+00 0.  1.
         11    1    3    3    0    0  0.49535483173E+02  0.58900543062E+02 -0.30422077958E+03  0.31380459014E+03  0.00000000000E+00 0. -1.
        -13    1    4    4    0    0 -0.23138636828E+02 -0.87655899768E+02 -0.79043382200E+02  0.12027805098E+03  0.00000000000E+00 0.  1.
         13    1    4    4    0    0 -0.46450387978E+02  0.10228243121E+02 -0.40725915756E+02  0.62616736699E+02  0.00000000000E+00 0. -1.
          3    1    1    2  501    0  0.32429640019E+02 -0.17947645287E+00  0.13078788079E+02  0.34968106342E+02  0.00000000000E+00 0. -1.
<scales pt_clust_5="13000.00000" pt_clust_6="13000.00000" pt_clust_7="13000.00000" pt_clust_8="13000.00000" pt_clust_9="32.43014"></scales>
<clustering>
<clus scale="   32.430">  1  9  2 -1</clus>
<clus scale="   90.929">  7  8 -1 -1</clus>
<clus scale="   93.221">  5  6 -1 -1</clus>
<clus scale="  128.161">  1  7  2 -1</clus>
<clus scale="   32.430">  1  5  2 -1</clus>
</clustering>
</event>
<event>
 9    1  0.3288491E-005  0.1029516E+03  0.7546771E-02  0.1276545E+00
          2   -1    0    0  502    0 -0.00000000000E+00  0.00000000000E+00  0.47470650232E+03  0.47470650232E+03  0.00000000000E+00 0.  1.
         21   -1    0    0  501  502  0.00000000000E+00 -0.00000000000E+00 -0.36637732013E+02  0.36637732013E+02  0.00000000000E+00 0.  1.
         23    2    1    2    0    0 -0.28957875189E+02 -0.22906262129E+02  0.31389151908E+03  0.33083922569E+03  0.97792904279E+02 0.  0.
         23    2    1    2    0    0  0.69917835460E+01  0.25929722579E+02  0.12523746722E+03  0.15830648272E+03  0.93033777336E+02 0.  0.
        -11    1    4    4    0    0  0.21118285725E+02  0.40143979153E+02  0.17336028691E+02  0.48559849104E+02  0.00000000000E+00 0. -1.
         11    1    4    4    0    0 -0.14126502179E+02 -0.14214256574E+02  0.10790143853E+03  0.10974663361E+03  0.00000000000E+00 0.  1.
        -11    1    3    3    0    0  0.36234031956E+02 -0.12544051720E+02  0.12474671432E+03  0.13050670879E+03  0.00000000000E+00 0. -1.
         11    1    3    3    0    0 -0.65191907145E+02 -0.10362210409E+02  0.18914480475E+03  0.20033251690E+03  0.00000000000E+00 0.  1.
          2    1    1    2  501    0  0.21966091643E+02 -0.30234604502E+01 -0.10602159878E+01  0.22198525922E+02  0.00000000000E+00 0.  1.
<scales pt_clust_5="13000.00000" pt_clust_6="13000.00000" pt_clust_7="13000.00000" pt_clust_8="13000.00000" pt_clust_9="22.17319"></scales>
<clustering>
<clus scale="   22.173">  2  9  1 -1</clus>
<clus scale="   93.034">  5  6 -1 -1</clus>
<clus scale="   97.793">  7  8 -1 -1</clus>
<clus scale="   98.442">  2  5  1 -1</clus>
<clus scale="   22.173">  2  5  1 -1</clus>
</clustering>
</event>
<event>
 9    1  0.3288491E-005  0.1035502E+03  0.7546771E-02  0.1277637E+00
         21   -1    0    0  501  502  0.00000000000E+00  0.00000000000E+00  0.12420115059E+03  0.12420115059E+03  0.00000000000E+00 0.  1.
          1   -1    0    0  502    0 -0.00000000000E+00 -0.00000000000E+00 -0.20462788142E+03  0.20462788142E+03  0.00000000000E+00 0. -1.
         23    2    1    2    0    0  0.15725934459E+02 -0.10708817587E+02 -0.13980775213E+03  0.17352066800E+03  0.10100114296E+03 0.  0.
         23    2    1    2    0    0 -0.12334996595E+02  0.39981472866E+02  0.15142800894E+02  0.10215380681E+03  0.91953387717E+02 0.  0.
        -13    1    4    4    0    0  0.10295088262E+01  0.63793224863E+02 -0.10541561550E+02  0.64666528798E+02  0.00000000000E+00 0.  1.
         13    1    4    4    0    0 -0.13364505421E+02 -0.23811751997E+02  0.25684362445E+02  0.37487278009E+02  0.00000000000E+00 0. -1.
        -13    1    3    3    0    0  0.10193848446E+02 -0.53602077053E+02 -0.50746034421E+02  0.74513470057E+02  0.00000000000E+00 0. -1.
         13    1    3    3    0    0  0.55320860125E+01  0.42893259466E+02 -0.89061717709E+02  0.99007197943E+02  0.00000000000E+00 0.  1.
          1    1    1    2  501    0 -0.33909378636E+01 -0.29272655279E+02  0.44238220406E+02  0.53154557202E+02  0.00000000000E+00 0. -1.
<scales pt_clust_5="13000.00000" pt_clust_6="13000.00000" pt_clust_7="13000.00000" pt_clust_8="13000.00000" pt_clust_9="29.46840"></scales>
<clustering>
<clus scale="   29.468">  1  9  2 -1</clus>
<clus scale="   91.953">  5  6 -1 -1</clus>
<clus scale="   94.746">  1  5  2 -1</clus>
<clus scale="  101.001">  7  8 -1 -1</clus>
<clus scale="   29.468">  1  5  2 -1</clus>
</clustering>
</event>
<event>
 9    1  0.3288491E-005  0.1640751E+03  0.7546771E-02  0.1184253E+00
         21   -1    0    0  501  502  0.00000000000E+00  0.00000000000E+00  0.97471681842E+02  0.97471681842E+02  0.00000000000E+00 0.  1.
         -1   -1    0    0    0  501 -0.00000000000E+00 -0.00000000000E+00 -0.42261533732E+03  0.42261533732E+03  0.00000000000E+00 0.  1.
         23    2    1    2    0    0  0.93049536467E+02  0.96727702223E+02 -0.25572647319E+03  0.30303697120E+03  0.91765528447E+02 0.  0.
         23    2    1    2    0    0 -0.11166038252E+03 -0.85983930921E+02 -0.87180999833E+02  0.18916913287E+03  0.91231336148E+02 0.  0.
        -13    1    3    3    0    0  0.10946239016E+03  0.72632292139E+02 -0.22595569417E+03  0.26136839987E+03  0.00000000000E+00 0.  1.
         13    1    3    3    0    0 -0.16412853696E+02  0.24095410084E+02 -0.29770779019E+02  0.41668571334E+02  0.00000000000E+00 0. -1.
        -13    1    4    4    0    0 -0.46975407336E+02 -0.87355531528E+02 -0.32251085239E+02  0.10429674147E+03  0.00000000000E+00 0.  1.
         13    1    4    4    0    0 -0.64684975188E+02  0.13716006070E+01 -0.54929914594E+02  0.84872391392E+02  0.00000000000E+00 0. -1.
         -1    1    1    2    0  502  0.18610846056E+02 -0.10743771302E+02  0.17763817545E+02  0.27880915094E+02  0.00000000000E+00 0.  1.
<scales pt_clust_5="13000.00000" pt_clust_6="13000.00000" pt_clust_7="13000.00000" pt_clust_8="13000.00000" pt_clust_9="21.48935"></scales>
<clustering>
<clus scale="   21.489">  1  9  2 -1</clus>
<clus scale="   91.231">  7  8 -1 -1</clus>
<clus scale="   91.766">  5  6 -1 -1</clus>
<clus scale="  163.777">  1  7  2 -1</clus>
<clus scale="   21.489">  1  5  2 -1</clus>
</clustering>
</event>
<event>
 9    1  0.3288491E-005  0.2106760E+03  0.7546771E-02  0.1141206E+00
         21   -1    0    0  501  502  0.00000000000E+00  0.00000000000E+00  0.32099253353E+03  0.32099253353E+03  0.00000000000E+00 0.  1.
         -4   -1    0    0    0  501 -0.00000000000E+00 -0.00000000000E+00 -0.35028986605E+03  0.35028986605E+03  0.00000000000E+00 0.  1.
         23    2    1    2    0    0  0.18974559098E+03  0.46976602687E+01 -0.12252059560E+03  0.24282919502E+03  0.89046416538E+02 0.  0.
         23    2    1    2    0    0 -0.18824623442E+03 -0.34353230063E+02 -0.99022668311E+02  0.23392763034E+03  0.91103557584E+02 0.  0.
        -11    1    4    4    0    0 -0.48276575734E+02  0.29386667212E+02 -0.39776911736E+02  0.69111552447E+02  0.00000000000E+00 0.  1.
         11    1    4    4    0    0 -0.13996965869E+03 -0.63739897275E+02 -0.59245756575E+02  0.16481607789E+03  0.00000000000E+00 0. -1.
        -11    1    3    3    0    0  0.46815962530E+02 -0.19513576325E+02  0.33681916780E+01  0.50831670480E+02  0.00000000000E+00 0. -1.
         11    1    3    3    0    0  0.14292962845E+03  0.24211236594E+02 -0.12588878728E+03  0.19199752454E+03  0.00000000000E+00 0.  1.
         -4    1    1    2    0  502 -0.14993565607E+01  0.29655569795E+02  0.19224593140E+03  0.19452557423E+03  0.00000000000E+00 0.  1.
<scales pt_clust_5="13000.00000" pt_clust_6="13000.00000" pt_clust_7="13000.00000" pt_clust_8="13000.00000" pt_clust_9="29.69345"></scales>
<clustering>
<clus scale="   29.693">  1  9  2 -1</clus>
<clus scale="   89.046">  7  8 -1 -1</clus>
<clus scale="   91.104">  5  6 -1 -1</clus>
<clus scale="  209.795">  2  7  1 -1</clus>
<clus scale="   29.693">  1  5  2 -1</clus>
</clustering>
</event>
<event>
 9    1  0.3288491E-005  0.9614300E+02  0.7546771E-02  0.1289886E+00
          3   -1    0    0  502    0 -0.00000000000E+00  0.00000000000E+00  0.23394875721E+03  0.23394875721E+03  0.00000000000E+00 0. -1.
         21   -1    0    0  501  502  0.00000000000E+00 -0.00000000000E+00 -0.10034652679E+03  0.10034652679E+03  0.00000000000E+00 0.  1.
         23    2    1    2    0    0  0.16171330551E+02 -0.14870159653E+02  0.10148590358E+03  0.13765735357E+03  0.90374359126E+02 0.  0.
         23    2    1    2    0    0  0.38886747481E+00  0.34934701417E+02  0.89574081931E+02  0.13356480133E+03  0.92711678988E+02 0.  0.
        -11    1    4    4    0    0  0.40107135700E+02  0.13331391529E+02  0.12270612210E+02  0.44009956353E+02  0.00000000000E+00 0.  1.
         11    1    4    4    0    0 -0.39718268225E+02  0.21603309887E+02  0.77303469721E+02  0.89554844982E+02  0.00000000000E+00 0. -1.
        -13    1    3    3    0    0 -0.22399808520E+02  0.14616210046E+02  0.80387612031E+02  0.84720441370E+02  0.00000000000E+00 0. -1.
         13    1    3    3    0    0  0.38571139070E+02 -0.29486369699E+02  0.21098291545E+02  0.52936912200E+02  0.00000000000E+00 0.  1.
          3    1    1    2  501    0 -0.16560198025E+02 -0.20064541764E+02 -0.57457755082E+02  0.63073129096E+02  0.00000000000E+00 0. -1.
<scales pt_clust_5="13000.00000" pt_clust_6="13000.00000" pt_clust_7="13000.00000" pt_clust_8="13000.00000" pt_clust_9="26.01588"></scales>
<clustering>
<clus scale="   26.016">  2  9  1 -1</clus>
<clus scale="   90.374">  7  8 -1 -1</clus>
<clus scale="   92.712">  5  6 -1 -1</clus>
<clus scale="   93.891">  1  7  2 -1</clus>
<clus scale="   26.016">  2  5  1 -1</clus>
</clustering>
</event>
<event>
 9    1  0.3288491E-005  0.1072133E+03  0.7546771E-02  0.1267024E+00
         21   -1    0    0  501  502  0.00000000000E+00  0.00000000000E+00  0.13904690810E+03  0.13904690810E+03  0.00000000000E+00 0. -1.
          1   -1    0    0  502    0 -0.00000000000E+00 -0.00000000000E+00 -0.13747670073E+03  0.13747670073E+03  0.00000000000E+00 0. -1.
         23    2    1    2    0    0  0.81006482445E+01 -0.41727324451E+02 -0.17038594990E+02  0.10244584609E+03  0.91640861813E+02 0.  0.
         23    2    1    2    0    0 -0.21596271850E+02  0.65463769257E+02 -0.31783317472E+02  0.11676357244E+03  0.88722311379E+02 0.  0.
        -11    1    3    3    0    0  0.91491913137E+01  0.28442474377E+02  0.13189854448E+01  0.29906885043E+02  0.00000000000E+00 0. -1.
         11    1    3    3    0    0 -0.10485430692E+01 -0.70169798828E+02 -0.18357580435E+02  0.72538961046E+02  0.00000000000E+00 0.  1.
        -11    1    4    4    0    0  0.24726949960E+02 -0.55284328722E+01  0.22085501979E+01  0.25433507787E+02  0.00000000000E+00 0.  1.
         11    1    4    4    0    0 -0.46323221811E+02  0.70992202129E+02 -0.33991867670E+02  0.91330064654E+02  0.00000000000E+00 0. -1.
          1    1    1    2  501    0  0.13495623606E+02 -0.23736444805E+02  0.50392119831E+02  0.57314190299E+02  0.00000000000E+00 0. -1.
<scales pt_clust_5="13000.00000" pt_clust_6="13000.00000" pt_clust_7="13000.00000" pt_clust_8="13000.00000" pt_clust_9="27.30477"></scales>
<clustering>
<clus scale="   27.305">  1  9  2 -1</clus>
<clus scale="   88.722">  7  8 -1 -1</clus>
<clus scale="   91.641">  5  6 -1 -1</clus>
<clus scale="  104.730">  1  7  2 -1</clus>
<clus scale="   27.305">  1  5  2 -1</clus>
</clustering>
</event>
<event>
 9    1  0.3288491E-005  0.1792744E+03  0.7546771E-02  0.1168612E+00
         21   -1    0    0  501  502  0.00000000000E+00  0.00000000000E+00  0.21156224057E+03  0.21156224057E+03  0.00000000000E+00 0. -1.
          1   -1    0    0  502    0 -0.00000000000E+00 -0.00000000000E+00 -0.35260488609E+03  0.35260488609E+03  0.00000000000E+00 0. -1.
         23    2    1    2    0    0 -0.29609252313E+01 -0.14403387211E+03 -0.18882727170E+03  0.25511777715E+03  0.93138704542E+02 0.  0.
         23    2    1    2    0    0  0.24471180651E+02  0.17345407920E+03 -0.50399736289E+02  0.20431917855E+03  0.92309463408E+02 0.  0.
        -11    1    3    3    0    0 -0.27968409182E+02 -0.12746761240E+03 -0.18266873451E+03  0.22449519080E+03  0.00000000000E+00 0. -1.
         11    1    3    3    0    0  0.25007483950E+02 -0.16566259711E+02 -0.61585371912E+01  0.30622586348E+02  0.00000000000E+00 0.  1.
        -11    1    4    4    0    0 -0.27341192962E+02  0.37474407698E+02  0.88109330316E+01  0.47217630243E+02  0.00000000000E+00 0.  1.
         11    1    4    4    0    0  0.51812373613E+02  0.13597967150E+03 -0.59210669321E+02  0.15710154831E+03  0.00000000000E+00 0. -1.
          1    1    1    2  501    0 -0.21510255420E+02 -0.29420207086E+02  0.98184362479E+02  0.10473017096E+03  0.00000000000E+00 0. -1.
<scales pt_clust_5="13000.00000" pt_clust_6="13000.00000" pt_clust_7="13000.00000" pt_clust_8="13000.00000" pt_clust_9="36.44502"></scales>
<clustering>
<clus scale="   36.445">  1  9  2 -1</clus>
<clus scale="   92.309">  7  8 -1 -1</clus>
<clus scale="   93.139">  5  6 -1 -1</clus>
<clus scale="  178.845">  1  7  2 -1</clus>
<clus scale="   36.445">  1  5  2 -1</clus>
</clustering>
</event>
<event>
 9    1  0.3288491E-005  0.1010088E+03  0.7546771E-02  0.1279253E+00
         21   -1    0    0  501  502  0.00000000000E+00  0.00000000000E+00  0.40121720488E+03  0.40121720488E+03  0.00000000000E+00 0. -1.
          3   -1    0    0  502    0 -0.00000000000E+00 -0.00000000000E+00 -0.21630832301E+03  0.21630832301E+03  0.00000000000E+00 0. -1.
         23    2    1    2    0    0  0.23000284408E+01 -0.39399349182E+02 -0.95061886922E+02  0.13736169325E+03  0.90960835428E+02 0.  0.
         23    2    1    2    0    0  0.74762386902E+02  0.29241627141E+02 -0.58294915352E+02  0.13308247782E+03  0.88702657757E+02 0.  0.
        -11    1    3    3    0    0 -0.13524058017E+02  0.27116362205E+02 -0.23137677812E+02  0.38125442673E+02  0.00000000000E+00 0.  1.
         11    1    3    3    0    0  0.15824086458E+02 -0.66515711386E+02 -0.71924209109E+02  0.99236250581E+02  0.00000000000E+00 0. -1.
        -13    1    4    4    0    0  0.94802130631E+02  0.22546684335E+02 -0.40768112763E+02  0.10563065826E+03  0.00000000000E+00 0. -1.
         13    1    4    4    0    0 -0.20039743729E+02  0.66949428061E+01 -0.17526802589E+02  0.27451819555E+02  0.00000000000E+00 0.  1.
          3    1    1    2  501    0 -0.77062415343E+02  0.10157722040E+02  0.33826568415E+03  0.34708135682E+03  0.00000000000E+00 0. -1.
<scales pt_clust_5="13000.00000" pt_clust_6="13000.00000" pt_clust_7="13000.00000" pt_clust_8="13000.00000" pt_clust_9="77.72899"></scales>
<clustering>
<clus scale="   77.729">  1  9  2 -1</clus>
<clus scale="   88.703">  7  8 -1 -1</clus>
<clus scale="   90.961">  5  6 -1 -1</clus>
<clus scale="   98.980">  1  7  2 -1</clus>
<clus scale="   77.729">  1  5  2 -1</clus>
</clustering>
</event>
<event>
 9    1  0.3288491E-005  0.1168470E+03  0.7546771E-02  0.1249282E+00
         21   -1    0    0  501  502  0.00000000000E+00  0.00000000000E+00  0.26038589175E+03  0.26038589175E+03  0.00000000000E+00 0. -1.
          2   -1    0    0  502    0 -0.00000000000E+00 -0.00000000000E+00 -0.18827904321E+03  0.18827904321E+03  0.00000000000E+00 0. -1.
         23    2    1    2    0    0 -0.17190713653E+02  0.79689293529E+02 -0.80831868366E+02  0.14768760867E+03  0.92908205627E+02 0.  0.
         23    2    1    2    0    0  0.11757518987E+02 -0.57098859904E+02 -0.33900170513E+02  0.11269929478E+03  0.90296126322E+02 0.  0.
        -11    1    3    3    0    0 -0.43922862974E+02  0.32235697567E+02 -0.75298601813E+02  0.92942119216E+02  0.00000000000E+00 0. -1.
         11    1    3    3    0    0  0.26732149321E+02  0.47453595961E+02 -0.55332665535E+01  0.54745489456E+02  0.00000000000E+00 0.  1.
        -11    1    4    4    0    0  0.24921553185E+02 -0.28976593753E+02  0.25310739270E+02  0.45840596866E+02  0.00000000000E+00 0. -1.
         11    1    4    4    0    0 -0.13164034197E+02 -0.28122266151E+02 -0.59210909783E+02  0.66858697917E+02  0.00000000000E+00 0.  1.
          2    1    1    2  501    0  0.54331946654E+01 -0.22590433625E+02  0.18683888742E+03  0.18827803151E+03  0.00000000000E+00 0. -1.
<scales pt_clust_5="13000.00000" pt_clust_6="13000.00000" pt_clust_7="13000.00000" pt_clust_8="13000.00000" pt_clust_9="23.23461"></scales>
<clustering>
<clus scale="   23.235">  1  9  2 -1</clus>
<clus scale="   90.296">  7  8 -1 -1</clus>
<clus scale="   92.908">  5  6 -1 -1</clus>
<clus scale="  114.781">  1  7  2 -1</clus>
<clus scale="   23.235">  1  5  2 -1</clus>
</clustering>
</event>
<event>
 9    1  0.3288491E-005  0.1317118E+03  0.7546771E-02  0.1225879E+00
         21   -1    0    0  501  502  0.00000000000E+00  0.00000000000E+00  0.40720001953E+03  0.40720001953E+03  0.00000000000E+00 0. -1.
          2   -1    0    0  502    0 -0.00000000000E+00 -0.00000000000E+00 -0.10077252386E+03  0.10077252386E+03  0.00000000000E+00 0. -1.
         23    2    1    2    0    0 -0.26865847078E+02 -0.94184837763E+02 -0.30278819956E+02  0.13591803437E+03  0.89243194282E+02 0.  0.
         23    2    1    2    0    0  0.34387661535E+02  0.67127000707E+02  0.20485266370E+03  0.23724319731E+03  0.92904119154E+02 0.  0.
        -11    1    4    4    0    0 -0.91080538804E+00  0.80897253727E+02  0.12562536148E+03  0.14942197521E+03  0.00000000000E+00 0.  1.
         11    1    4    4    0    0  0.35298466923E+02 -0.13770253020E+02  0.79227302218E+02  0.87821222105E+02  0.00000000000E+00 0. -1.
        -13    1    3    3    0    0 -0.38324711773E+02 -0.68429367186E+02 -0.57094730502E+02  0.97011185319E+02  0.00000000000E+00 0. -1.
         13    1    3    3    0    0  0.11458864695E+02 -0.25755470577E+02  0.26815910545E+02  0.38906849052E+02  0.00000000000E+00 0.  1.
          2    1    1    2  501    0 -0.75218144574E+01  0.27057837056E+02  0.13185365192E+03  0.13481131171E+03  0.00000000000E+00 0. -1.
<scales pt_clust_5="13000.00000" pt_clust_6="13000.00000" pt_clust_7="13000.00000" pt_clust_8="13000.00000" pt_clust_9="28.08388"></scales>
<clustering>
<clus scale="   28.084">  1  9  2 -1</clus>
<clus scale="   89.243">  7  8 -1 -1</clus>
<clus scale="   92.904">  5  6 -1 -1</clus>
<clus scale="  129.156">  2  7  1 -1</clus>
<clus scale="   28.084">  1  5  2 -1</clus>
</clustering>
</event>
<event>
 9    1  0.3288491E-005  0.1241407E+03  0.7546771E-02  0.1236692E+00
         21   -1    0    0  501  502  0.00000000000E+00  0.00000000000E+00  0.14244334534E+03  0.14244334534E+03  0.00000000000E+00 0. -1.
          2   -1    0    0  502    0 -0.00000000000E+00 -0.00000000000E+00 -0.23608263984E+03  0.23608263984E+03  0.00000000000E+00 0. -1.
         23    2    1    2    0    0 -0.23028578823E+02 -0.78284037343E+02 -0.84417113253E+02  0.14829602847E+03  0.90591153567E+02 0.  0.
         23    2    1    2    0    0 -0.35213251406E+02  0.91128182619E+02 -0.64776797483E+02  0.14872291258E+03  0.91532248373E+02 0.  0.
        -13    1    4    4    0    0 -0.21647065273E+02 -0.10948663599E+02 -0.33000199869E+02  0.40957073393E+02  0.00000000000E+00 0.  1.
         13    1    4    4    0    0 -0.13566186133E+02  0.10207684622E+03 -0.31776597614E+02  0.10776583919E+03  0.00000000000E+00 0. -1.
        -13    1    3    3    0    0  0.26972963271E+02 -0.21124815697E+02  0.64366740458E+00  0.34266789952E+02  0.00000000000E+00 0.  1.
         13    1    3    3    0    0 -0.50001542094E+02 -0.57159221646E+02 -0.85060780657E+02  0.11402923852E+03  0.00000000000E+00 0. -1.
          2    1    1    2  501    0  0.58241830228E+02 -0.12844145276E+02  0.55554616235E+02  0.81507044121E+02  0.00000000000E+00 0. -1.
<scales pt_clust_5="13000.00000" pt_clust_6="13000.00000" pt_clust_7="13000.00000" pt_clust_8="13000.00000" pt_clust_9="59.64128"></scales>
<clustering>
<clus scale="   59.641">  1  9  2 -1</clus>
<clus scale="   90.591">  7  8 -1 -1</clus>
<clus scale="   91.532">  5  6 -1 -1</clus>
<clus scale="  123.448">  2  7  1 -1</clus>
<clus scale="   59.641">  1  5  2 -1</clus>
</clustering>
</event>
<event>
 9    1  0.3288491E-005  0.1302901E+03  0.7546771E-02  0.1227225E+00
          3   -1    0    0  502    0 -0.00000000000E+00  0.00000000000E+00  0.24490191649E+03  0.24490191649E+03  0.00000000000E+00 0. -1.
         21   -1    0    0  501  502  0.00000000000E+00 -0.00000000000E+00 -0.36157280837E+03  0.36157280837E+03  0.00000000000E+00 0. -1.
         23    2    1    2    0    0  0.79319470564E+02  0.30172672889E+02  0.15089987980E+03  0.19564972252E+03  0.91137651939E+02 0.  0.
         23    2    1    2    0    0 -0.17528299979E+03  0.24319419027E+02 -0.14958182656E+03  0.24927074460E+03  0.91900038743E+02 0.  0.
        -11    1    4    4    0    0 -0.98226783801E+02 -0.14394224241E+01 -0.13462684845E+03  0.16665821707E+03  0.00000000000E+00 0.  1.
         11    1    4    4    0    0 -0.77056215987E+02  0.25758841451E+02 -0.14954978109E+02  0.82612527533E+02  0.00000000000E+00 0. -1.
        -11    1    3    3    0    0  0.51337922313E+02  0.21376930497E+02  0.15623498773E+03  0.16583704899E+03  0.00000000000E+00 0. -1.
         11    1    3    3    0    0  0.27981548251E+02  0.87957423917E+01 -0.53351079344E+01  0.29812673537E+02  0.00000000000E+00 0.  1.
          3    1    1    2  501    0  0.95963529224E+02 -0.54492091916E+02 -0.11798894512E+03  0.16155425774E+03  0.00000000000E+00 0. -1.
<scales pt_clust_5="13000.00000" pt_clust_6="13000.00000" pt_clust_7="13000.00000" pt_clust_8="13000.00000" pt_clust_9="110.35573"></scales>
<clustering>
<clus scale="   91.138">  7  8 -1 -1</clus>
<clus scale="   91.900">  5  6 -1 -1</clus>
<clus scale="  110.356">  2  9  1 -1</clus>
<clus scale="  129.754">  1  7  2 -1</clus>
<clus scale="  110.356">  2  5  1 -1</clus>
</clustering>
</event>
<event>
 9    1  0.3288491E-005  0.1160109E+03  0.7546771E-02  0.1250067E+00
         -1   -1    0    0    0  501 -0.00000000000E+00  0.00000000000E+00  0.14814835775E+03  0.14814835775E+03  0.00000000000E+00 0.  1.
         21   -1    0    0  501  502  0.00000000000E+00 -0.00000000000E+00 -0.31946262932E+03  0.31946262932E+03  0.00000000000E+00 0.  1.
         23    2    1    2    0    0 -0.25719895222E+02  0.83002067006E+02  0.39489268712E+02  0.13177314232E+03  0.90850990941E+02 0.  0.
         23    2    1    2    0    0 -0.51064884518E+02 -0.54254387638E+02 -0.94357175502E+01  0.11841813198E+03  0.91556868711E+02 0.  0.
        -11    1    3    3    0    0 -0.29769187091E+02  0.34578929669E+02  0.63003643674E+02  0.77790526373E+02  0.00000000000E+00 0.  1.
         11    1    3    3    0    0  0.40492918685E+01  0.48423137337E+02 -0.23514374963E+02  0.53982615943E+02  0.00000000000E+00 0. -1.
        -11    1    4    4    0    0  0.23427084181E+02 -0.12646772725E+02 -0.18785263313E+02  0.32583051596E+02  0.00000000000E+00 0. -1.
         11    1    4    4    0    0 -0.74491968699E+02 -0.41607614913E+02  0.93495457624E+01  0.85835080389E+02  0.00000000000E+00 0.  1.
         -1    1    1    2    0  502  0.76784779740E+02 -0.28747679368E+02 -0.20136782273E+03  0.21741971277E+03  0.00000000000E+00 0.  1.
<scales pt_clust_5="13000.00000" pt_clust_6="13000.00000" pt_clust_7="13000.00000" pt_clust_8="13000.00000" pt_clust_9="81.98983"></scales>
<clustering>
<clus scale="   81.990">  2  9  1 -1</clus>
<clus scale="   90.851">  5  6 -1 -1</clus>
<clus scale="   91.557">  7  8 -1 -1</clus>
<clus scale="  115.455">  1  5  2 -1</clus>
<clus scale="   81.990">  2  5  1 -1</clus>
</clustering>
</event>
<event>
 9    1  0.3288491E-005  0.1260714E+03  0.7546771E-02  0.1234002E+00
         -1   -1    0    0    0  501 -0.00000000000E+00  0.00000000000E+00  0.38062063992E+03  0.38062063992E+03  0.00000000000E+00 0.  1.
         21   -1    0    0  501  502  0.00000000000E+00 -0.00000000000E+00 -0.10954615091E+03  0.10954615091E+03  0.00000000000E+00 0.  1.
         23    2    1    2    0    0 -0.10213816119E+02  0.82463656794E+02  0.22208183826E+03  0.25441124503E+03  0.92196323031E+02 0.  0.
         23    2    1    2    0    0 -0.24809049655E+02 -0.92846110947E+02  0.10529844921E+03  0.16863819021E+03  0.90084330095E+02 0.  0.
        -11    1    4    4    0    0 -0.23091117690E+02  0.60185079524E+01  0.49864153563E+02  0.55279797075E+02  0.00000000000E+00 0.  1.
         11    1    4    4    0    0 -0.17179319657E+01 -0.98864618899E+02  0.55434295649E+02  0.11335839314E+03  0.00000000000E+00 0. -1.
        -11    1    3    3    0    0  0.10012776077E+02  0.54951800887E+02  0.38884103892E+02  0.68058281208E+02  0.00000000000E+00 0. -1.
         11    1    3    3    0    0 -0.20226592196E+02  0.27511855908E+02  0.18319773436E+03  0.18635296382E+03  0.00000000000E+00 0.  1.
         -1    1    1    2    0  502  0.35022865774E+02  0.10382454152E+02 -0.56305798461E+02  0.67117355592E+02  0.00000000000E+00 0.  1.
<scales pt_clust_5="13000.00000" pt_clust_6="13000.00000" pt_clust_7="13000.00000" pt_clust_8="13000.00000" pt_clust_9="36.52939"></scales>
<clustering>
<clus scale="   36.529">  2  9  1 -1</clus>
<clus scale="   90.084">  5  6 -1 -1</clus>
<clus scale="   92.196">  7  8 -1 -1</clus>
<clus scale="  124.535">  2  5  1 -1</clus>
<clus scale="   36.529">  2  5  1 -1</clus>
</clustering>
</event>
<event>
 9    1  0.3288491E-005  0.1109272E+03  0.7546771E-02  0.1273352E+00
          1   -1    0    0  502    0 -0.00000000000E+00  0.00000000000E+00  0.21166112983E+03  0.21166112983E+03  0.00000000000E+00 0. -1.
         21   -1    0    0  501  502  0.00000000000E+00 -0.00000000000E+00 -0.63788842058E+02  0.63788842058E+02  0.00000000000E+00 0.  1.
         23    2    1    2    0    0 -0.60748330906E+02  0.13994013321E+02  0.85635285486E+02  0.12045225634E+03  0.57351127452E+02 0.  0.
         23    2    1    2    0    0  0.50030239499E+02 -0.35633888169E+02  0.67766186827E+02  0.13022406930E+03  0.92699802037E+02 0.  0.
        -11    1    3    3    0    0 -0.23186359556E+02  0.11649155217E+02 -0.10293328556E+01  0.25968627473E+02  0.00000000000E+00 0.  1.
         11    1    3    3    0    0 -0.37561971351E+02  0.23448581041E+01  0.86664618342E+02  0.94483628865E+02  0.00000000000E+00 0. -1.
        -13    1    4    4    0    0 -0.25381365291E+02 -0.16417336010E+02  0.58788099167E+01  0.30794529250E+02  0.00000000000E+00 0. -1.
         13    1    4    4    0    0  0.75411604789E+02 -0.19216552160E+02  0.61887376911E+02  0.99429540051E+02  0.00000000000E+00 0.  1.
          1    1    1    2  501    0  0.10718091408E+02  0.21639874849E+02 -0.55291845394E+01  0.24773646251E+02  0.00000000000E+00 0. -1.
<scales pt_clust_5="13000.00000" pt_clust_6="13000.00000" pt_clust_7="13000.00000" pt_clust_8="13000.00000" pt_clust_9="24.14874"></scales>
<clustering>
<clus scale="   24.149">  2  9  1 -1</clus>
<clus scale="   57.351">  5  6 -1 -1</clus>
<clus scale="   83.670">  1  5  2 -1</clus>
<clus scale="   92.700">  7  8 -1 -1</clus>
<clus scale="   24.149">  2  5  1 -1</clus>
</clustering>
</event>
<event>
 9    1  0.5601357E-005  0.1103693E+03  0.7546771E-02  0.1260058E+00
         21   -1    0    0  501  502  0.00000000000E+00  0.00000000000E+00  0.11281531275E+03  0.11281531275E+03  0.00000000000E+00 0. -1.
          1   -1    0    0  502    0 -0.00000000000E+00 -0.00000000000E+00 -0.63002504461E+03  0.63002504461E+03  0.00000000000E+00 0. -1.
         23    2    1    2    0    0 -0.55421151411E+02 -0.26762050891E+02 -0.49748675980E+03  0.50946049420E+03  0.90935183383E+02 0.  0.
         23    2    1    2    0    0  0.26730681264E+02  0.91948969060E+02 -0.67090594886E+02  0.14784525572E+03  0.90487178565E+02 0.  0.
        -11    1    4    4    0    0 -0.42245260326E+00  0.10149778507E+03 -0.61019647695E+02  0.11842878132E+03  0.00000000000E+00 0. -1.
         11    1    4    4    0    0  0.27153133867E+02 -0.95488160135E+01 -0.60709471902E+01  0.29416474395E+02  0.00000000000E+00 0.  1.
        -13    1    3    3    0    0  0.14188520186E+02  0.20711527912E+02 -0.13451086159E+03  0.13683367048E+03  0.00000000000E+00 0.  1.
         13    1    3    3    0    0 -0.69609671598E+02 -0.47473578802E+02 -0.36297589822E+03  0.37262682371E+03  0.00000000000E+00 0. -1.
          1    1    1    2  501    0  0.28690470148E+02 -0.65186918170E+02  0.47367622836E+02  0.85534607445E+02  0.00000000000E+00 0. -1.
<scales pt_clust_5="13000.00000" pt_clust_6="13000.00000" pt_clust_7="13000.00000" pt_clust_8="13000.00000" pt_clust_9="71.22133"></scales>
<clustering>
<clus scale="   71.221">  1  9  2 -1</clus>
<clus scale="   90.487">  5  6 -1 -1</clus>
<clus scale="   90.935">  7  8 -1 -1</clus>
<clus scale="  110.001">  1  5  2 -1</clus>
<clus scale="   71.221">  1  5  2 -1</clus>
</clustering>
</event>
<event>
 9    1  0.3288491E-005  0.1253221E+03  0.7546771E-02  0.1236083E+00
         21   -1    0    0  501  502  0.00000000000E+00  0.00000000000E+00  0.31813194447E+03  0.31813194447E+03  0.00000000000E+00 0. -1.
          1   -1    0    0  502    0 -0.00000000000E+00 -0.00000000000E+00 -0.14346816439E+03  0.14346816439E+03  0.00000000000E+00 0. -1.
         23    2    1    2    0    0  0.98805062897E+01  0.10239569289E+03 -0.73721019034E+02  0.15355454246E+03  0.86958073434E+02 0.  0.
         23    2    1    2    0    0  0.48248236553E+01 -0.37418983505E+02  0.82799722260E+02  0.12956128930E+03  0.92232718869E+02 0.  0.
        -11    1    4    4    0    0  0.47205929090E+02 -0.18227810591E+02  0.28574966828E+02  0.58113522948E+02  0.00000000000E+00 0.  1.
         11    1    4    4    0    0 -0.42381105434E+02 -0.19191172914E+02  0.54224755432E+02  0.71447766357E+02  0.00000000000E+00 0. -1.
        -13    1    3    3    0    0  0.48137799886E+02  0.58889788247E+02 -0.49569875079E+02  0.90787815553E+02  0.00000000000E+00 0.  1.
         13    1    3    3    0    0 -0.38257293596E+02  0.43505904646E+02 -0.24151143955E+02  0.62766726907E+02  0.00000000000E+00 0. -1.
          1    1    1    2  501    0 -0.14705329945E+02 -0.64976709388E+02  0.16558507686E+03  0.17848427709E+03  0.00000000000E+00 0. -1.
<scales pt_clust_5="13000.00000" pt_clust_6="13000.00000" pt_clust_7="13000.00000" pt_clust_8="13000.00000" pt_clust_9="66.61996"></scales>
<clustering>
<clus scale="   66.620">  1  9  2 -1</clus>
<clus scale="   86.958">  7  8 -1 -1</clus>
<clus scale="   92.233">  5  6 -1 -1</clus>
<clus scale="  121.493">  2  7  1 -1</clus>
<clus scale="   66.620">  1  5  2 -1</clus>
</clustering>
</event>
<event>
 9    1  0.3288491E-005  0.1016393E+03  0.7546771E-02  0.1277004E+00
         21   -1    0    0  501  502  0.00000000000E+00  0.00000000000E+00  0.14121538465E+03  0.14121538465E+03  0.00000000000E+00 0.  1.
         -1   -1    0    0    0  501 -0.00000000000E+00 -0.00000000000E+00 -0.16472312405E+03  0.16472312405E+03  0.00000000000E+00 0.  1.
         23    2    1    2    0    0  0.39652467471E+02 -0.27360636342E+02 -0.55634358594E+02  0.11753114248E+03  0.91637683287E+02 0.  0.
         23    2    1    2    0    0 -0.17211320048E+02  0.39421822573E+02 -0.42479541384E+02  0.10957110232E+03  0.91383835520E+02 0.  0.
        -11    1    4    4    0    0 -0.58859319599E+01 -0.29965845452E+02 -0.15699316759E+02  0.34337510617E+02  0.00000000000E+00 0.  1.
         11    1    4    4    0    0 -0.11325388088E+02  0.69387668025E+02 -0.26780224625E+02  0.75233591701E+02  0.00000000000E+00 0. -1.
        -11    1    3    3    0    0 -0.17963172501E+02 -0.26272067226E+02  0.68246317581E+01  0.32549541951E+02  0.00000000000E+00 0. -1.
         11    1    3    3    0    0  0.57615639972E+02 -0.10885691162E+01 -0.62458990352E+02  0.84981600526E+02  0.00000000000E+00 0.  1.
         -1    1    1    2    0  502 -0.22441147423E+02 -0.12061186231E+02  0.74606160575E+02  0.78836263906E+02  0.00000000000E+00 0.  1.
<scales pt_clust_5="13000.00000" pt_clust_6="13000.00000" pt_clust_7="13000.00000" pt_clust_8="13000.00000" pt_clust_9="25.47700"></scales>
<clustering>
<clus scale="   25.477">  1  9  2 -1</clus>
<clus scale="   91.384">  5  6 -1 -1</clus>
<clus scale="   91.638">  7  8 -1 -1</clus>
<clus scale="  101.411">  1  5  2 -1</clus>
<clus scale="   25.477">  1  5  2 -1</clus>
</clustering>
</event>
<event>
 9    1  0.3288491E-005  0.9008073E+02  0.7546771E-02  0.1302733E+00
         21   -1    0    0  501  502  0.00000000000E+00  0.00000000000E+00  0.42285920849E+03  0.42285920849E+03  0.00000000000E+00 0. -1.
          3   -1    0    0  502    0 -0.00000000000E+00 -0.00000000000E+00 -0.60715672027E+02  0.60715672027E+02  0.00000000000E+00 0. -1.
         23    2    1    2    0    0 -0.14393888429E+02 -0.18566179302E+02  0.35752188469E+01  0.91778291244E+02  0.88648663362E+02 0.  0.
         23    2    1    2    0    0 -0.63762300837E+00 -0.80536490057E+01  0.11107628964E+03  0.14242364466E+03  0.88776599460E+02 0.  0.
        -11    1    4    4    0    0  0.41477687053E+02  0.71900435004E+01  0.69822033248E+02  0.81530433433E+02  0.00000000000E+00 0.  1.
         11    1    4    4    0    0 -0.42115310061E+02 -0.15243692506E+02  0.41254256396E+02  0.60893211227E+02  0.00000000000E+00 0. -1.
        -13    1    3    3    0    0  0.23045903785E+02 -0.61314185421E+01  0.34299296226E+02  0.41774988883E+02  0.00000000000E+00 0.  1.
         13    1    3    3    0    0 -0.37439792214E+02 -0.12434760760E+02 -0.30724077379E+02  0.50003302361E+02  0.00000000000E+00 0. -1.
          3    1    1    2  501    0  0.15031511437E+02  0.26619828308E+02  0.24749202797E+03  0.24937294461E+03  0.00000000000E+00 0. -1.
<scales pt_clust_5="13000.00000" pt_clust_6="13000.00000" pt_clust_7="13000.00000" pt_clust_8="13000.00000" pt_clust_9="30.57060"></scales>
<clustering>
<clus scale="   30.571">  1  9  2 -1</clus>
<clus scale="   88.649">  7  8 -1 -1</clus>
<clus scale="   88.777">  5  6 -1 -1</clus>
<clus scale="   89.955">  2  7  1 -1</clus>
<clus scale="   30.571">  1  5  2 -1</clus>
</clustering>
</event>
<event>
 9    1  0.3288491E-005  0.9402906E+02  0.7546771E-02  0.1293490E+00
          2   -1    0    0  502    0 -0.00000000000E+00  0.00000000000E+00  0.18157207615E+03  0.18157207615E+03  0.00000000000E+00 0. -1.
         21   -1    0    0  501  502  0.00000000000E+00 -0.00000000000E+00 -0.10495986374E+03  0.10495986374E+03  0.00000000000E+00 0.  1.
         23    2    1    2    0    0  0.25052980167E+02 -0.13847512844E+02  0.88966168401E+02  0.12979928293E+03  0.90074798380E+02 0.  0.
         23    2    1    2    0    0 -0.27728895547E+02 -0.13684854292E+02  0.35204201982E+02  0.10171474939E+03  0.90279496683E+02 0.  0.
        -13    1    4    4    0    0 -0.43830621557E+02 -0.27392949673E+02 -0.92309737074E+01  0.52504361280E+02  0.00000000000E+00 0.  1.
         13    1    4    4    0    0  0.16101726010E+02  0.13708095381E+02  0.44435175689E+02  0.49210388111E+02  0.00000000000E+00 0. -1.
        -13    1    3    3    0    0  0.16705058025E+02  0.36178992771E+02  0.21146926434E+02  0.45112869330E+02  0.00000000000E+00 0. -1.
         13    1    3    3    0    0  0.83479221416E+01 -0.50026505616E+02  0.67819241967E+02  0.84686413604E+02  0.00000000000E+00 0.  1.
          2    1    1    2  501    0  0.26759153803E+01  0.27532367136E+02 -0.47558157974E+02  0.55017907568E+02  0.00000000000E+00 0. -1.
<scales pt_clust_5="13000.00000" pt_clust_6="13000.00000" pt_clust_7="13000.00000" pt_clust_8="13000.00000" pt_clust_9="27.66210"></scales>
<clustering>
<clus scale="   27.662">  2  9  1 -1</clus>
<clus scale="   90.075">  7  8 -1 -1</clus>
<clus scale="   90.279">  5  6 -1 -1</clus>
<clus scale="   93.833">  1  7  2 -1</clus>
<clus scale="   27.662">  2  5  1 -1</clus>
</clustering>
</event>
<event>
 9    1  0.3288491E-005  0.9397045E+02  0.7546771E-02  0.1294448E+00
         21   -1    0    0  501  502  0.00000000000E+00  0.00000000000E+00  0.66930128401E+02  0.66930128401E+02  0.00000000000E+00 0. -1.
          1   -1    0    0  502    0 -0.00000000000E+00 -0.00000000000E+00 -0.33908073761E+03  0.33908073761E+03  0.00000000000E+00 0. -1.
         23    2    1    2    0    0  0.12520790918E+02  0.15839759381E+02 -0.19386559326E+03  0.21587067270E+03  0.92782600185E+02 0.  0.
         23    2    1    2    0    0 -0.14214230755E+02  0.63647730014E+01 -0.11477985647E+03  0.14738762167E+03  0.91138032015E+02 0.  0.
        -11    1    3    3    0    0 -0.39859428403E+02 -0.14818232877E+00 -0.90627923775E+02  0.99006144043E+02  0.00000000000E+00 0.  1.
         11    1    3    3    0    0  0.52380219321E+02  0.15987941709E+02 -0.10323766949E+03  0.11686452865E+03  0.00000000000E+00 0. -1.
        -13    1    4    4    0    0 -0.37980962526E+02  0.27073670378E+02 -0.10415516982E+03  0.11412202479E+03  0.00000000000E+00 0. -1.
         13    1    4    4    0    0  0.23766731771E+02 -0.20708897376E+02 -0.10624686656E+02  0.33265596886E+02  0.00000000000E+00 0.  1.
          1    1    1    2  501    0  0.16934398367E+01 -0.22204532382E+02  0.36494840526E+02  0.42752571640E+02  0.00000000000E+00 0. -1.
<scales pt_clust_5="13000.00000" pt_clust_6="13000.00000" pt_clust_7="13000.00000" pt_clust_8="13000.00000" pt_clust_9="22.26901"></scales>
<clustering>
<clus scale="   22.269">  1  9  2 -1</clus>
<clus scale="   91.138">  7  8 -1 -1</clus>
<clus scale="   92.347">  1  7  2 -1</clus>
<clus scale="   92.783">  5  6 -1 -1</clus>
<clus scale="   22.269">  1  5  2 -1</clus>
</clustering>
</event>
<event>
 9    1  0.3288491E-005  0.1792379E+03  0.7546771E-02  0.1169187E+00
          3   -1    0    0  502    0 -0.00000000000E+00  0.00000000000E+00  0.25790341540E+03  0.25790341540E+03  0.00000000000E+00 0. -1.
         21   -1    0    0  501  502  0.00000000000E+00 -0.00000000000E+00 -0.47708151742E+03  0.47708151742E+03  0.00000000000E+00 0.  1.
         23    2    1    2    0    0  0.84669731521E+02  0.12308318442E+03  0.19451906616E+03  0.26350659290E+03  0.96330803358E+02 0.  0.
         23    2    1    2    0    0 -0.98358869614E+02 -0.14183392960E+03 -0.39836453488E+03  0.44365617986E+03  0.91351915450E+02 0.  0.
        -13    1    3    3    0    0  0.68407690687E+02  0.43032445006E+02  0.43424472910E+02  0.91744690941E+02  0.00000000000E+00 0.  1.
         13    1    3    3    0    0  0.16262040834E+02  0.80050739419E+02  0.15109459325E+03  0.17176190196E+03  0.00000000000E+00 0. -1.
        -13    1    4    4    0    0 -0.66923423254E+02 -0.11147217252E+03 -0.36838993782E+03  0.39066089657E+03  0.00000000000E+00 0.  1.
         13    1    4    4    0    0 -0.31435446360E+02 -0.30361757088E+02 -0.29974597061E+02  0.52995283283E+02  0.00000000000E+00 0. -1.
          3    1    1    2  501    0  0.13689138093E+02  0.18750745180E+02 -0.15332633309E+02  0.27822160066E+02  0.00000000000E+00 0. -1.
<scales pt_clust_5="13000.00000" pt_clust_6="13000.00000" pt_clust_7="13000.00000" pt_clust_8="13000.00000" pt_clust_9="23.21601"></scales>
<clustering>
<clus scale="   23.216">  2  9  1 -1</clus>
<clus scale="   91.352">  7  8 -1 -1</clus>
<clus scale="   96.331">  5  6 -1 -1</clus>
<clus scale="  176.612">  2  7  1 -1</clus>
<clus scale="   23.216">  2  5  1 -1</clus>
</clustering>
</event>
<event>
 9    1  0.3288491E-005  0.1343569E+03  0.7546771E-02  0.1221983E+00
          3   -1    0    0  502    0 -0.00000000000E+00  0.00000000000E+00  0.19610190370E+03  0.19610190370E+03  0.00000000000E+00 0. -1.
         21   -1    0    0  501  502  0.00000000000E+00 -0.00000000000E+00 -0.23980115097E+03  0.23980115097E+03  0.00000000000E+00 0. -1.
         23    2    1    2    0    0  0.63439689141E+02  0.79530150310E+02  0.11291816088E+03  0.17843020296E+03  0.93472922845E+02 0.  0.
         23    2    1    2    0    0 -0.64264042177E+02 -0.55865758272E+02 -0.28454269205E+02  0.12714068686E+03  0.90023656640E+02 0.  0.
        -11    1    3    3    0    0  0.43105152014E+02  0.99021162295E+02  0.76293999435E+02  0.13222714949E+03  0.00000000000E+00 0.  1.
         11    1    3    3    0    0  0.20334537127E+02 -0.19491011985E+02  0.36624161445E+02  0.46203053469E+02  0.00000000000E+00 0. -1.
        -13    1    4    4    0    0  0.76387874520E+01 -0.47805178804E+02 -0.25524193108E+02  0.54728152061E+02  0.00000000000E+00 0. -1.
         13    1    4    4    0    0 -0.71902829629E+02 -0.80605794683E+01 -0.29300760970E+01  0.72412534798E+02  0.00000000000E+00 0.  1.
          3    1    1    2  501    0  0.82435303617E+00 -0.23664392038E+02 -0.12816313895E+03  0.13033216485E+03  0.00000000000E+00 0. -1.
<scales pt_clust_5="13000.00000" pt_clust_6="13000.00000" pt_clust_7="13000.00000" pt_clust_8="13000.00000" pt_clust_9="23.67875"></scales>
<clustering>
<clus scale="   23.679">  2  9  1 -1</clus>
<clus scale="   90.024">  7  8 -1 -1</clus>
<clus scale="   93.473">  5  6 -1 -1</clus>
<clus scale="  131.980">  2  7  1 -1</clus>
<clus scale="   23.679">  2  5  1 -1</clus>
</clustering>
</event>
<event>
 9    1  0.3288491E-005  0.9488921E+02  0.7546771E-02  0.1295921E+00
          1   -1    0    0  502    0 -0.00000000000E+00  0.00000000000E+00  0.42076788299E+03  0.42076788299E+03  0.00000000000E+00 0. -1.
         21   -1    0    0  501  502  0.00000000000E+00 -0.00000000000E+00 -0.49420285284E+02  0.49420285284E+02  0.00000000000E+00 0. -1.
         23    2    1    2    0    0 -0.22434935539E+02  0.11169457936E+02  0.28575820975E+03  0.30135224135E+03  0.92343574789E+02 0.  0.
         23    2    1    2    0    0  0.33877474288E+00 -0.24895266726E+02  0.10450212482E+03  0.13667492936E+03  0.84495284774E+02 0.  0.
        -11    1    3    3    0    0  0.29515056233E+02 -0.13363773750E+02  0.15774732000E+03  0.16104019982E+03  0.00000000000E+00 0.  1.
         11    1    3    3    0    0 -0.51949991772E+02  0.24533231687E+02  0.12801088975E+03  0.14031204152E+03  0.00000000000E+00 0. -1.
        -11    1    4    4    0    0 -0.29309382715E+02 -0.41169544859E+02  0.81062637659E+02  0.95525507396E+02  0.00000000000E+00 0. -1.
         11    1    4    4    0    0  0.29648157458E+02  0.16274278133E+02  0.23439487164E+02  0.41149421963E+02  0.00000000000E+00 0.  1.
          1    1    1    2  501    0  0.22096160797E+02  0.13725808789E+02 -0.18912736863E+02  0.32160997567E+02  0.00000000000E+00 0. -1.
<scales pt_clust_5="13000.00000" pt_clust_6="13000.00000" pt_clust_7="13000.00000" pt_clust_8="13000.00000" pt_clust_9="26.01227"></scales>
<clustering>
<clus scale="   26.012">  2  9  1 -1</clus>
<clus scale="   84.495">  7  8 -1 -1</clus>
<clus scale="   87.270">  2  7  1 -1</clus>
<clus scale="   92.344">  5  6 -1 -1</clus>
<clus scale="   26.012">  2  5  1 -1</clus>
</clustering>
</event>
<event>
 9    1  0.3288491E-005  0.1143286E+03  0.7546771E-02  0.1253004E+00
         -3   -1    0    0    0  501 -0.00000000000E+00  0.00000000000E+00  0.41805223293E+03  0.41805223293E+03  0.00000000000E+00 0.  1.
         21   -1    0    0  501  502  0.00000000000E+00 -0.00000000000E+00 -0.53674441824E+02  0.53674441824E+02  0.00000000000E+00 0.  1.
         23    2    1    2    0    0  0.52650786075E+02 -0.33607569528E+02  0.24804717852E+03  0.27196773027E+03  0.92398428194E+02 0.  0.
         23    2    1    2    0    0 -0.77401122377E+02  0.20433099670E+02  0.12064778176E+03  0.17139023368E+03  0.91707576841E+02 0.  0.
        -11    1    3    3    0    0 -0.21971234274E+02 -0.27062016878E+02  0.57709576807E+02  0.67420198371E+02  0.00000000000E+00 0. -1.
         11    1    3    3    0    0  0.74622020349E+02 -0.65455526499E+01  0.19033760171E+03  0.20454753190E+03  0.00000000000E+00 0.  1.
        -13    1    4    4    0    0 -0.25152941399E+02 -0.35922388202E+02  0.33404081557E+02  0.55126410185E+02  0.00000000000E+00 0.  1.
         13    1    4    4    0    0 -0.52248180978E+02  0.56355487872E+02  0.87243700204E+02  0.11626382350E+03  0.00000000000E+00 0. -1.
         -3    1    1    2    0  502  0.24750336302E+02  0.13174469858E+02 -0.43171691734E+01  0.28368710806E+02  0.00000000000E+00 0.  1.
<scales pt_clust_5="13000.00000" pt_clust_6="13000.00000" pt_clust_7="13000.00000" pt_clust_8="13000.00000" pt_clust_9="28.03829"></scales>
<clustering>
<clus scale="   28.038">  2  9  1 -1</clus>
<clus scale="   91.708">  7  8 -1 -1</clus>
<clus scale="   92.398">  5  6 -1 -1</clus>
<clus scale="  113.771">  2  7  1 -1</clus>
<clus scale="   28.038">  2  5  1 -1</clus>
</clustering>
</event>
<event>
 9    1  0.3288491E-005  0.1262716E+03  0.7546771E-02  0.1234697E+00
         21   -1    0    0  501  502  0.00000000000E+00  0.00000000000E+00  0.43497095911E+03  0.43497095911E+03  0.00000000000E+00 0.  1.
          2   -1    0    0  502    0 -0.00000000000E+00 -0.00000000000E+00 -0.20154474239E+03  0.20154474239E+03  0.00000000000E+00 0. -1.
         23    2    1    2    0    0  0.21717089505E+02  0.69468254549E+02 -0.13600249245E+03  0.18260106705E+03  0.97718991838E+02 0.  0.
         23    2    1    2    0    0 -0.37055767700E+02 -0.14474046948E+03  0.19015530328E+03  0.25887582947E+03  0.92383560723E+02 0.  0.
        -11    1    4    4    0    0  0.75512451417E+01 -0.96195913529E+02  0.61818237962E+02  0.11459567892E+03  0.00000000000E+00 0. -1.
         11    1    4    4    0    0 -0.44607012842E+02 -0.48544555953E+02  0.12833706532E+03  0.14428015054E+03  0.00000000000E+00 0.  1.
        -13    1    3    3    0    0  0.65522569149E+01 -0.21092532148E+02 -0.58198770167E+02  0.62248886192E+02  0.00000000000E+00 0.  1.
         13    1    3    3    0    0  0.15164832591E+02  0.90560786697E+02 -0.77803722287E+02  0.12035218085E+03  0.00000000000E+00 0. -1.
          2    1    1    2  501    0  0.15338678194E+02  0.75272214934E+02  0.17927340589E+03  0.19503880498E+03  0.00000000000E+00 0. -1.
<scales pt_clust_5="13000.00000" pt_clust_6="13000.00000" pt_clust_7="13000.00000" pt_clust_8="13000.00000" pt_clust_9="76.81915"></scales>
<clustering>
<clus scale="   76.819">  1  9  2 -1</clus>
<clus scale="   92.384">  5  6 -1 -1</clus>
<clus scale="   97.719">  7  8 -1 -1</clus>
<clus scale="  122.189">  1  5  2 -1</clus>
<clus scale="   76.819">  1  5  2 -1</clus>
</clustering>
</event>
<event>
 9    1  0.3288491E-005  0.1491916E+03  0.7546771E-02  0.1201605E+00
         21   -1    0    0  501  502  0.00000000000E+00  0.00000000000E+00  0.47901452790E+03  0.47901452790E+03  0.00000000000E+00 0.  1.
         -4   -1    0    0    0  501 -0.00000000000E+00 -0.00000000000E+00 -0.22050545372E+03  0.22050545372E+03  0.00000000000E+00 0.  1.
         23    2    1    2    0    0  0.68291711651E+02  0.47056217789E+02 -0.19957132586E+02  0.12402272217E+03  0.90029456076E+02 0.  0.
         23    2    1    2    0    0 -0.12911374555E+03 -0.89724908975E+02 -0.87882670680E+02  0.20169057542E+03  0.90745830905E+02 0.  0.
        -11    1    4    4    0    0 -0.11863091189E+03 -0.44107025232E+02 -0.89241992474E+02  0.15486399243E+03  0.00000000000E+00 0.  1.
         11    1    4    4    0    0 -0.10482833662E+02 -0.45617883743E+02  0.13593217942E+01  0.46826582990E+02  0.00000000000E+00 0. -1.
        -13    1    3    3    0    0  0.51211636124E+01  0.54211893614E+02  0.71302858121E+01  0.54918090842E+02  0.00000000000E+00 0.  1.
         13    1    3    3    0    0  0.63170548039E+02 -0.71556758243E+01 -0.27087418398E+02  0.69104631332E+02  0.00000000000E+00 0. -1.
         -4    1    1    2    0  502  0.60822033901E+02  0.42668691185E+02  0.36634887744E+03  0.37380668402E+03  0.00000000000E+00 0.  1.
<scales pt_clust_5="13000.00000" pt_clust_6="13000.00000" pt_clust_7="13000.00000" pt_clust_8="13000.00000" pt_clust_9="74.29628"></scales>
<clustering>
<clus scale="   74.296">  1  9  2 -1</clus>
<clus scale="   90.029">  7  8 -1 -1</clus>
<clus scale="   90.746">  5  6 -1 -1</clus>
<clus scale="  148.757">  2  7  1 -1</clus>
<clus scale="   74.296">  1  5  2 -1</clus>
</clustering>
</event>
<event>
 9    1  0.3288491E-005  0.1009513E+03  0.7546771E-02  0.1279073E+00
         21   -1    0    0  501  502  0.00000000000E+00  0.00000000000E+00  0.35318464057E+03  0.35318464057E+03  0.00000000000E+00 0.  1.
         -4   -1    0    0    0  501 -0.00000000000E+00 -0.00000000000E+00 -0.75715535021E+02  0.75715535021E+02  0.00000000000E+00 0.  1.
         23    2    1    2    0    0 -0.64056587584E+01 -0.20400942557E+02  0.44291983893E+02  0.10443083051E+03  0.92123762420E+02 0.  0.
         23    2    1    2    0    0 -0.48638386318E+02  0.54526250380E+02  0.43763420460E+02  0.12428959153E+03  0.90519948007E+02 0.  0.
        -13    1    3    3    0    0  0.33989426055E+02  0.18323691012E+02  0.18212295194E+02  0.42693400334E+02  0.00000000000E+00 0.  1.
         13    1    3    3    0    0 -0.40395084813E+02 -0.38724633569E+02  0.26079688700E+02  0.61737430176E+02  0.00000000000E+00 0. -1.
        -13    1    4    4    0    0 -0.41986031159E+02  0.13354539208E+02  0.64185636056E+02  0.77852208741E+02  0.00000000000E+00 0. -1.
         13    1    4    4    0    0 -0.66523551594E+01  0.41171711172E+02 -0.20422215597E+02  0.46437382785E+02  0.00000000000E+00 0.  1.
         -4    1    1    2    0  502  0.55044045076E+02 -0.34125307824E+02  0.18941370120E+03  0.20017975356E+03  0.00000000000E+00 0.  1.
<scales pt_clust_5="13000.00000" pt_clust_6="13000.00000" pt_clust_7="13000.00000" pt_clust_8="13000.00000" pt_clust_9="64.76406"></scales>
<clustering>
<clus scale="   64.764">  1  9  2 -1</clus>
<clus scale="   90.520">  7  8 -1 -1</clus>
<clus scale="   92.124">  5  6 -1 -1</clus>
<clus scale="   99.490">  1  7  2 -1</clus>
<clus scale="   64.764">  1  5  2 -1</clus>
</clustering>
</event>
<event>
 9    1  0.3288491E-005  0.9988590E+02  0.7546771E-02  0.1280951E+00
         -4   -1    0    0    0  501 -0.00000000000E+00  0.00000000000E+00  0.62130833421E+02  0.62130833421E+02  0.00000000000E+00 0.  1.
         21   -1    0    0  501  502  0.00000000000E+00 -0.00000000000E+00 -0.25354886265E+03  0.25354886265E+03  0.00000000000E+00 0.  1.
         23    2    1    2    0    0 -0.14705000538E+02  0.10651468659E+02 -0.71448449438E+02  0.11768596718E+03  0.91735571720E+02 0.  0.
         23    2    1    2    0    0  0.41216522749E+02 -0.45730558957E+02 -0.64885155171E+02  0.12751183603E+03  0.90879586239E+02 0.  0.
        -13    1    4    4    0    0  0.75487912130E+01 -0.55764183439E+02 -0.30029399600E+01  0.56352870839E+02  0.00000000000E+00 0.  1.
         13    1    4    4    0    0  0.33667731536E+02  0.10033624482E+02 -0.61882215211E+02  0.71158965187E+02  0.00000000000E+00 0. -1.
        -13    1    3    3    0    0  0.61940947439E+00  0.50624987303E+02 -0.41075514436E+02  0.65195635541E+02  0.00000000000E+00 0. -1.
         13    1    3    3    0    0 -0.15324410012E+02 -0.39973518643E+02 -0.30372935002E+02  0.52490331639E+02  0.00000000000E+00 0.  1.
         -4    1    1    2    0  502 -0.26511522211E+02  0.35079090298E+02 -0.55084424619E+02  0.70481892864E+02  0.00000000000E+00 0.  1.
<scales pt_clust_5="13000.00000" pt_clust_6="13000.00000" pt_clust_7="13000.00000" pt_clust_8="13000.00000" pt_clust_9="43.97048"></scales>
<clustering>
<clus scale="   43.970">  2  9  1 -1</clus>
<clus scale="   90.880">  5  6 -1 -1</clus>
<clus scale="   91.736">  7  8 -1 -1</clus>
<clus scale="   99.100">  2  5  1 -1</clus>
<clus scale="   43.970">  2  5  1 -1</clus>
</clustering>
</event>
<event>
 9    1  0.3288491E-005  0.1351387E+03  0.7546771E-02  0.1220840E+00
         -3   -1    0    0    0  501 -0.00000000000E+00  0.00000000000E+00  0.88661032747E+03  0.88661032747E+03  0.00000000000E+00 0.  1.
         21   -1    0    0  501  502  0.00000000000E+00 -0.00000000000E+00 -0.33540528080E+02  0.33540528080E+02  0.00000000000E+00 0. -1.
         23    2    1    2    0    0 -0.34275771726E+02  0.99680818160E+02  0.57049765187E+03  0.58744196668E+03  0.92246405824E+02 0.  0.
         23    2    1    2    0    0  0.34867687347E+02 -0.72542237972E+02  0.27854145000E+03  0.30526623191E+03  0.95519637061E+02 0.  0.
        -13    1    3    3    0    0 -0.27585077013E+02  0.14233189694E+01  0.45045067873E+02  0.52839572769E+02  0.00000000000E+00 0. -1.
         13    1    3    3    0    0 -0.66906947128E+01  0.98257499191E+02  0.52545258400E+03  0.53460239391E+03  0.00000000000E+00 0.  1.
        -13    1    4    4    0    0 -0.14549485316E+01 -0.83743530503E+02  0.15733895374E+03  0.17824321064E+03  0.00000000000E+00 0. -1.
         13    1    4    4    0    0  0.36322635879E+02  0.11201292531E+02  0.12120249626E+03  0.12702302127E+03  0.00000000000E+00 0.  1.
         -3    1    1    2    0  502 -0.59191562139E+00 -0.27138580188E+02  0.40306975176E+01  0.27442656964E+02  0.00000000000E+00 0.  1.
<scales pt_clust_5="13000.00000" pt_clust_6="13000.00000" pt_clust_7="13000.00000" pt_clust_8="13000.00000" pt_clust_9="27.14503"></scales>
<clustering>
<clus scale="   27.145">  2  9  1 -1</clus>
<clus scale="   92.246">  5  6 -1 -1</clus>
<clus scale="   95.520">  7  8 -1 -1</clus>
<clus scale="  132.845">  1  5  2 -1</clus>
<clus scale="   27.145">  2  5  1 -1</clus>
</clustering>
</event>
<event>
 9    1  0.3288491E-005  0.1754280E+03  0.7546771E-02  0.1172370E+00
          2   -1    0    0  502    0 -0.00000000000E+00  0.00000000000E+00  0.20571961659E+03  0.20571961659E+03  0.00000000000E+00 0. -1.
         21   -1    0    0  501  502  0.00000000000E+00 -0.00000000000E+00 -0.33051200494E+03  0.33051200494E+03  0.00000000000E+00 0.  1.
         23    2    1    2    0    0  0.16257144840E+03  0.19325368437E+01  0.76680834112E+02  0.19997339395E+03  0.87613911184E+02 0.  0.
         23    2    1    2    0    0 -0.11530292468E+03 -0.89280802309E+02 -0.12394728857E+03  0.21026496094E+03  0.87078110653E+02 0.  0.
        -11    1    3    3    0    0  0.17960875744E+02  0.28437861132E+02  0.31719765297E+02  0.46232548207E+02  0.00000000000E+00 0. -1.
         11    1    3    3    0    0  0.14461057266E+03 -0.26505324288E+02  0.44961068815E+02  0.15374084574E+03  0.00000000000E+00 0.  1.
        -13    1    4    4    0    0 -0.87850841948E+02 -0.95206906243E+02 -0.12773107409E+03  0.18192677844E+03  0.00000000000E+00 0.  1.
         13    1    4    4    0    0 -0.27452082734E+02  0.59261039340E+01  0.37837855220E+01  0.28338182496E+02  0.00000000000E+00 0. -1.
          2    1    1    2  501    0 -0.47268523719E+02  0.87348265465E+02 -0.77525933892E+02  0.12599326665E+03  0.00000000000E+00 0. -1.
<scales pt_clust_5="13000.00000" pt_clust_6="13000.00000" pt_clust_7="13000.00000" pt_clust_8="13000.00000" pt_clust_9="99.31784"></scales>
<clustering>
<clus scale="   87.078">  7  8 -1 -1</clus>
<clus scale="   87.614">  5  6 -1 -1</clus>
<clus scale="   99.318">  2  9  1 -1</clus>
<clus scale="  175.161">  2  7  1 -1</clus>
<clus scale="   99.318">  2  5  1 -1</clus>
</clustering>
</event>
<event>
 9    1  0.3288491E-005  0.3459495E+03  0.7546771E-02  0.1097013E+00
         21   -1    0    0  501  502  0.00000000000E+00  0.00000000000E+00  0.44097781422E+03  0.44097781422E+03  0.00000000000E+00 0. -1.
          3   -1    0    0  502    0 -0.00000000000E+00 -0.00000000000E+00 -0.75834244433E+03  0.75834244433E+03  0.00000000000E+00 0. -1.
         23    2    1    2    0    0  0.71226286202E+02  0.73088234374E+02 -0.46977179830E+03  0.49117294613E+03  0.10074843263E+03 0.  0.
         23    2    1    2    0    0 -0.32569772202E+03 -0.19114354577E+03  0.17584130028E+03  0.42664788659E+03  0.92159617125E+02 0.  0.
        -11    1    3    3    0    0  0.84688232284E+02  0.24738606592E+02 -0.35694137863E+03  0.36768361824E+03  0.00000000000E+00 0. -1.
         11    1    3    3    0    0 -0.13461946083E+02  0.48349627782E+02 -0.11283041967E+03  0.12348932789E+03  0.00000000000E+00 0.  1.
        -11    1    4    4    0    0 -0.45121173529E+02 -0.54303109533E+02  0.63267309846E+02  0.94802428770E+02  0.00000000000E+00 0.  1.
         11    1    4    4    0    0 -0.28057654849E+03 -0.13684043623E+03  0.11257399043E+03  0.33184545782E+03  0.00000000000E+00 0. -1.
          3    1    1    2  501    0  0.25447143582E+03  0.11805531139E+03 -0.23434132086E+02  0.28149942583E+03  0.00000000000E+00 0. -1.
<scales pt_clust_5="13000.00000" pt_clust_6="13000.00000" pt_clust_7="13000.00000" pt_clust_8="13000.00000" pt_clust_9="333.44826"></scales>
<clustering>
<clus scale="   92.160">  7  8 -1 -1</clus>
<clus scale="  100.748">  5  6 -1 -1</clus>
<clus scale="  143.406">  2  5  1 -1</clus>
<clus scale="  333.448">  1  9  2 -1</clus>
<clus scale="  333.448">  1  5  2 -1</clus>
</clustering>
</event>
<event>
 9    1  0.3288491E-005  0.9223446E+02  0.7546771E-02  0.1297931E+00
          1   -1    0    0  502    0 -0.00000000000E+00  0.00000000000E+00  0.38425585188E+03  0.38425585188E+03  0.00000000000E+00 0. -1.
         21   -1    0    0  501  502  0.00000000000E+00 -0.00000000000E+00 -0.49575398296E+02  0.49575398296E+02  0.00000000000E+00 0. -1.
         23    2    1    2    0    0 -0.13524607114E+02  0.12436000810E+01  0.16047109388E+03  0.18504480609E+03  0.91138064229E+02 0.  0.
         23    2    1    2    0    0 -0.23322722016E+02 -0.45305683553E+02  0.57415680551E+02  0.11863285653E+03  0.90446890220E+02 0.  0.
        -11    1    3    3    0    0  0.23994546782E+01 -0.37702579996E+02  0.12310763001E+03  0.12877395112E+03  0.00000000000E+00 0. -1.
         11    1    3    3    0    0 -0.15924061792E+02  0.38946180077E+02  0.37363463872E+02  0.56270854970E+02  0.00000000000E+00 0.  1.
        -11    1    4    4    0    0 -0.33767646181E+02 -0.41191711226E+01  0.66940307733E+02  0.75088123553E+02  0.00000000000E+00 0.  1.
         11    1    4    4    0    0  0.10444924165E+02 -0.41186512430E+02 -0.95246271816E+01  0.43544732976E+02  0.00000000000E+00 0. -1.
          1    1    1    2  501    0  0.36847329130E+02  0.44062083472E+02  0.11679367915E+03  0.13015358755E+03  0.00000000000E+00 0. -1.
<scales pt_clust_5="13000.00000" pt_clust_6="13000.00000" pt_clust_7="13000.00000" pt_clust_8="13000.00000" pt_clust_9="57.43863"></scales>
<clustering>
<clus scale="   57.439">  2  9  1 -1</clus>
<clus scale="   90.447">  7  8 -1 -1</clus>
<clus scale="   91.138">  5  6 -1 -1</clus>
<clus scale="   91.552">  2  7  1 -1</clus>
<clus scale="   57.439">  2  5  1 -1</clus>
</clustering>
</event>
<event>
 9    1  0.3288491E-005  0.9158653E+02  0.7546771E-02  0.1300361E+00
         21   -1    0    0  501  502  0.00000000000E+00  0.00000000000E+00  0.26772886500E+03  0.26772886500E+03  0.00000000000E+00 0. -1.
         -3   -1    0    0    0  501 -0.00000000000E+00 -0.00000000000E+00 -0.57960341691E+02  0.57960341691E+02  0.00000000000E+00 0.  1.
         23    2    1    2    0    0  0.57658300791E+01 -0.16319358407E+02  0.67437665250E+02  0.11238032085E+03  0.88215256989E+02 0.  0.
         23    2    1    2    0    0  0.41962386566E+02 -0.12537418461E+02  0.10941198307E+03  0.14854509529E+03  0.90424745218E+02 0.  0.
        -11    1    3    3    0    0 -0.22190779453E+02  0.90298777862E+01 -0.10214026909E+02  0.26044111259E+02  0.00000000000E+00 0.  1.
         11    1    3    3    0    0  0.27956609532E+02 -0.25349236194E+02  0.77651692159E+02  0.86336209595E+02  0.00000000000E+00 0. -1.
        -13    1    4    4    0    0 -0.17017758631E+02 -0.28702129380E+02  0.64667919620E+02  0.72769197932E+02  0.00000000000E+00 0.  1.
         13    1    4    4    0    0  0.58980145197E+02  0.16164710919E+02  0.44744063453E+02  0.75775897361E+02  0.00000000000E+00 0. -1.
         -3    1    1    2    0  502 -0.47728216645E+02  0.28856776869E+02  0.32918874989E+02  0.64763790546E+02  0.00000000000E+00 0.  1.
<scales pt_clust_5="13000.00000" pt_clust_6="13000.00000" pt_clust_7="13000.00000" pt_clust_8="13000.00000" pt_clust_9="55.77364"></scales>
<clustering>
<clus scale="   55.774">  1  9  2 -1</clus>
<clus scale="   88.215">  5  6 -1 -1</clus>
<clus scale="   89.406">  2  5  1 -1</clus>
<clus scale="   90.425">  7  8 -1 -1</clus>
<clus scale="   55.774">  1  5  2 -1</clus>
</clustering>
</event>
<event>
 9    1  0.3288491E-005  0.1280272E+03  0.7546771E-02  0.1244893E+00
          1   -1    0    0  502    0 -0.00000000000E+00  0.00000000000E+00  0.22714103910E+03  0.22714103910E+03  0.00000000000E+00 0. -1.
         21   -1    0    0  501  502  0.00000000000E+00 -0.00000000000E+00 -0.10843975677E+03  0.10843975677E+03  0.00000000000E+00 0.  1.
         23    2    1    2    0    0  0.69684667609E+01  0.21242525985E+02  0.76530078266E+02  0.14783977182E+03  0.12449875828E+03 0.  0.
         23    2    1    2    0    0 -0.52585220329E+02  0.31268958236E+02  0.44949585753E+02  0.11812735021E+03  0.90502223525E+02 0.  0.
        -11    1    4    4    0    0 -0.47989622717E+02  0.56020140164E+02  0.91034035194E+01  0.74324504359E+02  0.00000000000E+00 0.  1.
         11    1    4    4    0    0 -0.45955976118E+01 -0.24751181928E+02  0.35846182234E+02  0.43802845855E+02  0.00000000000E+00 0. -1.
        -11    1    3    3    0    0 -0.89178547766E+01  0.57612424008E+02 -0.36104156612E+01  0.58410227145E+02  0.00000000000E+00 0.  1.
         11    1    3    3    0    0  0.15886321538E+02 -0.36369898023E+02  0.80140493927E+02  0.89429544677E+02  0.00000000000E+00 0. -1.
          1    1    1    2  501    0  0.45616753568E+02 -0.52511484220E+02 -0.27783816898E+01  0.69613673843E+02  0.00000000000E+00 0. -1.
<scales pt_clust_5="13000.00000" pt_clust_6="13000.00000" pt_clust_7="13000.00000" pt_clust_8="13000.00000" pt_clust_9="69.55821"></scales>
<clustering>
<clus scale="   69.558">  2  9  1 -1</clus>
<clus scale="   90.502">  5  6 -1 -1</clus>
<clus scale="   95.298">  2  5  1 -1</clus>
<clus scale="  124.499">  7  8 -1 -1</clus>
<clus scale="   69.558">  2  5  1 -1</clus>
</clustering>
</event>
<event>
 9    1  0.3288491E-005  0.1778108E+03  0.7546771E-02  0.1170126E+00
         21   -1    0    0  501  502  0.00000000000E+00  0.00000000000E+00  0.10048979981E+03  0.10048979981E+03  0.00000000000E+00 0. -1.
          2   -1    0    0  502    0 -0.00000000000E+00 -0.00000000000E+00 -0.64673317044E+03  0.64673317044E+03  0.00000000000E+00 0. -1.
         23    2    1    2    0    0 -0.12997977957E+03 -0.92874710029E+02 -0.48779981058E+03  0.52134414371E+03  0.91272154147E+02 0.  0.
         23    2    1    2    0    0  0.11908451065E+03  0.36218083104E+02 -0.19890170823E+02  0.15648830787E+03  0.92736731582E+02 0.  0.
        -11    1    4    4    0    0  0.44609979938E+02  0.58826593593E+02 -0.26351021219E+02  0.78390016859E+02  0.00000000000E+00 0.  1.
         11    1    4    4    0    0  0.74474530707E+02 -0.22608510489E+02  0.64608503965E+01  0.78098291008E+02  0.00000000000E+00 0. -1.
        -13    1    3    3    0    0 -0.10683799390E+02 -0.58795271027E+02 -0.16891220654E+03  0.17917131741E+03  0.00000000000E+00 0.  1.
         13    1    3    3    0    0 -0.11929598018E+03 -0.34079439002E+02 -0.31888760404E+03  0.34217282630E+03  0.00000000000E+00 0. -1.
          2    1    1    2  501    0  0.10895268921E+02  0.56656626925E+02 -0.38553389233E+02  0.69390518666E+02  0.00000000000E+00 0. -1.
<scales pt_clust_5="13000.00000" pt_clust_6="13000.00000" pt_clust_7="13000.00000" pt_clust_8="13000.00000" pt_clust_9="57.69472"></scales>
<clustering>
<clus scale="   57.695">  1  9  2 -1</clus>
<clus scale="   91.272">  7  8 -1 -1</clus>
<clus scale="   92.737">  5  6 -1 -1</clus>
<clus scale="  177.051">  2  7  1 -1</clus>
<clus scale="   57.695">  1  5  2 -1</clus>
</clustering>
</event>
<event>
 9    1  0.3288491E-005  0.1393495E+03  0.7546771E-02  0.1214366E+00
         21   -1    0    0  501  502  0.00000000000E+00  0.00000000000E+00  0.11267694073E+03  0.11267694073E+03  0.00000000000E+00 0. -1.
          1   -1    0    0  502    0 -0.00000000000E+00 -0.00000000000E+00 -0.31938860577E+03  0.31938860577E+03  0.00000000000E+00 0. -1.
         23    2    1    2    0    0  0.99992968330E+02  0.86129832306E+01 -0.19434561708E+03  0.23723307747E+03  0.91850623148E+02 0.  0.
         23    2    1    2    0    0 -0.11397362150E+03 -0.25853543552E+02 -0.45428187655E+02  0.15501035627E+03  0.91137797902E+02 0.  0.
        -11    1    3    3    0    0  0.34833134864E+02  0.48003690876E+02 -0.74181739112E+02  0.94977007954E+02  0.00000000000E+00 0.  1.
         11    1    3    3    0    0  0.65159833466E+02 -0.39390707646E+02 -0.12016387797E+03  0.14225606952E+03  0.00000000000E+00 0. -1.
        -11    1    4    4    0    0  0.94839513509E+01 -0.22089932661E+02 -0.12908111957E+02  0.27286073599E+02  0.00000000000E+00 0. -1.
         11    1    4    4    0    0 -0.12345757285E+03 -0.37636108909E+01 -0.32520075698E+02  0.12772428267E+03  0.00000000000E+00 0.  1.
          1    1    1    2  501    0  0.13980653170E+02  0.17240560321E+02  0.33062139699E+02  0.39822112761E+02  0.00000000000E+00 0. -1.
<scales pt_clust_5="13000.00000" pt_clust_6="13000.00000" pt_clust_7="13000.00000" pt_clust_8="13000.00000" pt_clust_9="22.19675"></scales>
<clustering>
<clus scale="   22.197">  1  9  2 -1</clus>
<clus scale="   91.138">  7  8 -1 -1</clus>
<clus scale="   91.851">  5  6 -1 -1</clus>
<clus scale="  138.881">  1  7  2 -1</clus>
<clus scale="   22.197">  1  5  2 -1</clus>
</clustering>
</event>
<event>
 9    1  0.3288491E-005  0.9751714E+02  0.7546771E-02  0.1285681E+00
         21   -1    0    0  501  502  0.00000000000E+00  0.00000000000E+00  0.82367632117E+02  0.82367632117E+02  0.00000000000E+00 0.  1.
         -2   -1    0    0    0  501 -0.00000000000E+00 -0.00000000000E+00 -0.32538363178E+03  0.32538363178E+03  0.00000000000E+00 0.  1.
         23    2    1    2    0    0  0.27751398910E+02  0.41857013508E+02 -0.17194612804E+03  0.20074140614E+03  0.90606244090E+02 0.  0.
         23    2    1    2    0    0 -0.45813348403E+00 -0.21678062998E+02 -0.11715561522E+03  0.14977343453E+03  0.90755138751E+02 0.  0.
        -11    1    4    4    0    0 -0.93996248970E+01  0.34596762593E+02 -0.38009344601E+02  0.52249394323E+02  0.00000000000E+00 0.  1.
         11    1    4    4    0    0  0.89414914130E+01 -0.56274825591E+02 -0.79146270622E+02  0.97524040202E+02  0.00000000000E+00 0. -1.
        -11    1    3    3    0    0  0.55800771431E+02  0.47282248269E+02 -0.13949584458E+03  0.15750691334E+03  0.00000000000E+00 0.  1.
         11    1    3    3    0    0 -0.28049372521E+02 -0.54252347607E+01 -0.32450283466E+02  0.43234492804E+02  0.00000000000E+00 0. -1.
         -2    1    1    2    0  502 -0.27293265426E+02 -0.20178950511E+02  0.46085743603E+02  0.57236423235E+02  0.00000000000E+00 0.  1.
<scales pt_clust_5="13000.00000" pt_clust_6="13000.00000" pt_clust_7="13000.00000" pt_clust_8="13000.00000" pt_clust_9="33.94278"></scales>
<clustering>
<clus scale="   33.943">  1  9  2 -1</clus>
<clus scale="   90.606">  7  8 -1 -1</clus>
<clus scale="   90.755">  5  6 -1 -1</clus>
<clus scale="   97.379">  2  7  1 -1</clus>
<clus scale="   33.943">  1  5  2 -1</clus>
</clustering>
</event>
<event>
 9    1  0.3288491E-005  0.1859322E+03  0.7546771E-02  0.1162718E+00
          1   -1    0    0  502    0 -0.00000000000E+00  0.00000000000E+00  0.15776927302E+04  0.15776927302E+04  0.00000000000E+00 0. -1.
         21   -1    0    0  501  502  0.00000000000E+00 -0.00000000000E+00 -0.43599089698E+02  0.43599089698E+02  0.00000000000E+00 0. -1.
         23    2    1    2    0    0 -0.96222731297E+02  0.15874314515E+03  0.81537933660E+03  0.84155994993E+03  0.94453621538E+02 0.  0.
         23    2    1    2    0    0  0.14038452767E+03 -0.55837796336E+02  0.54855394283E+03  0.57603031486E+03  0.89854439731E+02 0.  0.
        -11    1    4    4    0    0  0.14774357049E+03 -0.36493711597E+02  0.51064243143E+03  0.53283735453E+03  0.00000000000E+00 0.  1.
         11    1    4    4    0    0 -0.73590428221E+01 -0.19344084738E+02  0.37911511399E+02  0.43192960331E+02  0.00000000000E+00 0. -1.
        -13    1    3    3    0    0  0.67492011237E+01  0.38165181277E+02  0.75344867058E+02  0.84728872114E+02  0.00000000000E+00 0.  1.
         13    1    3    3    0    0 -0.10297193242E+03  0.12057796388E+03  0.74003446955E+03  0.75683107782E+03  0.00000000000E+00 0. -1.
          1    1    1    2  501    0 -0.44161796372E+02 -0.10290534882E+03  0.17016036111E+03  0.20370155514E+03  0.00000000000E+00 0. -1.
<scales pt_clust_5="13000.00000" pt_clust_6="13000.00000" pt_clust_7="13000.00000" pt_clust_8="13000.00000" pt_clust_9="111.98114"></scales>
<clustering>
<clus scale="   89.854">  5  6 -1 -1</clus>
<clus scale="   94.454">  7  8 -1 -1</clus>
<clus scale="  111.981">  2  9  1 -1</clus>
<clus scale="  183.639">  2  5  1 -1</clus>
<clus scale="  111.981">  2  5  1 -1</clus>
</clustering>
</event>
<event>
 9    1  0.3288491E-005  0.1146652E+03  0.7546771E-02  0.1254317E+00
         21   -1    0    0  501  502  0.00000000000E+00  0.00000000000E+00  0.41834133392E+03  0.41834133392E+03  0.00000000000E+00 0.  1.
         -3   -1    0    0    0  501 -0.00000000000E+00 -0.00000000000E+00 -0.11945516969E+03  0.11945516969E+03  0.00000000000E+00 0.  1.
         23    2    1    2    0    0  0.20282139645E+02  0.10342263275E+03 -0.99963007596E+01  0.13660251533E+03  0.86329108712E+02 0.  0.
         23    2    1    2    0    0 -0.44505679005E+02 -0.12459648315E+02  0.31038995340E+02  0.10783748499E+03  0.92355322740E+02 0.  0.
        -11    1    3    3    0    0  0.38066886649E+02  0.12367549313E+02 -0.17163704637E+02  0.43550394855E+02  0.00000000000E+00 0. -1.
         11    1    3    3    0    0 -0.17784747004E+02  0.91055083441E+02  0.71674038770E+01  0.93052120475E+02  0.00000000000E+00 0.  1.
        -13    1    4    4    0    0 -0.85482022143E+01  0.18974385129E+02  0.51751650577E+02  0.55779318654E+02  0.00000000000E+00 0. -1.
         13    1    4    4    0    0 -0.35957476791E+02 -0.31434033444E+02 -0.20712655237E+02  0.52058166340E+02  0.00000000000E+00 0.  1.
         -3    1    1    2    0  502  0.24223539361E+02 -0.90962984439E+02  0.27784346965E+03  0.29335650329E+03  0.00000000000E+00 0.  1.
<scales pt_clust_5="13000.00000" pt_clust_6="13000.00000" pt_clust_7="13000.00000" pt_clust_8="13000.00000" pt_clust_9="94.13312"></scales>
<clustering>
<clus scale="   86.329">  5  6 -1 -1</clus>
<clus scale="   92.355">  7  8 -1 -1</clus>
<clus scale="   94.133">  1  9  2 -1</clus>
<clus scale="  109.870">  2  5  1 -1</clus>
<clus scale="   94.133">  1  5  2 -1</clus>
</clustering>
</event>
<event>
 9    1  0.3288491E-005  0.9551384E+02  0.7546771E-02  0.1290776E+00
         21   -1    0    0  501  502  0.00000000000E+00  0.00000000000E+00  0.81744576681E+02  0.81744576681E+02  0.00000000000E+00 0. -1.
          2   -1    0    0  502    0 -0.00000000000E+00 -0.00000000000E+00 -0.28883769332E+03  0.28883769332E+03  0.00000000000E+00 0. -1.
         23    2    1    2    0    0  0.51080127924E+01  0.23200901644E+02 -0.20901135506E+03  0.23001663349E+03  0.93045856998E+02 0.  0.
         23    2    1    2    0    0 -0.27270798997E+02 -0.48205871691E+01 -0.27263737044E+02  0.99570359409E+02  0.91673390778E+02 0.  0.
        -11    1    4    4    0    0 -0.49301460724E+02  0.27513984961E+02 -0.19089750560E+02  0.59599261526E+02  0.00000000000E+00 0.  1.
         11    1    4    4    0    0  0.22030661727E+02 -0.32334572130E+02 -0.81739864834E+01  0.39971097883E+02  0.00000000000E+00 0. -1.
        -13    1    3    3    0    0  0.26042751502E+02 -0.20780653643E+02 -0.31168728367E+02  0.45624007930E+02  0.00000000000E+00 0.  1.
         13    1    3    3    0    0 -0.20934738709E+02  0.43981555287E+02 -0.17784262669E+03  0.18439262556E+03  0.00000000000E+00 0. -1.
          2    1    1    2  501    0  0.22162786204E+02 -0.18380314474E+02  0.29181975467E+02  0.40995277102E+02  0.00000000000E+00 0. -1.
<scales pt_clust_5="13000.00000" pt_clust_6="13000.00000" pt_clust_7="13000.00000" pt_clust_8="13000.00000" pt_clust_9="28.79280"></scales>
<clustering>
<clus scale="   28.793">  1  9  2 -1</clus>
<clus scale="   91.673">  5  6 -1 -1</clus>
<clus scale="   93.046">  7  8 -1 -1</clus>
<clus scale="   94.177">  1  5  2 -1</clus>
<clus scale="   28.793">  1  5  2 -1</clus>
</clustering>
</event>
<event>
 9    1  0.3288491E-005  0.1564927E+03  0.7546771E-02  0.1206780E+00
          1   -1    0    0  502    0 -0.00000000000E+00  0.00000000000E+00  0.22327232369E+03  0.22327232369E+03  0.00000000000E+00 0. -1.
         21   -1    0    0  501  502  0.00000000000E+00 -0.00000000000E+00 -0.25329266890E+03  0.25329266890E+03  0.00000000000E+00 0. -1.
         23    2    1    2    0    0  0.40932003556E+02 -0.19471293774E+02  0.26115096614E+02  0.11820099707E+03  0.10599489252E+03 0.  0.
         23    2    1    2    0    0  0.81373575709E+02 -0.35774224755E+02  0.92604559760E+02  0.15802850164E+03  0.92173471569E+02 0.  0.
        -11    1    3    3    0    0  0.36944567090E+02  0.21412228025E+02 -0.27401636832E+02  0.50736912081E+02  0.00000000000E+00 0.  1.
         11    1    3    3    0    0  0.39874364658E+01 -0.40883521799E+02  0.53516733446E+02  0.67464084986E+02  0.00000000000E+00 0. -1.
        -11    1    4    4    0    0  0.52986464670E+02 -0.59054877290E+02  0.91761369358E+02  0.12130619472E+03  0.00000000000E+00 0. -1.
         11    1    4    4    0    0  0.28387111039E+02  0.23280652535E+02  0.84319040159E+00  0.36722306922E+02  0.00000000000E+00 0.  1.
          1    1    1    2  501    0 -0.12230557926E+03  0.55245518529E+02 -0.14874000159E+03  0.20033549388E+03  0.00000000000E+00 0. -1.
<scales pt_clust_5="13000.00000" pt_clust_6="13000.00000" pt_clust_7="13000.00000" pt_clust_8="13000.00000" pt_clust_9="126.46751"></scales>
<clustering>
<clus scale="   92.173">  7  8 -1 -1</clus>
<clus scale="  105.995">  5  6 -1 -1</clus>
<clus scale="  115.280">  1  5  2 -1</clus>
<clus scale="  126.468">  2  9  1 -1</clus>
<clus scale="  126.468">  2  5  1 -1</clus>
</clustering>
</event>
<event>
 9    1  0.3288491E-005  0.1072218E+03  0.7546771E-02  0.1269919E+00
         21   -1    0    0  501  502  0.00000000000E+00  0.00000000000E+00  0.45519953903E+02  0.45519953903E+02  0.00000000000E+00 0.  1.
         -1   -1    0    0    0  501 -0.00000000000E+00 -0.00000000000E+00 -0.48040794676E+03  0.48040794676E+03  0.00000000000E+00 0.  1.
         23    2    1    2    0    0 -0.52810860623E+02 -0.17711300203E+02 -0.24988113733E+03  0.27494379671E+03  0.10025383485E+03 0.  0.
         23    2    1    2    0    0  0.71921341689E+01 -0.24287138925E+02 -0.62224926808E+02  0.11343288036E+03  0.91397401049E+02 0.  0.
        -11    1    3    3    0    0 -0.69698466590E+02 -0.36706242542E+02 -0.12688239452E+03  0.14934646473E+03  0.00000000000E+00 0.  1.
         11    1    3    3    0    0  0.16887605967E+02  0.18994942339E+02 -0.12299874281E+03  0.12559733198E+03  0.00000000000E+00 0. -1.
        -11    1    4    4    0    0 -0.34192769317E+02 -0.13177106161E+02  0.14611785932E+01  0.36673105176E+02  0.00000000000E+00 0.  1.
         11    1    4    4    0    0  0.41384903486E+02 -0.11110032764E+02 -0.63686105401E+02  0.76759775180E+02  0.00000000000E+00 0. -1.
         -1    1    1    2    0  502  0.45618726454E+02  0.41998439128E+02 -0.12278192871E+03  0.13755122359E+03  0.00000000000E+00 0.  1.
<scales pt_clust_5="13000.00000" pt_clust_6="13000.00000" pt_clust_7="13000.00000" pt_clust_8="13000.00000" pt_clust_9="62.00759"></scales>
<clustering>
<clus scale="   62.008">  1  9  2 -1</clus>
<clus scale="   91.397">  7  8 -1 -1</clus>
<clus scale="   98.991">  1  7  2 -1</clus>
<clus scale="  100.254">  5  6 -1 -1</clus>
<clus scale="   62.008">  1  5  2 -1</clus>
</clustering>
</event>
<event>
 9    1  0.3288491E-005  0.9994111E+02  0.7546771E-02  0.1283174E+00
         21   -1    0    0  501  502  0.00000000000E+00  0.00000000000E+00  0.13004513631E+03  0.13004513631E+03  0.00000000000E+00 0.  1.
          2   -1    0    0  502    0 -0.00000000000E+00 -0.00000000000E+00 -0.10469865775E+03  0.10469865775E+03  0.00000000000E+00 0. -1.
         23    2    1    2    0    0  0.37742343950E+02 -0.35942884683E+02 -0.31978929884E+02  0.10349174092E+03  0.83495586690E+02 0.  0.
         23    2    1    2    0    0 -0.19399160838E+02  0.24827231389E+02  0.36717072392E+02  0.10150758089E+03  0.89235232461E+02 0.  0.
        -11    1    4    4    0    0 -0.49990766147E+02  0.22239161268E+02  0.43698427954E+02  0.70022921957E+02  0.00000000000E+00 0. -1.
         11    1    4    4    0    0  0.30591605308E+02  0.25880701215E+01 -0.69813555622E+01  0.31484658928E+02  0.00000000000E+00 0.  1.
        -13    1    3    3    0    0  0.19401470886E+02  0.25330049219E+02  0.17091876563E+00  0.31907016143E+02  0.00000000000E+00 0.  1.
         13    1    3    3    0    0  0.18340873065E+02 -0.61272933901E+02 -0.32149848650E+02  0.71584724780E+02  0.00000000000E+00 0. -1.
          2    1    1    2  501    0 -0.18343183112E+02  0.11115653294E+02  0.20608336055E+02  0.29744472256E+02  0.00000000000E+00 0. -1.
<scales pt_clust_5="13000.00000" pt_clust_6="13000.00000" pt_clust_7="13000.00000" pt_clust_8="13000.00000" pt_clust_9="21.44831"></scales>
<clustering>
<clus scale="   21.448">  1  9  2 -1</clus>
<clus scale="   83.496">  7  8 -1 -1</clus>
<clus scale="   89.235">  5  6 -1 -1</clus>
<clus scale="   94.852">  2  7  1 -1</clus>
<clus scale="   21.448">  1  5  2 -1</clus>
</clustering>
</event>
<event>
 9    1  0.3288491E-005  0.1133992E+03  0.7546771E-02  0.1256963E+00
          1   -1    0    0  502    0 -0.00000000000E+00  0.00000000000E+00  0.57460665279E+03  0.57460665279E+03  0.00000000000E+00 0. -1.
         21   -1    0    0  501  502  0.00000000000E+00 -0.00000000000E+00 -0.54429614201E+02  0.54429614201E+02  0.00000000000E+00 0. -1.
         23    2    1    2    0    0  0.10144999523E+02 -0.89998607079E+02  0.40733070741E+03  0.42697112188E+03  0.90461944649E+02 0.  0.
         23    2    1    2    0    0 -0.17293478251E+02  0.29349062818E+02  0.10829719418E+03  0.14082657382E+03  0.83327124923E+02 0.  0.
        -11    1    3    3    0    0  0.37861334907E+02 -0.14982796015E+02  0.21249899790E+03  0.21636494394E+03  0.00000000000E+00 0.  1.
         11    1    3    3    0    0 -0.27716335384E+02 -0.75015811064E+02  0.19483170951E+03  0.21060617795E+03  0.00000000000E+00 0. -1.
        -13    1    4    4    0    0 -0.18316246785E+02 -0.12749627161E+02  0.93601120021E+02  0.96224776218E+02  0.00000000000E+00 0. -1.
         13    1    4    4    0    0  0.10227685344E+01  0.42098689978E+02  0.14696074155E+02  0.44601797597E+02  0.00000000000E+00 0.  1.
          1    1    1    2  501    0  0.71484787273E+01  0.60649544261E+02  0.45491370068E+01  0.61238571299E+02  0.00000000000E+00 0. -1.
<scales pt_clust_5="13000.00000" pt_clust_6="13000.00000" pt_clust_7="13000.00000" pt_clust_8="13000.00000" pt_clust_9="61.06937"></scales>
<clustering>
<clus scale="   61.069">  2  9  1 -1</clus>
<clus scale="   83.327">  7  8 -1 -1</clus>
<clus scale="   90.462">  5  6 -1 -1</clus>
<clus scale="  107.793">  2  7  1 -1</clus>
<clus scale="   61.069">  2  5  1 -1</clus>
</clustering>
</event>
<event>
 9    1  0.3288491E-005  0.1229655E+03  0.7546771E-02  0.1247162E+00
          1   -1    0    0  502    0 -0.00000000000E+00  0.00000000000E+00  0.57266542859E+03  0.57266542859E+03  0.00000000000E+00 0. -1.
         21   -1    0    0  501  502  0.00000000000E+00 -0.00000000000E+00 -0.56240840226E+02  0.56240840226E+02  0.00000000000E+00 0.  1.
         23    2    1    2    0    0 -0.33470729083E+02 -0.22990848801E+02  0.26744805445E+03  0.28514901424E+03  0.90181093694E+02 0.  0.
         23    2    1    2    0    0  0.97670264050E+02  0.67733075634E+01  0.97076960315E+02  0.17805248882E+03  0.11266496517E+03 0.  0.
        -13    1    4    4    0    0  0.99703126437E+02 -0.30810250490E+02  0.44631343015E+02  0.11349864200E+03  0.00000000000E+00 0.  1.
         13    1    4    4    0    0 -0.20328623874E+01  0.37583558053E+02  0.52445617300E+02  0.64553846821E+02  0.00000000000E+00 0. -1.
        -13    1    3    3    0    0 -0.48807878571E+02 -0.47613713283E+02  0.20999786148E+03  0.22079034519E+03  0.00000000000E+00 0. -1.
         13    1    3    3    0    0  0.15337149488E+02  0.24622864481E+02  0.57450192964E+02  0.64358669045E+02  0.00000000000E+00 0.  1.
          1    1    1    2  501    0 -0.64199534967E+02  0.16217541238E+02  0.15189957360E+03  0.16570476575E+03  0.00000000000E+00 0. -1.
<scales pt_clust_5="13000.00000" pt_clust_6="13000.00000" pt_clust_7="13000.00000" pt_clust_8="13000.00000" pt_clust_9="66.21626"></scales>
<clustering>
<clus scale="   66.216">  2  9  1 -1</clus>
<clus scale="   90.181">  7  8 -1 -1</clus>
<clus scale="  102.761">  1  7  2 -1</clus>
<clus scale="  112.665">  5  6 -1 -1</clus>
<clus scale="   66.216">  2  5  1 -1</clus>
</clustering>
</event>
<event>
 9    1  0.3288491E-005  0.1434053E+03  0.7546771E-02  0.1208836E+00
          2   -1    0    0  502    0 -0.00000000000E+00  0.00000000000E+00  0.43107098942E+03  0.43107098942E+03  0.00000000000E+00 0. -1.
         21   -1    0    0  501  502  0.00000000000E+00 -0.00000000000E+00 -0.91600982461E+02  0.91600982461E+02  0.00000000000E+00 0.  1.
         23    2    1    2    0    0  0.92842913345E+02  0.44301795452E+02  0.24461306930E+03  0.28046625678E+03  0.90792686258E+02 0.  0.
         23    2    1    2    0    0 -0.11504036593E+03 -0.56152407448E+02  0.12666821367E+03  0.20164562157E+03  0.90712411987E+02 0.  0.
        -11    1    4    4    0    0 -0.11181205301E+03 -0.11952918978E+02  0.94494978434E+02  0.14688127321E+03  0.00000000000E+00 0.  1.
         11    1    4    4    0    0 -0.32283129135E+01 -0.44199488470E+02  0.32173235236E+02  0.54764348356E+02  0.00000000000E+00 0. -1.
        -13    1    3    3    0    0  0.39839729369E+02  0.83591177431E+01  0.19568348433E+03  0.19987272181E+03  0.00000000000E+00 0. -1.
         13    1    3    3    0    0  0.53003183976E+02  0.35942677709E+02  0.48929584978E+02  0.80593534968E+02  0.00000000000E+00 0.  1.
          2    1    1    2  501    0  0.22197452582E+02  0.11850611996E+02 -0.31811276016E+02  0.40560093535E+02  0.00000000000E+00 0. -1.
<scales pt_clust_5="13000.00000" pt_clust_6="13000.00000" pt_clust_7="13000.00000" pt_clust_8="13000.00000" pt_clust_9="25.16275"></scales>
<clustering>
<clus scale="   25.163">  2  9  1 -1</clus>
<clus scale="   90.712">  5  6 -1 -1</clus>
<clus scale="   90.793">  7  8 -1 -1</clus>
<clus scale="  143.354">  2  5  1 -1</clus>
<clus scale="   25.163">  2  5  1 -1</clus>
</clustering>
</event>
<event>
 9    1  0.3288491E-005  0.1380425E+03  0.7546771E-02  0.1216268E+00
         21   -1    0    0  501  502  0.00000000000E+00  0.00000000000E+00  0.37045904541E+03  0.37045904541E+03  0.00000000000E+00 0. -1.
         -3   -1    0    0    0  501 -0.00000000000E+00 -0.00000000000E+00 -0.16975403118E+03  0.16975403118E+03  0.00000000000E+00 0.  1.
         23    2    1    2    0    0 -0.72662838395E+02  0.58481758598E+02 -0.53970109539E+02  0.14125906991E+03  0.91330980149E+02 0.  0.
         23    2    1    2    0    0  0.59562903435E+02 -0.16179831121E+03  0.20556236883E+03  0.28381070016E+03  0.92553730736E+02 0.  0.
        -13    1    4    4    0    0  0.70823607877E+02 -0.92605305045E+02  0.84752739119E+02  0.14413449533E+03  0.00000000000E+00 0. -1.
         13    1    4    4    0    0 -0.11260704442E+02 -0.69193006161E+02  0.12080962971E+03  0.13967620484E+03  0.00000000000E+00 0.  1.
        -13    1    3    3    0    0 -0.15815401486E+02  0.67955800259E+02 -0.44763452200E+02  0.82896829649E+02  0.00000000000E+00 0.  1.
         13    1    3    3    0    0 -0.56847436909E+02 -0.94740416613E+01 -0.92066573386E+01  0.58362240257E+02  0.00000000000E+00 0. -1.
         -3    1    1    2    0  502  0.13099934961E+02  0.10331655261E+03  0.49112754939E+02  0.11514330652E+03  0.00000000000E+00 0.  1.
<scales pt_clust_5="13000.00000" pt_clust_6="13000.00000" pt_clust_7="13000.00000" pt_clust_8="13000.00000" pt_clust_9="104.14374"></scales>
<clustering>
<clus scale="   91.331">  7  8 -1 -1</clus>
<clus scale="   92.554">  5  6 -1 -1</clus>
<clus scale="  104.144">  1  9  2 -1</clus>
<clus scale="  137.226">  2  7  1 -1</clus>
<clus scale="  104.144">  1  5  2 -1</clus>
</clustering>
</event>
<event>
 9    1  0.3288491E-005  0.9450846E+02  0.7546771E-02  0.1305766E+00
         -1   -1    0    0    0  501 -0.00000000000E+00  0.00000000000E+00  0.35537648194E+03  0.35537648194E+03  0.00000000000E+00 0.  1.
         21   -1    0    0  501  502  0.00000000000E+00 -0.00000000000E+00 -0.83518537615E+02  0.83518537615E+02  0.00000000000E+00 0.  1.
         23    2    1    2    0    0 -0.13661994773E+02 -0.26198374438E+02  0.27703603744E+03  0.29325610922E+03  0.91526906577E+02 0.  0.
         23    2    1    2    0    0  0.12684302372E+02  0.38150897427E+01  0.49461453354E+02  0.86584297008E+02  0.69820904348E+02 0.  0.
        -11    1    4    4    0    0  0.25847280556E+02  0.24630903201E+02  0.54042018231E+01  0.36110506809E+02  0.00000000000E+00 0. -1.
         11    1    4    4    0    0 -0.13162978184E+02 -0.20815813458E+02  0.44057251531E+02  0.50473790199E+02  0.00000000000E+00 0.  1.
        -11    1    3    3    0    0  0.27342903815E+02 -0.34472832700E+02  0.20744648420E+03  0.21206144013E+03  0.00000000000E+00 0.  1.
         11    1    3    3    0    0 -0.41004898589E+02  0.82744582615E+01  0.69589553247E+02  0.81194669091E+02  0.00000000000E+00 0. -1.
         -1    1    1    2    0  502  0.97769240113E+00  0.22383284695E+02 -0.54639546475E+02  0.59054613327E+02  0.00000000000E+00 0.  1.
<scales pt_clust_5="13000.00000" pt_clust_6="13000.00000" pt_clust_7="13000.00000" pt_clust_8="13000.00000" pt_clust_9="22.40463"></scales>
<clustering>
<clus scale="   22.405">  2  9  1 -1</clus>
<clus scale="   69.821">  5  6 -1 -1</clus>
<clus scale="   73.686">  2  5  1 -1</clus>
<clus scale="   91.527">  7  8 -1 -1</clus>
<clus scale="   22.405">  2  5  1 -1</clus>
</clustering>
</event>
<event>
 9    1  0.3288491E-005  0.9230493E+02  0.7546771E-02  0.1297897E+00
         21   -1    0    0  501  502  0.00000000000E+00  0.00000000000E+00  0.36900279555E+03  0.36900279555E+03  0.00000000000E+00 0. -1.
         -4   -1    0    0    0  501 -0.00000000000E+00 -0.00000000000E+00 -0.35484657293E+02  0.35484657293E+02  0.00000000000E+00 0.  1.
         23    2    1    2    0    0  0.16157577736E+02 -0.14423648395E+02  0.10021926755E+03  0.13596899876E+03  0.89300381203E+02 0.  0.
         23    2    1    2    0    0  0.47104861983E+01  0.22889508843E+02  0.11467194147E+03  0.14777287352E+03  0.90227765649E+02 0.  0.
        -13    1    4    4    0    0 -0.15888737173E+02  0.48073683807E+02  0.99989330526E+02  0.11207763944E+03  0.00000000000E+00 0.  1.
         13    1    4    4    0    0  0.20599223371E+02 -0.25184174964E+02  0.14682610943E+02  0.35695234083E+02  0.00000000000E+00 0. -1.
        -13    1    3    3    0    0  0.37656730420E+02  0.13656630698E+02  0.90993374136E+02  0.99419952950E+02  0.00000000000E+00 0. -1.
         13    1    3    3    0    0 -0.21499152685E+02 -0.28080279092E+02  0.92258934167E+01  0.36549045807E+02  0.00000000000E+00 0.  1.
         -4    1    1    2    0  502 -0.20868063934E+02 -0.84658604480E+01  0.11862692924E+03  0.12074558057E+03  0.00000000000E+00 0.  1.
<scales pt_clust_5="13000.00000" pt_clust_6="13000.00000" pt_clust_7="13000.00000" pt_clust_8="13000.00000" pt_clust_9="22.51992"></scales>
<clustering>
<clus scale="   22.520">  1  9  2 -1</clus>
<clus scale="   89.300">  7  8 -1 -1</clus>
<clus scale="   90.228">  5  6 -1 -1</clus>
<clus scale="   91.399">  2  7  1 -1</clus>
<clus scale="   22.520">  1  5  2 -1</clus>
</clustering>
</event>
<event>
 9    1  0.3288491E-005  0.1269376E+03  0.7546771E-02  0.1232420E+00
          4   -1    0    0  502    0 -0.00000000000E+00  0.00000000000E+00  0.10144454144E+03  0.10144454144E+03  0.00000000000E+00 0. -1.
         21   -1    0    0  501  502  0.00000000000E+00 -0.00000000000E+00 -0.20529065142E+03  0.20529065142E+03  0.00000000000E+00 0.  1.
         23    2    1    2    0    0 -0.45053592896E+00 -0.95239012702E+02 -0.23031137779E+02  0.13491889396E+03  0.92746979023E+02 0.  0.
         23    2    1    2    0    0  0.22861436225E+01  0.73702280169E+02 -0.90308343890E+02  0.14820857961E+03  0.91503735118E+02 0.  0.
        -13    1    4    4    0    0  0.24593805600E+02  0.72274342384E+02 -0.26849636198E+02  0.80927985301E+02  0.00000000000E+00 0.  1.
         13    1    4    4    0    0 -0.22307661977E+02  0.14279377846E+01 -0.63458707692E+02  0.67280594313E+02  0.00000000000E+00 0. -1.
        -13    1    3    3    0    0  0.29083845541E+02 -0.62841433642E+02 -0.48199266796E+02  0.84368745239E+02  0.00000000000E+00 0.  1.
         13    1    3    3    0    0 -0.29534381470E+02 -0.32397579060E+02  0.25168129018E+02  0.50550148724E+02  0.00000000000E+00 0. -1.
          4    1    1    2  501    0 -0.18356076936E+01  0.21536732533E+02  0.94933716850E+01  0.23607719283E+02  0.00000000000E+00 0. -1.
<scales pt_clust_5="13000.00000" pt_clust_6="13000.00000" pt_clust_7="13000.00000" pt_clust_8="13000.00000" pt_clust_9="21.61483"></scales>
<clustering>
<clus scale="   21.615">  2  9  1 -1</clus>
<clus scale="   91.504">  5  6 -1 -1</clus>
<clus scale="   92.747">  7  8 -1 -1</clus>
<clus scale="  126.032">  2  5  1 -1</clus>
<clus scale="   21.615">  2  5  1 -1</clus>
</clustering>
</event>
<event>
 9    1  0.3288491E-005  0.1078563E+03  0.7546771E-02  0.1265011E+00
         -3   -1    0    0    0  501 -0.00000000000E+00  0.00000000000E+00  0.19491917610E+03  0.19491917610E+03  0.00000000000E+00 0.  1.
         21   -1    0    0  501  502  0.00000000000E+00 -0.00000000000E+00 -0.12722683506E+03  0.12722683506E+03  0.00000000000E+00 0. -1.
         23    2    1    2    0    0 -0.22136488962E+02  0.57593662087E+02  0.13082286230E+03  0.17007559796E+03  0.89465265124E+02 0.  0.
         23    2    1    2    0    0  0.39689513225E+02 -0.34621613899E+02 -0.31810783242E+02  0.10944706692E+03  0.90514202850E+02 0.  0.
        -11    1    4    4    0    0  0.49635951976E+02 -0.54295394105E+02 -0.42487687859E+02  0.84952464173E+02  0.00000000000E+00 0.  1.
         11    1    4    4    0    0 -0.99464387514E+01  0.19673780206E+02  0.10676904617E+02  0.24494602745E+02  0.00000000000E+00 0. -1.
        -13    1    3    3    0    0 -0.22561180918E+02 -0.94075221182E+01  0.86138607893E+02  0.89539757240E+02  0.00000000000E+00 0.  1.
         13    1    3    3    0    0  0.42469195630E+00  0.67001184205E+02  0.44684254411E+02  0.80535840719E+02  0.00000000000E+00 0. -1.
         -3    1    1    2    0  502 -0.17553024263E+02 -0.22972048188E+02 -0.31319738016E+02  0.42623346280E+02  0.00000000000E+00 0.  1.
<scales pt_clust_5="13000.00000" pt_clust_6="13000.00000" pt_clust_7="13000.00000" pt_clust_8="13000.00000" pt_clust_9="28.91061"></scales>
<clustering>
<clus scale="   28.911">  2  9  1 -1</clus>
<clus scale="   89.465">  7  8 -1 -1</clus>
<clus scale="   90.514">  5  6 -1 -1</clus>
<clus scale="  106.978">  1  7  2 -1</clus>
<clus scale="   28.911">  2  5  1 -1</clus>
</clustering>
</event>
<event>
 9    1  0.3288491E-005  0.1015999E+03  0.7546771E-02  0.1280165E+00
         -2   -1    0    0    0  501 -0.00000000000E+00  0.00000000000E+00  0.29079506070E+02  0.29079506070E+02  0.00000000000E+00 0.  1.
         21   -1    0    0  501  502  0.00000000000E+00 -0.00000000000E+00 -0.64488043672E+03  0.64488043672E+03  0.00000000000E+00 0. -1.
         23    2    1    2    0    0  0.67572021191E+01 -0.15260117984E+02 -0.11328492899E+03  0.15273651414E+03  0.10107639010E+03 0.  0.
         23    2    1    2    0    0  0.27263969289E+02 -0.39598283154E+01 -0.34247247358E+03  0.35647884658E+03  0.95030356381E+02 0.  0.
        -13    1    3    3    0    0 -0.28052444906E+02  0.32091924569E+02 -0.37034618901E+02  0.56465868318E+02  0.00000000000E+00 0.  1.
         13    1    3    3    0    0  0.34809647025E+02 -0.47352042553E+02 -0.76250310084E+02  0.96270645826E+02  0.00000000000E+00 0. -1.
        -13    1    4    4    0    0 -0.84981846299E+01  0.40786134608E+02 -0.14436228408E+03  0.15025377528E+03  0.00000000000E+00 0.  1.
         13    1    4    4    0    0  0.35762153919E+02 -0.44745962924E+02 -0.19811018950E+03  0.20622507130E+03  0.00000000000E+00 0. -1.
         -2    1    1    2    0  502 -0.34021171408E+02  0.19219946299E+02 -0.16004352808E+03  0.16474458207E+03  0.00000000000E+00 0.  1.
<scales pt_clust_5="13000.00000" pt_clust_6="13000.00000" pt_clust_7="13000.00000" pt_clust_8="13000.00000" pt_clust_9="39.07488"></scales>
<clustering>
<clus scale="   39.075">  2  9  1 -1</clus>
<clus scale="   95.030">  7  8 -1 -1</clus>
<clus scale="   95.587">  2  7  1 -1</clus>
<clus scale="  101.076">  5  6 -1 -1</clus>
<clus scale="   39.075">  2  5  1 -1</clus>
</clustering>
</event>
<event>
 9    1  0.3288491E-005  0.1366247E+03  0.7546771E-02  0.1230885E+00
         21   -1    0    0  501  502  0.00000000000E+00  0.00000000000E+00  0.10243381543E+03  0.10243381543E+03  0.00000000000E+00 0.  1.
         -3   -1    0    0    0  501 -0.00000000000E+00 -0.00000000000E+00 -0.35838517217E+03  0.35838517217E+03  0.00000000000E+00 0.  1.
         23    2    1    2    0    0 -0.29519922657E+02 -0.43540047594E+02 -0.61378066842E+01  0.10450525614E+03  0.90091699460E+02 0.  0.
         23    2    1    2    0    0 -0.87303463482E+02  0.13291175086E+01 -0.97614271476E+02  0.15985995427E+03  0.91667866211E+02 0.  0.
        -11    1    4    4    0    0 -0.62649726947E+02  0.43555417136E+02 -0.70819284568E+02  0.10410299571E+03  0.00000000000E+00 0.  1.
         11    1    4    4    0    0 -0.24653736535E+02 -0.42226299627E+02 -0.26794986908E+02  0.55756958568E+02  0.00000000000E+00 0. -1.
        -11    1    3    3    0    0 -0.75789264115E+01 -0.69552428739E+02 -0.80246557961E+01  0.70422834150E+02  0.00000000000E+00 0.  1.
         11    1    3    3    0    0 -0.21940996246E+02  0.26012381145E+02  0.18868491119E+01  0.34082421989E+02  0.00000000000E+00 0. -1.
         -3    1    1    2    0  502  0.11682338614E+03  0.42210930085E+02 -0.15219927859E+03  0.19645377719E+03  0.00000000000E+00 0.  1.
<scales pt_clust_5="13000.00000" pt_clust_6="13000.00000" pt_clust_7="13000.00000" pt_clust_8="13000.00000" pt_clust_9="101.30809"></scales>
<clustering>
<clus scale="   90.092">  7  8 -1 -1</clus>
<clus scale="   91.668">  5  6 -1 -1</clus>
<clus scale="  104.325">  2  7  1 -1</clus>
<clus scale="  101.308">  1  9  2 -1</clus>
<clus scale="  101.308">  1  5  2 -1</clus>
</clustering>
</event>
<event>
 9    1  0.3288491E-005  0.1376858E+03  0.7546771E-02  0.1216518E+00
          1   -1    0    0  502    0 -0.00000000000E+00  0.00000000000E+00  0.20111883025E+03  0.20111883025E+03  0.00000000000E+00 0. -1.
         21   -1    0    0  501  502  0.00000000000E+00 -0.00000000000E+00 -0.24064881833E+03  0.24064881833E+03  0.00000000000E+00 0. -1.
         23    2    1    2    0    0 -0.41850842032E+02 -0.11291929403E+03  0.94406209416E+02  0.17774004357E+03  0.90425277262E+02 0.  0.
         23    2    1    2    0    0 -0.13834428533E+02  0.83536514422E+02 -0.92631776990E+01  0.12435814178E+03  0.90605741052E+02 0.  0.
        -13    1    4    4    0    0 -0.30255368237E+02  0.16457993570E+02  0.29337477100E+02  0.45243125689E+02  0.00000000000E+00 0. -1.
         13    1    4    4    0    0  0.16420939704E+02  0.67078520852E+02 -0.38600654799E+02  0.79115016093E+02  0.00000000000E+00 0.  1.
        -13    1    3    3    0    0  0.27651336981E+02 -0.28498324283E+02  0.36826137822E+02  0.54156397135E+02  0.00000000000E+00 0.  1.
         13    1    3    3    0    0 -0.69502179013E+02 -0.84420969747E+02  0.57580071594E+02  0.12358364643E+03  0.00000000000E+00 0. -1.
          1    1    1    2  501    0  0.55685270565E+02  0.29382779609E+02 -0.12467301979E+03  0.13966946323E+03  0.00000000000E+00 0. -1.
<scales pt_clust_5="13000.00000" pt_clust_6="13000.00000" pt_clust_7="13000.00000" pt_clust_8="13000.00000" pt_clust_9="62.96187"></scales>
<clustering>
<clus scale="   62.962">  2  9  1 -1</clus>
<clus scale="   90.425">  7  8 -1 -1</clus>
<clus scale="   90.606">  5  6 -1 -1</clus>
<clus scale="  137.567">  1  7  2 -1</clus>
<clus scale="   62.962">  2  5  1 -1</clus>
</clustering>
</event>
<event>
 9    1  0.3288491E-005  0.1942514E+03  0.7546771E-02  0.1154694E+00
          2   -1    0    0  502    0 -0.00000000000E+00  0.00000000000E+00  0.68865148362E+03  0.68865148362E+03  0.00000000000E+00 0. -1.
         21   -1    0    0  501  502  0.00000000000E+00 -0.00000000000E+00 -0.19308256155E+03  0.19308256155E+03  0.00000000000E+00 0.  1.
         23    2    1    2    0    0  0.17208220923E+03 -0.32332204348E+02  0.61348841459E+03  0.64446704789E+03  0.91170624751E+02 0.  0.
         23    2    1    2    0    0 -0.13947845858E+03  0.11812789922E+02 -0.90051459415E+02  0.18972040757E+03  0.91053749456E+02 0.  0.
        -11    1    3    3    0    0  0.83078201795E+02 -0.59236426235E+02  0.27068111981E+03  0.28927359096E+03  0.00000000000E+00 0.  1.
         11    1    3    3    0    0  0.89004007436E+02  0.26904221887E+02  0.34280729478E+03  0.35519345693E+03  0.00000000000E+00 0. -1.
        -13    1    4    4    0    0 -0.30526052741E+02  0.33982115390E+02  0.14838540046E+01  0.45703674743E+02  0.00000000000E+00 0. -1.
         13    1    4    4    0    0 -0.10895240584E+03 -0.22169325467E+02 -0.91535313420E+02  0.14401673282E+03  0.00000000000E+00 0.  1.
          2    1    1    2  501    0 -0.32603750646E+02  0.20519414425E+02 -0.27868033092E+02  0.47546589709E+02  0.00000000000E+00 0. -1.
<scales pt_clust_5="13000.00000" pt_clust_6="13000.00000" pt_clust_7="13000.00000" pt_clust_8="13000.00000" pt_clust_9="38.52338"></scales>
<clustering>
<clus scale="   38.523">  2  9  1 -1</clus>
<clus scale="   91.054">  7  8 -1 -1</clus>
<clus scale="   91.171">  5  6 -1 -1</clus>
<clus scale="  194.197">  2  7  1 -1</clus>
<clus scale="   38.523">  2  5  1 -1</clus>
</clustering>
</event>
<event>
 9    1  0.3288491E-005  0.1015071E+03  0.7546771E-02  0.1278721E+00
          1   -1    0    0  502    0 -0.00000000000E+00  0.00000000000E+00  0.62622588651E+03  0.62622588651E+03  0.00000000000E+00 0. -1.
         21   -1    0    0  501  502  0.00000000000E+00 -0.00000000000E+00 -0.36321619410E+02  0.36321619410E+02  0.00000000000E+00 0. -1.
         23    2    1    2    0    0 -0.15812830503E+02  0.37942357694E+02  0.46447309950E+03  0.47572716567E+03  0.94294262209E+02 0.  0.
         23    2    1    2    0    0  0.31669034122E+02 -0.14049986239E+02  0.12454214054E+03  0.15813140552E+03  0.91073963368E+02 0.  0.
        -11    1    4    4    0    0  0.42375548821E+02  0.26190651693E+02  0.94360686551E+02  0.10670321710E+03  0.00000000000E+00 0.  1.
         11    1    4    4    0    0 -0.10706514699E+02 -0.40240637932E+02  0.30181453993E+02  0.51428188412E+02  0.00000000000E+00 0. -1.
        -13    1    3    3    0    0 -0.23098366288E+02 -0.27375677958E+02  0.12920754444E+03  0.13408039309E+03  0.00000000000E+00 0.  1.
         13    1    3    3    0    0  0.72855357845E+01  0.65318035652E+02  0.33526555505E+03  0.34164677259E+03  0.00000000000E+00 0. -1.
          1    1    1    2  501    0 -0.15856203619E+02 -0.23892371454E+02  0.88902705814E+00  0.28688934731E+02  0.00000000000E+00 0. -1.
<scales pt_clust_5="13000.00000" pt_clust_6="13000.00000" pt_clust_7="13000.00000" pt_clust_8="13000.00000" pt_clust_9="28.67516"></scales>
<clustering>
<clus scale="   28.675">  2  9  1 -1</clus>
<clus scale="   91.074">  5  6 -1 -1</clus>
<clus scale="   94.294">  7  8 -1 -1</clus>
<clus scale="   98.523">  2  5  1 -1</clus>
<clus scale="   28.675">  2  5  1 -1</clus>
</clustering>
</event>
<event>
 9    1  0.3288491E-005  0.2168343E+03  0.7546771E-02  0.1137091E+00
         21   -1    0    0  501  502  0.00000000000E+00  0.00000000000E+00  0.14348960289E+03  0.14348960289E+03  0.00000000000E+00 0. -1.
          1   -1    0    0  502    0 -0.00000000000E+00 -0.00000000000E+00 -0.10457922294E+04  0.10457922294E+04  0.00000000000E+00 0. -1.
         23    2    1    2    0    0  0.54614939061E+02 -0.18101023020E+03 -0.79052515603E+03  0.81872361866E+03  0.98136875938E+02 0.  0.
         23    2    1    2    0    0 -0.14310243478E+03  0.17873412957E+03 -0.13360196672E+03  0.27939064167E+03  0.88235192682E+02 0.  0.
        -11    1    4    4    0    0 -0.29292400487E+02  0.18595206774E+02 -0.60550863326E+02  0.69787058190E+02  0.00000000000E+00 0.  1.
         11    1    4    4    0    0 -0.11381003429E+03  0.16013892280E+03 -0.73051103390E+02  0.20960358348E+03  0.00000000000E+00 0. -1.
        -13    1    3    3    0    0  0.11497495683E+02 -0.15557528891E+03 -0.49535498083E+03  0.51933844452E+03  0.00000000000E+00 0. -1.
         13    1    3    3    0    0  0.43117443378E+02 -0.25434941295E+02 -0.29517017520E+03  0.29938517414E+03  0.00000000000E+00 0.  1.
          1    1    1    2  501    0  0.88487495718E+02  0.22761006345E+01  0.21824496274E+02  0.91167571922E+02  0.00000000000E+00 0. -1.
<scales pt_clust_5="13000.00000" pt_clust_6="13000.00000" pt_clust_7="13000.00000" pt_clust_8="13000.00000" pt_clust_9="88.51676"></scales>
<clustering>
<clus scale="   88.235">  5  6 -1 -1</clus>
<clus scale="   88.517">  1  9  2 -1</clus>
<clus scale="   98.137">  7  8 -1 -1</clus>
<clus scale="  212.536">  1  5  2 -1</clus>
<clus scale="   88.517">  1  5  2 -1</clus>
</clustering>
</event>
<event>
 9    1  0.3288491E-005  0.1056057E+03  0.7546771E-02  0.1269722E+00
         -1   -1    0    0    0  501 -0.00000000000E+00  0.00000000000E+00  0.33369727174E+03  0.33369727174E+03  0.00000000000E+00 0.  1.
         21   -1    0    0  501  502  0.00000000000E+00 -0.00000000000E+00 -0.57942975161E+02  0.57942975161E+02  0.00000000000E+00 0. -1.
         23    2    1    2    0    0  0.46326091118E+02 -0.38066542457E+02  0.16846322157E+03  0.19956766559E+03  0.88612796793E+02 0.  0.
         23    2    1    2    0    0 -0.16598573769E+02  0.49553189942E+02  0.11877187765E+03  0.15819814866E+03  0.90492342401E+02 0.  0.
        -11    1    4    4    0    0  0.27183046951E+02  0.57664810271E+01  0.81076839945E+02  0.85706617716E+02  0.00000000000E+00 0.  1.
         11    1    4    4    0    0 -0.43781620720E+02  0.43786708915E+02  0.37695037709E+02  0.72491530942E+02  0.00000000000E+00 0. -1.
        -11    1    3    3    0    0  0.69941123337E+02 -0.10903966008E+02  0.11753073360E+03  0.13720105885E+03  0.00000000000E+00 0.  1.
         11    1    3    3    0    0 -0.23615032219E+02 -0.27162576450E+02  0.50932487971E+02  0.62366606746E+02  0.00000000000E+00 0. -1.
         -1    1    1    2    0  502 -0.29727517349E+02 -0.11486647484E+02 -0.11480802643E+02  0.33874432651E+02  0.00000000000E+00 0.  1.
<scales pt_clust_5="13000.00000" pt_clust_6="13000.00000" pt_clust_7="13000.00000" pt_clust_8="13000.00000" pt_clust_9="31.86955"></scales>
<clustering>
<clus scale="   31.870">  2  9  1 -1</clus>
<clus scale="   88.613">  7  8 -1 -1</clus>
<clus scale="   90.492">  5  6 -1 -1</clus>
<clus scale="  104.000">  1  7  2 -1</clus>
<clus scale="   31.870">  2  5  1 -1</clus>
</clustering>
</event>
<event>
 9    1  0.3288491E-005  0.1385503E+03  0.7546771E-02  0.1216457E+00
          1   -1    0    0  502    0 -0.00000000000E+00  0.00000000000E+00  0.43067810005E+03  0.43067810005E+03  0.00000000000E+00 0. -1.
         21   -1    0    0  501  502  0.00000000000E+00 -0.00000000000E+00 -0.12306108867E+03  0.12306108867E+03  0.00000000000E+00 0.  1.
         23    2    1    2    0    0 -0.53334825242E+02  0.81591137944E+02  0.34792772521E+03  0.37314805313E+03  0.93188251478E+02 0.  0.
         23    2    1    2    0    0  0.31860315340E+02 -0.99926696561E+02 -0.47939431857E+02  0.15134144115E+03  0.98008256308E+02 0.  0.
        -11    1    3    3    0    0 -0.36319976498E+02 -0.19084127326E+01  0.41928227534E+02  0.55504585361E+02  0.00000000000E+00 0.  1.
         11    1    3    3    0    0 -0.17014848744E+02  0.83499550677E+02  0.30599949767E+03  0.31764346777E+03  0.00000000000E+00 0. -1.
        -13    1    4    4    0    0  0.67128608514E+02 -0.61385073854E+02 -0.25395648070E+02  0.94442132091E+02  0.00000000000E+00 0.  1.
         13    1    4    4    0    0 -0.35268293174E+02 -0.38541622707E+02 -0.22543783787E+02  0.56899309062E+02  0.00000000000E+00 0. -1.
          1    1    1    2  501    0  0.21474509902E+02  0.18335558617E+02  0.76287180298E+01  0.29249694427E+02  0.00000000000E+00 0. -1.
<scales pt_clust_5="13000.00000" pt_clust_6="13000.00000" pt_clust_7="13000.00000" pt_clust_8="13000.00000" pt_clust_9="28.23734"></scales>
<clustering>
<clus scale="   28.237">  2  9  1 -1</clus>
<clus scale="   93.188">  5  6 -1 -1</clus>
<clus scale="   98.008">  7  8 -1 -1</clus>
<clus scale="  135.184">  1  5  2 -1</clus>
<clus scale="   28.237">  2  5  1 -1</clus>
</clustering>
</event>
<event>
 9    1  0.3288491E-005  0.1436320E+03  0.7546771E-02  0.1210835E+00
         21   -1    0    0  501  502  0.00000000000E+00  0.00000000000E+00  0.17728719382E+03  0.17728719382E+03  0.00000000000E+00 0.  1.
          1   -1    0    0  502    0 -0.00000000000E+00 -0.00000000000E+00 -0.59188973672E+03  0.59188973672E+03  0.00000000000E+00 0. -1.
         23    2    1    2    0    0  0.42027901216E+02  0.93470715666E+02 -0.47825769099E+03  0.49720289814E+03  0.89315081369E+02 0.  0.
         23    2    1    2    0    0 -0.12563463224E+03 -0.68632557407E+02  0.60882610472E+02  0.18471174648E+03  0.99585381839E+02 0.  0.
        -11    1    3    3    0    0 -0.25933412896E+02  0.45806147414E+02 -0.20175920312E+03  0.20851264012E+03  0.00000000000E+00 0.  1.
         11    1    3    3    0    0  0.67961314112E+02  0.47664568252E+02 -0.27649848787E+03  0.28869025803E+03  0.00000000000E+00 0. -1.
        -13    1    4    4    0    0 -0.37012373847E+02  0.20133119523E+02 -0.60051970479E+01  0.42559613615E+02  0.00000000000E+00 0. -1.
         13    1    4    4    0    0 -0.88622258390E+02 -0.88765676930E+02  0.66887807520E+02  0.14215213286E+03  0.00000000000E+00 0.  1.
          1    1    1    2  501    0  0.83606731020E+02 -0.24838158259E+02  0.27725376258E+01  0.87262285911E+02  0.00000000000E+00 0. -1.
<scales pt_clust_5="13000.00000" pt_clust_6="13000.00000" pt_clust_7="13000.00000" pt_clust_8="13000.00000" pt_clust_9="87.21823"></scales>
<clustering>
<clus scale="   87.218">  1  9  2 -1</clus>
<clus scale="   89.315">  5  6 -1 -1</clus>
<clus scale="   99.585">  7  8 -1 -1</clus>
<clus scale="  136.712">  2  5  1 -1</clus>
<clus scale="   87.218">  1  5  2 -1</clus>
</clustering>
</event>
<event>
 9    1  0.3288491E-005  0.1008097E+03  0.7546771E-02  0.1284097E+00
          1   -1    0    0  502    0 -0.00000000000E+00  0.00000000000E+00  0.42628222648E+02  0.42628222648E+02  0.00000000000E+00 0. -1.
         21   -1    0    0  501  502  0.00000000000E+00 -0.00000000000E+00 -0.50180684024E+03  0.50180684024E+03  0.00000000000E+00 0.  1.
         23    2    1    2    0    0 -0.38579985871E+02 -0.35544628942E+02 -0.35041608315E+02  0.99531745225E+02  0.76985830111E+02 0.  0.
         23    2    1    2    0    0  0.11468609557E+02  0.22126217562E+02 -0.38269387070E+03  0.39359431041E+03  0.88548201621E+02 0.  0.
        -11    1    4    4    0    0  0.42061908196E+02 -0.10942555363E+02 -0.13458439388E+03  0.14142808319E+03  0.00000000000E+00 0.  1.
         11    1    4    4    0    0 -0.30593298638E+02  0.33068772925E+02 -0.24810947682E+03  0.25216622722E+03  0.00000000000E+00 0. -1.
        -13    1    3    3    0    0  0.33241497710E+01 -0.32406619245E+02 -0.45753911480E+02  0.56166354326E+02  0.00000000000E+00 0.  1.
         13    1    3    3    0    0 -0.41904135642E+02 -0.31380096969E+01  0.10712303165E+02  0.43365390899E+02  0.00000000000E+00 0. -1.
          1    1    1    2  501    0  0.27111376314E+02  0.13418411380E+02 -0.41443138574E+02  0.51309007245E+02  0.00000000000E+00 0. -1.
<scales pt_clust_5="13000.00000" pt_clust_6="13000.00000" pt_clust_7="13000.00000" pt_clust_8="13000.00000" pt_clust_9="30.25031"></scales>
<clustering>
<clus scale="   30.250">  2  9  1 -1</clus>
<clus scale="   76.986">  7  8 -1 -1</clus>
<clus scale="   88.548">  5  6 -1 -1</clus>
<clus scale="   90.822">  1  7  2 -1</clus>
<clus scale="   30.250">  2  5  1 -1</clus>
</clustering>
</event>
<event>
 9    1  0.3288491E-005  0.9678451E+02  0.7546771E-02  0.1287997E+00
          1   -1    0    0  502    0 -0.00000000000E+00  0.00000000000E+00  0.27285213292E+03  0.27285213292E+03  0.00000000000E+00 0. -1.
         21   -1    0    0  501  502  0.00000000000E+00 -0.00000000000E+00 -0.94317988150E+02  0.94317988150E+02  0.00000000000E+00 0.  1.
         23    2    1    2    0    0  0.27141261814E+02 -0.90561829724E+01  0.17120740011E+03  0.19618997079E+03  0.91432315095E+02 0.  0.
         23    2    1    2    0    0 -0.43702581376E+02 -0.25387049847E+02  0.49204683728E+02  0.11428468861E+03  0.89919248392E+02 0.  0.
        -11    1    3    3    0    0  0.36719694114E+02  0.34983721346E+02  0.92563895201E+02  0.10554748405E+03  0.00000000000E+00 0. -1.
         11    1    3    3    0    0 -0.95784323009E+01 -0.44039904318E+02  0.78643504910E+02  0.90642486739E+02  0.00000000000E+00 0.  1.
        -13    1    4    4    0    0 -0.68528502729E+01  0.32726829837E+02  0.23317603327E+02  0.40764170210E+02  0.00000000000E+00 0. -1.
         13    1    4    4    0    0 -0.36849731103E+02 -0.58113879684E+02  0.25887080401E+02  0.73520518401E+02  0.00000000000E+00 0.  1.
          1    1    1    2  501    0  0.16561319563E+02  0.34443232819E+02 -0.41877939070E+02  0.56695461665E+02  0.00000000000E+00 0. -1.
<scales pt_clust_5="13000.00000" pt_clust_6="13000.00000" pt_clust_7="13000.00000" pt_clust_8="13000.00000" pt_clust_9="38.21797"></scales>
<clustering>
<clus scale="   38.218">  2  9  1 -1</clus>
<clus scale="   89.919">  7  8 -1 -1</clus>
<clus scale="   91.432">  5  6 -1 -1</clus>
<clus scale="   95.356">  2  7  1 -1</clus>
<clus scale="   38.218">  2  5  1 -1</clus>
</clustering>
</event>
<event>
 9    1  0.3288491E-005  0.9714992E+02  0.7546771E-02  0.1286563E+00
         21   -1    0    0  501  502  0.00000000000E+00  0.00000000000E+00  0.83759275420E+02  0.83759275420E+02  0.00000000000E+00 0.  1.
          2   -1    0    0  502    0 -0.00000000000E+00 -0.00000000000E+00 -0.26852778828E+03  0.26852778828E+03  0.00000000000E+00 0. -1.
         23    2    1    2    0    0 -0.25162638672E+02 -0.49597024205E+02 -0.84976879411E+02  0.13786864871E+03  0.93239857719E+02 0.  0.
         23    2    1    2    0    0  0.17893856927E+02 -0.34923851313E+02 -0.33727888029E+02  0.10689617522E+03  0.93537994096E+02 0.  0.
        -11    1    4    4    0    0 -0.15439357017E+02 -0.50387015349E+02  0.56922558495E+01  0.53005913232E+02  0.00000000000E+00 0.  1.
         11    1    4    4    0    0  0.33333213944E+02  0.15463164036E+02 -0.39420143878E+02  0.53890261988E+02  0.00000000000E+00 0. -1.
        -13    1    3    3    0    0  0.26709795658E+02 -0.46418240613E+02 -0.59294570230E+02  0.79899388636E+02  0.00000000000E+00 0.  1.
         13    1    3    3    0    0 -0.51872434331E+02 -0.31787835922E+01 -0.25682309181E+02  0.57969260073E+02  0.00000000000E+00 0. -1.
          2    1    1    2  501    0  0.72687817457E+01  0.84520875518E+02 -0.66063745421E+02  0.10752223977E+03  0.00000000000E+00 0. -1.
<scales pt_clust_5="13000.00000" pt_clust_6="13000.00000" pt_clust_7="13000.00000" pt_clust_8="13000.00000" pt_clust_9="84.83290"></scales>
<clustering>
<clus scale="   84.833">  1  9  2 -1</clus>
<clus scale="   93.240">  7  8 -1 -1</clus>
<clus scale="   93.538">  5  6 -1 -1</clus>
<clus scale="   96.863">  2  7  1 -1</clus>
<clus scale="   84.833">  1  5  2 -1</clus>
</clustering>
</event>
<event>
 9    1  0.3288491E-005  0.1816717E+03  0.7546771E-02  0.1166207E+00
          2   -1    0    0  502    0 -0.00000000000E+00  0.00000000000E+00  0.16752756823E+04  0.16752756823E+04  0.00000000000E+00 0. -1.
         21   -1    0    0  501  502  0.00000000000E+00 -0.00000000000E+00 -0.24721141499E+02  0.24721141499E+02  0.00000000000E+00 0.  1.
         23    2    1    2    0    0  0.14042297103E+03 -0.40966529578E+02  0.72918307593E+03  0.74920714406E+03  0.90589840179E+02 0.  0.
         23    2    1    2    0    0 -0.15758531449E+03  0.61515963703E+02  0.88529330706E+03  0.90586241912E+03  0.90692544994E+02 0.  0.
        -11    1    4    4    0    0 -0.30780297929E+02  0.57006028437E+02  0.32251620094E+03  0.32895868113E+03  0.00000000000E+00 0.  1.
         11    1    4    4    0    0 -0.12680501656E+03  0.45099352664E+01  0.56277710612E+03  0.57690373799E+03  0.00000000000E+00 0. -1.
        -11    1    3    3    0    0  0.47057120484E+02 -0.59779477745E+02  0.35853789091E+03  0.36652063757E+03  0.00000000000E+00 0. -1.
         11    1    3    3    0    0  0.93365850547E+02  0.18812948167E+02  0.37064518503E+03  0.38268650649E+03  0.00000000000E+00 0.  1.
          2    1    1    2  501    0  0.17162343457E+02 -0.20549434125E+02  0.36078157800E+02  0.44927260611E+02  0.00000000000E+00 0. -1.
<scales pt_clust_5="13000.00000" pt_clust_6="13000.00000" pt_clust_7="13000.00000" pt_clust_8="13000.00000" pt_clust_9="26.77359"></scales>
<clustering>
<clus scale="   26.774">  2  9  1 -1</clus>
<clus scale="   90.590">  7  8 -1 -1</clus>
<clus scale="   90.693">  5  6 -1 -1</clus>
<clus scale="  181.620">  1  7  2 -1</clus>
<clus scale="   26.774">  2  5  1 -1</clus>
</clustering>
</event>
<event>
 9    1  0.3288491E-005  0.1369503E+03  0.7546771E-02  0.1219007E+00
          1   -1    0    0  502    0 -0.00000000000E+00  0.00000000000E+00  0.18459442890E+03  0.18459442890E+03  0.00000000000E+00 0. -1.
         21   -1    0    0  501  502  0.00000000000E+00 -0.00000000000E+00 -0.24313671042E+03  0.24313671042E+03  0.00000000000E+00 0.  1.
         23    2    1    2    0    0 -0.89774306695E+02 -0.81326509060E+01  0.10775367679E+03  0.17149531884E+03  0.98357629934E+02 0.  0.
         23    2    1    2    0    0  0.11854492548E+03 -0.96362004158E+01 -0.96863843804E+02  0.17900694565E+03  0.92277443826E+02 0.  0.
        -11    1    4    4    0    0  0.73064602294E+02 -0.11788721392E+02 -0.10912402748E+03  0.13185394736E+03  0.00000000000E+00 0.  1.
         11    1    4    4    0    0  0.45480323187E+02  0.21525209760E+01  0.12260183681E+02  0.47152998289E+02  0.00000000000E+00 0. -1.
        -11    1    3    3    0    0 -0.78404488913E+02  0.36991276445E+02  0.65721279393E+02  0.10878834947E+03  0.00000000000E+00 0. -1.
         11    1    3    3    0    0 -0.11369817783E+02 -0.45123927351E+02  0.42032397401E+02  0.62706969368E+02  0.00000000000E+00 0.  1.
          1    1    1    2  501    0 -0.28770618787E+02  0.17768851322E+02 -0.69432114515E+02  0.77228874837E+02  0.00000000000E+00 0. -1.
<scales pt_clust_5="13000.00000" pt_clust_6="13000.00000" pt_clust_7="13000.00000" pt_clust_8="13000.00000" pt_clust_9="33.81539"></scales>
<clustering>
<clus scale="   33.815">  2  9  1 -1</clus>
<clus scale="   92.277">  5  6 -1 -1</clus>
<clus scale="   98.358">  7  8 -1 -1</clus>
<clus scale="  132.651">  2  5  1 -1</clus>
<clus scale="   33.815">  2  5  1 -1</clus>
</clustering>
</event>
<event>
 9    1  0.3288491E-005  0.2019217E+03  0.7546771E-02  0.1169538E+00
         21   -1    0    0  501  502  0.00000000000E+00  0.00000000000E+00  0.27052005362E+03  0.27052005362E+03  0.00000000000E+00 0. -1.
          2   -1    0    0  502    0 -0.00000000000E+00 -0.00000000000E+00 -0.66888872036E+03  0.66888872036E+03  0.00000000000E+00 0. -1.
         23    2    1    2    0    0 -0.75003372833E+02  0.17739714182E+02 -0.30393665211E+03  0.32770876467E+03  0.95264592331E+02 0.  0.
         23    2    1    2    0    0  0.24293323337E+03 -0.61280173218E+02 -0.26012486250E+03  0.37180351190E+03  0.88323789907E+02 0.  0.
        -11    1    3    3    0    0 -0.76136323754E+02 -0.17865789269E+02 -0.25791369294E+03  0.26950955313E+03  0.00000000000E+00 0. -1.
         11    1    3    3    0    0  0.11329509206E+01  0.35605503451E+02 -0.46022959172E+02  0.58199211547E+02  0.00000000000E+00 0.  1.
        -11    1    4    4    0    0  0.41449935233E+02 -0.41498346850E+02 -0.89672784742E+02  0.10715138005E+03  0.00000000000E+00 0.  1.
         11    1    4    4    0    0  0.20148329813E+03 -0.19781826368E+02 -0.17045207776E+03  0.26465213185E+03  0.00000000000E+00 0. -1.
          2    1    1    2  501    0 -0.16792986053E+03  0.43540459036E+02  0.16569284788E+03  0.23989649741E+03  0.00000000000E+00 0. -1.
<scales pt_clust_5="13000.00000" pt_clust_6="13000.00000" pt_clust_7="13000.00000" pt_clust_8="13000.00000" pt_clust_9="181.57997"></scales>
<clustering>
<clus scale="   88.324">  7  8 -1 -1</clus>
<clus scale="   95.265">  5  6 -1 -1</clus>
<clus scale="  122.538">  2  5  1 -1</clus>
<clus scale="  181.580">  1  9  2 -1</clus>
<clus scale="  181.580">  1  5  2 -1</clus>
</clustering>
</event>
<event>
 9    1  0.3288491E-005  0.1060144E+03  0.7546771E-02  0.1270341E+00
          1   -1    0    0  502    0 -0.00000000000E+00  0.00000000000E+00  0.40503431945E+03  0.40503431945E+03  0.00000000000E+00 0. -1.
         21   -1    0    0  501  502  0.00000000000E+00 -0.00000000000E+00 -0.10156159144E+03  0.10156159144E+03  0.00000000000E+00 0. -1.
         23    2    1    2    0    0  0.25547438180E+02  0.47913887165E+02  0.17169017096E+03  0.19954785938E+03  0.85985005669E+02 0.  0.
         23    2    1    2    0    0 -0.68597363703E+02 -0.72853582524E+01  0.19145382302E+03  0.22299667774E+03  0.91182658353E+02 0.  0.
        -11    1    3    3    0    0  0.18653758632E+02  0.72751419264E+02  0.11613803847E+03  0.13830681724E+03  0.00000000000E+00 0. -1.
         11    1    3    3    0    0  0.68936795479E+01 -0.24837532099E+02  0.55552132489E+02  0.61241042141E+02  0.00000000000E+00 0.  1.
        -13    1    4    4    0    0 -0.41743145519E+02  0.35129523615E+02  0.14370794364E+03  0.15371579845E+03  0.00000000000E+00 0. -1.
         13    1    4    4    0    0 -0.26854218185E+02 -0.42414881867E+02  0.47745879373E+02  0.69280879290E+02  0.00000000000E+00 0.  1.
          1    1    1    2  501    0  0.43049925523E+02 -0.40628528912E+02 -0.59671265972E+02  0.84051373765E+02  0.00000000000E+00 0. -1.
<scales pt_clust_5="13000.00000" pt_clust_6="13000.00000" pt_clust_7="13000.00000" pt_clust_8="13000.00000" pt_clust_9="59.19437"></scales>
<clustering>
<clus scale="   59.194">  2  9  1 -1</clus>
<clus scale="   85.985">  5  6 -1 -1</clus>
<clus scale="   91.183">  7  8 -1 -1</clus>
<clus scale="  101.578">  1  5  2 -1</clus>
<clus scale="   59.194">  2  5  1 -1</clus>
</clustering>
</event>
<event>
 9    1  0.3288491E-005  0.1240036E+03  0.7546771E-02  0.1244162E+00
         -1   -1    0    0    0  501 -0.00000000000E+00  0.00000000000E+00  0.13956961693E+03  0.13956961693E+03  0.00000000000E+00 0.  1.
         21   -1    0    0  501  502  0.00000000000E+00 -0.00000000000E+00 -0.12974297402E+03  0.12974297402E+03  0.00000000000E+00 0. -1.
         23    2    1    2    0    0  0.53439335079E+02 -0.13055159575E+02  0.47037579246E+02  0.11836804815E+03  0.93660350393E+02 0.  0.
         23    2    1    2    0    0 -0.33788984525E+02  0.27798933711E+02 -0.34699550144E+02  0.12624996418E+03  0.11322772843E+03 0.  0.
        -11    1    4    4    0    0 -0.75152534490E+02  0.23542701039E+02 -0.30511017727E+02  0.84457589447E+02  0.00000000000E+00 0.  1.
         11    1    4    4    0    0  0.41363549965E+02  0.42562326725E+01 -0.41885324160E+01  0.41792374736E+02  0.00000000000E+00 0. -1.
        -13    1    3    3    0    0  0.74109140327E+02  0.13195707138E+01  0.54622504712E+02  0.92073470489E+02  0.00000000000E+00 0. -1.
         13    1    3    3    0    0 -0.20669805249E+02 -0.14374730289E+02 -0.75849254661E+01  0.26294577658E+02  0.00000000000E+00 0.  1.
         -1    1    1    2    0  502 -0.19650350553E+02 -0.14743774136E+02 -0.25113861890E+01  0.24694578621E+02  0.00000000000E+00 0.  1.
<scales pt_clust_5="13000.00000" pt_clust_6="13000.00000" pt_clust_7="13000.00000" pt_clust_8="13000.00000" pt_clust_9="24.56655"></scales>
<clustering>
<clus scale="   24.567">  2  9  1 -1</clus>
<clus scale="   93.660">  7  8 -1 -1</clus>
<clus scale="  106.436">  1  7  2 -1</clus>
<clus scale="  113.228">  5  6 -1 -1</clus>
<clus scale="   24.567">  2  5  1 -1</clus>
</clustering>
</event>
<event>
 9    1  0.3288491E-005  0.1485257E+03  0.7546771E-02  0.1222206E+00
         -3   -1    0    0    0  501 -0.00000000000E+00  0.00000000000E+00  0.53593199868E+02  0.53593199868E+02  0.00000000000E+00 0.  1.
         21   -1    0    0  501  502  0.00000000000E+00 -0.00000000000E+00 -0.93241173717E+03  0.93241173717E+03  0.00000000000E+00 0.  1.
         23    2    1    2    0    0  0.29639361404E+02 -0.23059832212E+02 -0.59767830475E+02  0.11414122141E+03  0.89698256727E+02 0.  0.
         23    2    1    2    0    0 -0.11989922769E+03 -0.45579525349E+02 -0.28645912542E+03  0.32733456356E+03  0.92928833149E+02 0.  0.
        -11    1    3    3    0    0  0.24271412976E+02 -0.46954701092E+02 -0.37332518720E+01  0.52988513964E+02  0.00000000000E+00 0.  1.
         11    1    3    3    0    0  0.53679484284E+01  0.23894868881E+02 -0.56034578603E+02  0.61152707450E+02  0.00000000000E+00 0. -1.
        -13    1    4    4    0    0 -0.54018241216E+02 -0.69478809893E+02 -0.14930164678E+03  0.17330971450E+03  0.00000000000E+00 0.  1.
         13    1    4    4    0    0 -0.65880986474E+02  0.23899284543E+02 -0.13715747864E+03  0.15402484906E+03  0.00000000000E+00 0. -1.
         -3    1    1    2    0  502  0.90259866285E+02  0.68639357561E+02 -0.53259158141E+03  0.54452915207E+03  0.00000000000E+00 0.  1.
<scales pt_clust_5="13000.00000" pt_clust_6="13000.00000" pt_clust_7="13000.00000" pt_clust_8="13000.00000" pt_clust_9="115.86247"></scales>
<clustering>
<clus scale="   89.698">  5  6 -1 -1</clus>
<clus scale="   92.929">  7  8 -1 -1</clus>
<clus scale="   97.242">  1  5  2 -1</clus>
<clus scale="  115.862">  2  9  1 -1</clus>
<clus scale="  115.862">  2  5  1 -1</clus>
</clustering>
</event>
<event>
 9    1  0.3288491E-005  0.1022719E+03  0.7546771E-02  0.1275607E+00
         21   -1    0    0  501  502  0.00000000000E+00  0.00000000000E+00  0.33476678857E+02  0.33476678857E+02  0.00000000000E+00 0.  1.
          3   -1    0    0  502    0 -0.00000000000E+00 -0.00000000000E+00 -0.63880789112E+03  0.63880789112E+03  0.00000000000E+00 0. -1.
         23    2    1    2    0    0  0.22577457838E+02 -0.34525595067E+02 -0.40886479742E+03  0.42073727846E+03  0.90264481346E+02 0.  0.
         23    2    1    2    0    0 -0.58463897809E+02  0.40556953762E+02 -0.17483121068E+03  0.20921177546E+03  0.90225943705E+02 0.  0.
        -11    1    3    3    0    0  0.38032136037E+02 -0.53586602043E+02 -0.36117919057E+03  0.36710812438E+03  0.00000000000E+00 0.  1.
         11    1    3    3    0    0 -0.15454678199E+02  0.19061006976E+02 -0.47685606858E+02  0.53629154073E+02  0.00000000000E+00 0. -1.
        -13    1    4    4    0    0 -0.23235148264E+02  0.42653609380E+01  0.34689039129E+01  0.23876740002E+02  0.00000000000E+00 0.  1.
         13    1    4    4    0    0 -0.35228749545E+02  0.36291592824E+02 -0.17830011459E+03  0.18533503546E+03  0.00000000000E+00 0. -1.
          3    1    1    2  501    0  0.35886439970E+02 -0.60313586958E+01 -0.21635204164E+02  0.42335516067E+02  0.00000000000E+00 0. -1.
<scales pt_clust_5="13000.00000" pt_clust_6="13000.00000" pt_clust_7="13000.00000" pt_clust_8="13000.00000" pt_clust_9="36.38975"></scales>
<clustering>
<clus scale="   36.390">  1  9  2 -1</clus>
<clus scale="   90.226">  7  8 -1 -1</clus>
<clus scale="   90.264">  5  6 -1 -1</clus>
<clus scale="  102.238">  1  7  2 -1</clus>
<clus scale="   36.390">  1  5  2 -1</clus>
</clustering>
</event>
<event>
 9    1  0.3288491E-005  0.1560491E+03  0.7546771E-02  0.1195022E+00
         -3   -1    0    0    0  501 -0.00000000000E+00  0.00000000000E+00  0.26949554352E+03  0.26949554352E+03  0.00000000000E+00 0.  1.
         21   -1    0    0  501  502  0.00000000000E+00 -0.00000000000E+00 -0.28487132598E+03  0.28487132598E+03  0.00000000000E+00 0.  1.
         23    2    1    2    0    0  0.65463085468E+02 -0.13695431736E+03  0.17957898673E+03  0.25530357441E+03  0.99445472657E+02 0.  0.
         23    2    1    2    0    0 -0.27433270864E+02  0.52957497923E+02 -0.32949339211E+02  0.11265650387E+03  0.89714814678E+02 0.  0.
        -11    1    3    3    0    0  0.84214684328E+02 -0.11442277840E+03  0.10960591151E+03  0.17943840479E+03  0.00000000000E+00 0.  1.
         11    1    3    3    0    0 -0.18751598860E+02 -0.22531538956E+02  0.69973075213E+02  0.75865169626E+02  0.00000000000E+00 0. -1.
        -13    1    4    4    0    0  0.31960397846E+02  0.28384633015E+02 -0.68825505522E+01  0.43295772588E+02  0.00000000000E+00 0.  1.
         13    1    4    4    0    0 -0.59393668711E+02  0.24572864908E+02 -0.26066788659E+02  0.69360731280E+02  0.00000000000E+00 0. -1.
         -3    1    1    2    0  502 -0.38029814603E+02  0.83996819433E+02 -0.16200542997E+03  0.18640679122E+03  0.00000000000E+00 0.  1.
<scales pt_clust_5="13000.00000" pt_clust_6="13000.00000" pt_clust_7="13000.00000" pt_clust_8="13000.00000" pt_clust_9="92.20484"></scales>
<clustering>
<clus scale="   89.715">  7  8 -1 -1</clus>
<clus scale="   92.205">  2  9  1 -1</clus>
<clus scale="   99.445">  5  6 -1 -1</clus>
<clus scale="  150.036">  2  7  1 -1</clus>
<clus scale="   92.205">  2  5  1 -1</clus>
</clustering>
</event>
<event>
 9    1  0.3288491E-005  0.9464684E+02  0.7546771E-02  0.1294104E+00
          1   -1    0    0  502    0 -0.00000000000E+00  0.00000000000E+00  0.28997802578E+03  0.28997802578E+03  0.00000000000E+00 0. -1.
         21   -1    0    0  501  502  0.00000000000E+00 -0.00000000000E+00 -0.53653026637E+02  0.53653026637E+02  0.00000000000E+00 0.  1.
         23    2    1    2    0    0 -0.23760015618E+02 -0.24767806863E+02  0.17182559447E+03  0.19562040140E+03  0.86978870590E+02 0.  0.
         23    2    1    2    0    0  0.19385188114E+01  0.15119409655E+02  0.77919894986E+02  0.12063586605E+03  0.90824818966E+02 0.  0.
        -11    1    3    3    0    0  0.28759586296E+02 -0.19642478418E+02  0.36886001163E+02  0.50729851607E+02  0.00000000000E+00 0.  1.
         11    1    3    3    0    0 -0.52519601914E+02 -0.51253284454E+01  0.13493959330E+03  0.14489054979E+03  0.00000000000E+00 0. -1.
        -11    1    4    4    0    0 -0.34552222559E+02  0.23043577822E+02  0.93700857869E+01  0.42575357547E+02  0.00000000000E+00 0. -1.
         11    1    4    4    0    0  0.36490741371E+02 -0.79241681671E+01  0.68549809200E+02  0.78060508506E+02  0.00000000000E+00 0.  1.
          1    1    1    2  501    0  0.21821496807E+02  0.96483972088E+01 -0.13420490313E+02  0.27374784964E+02  0.00000000000E+00 0. -1.
<scales pt_clust_5="13000.00000" pt_clust_6="13000.00000" pt_clust_7="13000.00000" pt_clust_8="13000.00000" pt_clust_9="23.85936"></scales>
<clustering>
<clus scale="   23.859">  2  9  1 -1</clus>
<clus scale="   86.979">  5  6 -1 -1</clus>
<clus scale="   90.825">  7  8 -1 -1</clus>
<clus scale="   90.963">  1  5  2 -1</clus>
<clus scale="   23.859">  2  5  1 -1</clus>
</clustering>
</event>
<event>
 9    1  0.3288491E-005  0.1065223E+03  0.7546771E-02  0.1267638E+00
         21   -1    0    0  501  502  0.00000000000E+00  0.00000000000E+00  0.18601026695E+03  0.18601026695E+03  0.00000000000E+00 0.  1.
         -3   -1    0    0    0  501 -0.00000000000E+00 -0.00000000000E+00 -0.95352940459E+02  0.95352940459E+02  0.00000000000E+00 0.  1.
         23    2    1    2    0    0 -0.19889692263E+02  0.58455271807E+02  0.29072864282E+02  0.11382036311E+03  0.91089104507E+02 0.  0.
         23    2    1    2    0    0  0.53584378841E+02 -0.23837377139E+02  0.38940657890E+02  0.11419050219E+03  0.89908785712E+02 0.  0.
        -11    1    4    4    0    0  0.13556805978E+00 -0.36361059688E+02 -0.13000995733E+02  0.38615682441E+02  0.00000000000E+00 0. -1.
         11    1    4    4    0    0  0.53448810781E+02  0.12523682550E+02  0.51941653623E+02  0.75574819745E+02  0.00000000000E+00 0.  1.
        -11    1    3    3    0    0  0.17580924812E+01  0.71177345992E+02  0.44866990042E+02  0.84156712549E+02  0.00000000000E+00 0.  1.
         11    1    3    3    0    0 -0.21647784744E+02 -0.12722074185E+02 -0.15794125760E+02  0.29663650558E+02  0.00000000000E+00 0. -1.
         -3    1    1    2    0  502 -0.33694686578E+02 -0.34617894668E+02  0.22643804317E+02  0.53352342111E+02  0.00000000000E+00 0.  1.
<scales pt_clust_5="13000.00000" pt_clust_6="13000.00000" pt_clust_7="13000.00000" pt_clust_8="13000.00000" pt_clust_9="48.30870"></scales>
<clustering>
<clus scale="   48.309">  1  9  2 -1</clus>
<clus scale="   89.909">  5  6 -1 -1</clus>
<clus scale="   91.089">  7  8 -1 -1</clus>
<clus scale="  105.515">  1  5  2 -1</clus>
<clus scale="   48.309">  1  5  2 -1</clus>
</clustering>
</event>
<event>
 9    1  0.3288491E-005  0.1683681E+03  0.7546771E-02  0.1191438E+00
         -4   -1    0    0    0  501 -0.00000000000E+00  0.00000000000E+00  0.11150105041E+03  0.11150105041E+03  0.00000000000E+00 0.  1.
         21   -1    0    0  501  502  0.00000000000E+00 -0.00000000000E+00 -0.60577391520E+03  0.60577391520E+03  0.00000000000E+00 0.  1.
         23    2    1    2    0    0 -0.76530035738E+02  0.49265984022E+02 -0.32114247486E+03  0.34617249031E+03  0.91754674740E+02 0.  0.
         23    2    1    2    0    0 -0.35907419804E+02  0.10060031970E+03 -0.67112854199E+02  0.15583099951E+03  0.91484414460E+02 0.  0.
        -11    1    4    4    0    0 -0.27136847824E+02  0.60931801262E+01  0.13856401875E+02  0.31073062719E+02  0.00000000000E+00 0. -1.
         11    1    4    4    0    0 -0.87705719800E+01  0.94507139578E+02 -0.80969256073E+02  0.12475793679E+03  0.00000000000E+00 0.  1.
        -13    1    3    3    0    0 -0.79796008563E+02  0.71200500624E+02 -0.27141690268E+03  0.29172598330E+03  0.00000000000E+00 0.  1.
         13    1    3    3    0    0  0.32659728251E+01 -0.21934516601E+02 -0.49725572183E+02  0.54446507013E+02  0.00000000000E+00 0. -1.
         -4    1    1    2    0  502  0.11243745554E+03 -0.14986630373E+03 -0.10601753573E+03  0.21527147578E+03  0.00000000000E+00 0.  1.
<scales pt_clust_5="13000.00000" pt_clust_6="13000.00000" pt_clust_7="13000.00000" pt_clust_8="13000.00000" pt_clust_9="141.34506"></scales>
<clustering>
<clus scale="   91.484">  5  6 -1 -1</clus>
<clus scale="   91.755">  7  8 -1 -1</clus>
<clus scale="  129.240">  1  7  2 -1</clus>
<clus scale="  141.345">  2  9  1 -1</clus>
<clus scale="  141.345">  2  5  1 -1</clus>
</clustering>
</event>
<event>
 9    1  0.3288491E-005  0.1112157E+03  0.7546771E-02  0.1259893E+00
          2   -1    0    0  502    0 -0.00000000000E+00  0.00000000000E+00  0.25899439317E+03  0.25899439317E+03  0.00000000000E+00 0. -1.
         21   -1    0    0  501  502  0.00000000000E+00 -0.00000000000E+00 -0.76621636248E+02  0.76621636248E+02  0.00000000000E+00 0. -1.
         23    2    1    2    0    0  0.32505276382E+02 -0.36848111257E+02  0.90707116809E+02  0.13804656712E+03  0.91731659514E+02 0.  0.
         23    2    1    2    0    0 -0.23068606068E+02  0.80433649497E+02  0.93331754732E+02  0.15294294745E+03  0.87629881752E+02 0.  0.
        -13    1    4    4    0    0 -0.43455403331E+02  0.38689349318E+02  0.88938283726E+02  0.10627914255E+03  0.00000000000E+00 0.  1.
         13    1    4    4    0    0  0.20386797263E+02  0.41744300179E+02  0.43934710064E+01  0.46663804898E+02  0.00000000000E+00 0. -1.
        -13    1    3    3    0    0 -0.16412905121E+02 -0.50445643338E+02  0.51041300411E+02  0.73616307527E+02  0.00000000000E+00 0. -1.
         13    1    3    3    0    0  0.48918181503E+02  0.13597532081E+02  0.39665816398E+02  0.64430259590E+02  0.00000000000E+00 0.  1.
          2    1    1    2  501    0 -0.94366703142E+01 -0.43585538240E+02 -0.16661146154E+01  0.44626514856E+02  0.00000000000E+00 0. -1.
<scales pt_clust_5="13000.00000" pt_clust_6="13000.00000" pt_clust_7="13000.00000" pt_clust_8="13000.00000" pt_clust_9="44.59540"></scales>
<clustering>
<clus scale="   44.595">  2  9  1 -1</clus>
<clus scale="   87.630">  5  6 -1 -1</clus>
<clus scale="   91.732">  7  8 -1 -1</clus>
<clus scale="  107.857">  2  5  1 -1</clus>
<clus scale="   44.595">  2  5  1 -1</clus>
</clustering>
</event>
<event>
 9    1  0.3288491E-005  0.1853220E+03  0.7546771E-02  0.1163472E+00
          2   -1    0    0  502    0 -0.00000000000E+00  0.00000000000E+00  0.14969429918E+04  0.14969429918E+04  0.00000000000E+00 0. -1.
         21   -1    0    0  501  502  0.00000000000E+00 -0.00000000000E+00 -0.45899617153E+02  0.45899617153E+02  0.00000000000E+00 0. -1.
         23    2    1    2    0    0  0.17381870885E+03 -0.78032534994E+02  0.98046491687E+03  0.10030022872E+04  0.91652140051E+02 0.  0.
         23    2    1    2    0    0 -0.12758065753E+03  0.17114809660E+02  0.42169789068E+03  0.44907559027E+03  0.85264493691E+02 0.  0.
        -13    1    3    3    0    0  0.29781991464E+02  0.10715221665E+02  0.68256991359E+02  0.75238287196E+02  0.00000000000E+00 0.  1.
         13    1    3    3    0    0  0.14403671739E+03 -0.88747756658E+02  0.91220792551E+03  0.92776399996E+03  0.00000000000E+00 0. -1.
        -13    1    4    4    0    0 -0.95872613591E+02 -0.17660489328E+02  0.20070802070E+03  0.22313036659E+03  0.00000000000E+00 0. -1.
         13    1    4    4    0    0 -0.31708043940E+02  0.34775298988E+02  0.22098986998E+03  0.22594522368E+03  0.00000000000E+00 0.  1.
          2    1    1    2  501    0 -0.46238051322E+02  0.60917725334E+02  0.48880567111E+02  0.90764731537E+02  0.00000000000E+00 0. -1.
<scales pt_clust_5="13000.00000" pt_clust_6="13000.00000" pt_clust_7="13000.00000" pt_clust_8="13000.00000" pt_clust_9="76.47828"></scales>
<clustering>
<clus scale="   76.478">  2  9  1 -1</clus>
<clus scale="   85.264">  7  8 -1 -1</clus>
<clus scale="   91.652">  5  6 -1 -1</clus>
<clus scale="  182.248">  2  7  1 -1</clus>
<clus scale="   76.478">  2  5  1 -1</clus>
</clustering>
</event>
<event>
 9    1  0.3288491E-005  0.1435107E+03  0.7546771E-02  0.1225111E+00
         -1   -1    0    0    0  501 -0.00000000000E+00  0.00000000000E+00  0.41616214003E+03  0.41616214003E+03  0.00000000000E+00 0.  1.
         21   -1    0    0  501  502  0.00000000000E+00 -0.00000000000E+00 -0.79801451194E+02  0.79801451194E+02  0.00000000000E+00 0.  1.
         23    2    1    2    0    0 -0.33825553000E+02 -0.18687239215E+02  0.10386725695E+03  0.14519607244E+03  0.93808909176E+02 0.  0.
         23    2    1    2    0    0 -0.76968246767E+02 -0.30141038776E+02  0.17943749846E+03  0.21857675182E+03  0.93516775788E+02 0.  0.
        -13    1    4    4    0    0 -0.53321169528E+02 -0.30309267550E+02  0.18447042876E+03  0.19439942877E+03  0.00000000000E+00 0.  1.
         13    1    4    4    0    0 -0.23647077239E+02  0.16822877380E+00 -0.50329302924E+01  0.24177323057E+02  0.00000000000E+00 0. -1.
        -13    1    3    3    0    0 -0.59108657796E+02  0.13210403750E+02  0.66408563569E+02  0.89880173058E+02  0.00000000000E+00 0.  1.
         13    1    3    3    0    0  0.25283104796E+02 -0.31897642964E+02  0.37458693386E+02  0.55315899387E+02  0.00000000000E+00 0. -1.
         -1    1    1    2    0  502  0.11079379977E+03  0.48828277991E+02  0.53055933421E+02  0.13219076696E+03  0.00000000000E+00 0.  1.
<scales pt_clust_5="13000.00000" pt_clust_6="13000.00000" pt_clust_7="13000.00000" pt_clust_8="13000.00000" pt_clust_9="108.85746"></scales>
<clustering>
<clus scale="   93.517">  5  6 -1 -1</clus>
<clus scale="   93.809">  7  8 -1 -1</clus>
<clus scale="  101.457">  1  7  2 -1</clus>
<clus scale="  108.857">  2  9  1 -1</clus>
<clus scale="  108.857">  2  5  1 -1</clus>
</clustering>
</event>
<event>
 9    1  0.3288491E-005  0.2176319E+03  0.7546771E-02  0.1137589E+00
         21   -1    0    0  501  502  0.00000000000E+00  0.00000000000E+00  0.32549782243E+02  0.32549782243E+02  0.00000000000E+00 0.  1.
          1   -1    0    0  502    0 -0.00000000000E+00 -0.00000000000E+00 -0.16476921202E+04  0.16476921202E+04  0.00000000000E+00 0. -1.
         23    2    1    2    0    0 -0.14602743797E+02 -0.17294790903E+03 -0.80495664610E+03  0.83026059133E+03  0.10608123327E+03 0.  0.
         23    2    1    2    0    0 -0.90782313295E+01  0.18548581083E+03 -0.76911368462E+03  0.80094155843E+03  0.12443520335E+03 0.  0.
        -13    1    4    4    0    0  0.46079667445E+02  0.22956079043E+02 -0.19913422091E+03  0.20568119810E+03  0.00000000000E+00 0.  1.
         13    1    4    4    0    0 -0.55157898774E+02  0.16252973179E+03 -0.56997946372E+03  0.59526036032E+03  0.00000000000E+00 0. -1.
        -13    1    3    3    0    0  0.16543732367E+02 -0.17101805088E+03 -0.66154363189E+03  0.68349165737E+03  0.00000000000E+00 0.  1.
         13    1    3    3    0    0 -0.31146476165E+02 -0.19298581539E+01 -0.14341301421E+03  0.14676893396E+03  0.00000000000E+00 0. -1.
          1    1    1    2  501    0  0.23680975127E+02 -0.12537901803E+02 -0.41072007187E+02  0.49039752639E+02  0.00000000000E+00 0. -1.
<scales pt_clust_5="13000.00000" pt_clust_6="13000.00000" pt_clust_7="13000.00000" pt_clust_8="13000.00000" pt_clust_9="26.79529"></scales>
<clustering>
<clus scale="   26.795">  1  9  2 -1</clus>
<clus scale="  106.081">  7  8 -1 -1</clus>
<clus scale="  124.435">  5  6 -1 -1</clus>
<clus scale="  207.684">  2  7  1 -1</clus>
<clus scale="   26.795">  1  5  2 -1</clus>
</clustering>
</event>
<event>
 9    1  0.6416850E-005  0.9543395E+02  0.7546771E-02  0.1291118E+00
          1   -1    0    0  502    0 -0.00000000000E+00  0.00000000000E+00  0.22873132167E+03  0.22873132167E+03  0.00000000000E+00 0. -1.
         21   -1    0    0  501  502  0.00000000000E+00 -0.00000000000E+00 -0.32583121746E+03  0.32583121746E+03  0.00000000000E+00 0. -1.
         23    2    1    2    0    0 -0.15086412479E+01  0.32646633877E+02  0.16685703983E+03  0.19279651897E+03  0.90890853684E+02 0.  0.
         23    2    1    2    0    0 -0.32524139362E+02  0.19933604536E+02 -0.10477815084E+02  0.10066340398E+03  0.92564399536E+02 0.  0.
        -13    1    4    4    0    0  0.77726824126E+00 -0.31723248300E+02 -0.21352813323E+02  0.38248023026E+02  0.00000000000E+00 0.  1.
         13    1    4    4    0    0 -0.33301407603E+02  0.51656852836E+02  0.10874998239E+02  0.62415380956E+02  0.00000000000E+00 0. -1.
        -13    1    3    3    0    0 -0.44031525075E+02  0.30348582759E+02  0.82805085995E+02  0.98572277759E+02  0.00000000000E+00 0.  1.
         13    1    3    3    0    0  0.42522883827E+02  0.22980511178E+01  0.84051953836E+02  0.94224241210E+02  0.00000000000E+00 0. -1.
          1    1    1    2  501    0  0.34032780609E+02 -0.52580238413E+02 -0.25347912054E+03  0.26110261618E+03  0.00000000000E+00 0. -1.
<scales pt_clust_5="13000.00000" pt_clust_6="13000.00000" pt_clust_7="13000.00000" pt_clust_8="13000.00000" pt_clust_9="62.63315"></scales>
<clustering>
<clus scale="   62.633">  2  9  1 -1</clus>
<clus scale="   90.891">  7  8 -1 -1</clus>
<clus scale="   92.564">  5  6 -1 -1</clus>
<clus scale="   93.812">  1  7  2 -1</clus>
<clus scale="   62.633">  2  5  1 -1</clus>
</clustering>
</event>
<event>
 9    1  0.3288491E-005  0.1193457E+03  0.7546771E-02  0.1245521E+00
         -1   -1    0    0    0  501 -0.00000000000E+00  0.00000000000E+00  0.66130534776E+03  0.66130534776E+03  0.00000000000E+00 0.  1.
         21   -1    0    0  501  502  0.00000000000E+00 -0.00000000000E+00 -0.34338479402E+02  0.34338479402E+02  0.00000000000E+00 0. -1.
         23    2    1    2    0    0 -0.14973716336E+02  0.54782573042E+02  0.34245257150E+03  0.36038412599E+03  0.96838071260E+02 0.  0.
         23    2    1    2    0    0  0.28223064696E+02 -0.87498915703E+02  0.26362622090E+03  0.29424487427E+03  0.92890581082E+02 0.  0.
        -11    1    4    4    0    0 -0.56604882174E+01 -0.49559283430E+02  0.22475969872E+03  0.23022833420E+03  0.00000000000E+00 0.  1.
         11    1    4    4    0    0  0.33883552913E+02 -0.37939632273E+02  0.38866522184E+02  0.64016540064E+02  0.00000000000E+00 0. -1.
        -13    1    3    3    0    0 -0.56103599393E+02  0.36878171360E+02  0.21728343233E+03  0.22741966351E+03  0.00000000000E+00 0.  1.
         13    1    3    3    0    0  0.41129883056E+02  0.17904401681E+02  0.12516913917E+03  0.13296446247E+03  0.00000000000E+00 0. -1.
         -1    1    1    2    0  502 -0.13249348359E+02  0.32716342661E+02  0.20888075947E+02  0.41014826903E+02  0.00000000000E+00 0.  1.
<scales pt_clust_5="13000.00000" pt_clust_6="13000.00000" pt_clust_7="13000.00000" pt_clust_8="13000.00000" pt_clust_9="35.29737"></scales>
<clustering>
<clus scale="   35.297">  2  9  1 -1</clus>
<clus scale="   92.891">  5  6 -1 -1</clus>
<clus scale="   96.838">  7  8 -1 -1</clus>
<clus scale="  116.166">  2  5  1 -1</clus>
<clus scale="   35.297">  2  5  1 -1</clus>
</clustering>
</event>
<event>
 9    1  0.3288491E-005  0.9198546E+02  0.7546771E-02  0.1298635E+00
         -1   -1    0    0    0  501 -0.00000000000E+00  0.00000000000E+00  0.79172385373E+02  0.79172385373E+02  0.00000000000E+00 0.  1.
         21   -1    0    0  501  502  0.00000000000E+00 -0.00000000000E+00 -0.37186263864E+03  0.37186263864E+03  0.00000000000E+00 0.  1.
         23    2    1    2    0    0  0.21607247715E+02 -0.93107249443E+01  0.98664108751E+01  0.94060203407E+02  0.90534043589E+02 0.  0.
         23    2    1    2    0    0  0.32099834365E+02  0.69021228752E+01 -0.73819480420E+02  0.12200471347E+03  0.91420980924E+02 0.  0.
        -11    1    3    3    0    0  0.48510184884E+02 -0.32185641583E+02  0.54241219712E+01  0.58468578406E+02  0.00000000000E+00 0. -1.
         11    1    3    3    0    0 -0.26902937169E+02  0.22874916639E+02  0.44422889040E+01  0.35591625002E+02  0.00000000000E+00 0.  1.
        -13    1    4    4    0    0  0.13319913358E+02  0.48654487548E+02 -0.30335500983E+02  0.58863586965E+02  0.00000000000E+00 0.  1.
         13    1    4    4    0    0  0.18779921007E+02 -0.41752364673E+02 -0.43483979436E+02  0.63141126506E+02  0.00000000000E+00 0. -1.
         -1    1    1    2    0  502 -0.53707082081E+02  0.24086020691E+01 -0.22873718373E+03  0.23497010714E+03  0.00000000000E+00 0.  1.
<scales pt_clust_5="13000.00000" pt_clust_6="13000.00000" pt_clust_7="13000.00000" pt_clust_8="13000.00000" pt_clust_9="53.76106"></scales>
<clustering>
<clus scale="   53.761">  2  9  1 -1</clus>
<clus scale="   90.534">  5  6 -1 -1</clus>
<clus scale="   91.104">  1  5  2 -1</clus>
<clus scale="   91.421">  7  8 -1 -1</clus>
<clus scale="   53.761">  2  5  1 -1</clus>
</clustering>
</event>
<event>
 9    1  0.3288491E-005  0.1319654E+03  0.7546771E-02  0.1224873E+00
         -1   -1    0    0    0  501 -0.00000000000E+00  0.00000000000E+00  0.47874209289E+02  0.47874209289E+02  0.00000000000E+00 0.  1.
         21   -1    0    0  501  502  0.00000000000E+00 -0.00000000000E+00 -0.64291219360E+03  0.64291219360E+03  0.00000000000E+00 0.  1.
         23    2    1    2    0    0 -0.71007590933E+02  0.47713217817E+02 -0.14294749235E+03  0.19062981062E+03  0.92666660676E+02 0.  0.
         23    2    1    2    0    0  0.52387774369E+02 -0.10419616637E+03 -0.26247496950E+03  0.30143299678E+03  0.91473613400E+02 0.  0.
        -13    1    3    3    0    0 -0.87123760718E+02  0.20252506838E+02 -0.12611234812E+03  0.15461254174E+03  0.00000000000E+00 0. -1.
         13    1    3    3    0    0  0.16116169784E+02  0.27460710979E+02 -0.16835144233E+02  0.36017268876E+02  0.00000000000E+00 0.  1.
        -13    1    4    4    0    0  0.31101687274E+02 -0.98672272672E+02 -0.25934629051E+03  0.27922039816E+03  0.00000000000E+00 0. -1.
         13    1    4    4    0    0  0.21286087095E+02 -0.55238936977E+01 -0.31286789821E+01  0.22212598623E+02  0.00000000000E+00 0.  1.
         -1    1    1    2    0  502  0.18619816564E+02  0.56482948553E+02 -0.18961552247E+03  0.19872359549E+03  0.00000000000E+00 0.  1.
<scales pt_clust_5="13000.00000" pt_clust_6="13000.00000" pt_clust_7="13000.00000" pt_clust_8="13000.00000" pt_clust_9="59.47286"></scales>
<clustering>
<clus scale="   59.473">  2  9  1 -1</clus>
<clus scale="   91.474">  7  8 -1 -1</clus>
<clus scale="   92.667">  5  6 -1 -1</clus>
<clus scale="  131.130">  2  7  1 -1</clus>
<clus scale="   59.473">  2  5  1 -1</clus>
</clustering>
</event>
<event>
 9    1  0.3288491E-005  0.1078588E+03  0.7546771E-02  0.1266411E+00
          1   -1    0    0  502    0 -0.00000000000E+00  0.00000000000E+00  0.47817560666E+03  0.47817560666E+03  0.00000000000E+00 0. -1.
         21   -1    0    0  501  502  0.00000000000E+00 -0.00000000000E+00 -0.14400585223E+03  0.14400585223E+03  0.00000000000E+00 0. -1.
         23    2    1    2    0    0 -0.32978485763E+02  0.91310719015E+01  0.29851259215E+03  0.31612472474E+03  0.98255365850E+02 0.  0.
         23    2    1    2    0    0  0.49317490645E+02 -0.63767354938E+02  0.14011399005E+03  0.18704700609E+03  0.94107182730E+02 0.  0.
        -11    1    4    4    0    0  0.65744008463E+02 -0.31639359247E+02  0.13081203736E+03  0.14978355324E+03  0.00000000000E+00 0.  1.
         11    1    4    4    0    0 -0.16426517818E+02 -0.32127995691E+02  0.93019526866E+01  0.37263452853E+02  0.00000000000E+00 0. -1.
        -11    1    3    3    0    0 -0.59429946399E+01  0.51066020818E+02  0.11535218731E+03  0.12629008189E+03  0.00000000000E+00 0.  1.
         11    1    3    3    0    0 -0.27035491123E+02 -0.41934948916E+02  0.18316040485E+03  0.18983464285E+03  0.00000000000E+00 0. -1.
          1    1    1    2  501    0 -0.16339004882E+02  0.54636283037E+02 -0.10445682778E+03  0.11900972806E+03  0.00000000000E+00 0. -1.
<scales pt_clust_5="13000.00000" pt_clust_6="13000.00000" pt_clust_7="13000.00000" pt_clust_8="13000.00000" pt_clust_9="57.02707"></scales>
<clustering>
<clus scale="   57.027">  2  9  1 -1</clus>
<clus scale="   94.107">  5  6 -1 -1</clus>
<clus scale="   98.255">  7  8 -1 -1</clus>
<clus scale="  104.094">  2  5  1 -1</clus>
<clus scale="   57.027">  2  5  1 -1</clus>
</clustering>
</event>
<event>
 9    1  0.3288491E-005  0.9805303E+02  0.7546771E-02  0.1284922E+00
          1   -1    0    0  502    0 -0.00000000000E+00  0.00000000000E+00  0.11721942121E+03  0.11721942121E+03  0.00000000000E+00 0. -1.
         21   -1    0    0  501  502  0.00000000000E+00 -0.00000000000E+00 -0.23171211864E+03  0.23171211864E+03  0.00000000000E+00 0.  1.
         23    2    1    2    0    0 -0.74393105957E+01 -0.11051421621E+02  0.75389947696E+01  0.93954889833E+02  0.92699555659E+02 0.  0.
         23    2    1    2    0    0  0.34331494943E+02  0.37107575153E+02  0.21231566654E+02  0.10690074362E+03  0.91768000331E+02 0.  0.
        -13    1    4    4    0    0  0.21542158240E+02 -0.12731599602E+02 -0.26691091889E+02  0.36586508392E+02  0.00000000000E+00 0. -1.
         13    1    4    4    0    0  0.12789336703E+02  0.49839174755E+02  0.47922658543E+02  0.70314235226E+02  0.00000000000E+00 0.  1.
        -13    1    3    3    0    0 -0.88265900547E+01  0.23348941589E+02 -0.32609291082E+02  0.41066380777E+02  0.00000000000E+00 0.  1.
         13    1    3    3    0    0  0.13872794589E+01 -0.34400363210E+02  0.40148285851E+02  0.52888509055E+02  0.00000000000E+00 0. -1.
          1    1    1    2  501    0 -0.26892184347E+02 -0.26056153531E+02 -0.14326325886E+03  0.14807590639E+03  0.00000000000E+00 0. -1.
<scales pt_clust_5="13000.00000" pt_clust_6="13000.00000" pt_clust_7="13000.00000" pt_clust_8="13000.00000" pt_clust_9="37.44480"></scales>
<clustering>
<clus scale="   37.445">  2  9  1 -1</clus>
<clus scale="   91.768">  5  6 -1 -1</clus>
<clus scale="   92.700">  7  8 -1 -1</clus>
<clus scale="   97.173">  2  5  1 -1</clus>
<clus scale="   37.445">  2  5  1 -1</clus>
</clustering>
</event>
<event>
 9    1  0.3288491E-005  0.1487499E+03  0.7546771E-02  0.1217818E+00
          2   -1    0    0  502    0 -0.00000000000E+00  0.00000000000E+00  0.42960629872E+03  0.42960629872E+03  0.00000000000E+00 0. -1.
         21   -1    0    0  501  502  0.00000000000E+00 -0.00000000000E+00 -0.12951714818E+03  0.12951714818E+03  0.00000000000E+00 0.  1.
         23    2    1    2    0    0 -0.10247119317E+02  0.54731652247E+02  0.19302372843E+03  0.22028361174E+03  0.90366767404E+02 0.  0.
         23    2    1    2    0    0  0.12496712894E+03 -0.54492828589E+02  0.14381384609E+03  0.21837745801E+03  0.91760776778E+02 0.  0.
        -13    1    4    4    0    0  0.23106367619E+02 -0.46246436083E+02  0.14764166461E+02  0.53764464903E+02  0.00000000000E+00 0. -1.
         13    1    4    4    0    0  0.10186076132E+03 -0.82463925058E+01  0.12904967963E+03  0.16461299310E+03  0.00000000000E+00 0.  1.
        -13    1    3    3    0    0  0.13356498672E+02  0.73587025588E+02  0.15125165903E+03  0.16873206794E+03  0.00000000000E+00 0.  1.
         13    1    3    3    0    0 -0.23603617988E+02 -0.18855373341E+02  0.41772069394E+02  0.51551543793E+02  0.00000000000E+00 0. -1.
          2    1    1    2  501    0 -0.11472000962E+03 -0.23882365795E+00 -0.36748423981E+02  0.12046237716E+03  0.00000000000E+00 0. -1.
<scales pt_clust_5="13000.00000" pt_clust_6="13000.00000" pt_clust_7="13000.00000" pt_clust_8="13000.00000" pt_clust_9="117.07479"></scales>
<clustering>
<clus scale="   90.367">  7  8 -1 -1</clus>
<clus scale="   91.761">  5  6 -1 -1</clus>
<clus scale="  106.145">  1  7  2 -1</clus>
<clus scale="  117.075">  2  9  1 -1</clus>
<clus scale="  117.075">  2  5  1 -1</clus>
</clustering>
</event>
<event>
 9    1  0.3288491E-005  0.1041963E+03  0.7546771E-02  0.1271778E+00
         -1   -1    0    0    0  501 -0.00000000000E+00  0.00000000000E+00  0.83154001392E+02  0.83154001392E+02  0.00000000000E+00 0.  1.
         21   -1    0    0  501  502  0.00000000000E+00 -0.00000000000E+00 -0.19363262149E+03  0.19363262149E+03  0.00000000000E+00 0.  1.
         23    2    1    2    0    0  0.45594036106E+02  0.32573023270E+02 -0.18562345403E+02  0.11232899528E+03  0.95568951765E+02 0.  0.
         23    2    1    2    0    0 -0.15857459030E+02 -0.18830988499E+02 -0.47854076968E+02  0.10955239283E+03  0.95423524134E+02 0.  0.
        -11    1    3    3    0    0 -0.11793704288E+02  0.29823102755E+02  0.24641349566E+02  0.40443850301E+02  0.00000000000E+00 0.  1.
         11    1    3    3    0    0  0.57387740393E+02  0.27499205152E+01 -0.43203694969E+02  0.71885144983E+02  0.00000000000E+00 0. -1.
        -13    1    4    4    0    0 -0.15923622376E+02  0.36480309610E+02 -0.34445440185E+02  0.52638988292E+02  0.00000000000E+00 0.  1.
         13    1    4    4    0    0  0.66163345991E-01 -0.55311298109E+02 -0.13408636784E+02  0.56913404541E+02  0.00000000000E+00 0. -1.
         -1    1    1    2    0  502 -0.29736577075E+02 -0.13742034772E+02 -0.44062197723E+02  0.54905234760E+02  0.00000000000E+00 0.  1.
<scales pt_clust_5="13000.00000" pt_clust_6="13000.00000" pt_clust_7="13000.00000" pt_clust_8="13000.00000" pt_clust_9="32.75832"></scales>
<clustering>
<clus scale="   32.758">  2  9  1 -1</clus>
<clus scale="   95.424">  7  8 -1 -1</clus>
<clus scale="   95.569">  5  6 -1 -1</clus>
<clus scale="  104.063">  2  7  1 -1</clus>
<clus scale="   32.758">  2  5  1 -1</clus>
</clustering>
</event>
<event>
 9    1  0.3288491E-005  0.1598651E+03  0.7546771E-02  0.1189051E+00
          2   -1    0    0  502    0 -0.00000000000E+00  0.00000000000E+00  0.93617552489E+03  0.93617552489E+03  0.00000000000E+00 0. -1.
         21   -1    0    0  501  502  0.00000000000E+00 -0.00000000000E+00 -0.42777319521E+02  0.42777319521E+02  0.00000000000E+00 0. -1.
         23    2    1    2    0    0  0.62022856368E+02  0.12365330081E+03  0.51282407229E+03  0.53927556432E+03  0.93234283579E+02 0.  0.
         23    2    1    2    0    0 -0.44756598249E+02 -0.11234700257E+03  0.38881588352E+03  0.41745381278E+03  0.92004850203E+02 0.  0.
        -11    1    3    3    0    0 -0.18428920009E+02  0.44019245322E+02  0.93949799872E+02  0.10537496832E+03  0.00000000000E+00 0.  1.
         11    1    3    3    0    0  0.80451776377E+02  0.79634055487E+02  0.41887427242E+03  0.43390059600E+03  0.00000000000E+00 0. -1.
        -11    1    4    4    0    0 -0.66621678054E+02 -0.69373962915E+02  0.19105418649E+03  0.21389926809E+03  0.00000000000E+00 0.  1.
         11    1    4    4    0    0  0.21865079805E+02 -0.42973039653E+02  0.19776169703E+03  0.20355454469E+03  0.00000000000E+00 0. -1.
          2    1    1    2  501    0 -0.17266258119E+02 -0.11306298241E+02 -0.82417504322E+01  0.22223467316E+02  0.00000000000E+00 0. -1.
<scales pt_clust_5="13000.00000" pt_clust_6="13000.00000" pt_clust_7="13000.00000" pt_clust_8="13000.00000" pt_clust_9="20.63870"></scales>
<clustering>
<clus scale="   20.639">  2  9  1 -1</clus>
<clus scale="   92.005">  7  8 -1 -1</clus>
<clus scale="   93.234">  5  6 -1 -1</clus>
<clus scale="  159.151">  2  7  1 -1</clus>
<clus scale="   20.639">  2  5  1 -1</clus>
</clustering>
</event>
<event>
 9    1  0.3288491E-005  0.1345086E+03  0.7546771E-02  0.1220967E+00
         21   -1    0    0  501  502  0.00000000000E+00  0.00000000000E+00  0.53444681684E+02  0.53444681684E+02  0.00000000000E+00 0. -1.
          2   -1    0    0  502    0 -0.00000000000E+00 -0.00000000000E+00 -0.11018876219E+04  0.11018876219E+04  0.00000000000E+00 0. -1.
         23    2    1    2    0    0  0.92709386421E+02  0.58958108392E+01 -0.69044267630E+03  0.70251636356E+03  0.90489562348E+02 0.  0.
         23    2    1    2    0    0 -0.14679994774E+03  0.16632107938E+02 -0.12807297635E+03  0.21554003835E+03  0.90708153925E+02 0.  0.
        -11    1    3    3    0    0 -0.46970066809E+01 -0.26199479621E+02 -0.11863996650E+03  0.12158912886E+03  0.00000000000E+00 0.  1.
         11    1    3    3    0    0  0.97406393102E+02  0.32095290460E+02 -0.57180270980E+03  0.58092723470E+03  0.00000000000E+00 0. -1.
        -13    1    4    4    0    0 -0.95035211252E+02  0.12105172359E+02 -0.13236875172E+03  0.16340046820E+03  0.00000000000E+00 0.  1.
         13    1    4    4    0    0 -0.51764736492E+02  0.45269355785E+01  0.42957753668E+01  0.52139570154E+02  0.00000000000E+00 0. -1.
          2    1    1    2  501    0  0.54090561323E+02 -0.22527918777E+02 -0.22992728753E+03  0.23727590164E+03  0.00000000000E+00 0. -1.
<scales pt_clust_5="13000.00000" pt_clust_6="13000.00000" pt_clust_7="13000.00000" pt_clust_8="13000.00000" pt_clust_9="58.59436"></scales>
<clustering>
<clus scale="   58.594">  1  9  2 -1</clus>
<clus scale="   90.490">  5  6 -1 -1</clus>
<clus scale="   90.708">  7  8 -1 -1</clus>
<clus scale="  134.361">  2  5  1 -1</clus>
<clus scale="   58.594">  1  5  2 -1</clus>
</clustering>
</event>
<event>
 9    1  0.3288491E-005  0.9261515E+02  0.7546771E-02  0.1297294E+00
         21   -1    0    0  501  502  0.00000000000E+00  0.00000000000E+00  0.79901156367E+02  0.79901156367E+02  0.00000000000E+00 0.  1.
          2   -1    0    0  502    0 -0.00000000000E+00 -0.00000000000E+00 -0.16400654197E+03  0.16400654197E+03  0.00000000000E+00 0. -1.
         23    2    1    2    0    0 -0.42235433591E+01  0.29935101118E+02 -0.54431439038E+02  0.10947263182E+03  0.90041806756E+02 0.  0.
         23    2    1    2    0    0 -0.14875800114E+02  0.35923566953E+01 -0.18765320885E+02  0.94336769015E+02  0.91176171584E+02 0.  0.
        -11    1    4    4    0    0  0.34843709366E+02  0.16890420455E+02  0.21517945668E+01  0.38781446665E+02  0.00000000000E+00 0.  1.
         11    1    4    4    0    0 -0.49719509480E+02 -0.13298063759E+02 -0.20917115451E+02  0.55555322351E+02  0.00000000000E+00 0. -1.
        -11    1    3    3    0    0  0.19487925154E+02 -0.15915772120E+02  0.98589857362E+01  0.27023889963E+02  0.00000000000E+00 0.  1.
         11    1    3    3    0    0 -0.23711468513E+02  0.45850873238E+02 -0.64290424774E+02  0.82448741855E+02  0.00000000000E+00 0. -1.
          2    1    1    2  501    0  0.19099343473E+02 -0.33527457813E+02 -0.10908625682E+02  0.40098297505E+02  0.00000000000E+00 0. -1.
<scales pt_clust_5="13000.00000" pt_clust_6="13000.00000" pt_clust_7="13000.00000" pt_clust_8="13000.00000" pt_clust_9="38.58595"></scales>
<clustering>
<clus scale="   38.586">  1  9  2 -1</clus>
<clus scale="   90.042">  7  8 -1 -1</clus>
<clus scale="   91.176">  5  6 -1 -1</clus>
<clus scale="   91.499">  2  7  1 -1</clus>
<clus scale="   38.586">  1  5  2 -1</clus>
</clustering>
</event>
<event>
 9    1  0.3288491E-005  0.1068409E+03  0.7546771E-02  0.1267994E+00
          3   -1    0    0  502    0 -0.00000000000E+00  0.00000000000E+00  0.44454924749E+02  0.44454924749E+02  0.00000000000E+00 0. -1.
         21   -1    0    0  501  502  0.00000000000E+00 -0.00000000000E+00 -0.58024601587E+03  0.58024601587E+03  0.00000000000E+00 0. -1.
         23    2    1    2    0    0  0.10714312270E+02 -0.46877343863E+02 -0.15245822938E+03  0.18456095649E+03  0.92233145352E+02 0.  0.
         23    2    1    2    0    0 -0.83317920492E+02 -0.21289018287E+01 -0.25454438289E+03  0.28438579212E+03  0.95582570577E+02 0.  0.
        -11    1    4    4    0    0 -0.59810838572E+02  0.19763368778E+02 -0.24172847402E+03  0.24980108549E+03  0.00000000000E+00 0.  1.
         11    1    4    4    0    0 -0.23507081920E+02 -0.21892270607E+02 -0.12815908870E+02  0.34584706633E+02  0.00000000000E+00 0. -1.
        -11    1    3    3    0    0  0.34121196361E+02  0.15361291428E+02 -0.51030952722E+02  0.63280197939E+02  0.00000000000E+00 0.  1.
         11    1    3    3    0    0 -0.23406884090E+02 -0.62238635292E+02 -0.10142727665E+03  0.12128075855E+03  0.00000000000E+00 0. -1.
          3    1    1    2  501    0  0.72603608222E+02  0.49006245692E+02 -0.12878847885E+03  0.15575419201E+03  0.00000000000E+00 0. -1.
<scales pt_clust_5="13000.00000" pt_clust_6="13000.00000" pt_clust_7="13000.00000" pt_clust_8="13000.00000" pt_clust_9="87.59511"></scales>
<clustering>
<clus scale="   87.595">  2  9  1 -1</clus>
<clus scale="   92.233">  7  8 -1 -1</clus>
<clus scale="   95.583">  5  6 -1 -1</clus>
<clus scale="  103.855">  1  7  2 -1</clus>
<clus scale="   87.595">  2  5  1 -1</clus>
</clustering>
</event>
<event>
 9    1  0.3288491E-005  0.1288027E+03  0.7546771E-02  0.1229249E+00
         21   -1    0    0  501  502  0.00000000000E+00  0.00000000000E+00  0.37619440371E+03  0.37619440371E+03  0.00000000000E+00 0. -1.
          1   -1    0    0  502    0 -0.00000000000E+00 -0.00000000000E+00 -0.13969170826E+03  0.13969170826E+03  0.00000000000E+00 0. -1.
         23    2    1    2    0    0  0.66261171553E+02  0.55656145892E+02 -0.43256172371E+02  0.13299304509E+03  0.91257351280E+02 0.  0.
         23    2    1    2    0    0 -0.12143953886E+03 -0.36679036037E+01  0.85498932636E+02  0.17436404739E+03  0.91278356822E+02 0.  0.
        -13    1    3    3    0    0  0.54676861921E+02 -0.12791638464E+02 -0.22959388822E+02  0.60665630955E+02  0.00000000000E+00 0. -1.
         13    1    3    3    0    0  0.11584309632E+02  0.68447784355E+02 -0.20296783550E+02  0.72327414133E+02  0.00000000000E+00 0.  1.
        -13    1    4    4    0    0 -0.34184565074E+02 -0.33329616368E+02  0.63798212744E+02  0.79684752405E+02  0.00000000000E+00 0.  1.
         13    1    4    4    0    0 -0.87254973789E+02  0.29661712764E+02  0.21700719892E+02  0.94679294985E+02  0.00000000000E+00 0. -1.
          1    1    1    2  501    0  0.55178367310E+02 -0.51988242288E+02  0.19425993519E+03  0.20852901950E+03  0.00000000000E+00 0. -1.
<scales pt_clust_5="13000.00000" pt_clust_6="13000.00000" pt_clust_7="13000.00000" pt_clust_8="13000.00000" pt_clust_9="75.81180"></scales>
<clustering>
<clus scale="   75.812">  1  9  2 -1</clus>
<clus scale="   91.257">  5  6 -1 -1</clus>
<clus scale="   91.278">  7  8 -1 -1</clus>
<clus scale="  128.788">  2  5  1 -1</clus>
<clus scale="   75.812">  1  5  2 -1</clus>
</clustering>
</event>
<event>
 9    1  0.3288491E-005  0.1455186E+03  0.7546771E-02  0.1208143E+00
         21   -1    0    0  501  502  0.00000000000E+00  0.00000000000E+00  0.23000283213E+03  0.23000283213E+03  0.00000000000E+00 0. -1.
          1   -1    0    0  502    0 -0.00000000000E+00 -0.00000000000E+00 -0.43184473147E+03  0.43184473147E+03  0.00000000000E+00 0. -1.
         23    2    1    2    0    0 -0.41630787968E+02 -0.11264206011E+03 -0.36052359113E+03  0.38762134092E+03  0.76496326477E+02 0.  0.
         23    2    1    2    0    0  0.85781319844E+02  0.61755232168E+02  0.49254147574E+02  0.14572281356E+03  0.87390066967E+02 0.  0.
        -11    1    4    4    0    0  0.15983693786E+02 -0.22020437133E+02  0.33595912210E+01  0.27416509110E+02  0.00000000000E+00 0. -1.
         11    1    4    4    0    0  0.69797626058E+02  0.83775669301E+02  0.45894556353E+02  0.11830630445E+03  0.00000000000E+00 0.  1.
        -11    1    3    3    0    0 -0.21159989238E+02 -0.11126227188E+02 -0.18400235140E+02  0.30167975225E+02  0.00000000000E+00 0.  1.
         11    1    3    3    0    0 -0.20470798731E+02 -0.10151583292E+03 -0.34212335599E+03  0.35745336570E+03  0.00000000000E+00 0. -1.
          1    1    1    2  501    0 -0.44150531876E+02  0.50886827940E+02  0.10942754422E+03  0.12850340912E+03  0.00000000000E+00 0. -1.
<scales pt_clust_5="13000.00000" pt_clust_6="13000.00000" pt_clust_7="13000.00000" pt_clust_8="13000.00000" pt_clust_9="67.37016"></scales>
<clustering>
<clus scale="   67.370">  1  9  2 -1</clus>
<clus scale="   76.496">  7  8 -1 -1</clus>
<clus scale="   87.390">  5  6 -1 -1</clus>
<clus scale="  139.249">  2  7  1 -1</clus>
<clus scale="   67.370">  1  5  2 -1</clus>
</clustering>
</event>
<event>
 9    1  0.3288491E-005  0.1165287E+03  0.7546771E-02  0.1249985E+00
         21   -1    0    0  501  502  0.00000000000E+00  0.00000000000E+00  0.32371553147E+03  0.32371553147E+03  0.00000000000E+00 0.  1.
          2   -1    0    0  502    0 -0.00000000000E+00 -0.00000000000E+00 -0.85086816943E+02  0.85086816943E+02  0.00000000000E+00 0. -1.
         23    2    1    2    0    0  0.45876642714E+02  0.44878940324E+02 -0.44618333245E+01  0.11114870892E+03  0.90638523302E+02 0.  0.
         23    2    1    2    0    0 -0.41523179511E+02 -0.83907546611E+02  0.19097721238E+03  0.23240040597E+03  0.93664306088E+02 0.  0.
        -11    1    4    4    0    0 -0.68535964537E+02 -0.66304756930E+02  0.11200932059E+03  0.14710400105E+03  0.00000000000E+00 0. -1.
         11    1    4    4    0    0  0.27012785026E+02 -0.17602789681E+02  0.78967891786E+02  0.85296404921E+02  0.00000000000E+00 0.  1.
        -13    1    3    3    0    0  0.62589119295E+02  0.57002678892E+02  0.10980885613E+02  0.85365585009E+02  0.00000000000E+00 0.  1.
         13    1    3    3    0    0 -0.16712476582E+02 -0.12123738568E+02 -0.15442718938E+02  0.25783123910E+02  0.00000000000E+00 0. -1.
          2    1    1    2  501    0 -0.43534632028E+01  0.39028606287E+02  0.52113335472E+02  0.65253233518E+02  0.00000000000E+00 0. -1.
<scales pt_clust_5="13000.00000" pt_clust_6="13000.00000" pt_clust_7="13000.00000" pt_clust_8="13000.00000" pt_clust_9="39.27066"></scales>
<clustering>
<clus scale="   39.271">  1  9  2 -1</clus>
<clus scale="   90.639">  7  8 -1 -1</clus>
<clus scale="   93.664">  5  6 -1 -1</clus>
<clus scale="  114.111">  2  7  1 -1</clus>
<clus scale="   39.271">  1  5  2 -1</clus>
</clustering>
</event>
<event>
 9    1  0.3288491E-005  0.1138460E+03  0.7546771E-02  0.1253653E+00
         21   -1    0    0  501  502  0.00000000000E+00  0.00000000000E+00  0.60655572932E+02  0.60655572932E+02  0.00000000000E+00 0. -1.
         -1   -1    0    0    0  501 -0.00000000000E+00 -0.00000000000E+00 -0.35278525448E+03  0.35278525448E+03  0.00000000000E+00 0.  1.
         23    2    1    2    0    0 -0.75688194019E+02 -0.22914423668E+01 -0.19977675393E+03  0.23177442720E+03  0.89859224757E+02 0.  0.
         23    2    1    2    0    0  0.52257278725E+02  0.35572315413E+02 -0.43958304196E+02  0.11843141085E+03  0.89985853141E+02 0.  0.
        -11    1    4    4    0    0  0.28069413760E+02  0.16839382696E+02  0.26177611871E+02  0.41913293377E+02  0.00000000000E+00 0. -1.
         11    1    4    4    0    0  0.24187864965E+02  0.18732932716E+02 -0.70135916067E+02  0.76518117477E+02  0.00000000000E+00 0.  1.
        -13    1    3    3    0    0 -0.17809093086E+02  0.21254503417E+02 -0.14814384152E+03  0.15071667291E+03  0.00000000000E+00 0.  1.
         13    1    3    3    0    0 -0.57879100932E+02 -0.23545945784E+02 -0.51632912402E+02  0.81057754291E+02  0.00000000000E+00 0. -1.
         -1    1    1    2    0  502  0.23430915293E+02 -0.33280873046E+02 -0.48394623429E+02  0.63234989357E+02  0.00000000000E+00 0.  1.
<scales pt_clust_5="13000.00000" pt_clust_6="13000.00000" pt_clust_7="13000.00000" pt_clust_8="13000.00000" pt_clust_9="40.70167"></scales>
<clustering>
<clus scale="   40.702">  1  9  2 -1</clus>
<clus scale="   89.859">  7  8 -1 -1</clus>
<clus scale="   89.986">  5  6 -1 -1</clus>
<clus scale="  113.746">  2  7  1 -1</clus>
<clus scale="   40.702">  1  5  2 -1</clus>
</clustering>
</event>
<event>
 9    1  0.3288491E-005  0.1521534E+03  0.7546771E-02  0.1221756E+00
         21   -1    0    0  501  502  0.00000000000E+00  0.00000000000E+00  0.30059020703E+03  0.30059020703E+03  0.00000000000E+00 0.  1.
         -4   -1    0    0    0  501 -0.00000000000E+00 -0.00000000000E+00 -0.17073696440E+03  0.17073696440E+03  0.00000000000E+00 0.  1.
         23    2    1    2    0    0  0.56090157724E+01 -0.97854578484E+01  0.28212466555E+02  0.95567030218E+02  0.90608486094E+02 0.  0.
         23    2    1    2    0    0  0.75784588701E+02 -0.83256673042E+02 -0.72791960396E+02  0.16196459279E+03  0.90878393083E+02 0.  0.
        -11    1    4    4    0    0  0.18083003493E+02 -0.77071897705E+02 -0.66876563280E+02  0.10363178638E+03  0.00000000000E+00 0.  1.
         11    1    4    4    0    0  0.57701585207E+02 -0.61847753369E+01 -0.59153971164E+01  0.58332806417E+02  0.00000000000E+00 0. -1.
        -13    1    3    3    0    0  0.12116635419E+02 -0.49312316056E+02  0.20560988494E+02  0.54783862738E+02  0.00000000000E+00 0.  1.
         13    1    3    3    0    0 -0.65076196461E+01  0.39526858207E+02  0.76514780612E+01  0.40783167480E+02  0.00000000000E+00 0. -1.
         -4    1    1    2    0  502 -0.81393604473E+02  0.93042130890E+02  0.17443273647E+03  0.21379554841E+03  0.00000000000E+00 0.  1.
<scales pt_clust_5="13000.00000" pt_clust_6="13000.00000" pt_clust_7="13000.00000" pt_clust_8="13000.00000" pt_clust_9="122.03190"></scales>
<clustering>
<clus scale="   90.608">  7  8 -1 -1</clus>
<clus scale="   90.878">  5  6 -1 -1</clus>
<clus scale="   91.308">  2  7  1 -1</clus>
<clus scale="  122.032">  1  9  2 -1</clus>
<clus scale="  122.032">  1  5  2 -1</clus>
</clustering>
</event>
<event>
 9    1  0.3288491E-005  0.1834933E+03  0.7546771E-02  0.1164599E+00
          2   -1    0    0  502    0 -0.00000000000E+00  0.00000000000E+00  0.19983215074E+03  0.19983215074E+03  0.00000000000E+00 0. -1.
         21   -1    0    0  501  502  0.00000000000E+00 -0.00000000000E+00 -0.23234273162E+03  0.23234273162E+03  0.00000000000E+00 0.  1.
         23    2    1    2    0    0 -0.77344323944E+02 -0.13585771783E+03  0.14494110817E+02  0.18146322443E+03  0.90990981041E+02 0.  0.
         23    2    1    2    0    0  0.97445354650E+02  0.12917104119E+03  0.13422793887E+02  0.18667850954E+03  0.92130014117E+02 0.  0.
        -11    1    3    3    0    0 -0.37834101625E+02 -0.11718881877E+03 -0.21303373487E+02  0.12497388612E+03  0.00000000000E+00 0.  1.
         11    1    3    3    0    0 -0.39510222319E+02 -0.18668899063E+02  0.35797484304E+02  0.56489338308E+02  0.00000000000E+00 0. -1.
        -13    1    4    4    0    0  0.37105027837E+02  0.11863411914E+03  0.16254506324E+02  0.12535966772E+03  0.00000000000E+00 0. -1.
         13    1    4    4    0    0  0.60340326813E+02  0.10536922051E+02 -0.28317124368E+01  0.61318841815E+02  0.00000000000E+00 0.  1.
          2    1    1    2  501    0 -0.20101030706E+02  0.66866766407E+01 -0.60427485578E+02  0.64033148394E+02  0.00000000000E+00 0. -1.
<scales pt_clust_5="13000.00000" pt_clust_6="13000.00000" pt_clust_7="13000.00000" pt_clust_8="13000.00000" pt_clust_9="21.18403"></scales>
<clustering>
<clus scale="   21.184">  2  9  1 -1</clus>
<clus scale="   90.991">  5  6 -1 -1</clus>
<clus scale="   92.130">  7  8 -1 -1</clus>
<clus scale="  182.924">  1  5  2 -1</clus>
<clus scale="   21.184">  2  5  1 -1</clus>
</clustering>
</event>
<event>
 9    1  0.3288491E-005  0.1075827E+03  0.7546771E-02  0.1265263E+00
         21   -1    0    0  501  502  0.00000000000E+00  0.00000000000E+00  0.36053601460E+02  0.36053601460E+02  0.00000000000E+00 0.  1.
          2   -1    0    0  502    0 -0.00000000000E+00 -0.00000000000E+00 -0.56133467091E+03  0.56133467091E+03  0.00000000000E+00 0. -1.
         23    2    1    2    0    0 -0.61412923700E+02  0.11751971578E+02 -0.35426786566E+03  0.37098962815E+03  0.90652785553E+02 0.  0.
         23    2    1    2    0    0  0.44217686481E+02 -0.23577481076E+02 -0.17650583326E+03  0.20481884264E+03  0.91023885402E+02 0.  0.
        -11    1    3    3    0    0 -0.59928374571E+02 -0.30904607154E+02 -0.21393471846E+03  0.22430909163E+03  0.00000000000E+00 0.  1.
         11    1    3    3    0    0 -0.14845491287E+01  0.42656578733E+02 -0.14033314719E+03  0.14668053653E+03  0.00000000000E+00 0. -1.
        -13    1    4    4    0    0 -0.25276890932E+02  0.91637322241E+01 -0.51465405070E+02  0.58065334947E+02  0.00000000000E+00 0. -1.
         13    1    4    4    0    0  0.69494577413E+02 -0.32741213300E+02 -0.12504042819E+03  0.14675350769E+03  0.00000000000E+00 0.  1.
          2    1    1    2  501    0  0.17195237218E+02  0.11825509498E+02  0.54926294605E+01  0.21579801581E+02  0.00000000000E+00 0. -1.
<scales pt_clust_5="13000.00000" pt_clust_6="13000.00000" pt_clust_7="13000.00000" pt_clust_8="13000.00000" pt_clust_9="20.86909"></scales>
<clustering>
<clus scale="   20.869">  1  9  2 -1</clus>
<clus scale="   90.653">  5  6 -1 -1</clus>
<clus scale="   91.024">  7  8 -1 -1</clus>
<clus scale="  107.269">  2  5  1 -1</clus>
<clus scale="   20.869">  1  5  2 -1</clus>
</clustering>
</event>
<event>
 9    1  0.3288491E-005  0.9724215E+02  0.7546771E-02  0.1286366E+00
         21   -1    0    0  501  502  0.00000000000E+00  0.00000000000E+00  0.11035625190E+03  0.11035625190E+03  0.00000000000E+00 0. -1.
          1   -1    0    0  502    0 -0.00000000000E+00 -0.00000000000E+00 -0.21098596007E+03  0.21098596007E+03  0.00000000000E+00 0. -1.
         23    2    1    2    0    0 -0.20827866458E+02  0.12050802319E+02 -0.10271054752E+03  0.13953214332E+03  0.91327655119E+02 0.  0.
         23    2    1    2    0    0  0.21543482903E+02 -0.51823039835E+02 -0.48541283981E+02  0.11742884193E+03  0.91013886600E+02 0.  0.
        -11    1    4    4    0    0 -0.26789426711E+00 -0.74002722560E+02 -0.23972350654E+02  0.77789127194E+02  0.00000000000E+00 0. -1.
         11    1    4    4    0    0  0.21811377170E+02  0.22179682725E+02 -0.24568933327E+02  0.39639714740E+02  0.00000000000E+00 0.  1.
        -13    1    3    3    0    0 -0.42880131701E+02  0.11293805850E+02 -0.10808023809E+03  0.11682291561E+03  0.00000000000E+00 0. -1.
         13    1    3    3    0    0  0.22052265243E+02  0.75699646859E+00  0.53696905789E+01  0.22709227704E+02  0.00000000000E+00 0.  1.
          1    1    1    2  501    0 -0.71561644436E+00  0.39772237516E+02  0.50622123328E+02  0.64381226721E+02  0.00000000000E+00 0. -1.
<scales pt_clust_5="13000.00000" pt_clust_6="13000.00000" pt_clust_7="13000.00000" pt_clust_8="13000.00000" pt_clust_9="39.77867"></scales>
<clustering>
<clus scale="   39.779">  1  9  2 -1</clus>
<clus scale="   91.014">  5  6 -1 -1</clus>
<clus scale="   91.328">  7  8 -1 -1</clus>
<clus scale="   96.948">  1  5  2 -1</clus>
<clus scale="   39.779">  1  5  2 -1</clus>
</clustering>
</event>
<event>
 9    1  0.3288491E-005  0.9477459E+02  0.7546771E-02  0.1292307E+00
         -3   -1    0    0    0  501 -0.00000000000E+00  0.00000000000E+00  0.26997479896E+03  0.26997479896E+03  0.00000000000E+00 0.  1.
         21   -1    0    0  501  502  0.00000000000E+00 -0.00000000000E+00 -0.18339667885E+03  0.18339667885E+03  0.00000000000E+00 0. -1.
         23    2    1    2    0    0  0.22124677185E+01  0.13391886851E+02  0.20088878300E+03  0.22176491592E+03  0.92946958810E+02 0.  0.
         23    2    1    2    0    0 -0.64326260913E+02  0.38647001563E+02 -0.71486824257E+02  0.13995477321E+03  0.94050592384E+02 0.  0.
        -11    1    4    4    0    0 -0.28050584580E+01  0.32719805484E+02  0.12961628290E+02  0.35305209698E+02  0.00000000000E+00 0.  1.
         11    1    4    4    0    0 -0.61521202455E+02  0.59271960782E+01 -0.84448452546E+02  0.10464956351E+03  0.00000000000E+00 0. -1.
        -13    1    3    3    0    0 -0.19292280246E+02  0.40040225393E+02  0.16977962697E+03  0.17550080757E+03  0.00000000000E+00 0.  1.
         13    1    3    3    0    0  0.21504747965E+02 -0.26648338541E+02  0.31109156033E+02  0.46264108347E+02  0.00000000000E+00 0. -1.
         -3    1    1    2    0  502  0.62113793194E+02 -0.52038888414E+02 -0.42823838635E+02  0.91651788677E+02  0.00000000000E+00 0.  1.
<scales pt_clust_5="13000.00000" pt_clust_6="13000.00000" pt_clust_7="13000.00000" pt_clust_8="13000.00000" pt_clust_9="81.03190"></scales>
<clustering>
<clus scale="   81.032">  2  9  1 -1</clus>
<clus scale="   92.947">  7  8 -1 -1</clus>
<clus scale="   93.679">  1  7  2 -1</clus>
<clus scale="   94.051">  5  6 -1 -1</clus>
<clus scale="   81.032">  2  5  1 -1</clus>
</clustering>
</event>
<event>
 9    1  0.3288491E-005  0.1111502E+03  0.7546771E-02  0.1259799E+00
         21   -1    0    0  501  502  0.00000000000E+00  0.00000000000E+00  0.21815970688E+02  0.21815970688E+02  0.00000000000E+00 0. -1.
          2   -1    0    0  502    0 -0.00000000000E+00 -0.00000000000E+00 -0.96711764080E+03  0.96711764080E+03  0.00000000000E+00 0. -1.
         23    2    1    2    0    0  0.97451858518E+01 -0.47845763789E+02 -0.39195946378E+03  0.40467531313E+03  0.88009670201E+02 0.  0.
         23    2    1    2    0    0 -0.25543744904E+02  0.73924301644E+02 -0.53562530337E+03  0.54899396432E+03  0.91556659909E+02 0.  0.
        -11    1    4    4    0    0 -0.54122075806E+02  0.72056782502E+02 -0.36363772371E+03  0.37463818959E+03  0.00000000000E+00 0.  1.
         11    1    4    4    0    0  0.28578330902E+02  0.18675191416E+01 -0.17198757966E+03  0.17435577473E+03  0.00000000000E+00 0. -1.
        -13    1    3    3    0    0  0.16612380817E+02 -0.71332652150E+02 -0.24574102829E+03  0.25642342218E+03  0.00000000000E+00 0.  1.
         13    1    3    3    0    0 -0.68671949656E+01  0.23486888361E+02 -0.14621843549E+03  0.14825189094E+03  0.00000000000E+00 0. -1.
          2    1    1    2  501    0  0.15798559052E+02 -0.26078537855E+02 -0.17716902965E+02  0.35264334042E+02  0.00000000000E+00 0. -1.
<scales pt_clust_5="13000.00000" pt_clust_6="13000.00000" pt_clust_7="13000.00000" pt_clust_8="13000.00000" pt_clust_9="30.49073"></scales>
<clustering>
<clus scale="   30.491">  1  9  2 -1</clus>
<clus scale="   88.010">  7  8 -1 -1</clus>
<clus scale="   91.557">  5  6 -1 -1</clus>
<clus scale="  108.247">  2  7  1 -1</clus>
<clus scale="   30.491">  1  5  2 -1</clus>
</clustering>
</event>
<event>
 9    1  0.3288491E-005  0.1101943E+03  0.7546771E-02  0.1261671E+00
          2   -1    0    0  502    0 -0.00000000000E+00  0.00000000000E+00  0.11857402057E+03  0.11857402057E+03  0.00000000000E+00 0. -1.
         21   -1    0    0  501  502  0.00000000000E+00 -0.00000000000E+00 -0.39438447755E+03  0.39438447755E+03  0.00000000000E+00 0. -1.
         23    2    1    2    0    0 -0.30908494199E+01  0.56252791374E+02  0.47329729006E+02  0.12004582021E+03  0.94852336898E+02 0.  0.
         23    2    1    2    0    0  0.45172894020E+02 -0.48561125978E+02 -0.62807942759E+02  0.12908899235E+03  0.91215990716E+02 0.  0.
        -11    1    3    3    0    0  0.36868745015E+02  0.59496286362E+02  0.33851342614E+02  0.77749764287E+02  0.00000000000E+00 0. -1.
         11    1    3    3    0    0 -0.39959594435E+02 -0.32434949877E+01  0.13478386392E+02  0.42296055926E+02  0.00000000000E+00 0.  1.
        -13    1    4    4    0    0  0.66290499903E+02 -0.12393341834E+02 -0.22853252373E+02  0.71206014094E+02  0.00000000000E+00 0. -1.
         13    1    4    4    0    0 -0.21117605882E+02 -0.36167784144E+02 -0.39954690386E+02  0.57882978258E+02  0.00000000000E+00 0.  1.
          2    1    1    2  501    0 -0.42082044601E+02 -0.76916653962E+01 -0.26033224323E+03  0.26382368555E+03  0.00000000000E+00 0. -1.
<scales pt_clust_5="13000.00000" pt_clust_6="13000.00000" pt_clust_7="13000.00000" pt_clust_8="13000.00000" pt_clust_9="42.77920"></scales>
<clustering>
<clus scale="   42.779">  2  9  1 -1</clus>
<clus scale="   91.216">  7  8 -1 -1</clus>
<clus scale="   94.852">  5  6 -1 -1</clus>
<clus scale="  107.080">  2  7  1 -1</clus>
<clus scale="   42.779">  2  5  1 -1</clus>
</clustering>
</event>
<event>
 9    1  0.3288491E-005  0.1303859E+03  0.7546771E-02  0.1236305E+00
         -2   -1    0    0    0  501 -0.00000000000E+00  0.00000000000E+00  0.27000705090E+03  0.27000705090E+03  0.00000000000E+00 0.  1.
         21   -1    0    0  501  502  0.00000000000E+00 -0.00000000000E+00 -0.64243234018E+02  0.64243234018E+02  0.00000000000E+00 0. -1.
         23    2    1    2    0    0 -0.44661842004E+01 -0.51571681029E+02  0.96554964546E+02  0.14346183960E+03  0.92622098651E+02 0.  0.
         23    2    1    2    0    0  0.27588733738E+02  0.54092977934E+02  0.92034112702E+02  0.16187511073E+03  0.11851618068E+03 0.  0.
        -11    1    3    3    0    0 -0.18050625607E+02 -0.34330691205E+02 -0.54088874490E+01  0.39162194868E+02  0.00000000000E+00 0.  1.
         11    1    3    3    0    0  0.13584441407E+02 -0.17240989824E+02  0.10196385199E+03  0.10429964474E+03  0.00000000000E+00 0. -1.
        -13    1    4    4    0    0  0.39775127055E+02  0.60539781270E+01  0.10346595748E+03  0.11101313319E+03  0.00000000000E+00 0.  1.
         13    1    4    4    0    0 -0.12186393317E+02  0.48038999807E+02 -0.11431844777E+02  0.50861977543E+02  0.00000000000E+00 0. -1.
         -2    1    1    2    0  502 -0.23122549537E+02 -0.25212969047E+01  0.17174739638E+02  0.28913334585E+02  0.00000000000E+00 0.  1.
<scales pt_clust_5="13000.00000" pt_clust_6="13000.00000" pt_clust_7="13000.00000" pt_clust_8="13000.00000" pt_clust_9="23.25961"></scales>
<clustering>
<clus scale="   23.260">  2  9  1 -1</clus>
<clus scale="   92.622">  5  6 -1 -1</clus>
<clus scale="  107.393">  1  5  2 -1</clus>
<clus scale="  118.516">  7  8 -1 -1</clus>
<clus scale="   23.260">  2  5  1 -1</clus>
</clustering>
</event>
<event>
 9    1  0.3288491E-005  0.1906542E+03  0.7546771E-02  0.1173115E+00
         -2   -1    0    0    0  501 -0.00000000000E+00  0.00000000000E+00  0.39871704341E+03  0.39871704341E+03  0.00000000000E+00 0.  1.
         21   -1    0    0  501  502  0.00000000000E+00 -0.00000000000E+00 -0.39389205723E+03  0.39389205723E+03  0.00000000000E+00 0. -1.
         23    2    1    2    0    0 -0.70665805927E+01  0.98022296072E+02  0.23785850326E+03  0.27308615279E+03  0.91329470503E+02 0.  0.
         23    2    1    2    0    0 -0.16548700065E+03 -0.41090459229E+02 -0.27234205756E+03  0.33361669781E+03  0.89752612885E+02 0.  0.
        -13    1    4    4    0    0 -0.84612512631E+02 -0.52749838707E+02 -0.20411545513E+03  0.22716721110E+03  0.00000000000E+00 0.  1.
         13    1    4    4    0    0 -0.80874488017E+02  0.11659379478E+02 -0.68226602438E+02  0.10644948672E+03  0.00000000000E+00 0. -1.
        -13    1    3    3    0    0  0.24687521606E+02  0.63659918803E+02  0.20457207113E+03  0.21566592515E+03  0.00000000000E+00 0.  1.
         13    1    3    3    0    0 -0.31754102198E+02  0.34362377269E+02  0.33286432136E+02  0.57420227641E+02  0.00000000000E+00 0. -1.
         -2    1    1    2    0  502  0.17255358124E+03 -0.56931836843E+02  0.39308540477E+02  0.18590625003E+03  0.00000000000E+00 0.  1.
<scales pt_clust_5="13000.00000" pt_clust_6="13000.00000" pt_clust_7="13000.00000" pt_clust_8="13000.00000" pt_clust_9="168.20680"></scales>
<clustering>
<clus scale="   89.753">  5  6 -1 -1</clus>
<clus scale="   91.329">  7  8 -1 -1</clus>
<clus scale="  134.162">  1  7  2 -1</clus>
<clus scale="  168.207">  2  9  1 -1</clus>
<clus scale="  168.207">  2  5  1 -1</clus>
</clustering>
</event>
<event>
 9    1  0.3288491E-005  0.1013306E+03  0.7546771E-02  0.1280320E+00
         21   -1    0    0  501  502  0.00000000000E+00  0.00000000000E+00  0.57231000095E+03  0.57231000095E+03  0.00000000000E+00 0. -1.
          2   -1    0    0  502    0 -0.00000000000E+00 -0.00000000000E+00 -0.38702785993E+02  0.38702785993E+02  0.00000000000E+00 0. -1.
         23    2    1    2    0    0 -0.20843225149E+02  0.55972551630E+02  0.95492324653E+02  0.14501367459E+03  0.91339012358E+02 0.  0.
         23    2    1    2    0    0  0.24880066552E+02 -0.12577228798E+02  0.15207839470E+03  0.17666137380E+03  0.85464603580E+02 0.  0.
        -11    1    4    4    0    0 -0.21604012266E+02 -0.31594405956E+02  0.50707669306E+02  0.63531154248E+02  0.00000000000E+00 0.  1.
         11    1    4    4    0    0  0.46484078818E+02  0.19017177157E+02  0.10137072539E+03  0.11313021956E+03  0.00000000000E+00 0. -1.
        -13    1    3    3    0    0  0.24976756994E+02 -0.29635109590E+01  0.54083753258E+02  0.59646233357E+02  0.00000000000E+00 0.  1.
         13    1    3    3    0    0 -0.45819982142E+02  0.58936062589E+02  0.41408571395E+02  0.85367441229E+02  0.00000000000E+00 0. -1.
          2    1    1    2  501    0 -0.40368414034E+01 -0.43395322832E+02  0.28603649561E+03  0.28933773855E+03  0.00000000000E+00 0. -1.
<scales pt_clust_5="13000.00000" pt_clust_6="13000.00000" pt_clust_7="13000.00000" pt_clust_8="13000.00000" pt_clust_9="43.58268"></scales>
<clustering>
<clus scale="   43.583">  1  9  2 -1</clus>
<clus scale="   85.465">  5  6 -1 -1</clus>
<clus scale="   91.339">  7  8 -1 -1</clus>
<clus scale="   96.069">  1  5  2 -1</clus>
<clus scale="   43.583">  1  5  2 -1</clus>
</clustering>
</event>
<event>
 9    1  0.3288491E-005  0.1266014E+03  0.7546771E-02  0.1235255E+00
         21   -1    0    0  501  502  0.00000000000E+00  0.00000000000E+00  0.10153061640E+03  0.10153061640E+03  0.00000000000E+00 0.  1.
          2   -1    0    0  502    0 -0.00000000000E+00 -0.00000000000E+00 -0.37712839926E+03  0.37712839926E+03  0.00000000000E+00 0. -1.
         23    2    1    2    0    0  0.56389827236E+02  0.85585303715E+01 -0.15386526594E+03  0.18768203952E+03  0.91087687633E+02 0.  0.
         23    2    1    2    0    0 -0.11391295882E+03 -0.21067124492E+02 -0.15956790735E+03  0.22099917707E+03  0.99793453142E+02 0.  0.
        -11    1    4    4    0    0 -0.12079693223E+03 -0.44173300973E+02 -0.13044450061E+03  0.18319101259E+03  0.00000000000E+00 0.  1.
         11    1    4    4    0    0  0.68839734084E+01  0.23106176481E+02 -0.29123406740E+02  0.37808164484E+02  0.00000000000E+00 0. -1.
        -11    1    3    3    0    0  0.44289067195E+02  0.40438656632E+02 -0.49105610945E+02  0.77512369654E+02  0.00000000000E+00 0. -1.
         11    1    3    3    0    0  0.12100760041E+02 -0.31880126260E+02 -0.10475965500E+03  0.11016966987E+03  0.00000000000E+00 0.  1.
          2    1    1    2  501    0  0.57523131582E+02  0.12508594120E+02  0.37835390430E+02  0.69977799071E+02  0.00000000000E+00 0. -1.
<scales pt_clust_5="13000.00000" pt_clust_6="13000.00000" pt_clust_7="13000.00000" pt_clust_8="13000.00000" pt_clust_9="58.86744"></scales>
<clustering>
<clus scale="   58.867">  1  9  2 -1</clus>
<clus scale="   91.088">  7  8 -1 -1</clus>
<clus scale="   99.793">  5  6 -1 -1</clus>
<clus scale="  119.859">  2  7  1 -1</clus>
<clus scale="   58.867">  1  5  2 -1</clus>
</clustering>
</event>
<event>
 9    1  0.3288491E-005  0.9718176E+02  0.7546771E-02  0.1286561E+00
         21   -1    0    0  501  502  0.00000000000E+00  0.00000000000E+00  0.35806534234E+03  0.35806534234E+03  0.00000000000E+00 0.  1.
          3   -1    0    0  502    0 -0.00000000000E+00 -0.00000000000E+00 -0.47899167253E+02  0.47899167253E+02  0.00000000000E+00 0. -1.
         23    2    1    2    0    0  0.43951004210E+02 -0.24118309656E+02  0.78307554155E+02  0.12926187696E+03  0.89795190103E+02 0.  0.
         23    2    1    2    0    0  0.62161516721E+00  0.31156081909E+02  0.10428281987E+03  0.14138140867E+03  0.90236956697E+02 0.  0.
        -11    1    4    4    0    0 -0.23955971829E+02 -0.20358818509E+02  0.13651130646E+02  0.34274238799E+02  0.00000000000E+00 0. -1.
         11    1    4    4    0    0  0.24577586996E+02  0.51514900418E+02  0.90631689219E+02  0.10710716987E+03  0.00000000000E+00 0.  1.
        -11    1    3    3    0    0 -0.21473627700E+02 -0.16496501694E+01  0.50143454837E+02  0.54572924562E+02  0.00000000000E+00 0.  1.
         11    1    3    3    0    0  0.65424631911E+02 -0.22468659486E+02  0.28164099318E+02  0.74688952397E+02  0.00000000000E+00 0. -1.
          3    1    1    2  501    0 -0.44572619377E+02 -0.70377722533E+01  0.12757580107E+03  0.13532122396E+03  0.00000000000E+00 0. -1.
<scales pt_clust_5="13000.00000" pt_clust_6="13000.00000" pt_clust_7="13000.00000" pt_clust_8="13000.00000" pt_clust_9="45.12481"></scales>
<clustering>
<clus scale="   45.125">  1  9  2 -1</clus>
<clus scale="   89.795">  7  8 -1 -1</clus>
<clus scale="   90.237">  5  6 -1 -1</clus>
<clus scale="   96.772">  2  7  1 -1</clus>
<clus scale="   45.125">  1  5  2 -1</clus>
</clustering>
</event>
<event>
 9    1  0.3288491E-005  0.2315340E+03  0.7546771E-02  0.1125797E+00
         21   -1    0    0  501  502  0.00000000000E+00  0.00000000000E+00  0.14212992861E+04  0.14212992861E+04  0.00000000000E+00 0. -1.
         -4   -1    0    0    0  501 -0.00000000000E+00 -0.00000000000E+00 -0.45155838573E+02  0.45155838573E+02  0.00000000000E+00 0.  1.
         23    2    1    2    0    0 -0.17370505359E+03 -0.12219526307E+03  0.57881144224E+03  0.62326513373E+03  0.91277671417E+02 0.  0.
         23    2    1    2    0    0  0.18985259613E+03  0.93366991037E+02  0.60167569968E+03  0.64476317238E+03  0.94575354108E+02 0.  0.
        -13    1    4    4    0    0  0.12100522153E+03  0.81785458913E+02  0.28227209719E+03  0.31781859886E+03  0.00000000000E+00 0.  1.
         13    1    4    4    0    0  0.68847374602E+02  0.11581532124E+02  0.31940360249E+03  0.32694457352E+03  0.00000000000E+00 0. -1.
        -13    1    3    3    0    0 -0.14433219882E+03 -0.50743541426E+02  0.41006237093E+03  0.43767320990E+03  0.00000000000E+00 0.  1.
         13    1    3    3    0    0 -0.29372854769E+02 -0.71451721645E+02  0.16874907131E+03  0.18559192383E+03  0.00000000000E+00 0. -1.
         -4    1    1    2    0  502 -0.16147542544E+02  0.28828272035E+02  0.19565630558E+03  0.19842681853E+03  0.00000000000E+00 0.  1.
<scales pt_clust_5="13000.00000" pt_clust_6="13000.00000" pt_clust_7="13000.00000" pt_clust_8="13000.00000" pt_clust_9="33.04258"></scales>
<clustering>
<clus scale="   33.043">  1  9  2 -1</clus>
<clus scale="   91.278">  7  8 -1 -1</clus>
<clus scale="   94.575">  5  6 -1 -1</clus>
<clus scale="  230.207">  2  7  1 -1</clus>
<clus scale="   33.043">  1  5  2 -1</clus>
</clustering>
</event>
<event>
 9    1  0.3288491E-005  0.9231119E+02  0.7546771E-02  0.1298986E+00
         21   -1    0    0  501  502  0.00000000000E+00  0.00000000000E+00  0.14838622355E+03  0.14838622355E+03  0.00000000000E+00 0. -1.
         -1   -1    0    0    0  501 -0.00000000000E+00 -0.00000000000E+00 -0.13655969518E+03  0.13655969518E+03  0.00000000000E+00 0.  1.
         23    2    1    2    0    0 -0.75233750890E+01 -0.76793683021E+01 -0.59799141912E+02  0.10677933349E+03  0.87808398325E+02 0.  0.
         23    2    1    2    0    0  0.30977858666E+02  0.93334838075E+01 -0.66412407832E+01  0.96444138729E+02  0.90612494550E+02 0.  0.
        -11    1    3    3    0    0  0.22736792558E+01  0.28381989312E+02  0.78150611046E+01  0.29525956627E+02  0.00000000000E+00 0. -1.
         11    1    3    3    0    0 -0.97970543448E+01 -0.36061357614E+02 -0.67614203017E+02  0.77253376861E+02  0.00000000000E+00 0.  1.
        -13    1    4    4    0    0  0.31433248369E+02  0.46882536328E+02  0.61375965048E+01  0.56777560765E+02  0.00000000000E+00 0. -1.
         13    1    4    4    0    0 -0.45538970361E+00 -0.37549052520E+02 -0.12778837288E+02  0.39666577964E+02  0.00000000000E+00 0.  1.
         -1    1    1    2    0  502 -0.23454483577E+02 -0.16541155054E+01  0.78266911060E+02  0.81722446518E+02  0.00000000000E+00 0.  1.
<scales pt_clust_5="13000.00000" pt_clust_6="13000.00000" pt_clust_7="13000.00000" pt_clust_8="13000.00000" pt_clust_9="23.51274"></scales>
<clustering>
<clus scale="   23.513">  1  9  2 -1</clus>
<clus scale="   87.808">  5  6 -1 -1</clus>
<clus scale="   89.560">  2  5  1 -1</clus>
<clus scale="   90.612">  7  8 -1 -1</clus>
<clus scale="   23.513">  1  5  2 -1</clus>
</clustering>
</event>
<event>
 9    1  0.3288491E-005  0.1221423E+03  0.7546771E-02  0.1240114E+00
         21   -1    0    0  501  502  0.00000000000E+00  0.00000000000E+00  0.51241236858E+03  0.51241236858E+03  0.00000000000E+00 0. -1.
         -1   -1    0    0    0  501 -0.00000000000E+00 -0.00000000000E+00 -0.61292437442E+02  0.61292437442E+02  0.00000000000E+00 0.  1.
         23    2    1    2    0    0 -0.24151996679E+02  0.58269743853E+02  0.71193067732E+02  0.13195258308E+03  0.91456816569E+02 0.  0.
         23    2    1    2    0    0  0.77836808811E+02 -0.10011204998E+03  0.26530343182E+03  0.30844292579E+03  0.93113566036E+02 0.  0.
        -11    1    4    4    0    0  0.38736205323E+02 -0.10460331816E+03  0.22978451864E+03  0.25542762728E+03  0.00000000000E+00 0. -1.
         11    1    4    4    0    0  0.39100603488E+02  0.44912681753E+01  0.35518913183E+02  0.53015298516E+02  0.00000000000E+00 0.  1.
        -13    1    3    3    0    0 -0.16114232838E+02  0.18068949005E+02  0.85243733864E+02  0.88615176923E+02  0.00000000000E+00 0. -1.
         13    1    3    3    0    0 -0.80377638414E+01  0.40200794848E+02 -0.14050666131E+02  0.43337406160E+02  0.00000000000E+00 0.  1.
         -1    1    1    2    0  502 -0.53684812132E+02  0.41842306132E+02  0.11462343159E+03  0.13330929714E+03  0.00000000000E+00 0.  1.
<scales pt_clust_5="13000.00000" pt_clust_6="13000.00000" pt_clust_7="13000.00000" pt_clust_8="13000.00000" pt_clust_9="68.06495"></scales>
<clustering>
<clus scale="   68.065">  1  9  2 -1</clus>
<clus scale="   91.457">  7  8 -1 -1</clus>
<clus scale="   93.114">  5  6 -1 -1</clus>
<clus scale="  120.884">  2  7  1 -1</clus>
<clus scale="   68.065">  1  5  2 -1</clus>
</clustering>
</event>
<event>
 9    1  0.3288491E-005  0.1145728E+03  0.7546771E-02  0.1252911E+00
          1   -1    0    0  502    0 -0.00000000000E+00  0.00000000000E+00  0.24107284933E+03  0.24107284933E+03  0.00000000000E+00 0. -1.
         21   -1    0    0  501  502  0.00000000000E+00 -0.00000000000E+00 -0.37728718330E+03  0.37728718330E+03  0.00000000000E+00 0. -1.
         23    2    1    2    0    0  0.60903162530E+02  0.77462092952E+01  0.15097126740E+03  0.18618152535E+03  0.90011320606E+02 0.  0.
         23    2    1    2    0    0 -0.94761624493E+02 -0.10094292704E+03 -0.47370236584E+02  0.17267237473E+03  0.91665531600E+02 0.  0.
        -11    1    4    4    0    0 -0.52675484628E+02 -0.10472201196E+03 -0.12502849702E+02  0.11788862422E+03  0.00000000000E+00 0. -1.
         11    1    4    4    0    0 -0.42086139865E+02  0.37790849187E+01 -0.34867386882E+02  0.54783750506E+02  0.00000000000E+00 0.  1.
        -13    1    3    3    0    0 -0.18512370547E+02  0.19184121923E+02  0.23379975447E+02  0.35459295666E+02  0.00000000000E+00 0.  1.
         13    1    3    3    0    0  0.79415533077E+02 -0.11437912628E+02  0.12759129195E+03  0.15072222969E+03  0.00000000000E+00 0. -1.
          1    1    1    2  501    0  0.33858461963E+02  0.93196717749E+02 -0.23981536478E+03  0.25950613255E+03  0.00000000000E+00 0. -1.
<scales pt_clust_5="13000.00000" pt_clust_6="13000.00000" pt_clust_7="13000.00000" pt_clust_8="13000.00000" pt_clust_9="99.15656"></scales>
<clustering>
<clus scale="   90.011">  7  8 -1 -1</clus>
<clus scale="   91.666">  5  6 -1 -1</clus>
<clus scale="   99.157">  2  9  1 -1</clus>
<clus scale="  113.254">  1  7  2 -1</clus>
<clus scale="   99.157">  2  5  1 -1</clus>
</clustering>
</event>
<event>
 9    1  0.3288491E-005  0.1670266E+03  0.7546771E-02  0.1181058E+00
         21   -1    0    0  501  502  0.00000000000E+00  0.00000000000E+00  0.37042372669E+03  0.37042372669E+03  0.00000000000E+00 0. -1.
          4   -1    0    0  502    0 -0.00000000000E+00 -0.00000000000E+00 -0.30177819423E+03  0.30177819423E+03  0.00000000000E+00 0.  1.
         23    2    1    2    0    0  0.43004040524E+02 -0.13109073842E+03 -0.23654297265E+03  0.28844108808E+03  0.90617626249E+02 0.  0.
         23    2    1    2    0    0 -0.50641796975E+02  0.15203273695E+03  0.18243556615E+03  0.25900031566E+03  0.90110393451E+02 0.  0.
        -11    1    4    4    0    0  0.21999103297E+02  0.70423965627E+02  0.61791399792E+02  0.96237583972E+02  0.00000000000E+00 0.  1.
         11    1    4    4    0    0 -0.72640900271E+02  0.81608771328E+02  0.12064416636E+03  0.16276273169E+03  0.00000000000E+00 0. -1.
        -13    1    3    3    0    0  0.43312712337E+02 -0.20255946608E+02 -0.11166206619E+03  0.12146897320E+03  0.00000000000E+00 0.  1.
         13    1    3    3    0    0 -0.30867181225E+00 -0.11083479181E+03 -0.12488090645E+03  0.16697211489E+03  0.00000000000E+00 0. -1.
          4    1    1    2  501    0  0.76377564504E+01 -0.20941998537E+02  0.12275293895E+03  0.12476051718E+03  0.00000000000E+00 0.  1.
<scales pt_clust_5="13000.00000" pt_clust_6="13000.00000" pt_clust_7="13000.00000" pt_clust_8="13000.00000" pt_clust_9="22.29131"></scales>
<clustering>
<clus scale="   22.291">  1  9  2 -1</clus>
<clus scale="   90.110">  5  6 -1 -1</clus>
<clus scale="   90.618">  7  8 -1 -1</clus>
<clus scale="  166.752">  1  5  2 -1</clus>
<clus scale="   22.291">  1  5  2 -1</clus>
</clustering>
</event>
<event>
 9    1  0.3288491E-005  0.9935170E+02  0.7546771E-02  0.1282359E+00
         21   -1    0    0  501  502  0.00000000000E+00  0.00000000000E+00  0.12602191233E+03  0.12602191233E+03  0.00000000000E+00 0.  1.
         -3   -1    0    0    0  501 -0.00000000000E+00 -0.00000000000E+00 -0.17887358336E+03  0.17887358336E+03  0.00000000000E+00 0.  1.
         23    2    1    2    0    0 -0.36335592619E+02 -0.35037454434E+02 -0.90027270480E+02  0.13848848791E+03  0.92337713577E+02 0.  0.
         23    2    1    2    0    0  0.94635698215E+01 -0.20560632704E+02  0.45364306801E+02  0.10411489086E+03  0.90937843588E+02 0.  0.
        -11    1    4    4    0    0 -0.21926345783E+02  0.90927696258E+01  0.54971520118E+02  0.59877467573E+02  0.00000000000E+00 0.  1.
         11    1    4    4    0    0  0.31389915605E+02 -0.29653402330E+02 -0.96072133171E+01  0.44237423287E+02  0.00000000000E+00 0. -1.
        -13    1    3    3    0    0 -0.56489539065E+02  0.72862018646E+01 -0.60470056276E+02  0.83070960434E+02  0.00000000000E+00 0. -1.
         13    1    3    3    0    0  0.20153946446E+02 -0.42323656299E+02 -0.29557214204E+02  0.55417527474E+02  0.00000000000E+00 0.  1.
         -3    1    1    2    0  502  0.26872022798E+02  0.55598087138E+02 -0.81887073509E+01  0.62292116923E+02  0.00000000000E+00 0.  1.
<scales pt_clust_5="13000.00000" pt_clust_6="13000.00000" pt_clust_7="13000.00000" pt_clust_8="13000.00000" pt_clust_9="61.75154"></scales>
<clustering>
<clus scale="   61.752">  1  9  2 -1</clus>
<clus scale="   90.938">  5  6 -1 -1</clus>
<clus scale="   92.338">  7  8 -1 -1</clus>
<clus scale="   98.052">  1  5  2 -1</clus>
<clus scale="   61.752">  1  5  2 -1</clus>
</clustering>
</event>
<event>
 9    1  0.3288491E-005  0.1715043E+03  0.7546771E-02  0.1176891E+00
         21   -1    0    0  501  502  0.00000000000E+00  0.00000000000E+00  0.13802883361E+03  0.13802883361E+03  0.00000000000E+00 0. -1.
         -1   -1    0    0    0  501 -0.00000000000E+00 -0.00000000000E+00 -0.39658715858E+03  0.39658715858E+03  0.00000000000E+00 0.  1.
         23    2    1    2    0    0 -0.11136716378E+03 -0.98577305926E+02 -0.18145210348E+03  0.24988339344E+03  0.86004151337E+02 0.  0.
         23    2    1    2    0    0  0.13097162873E+03  0.62492628371E+02 -0.13210269556E+03  0.21609550119E+03  0.90483409119E+02 0.  0.
        -11    1    4    4    0    0  0.93335720852E+02  0.85754675444E+02 -0.96430293290E+02  0.15926149130E+03  0.00000000000E+00 0. -1.
         11    1    4    4    0    0  0.37635907877E+02 -0.23262047074E+02 -0.35672402275E+02  0.56834009887E+02  0.00000000000E+00 0.  1.
        -11    1    3    3    0    0 -0.95258133351E+02 -0.81443221442E+02 -0.18756611254E+03  0.22558403503E+03  0.00000000000E+00 0.  1.
         11    1    3    3    0    0 -0.16109030426E+02 -0.17134084484E+02  0.61140090543E+01  0.24299358409E+02  0.00000000000E+00 0. -1.
         -1    1    1    2    0  502 -0.19604464953E+02  0.36084677556E+02  0.54996474081E+02  0.68637097562E+02  0.00000000000E+00 0.  1.
<scales pt_clust_5="13000.00000" pt_clust_6="13000.00000" pt_clust_7="13000.00000" pt_clust_8="13000.00000" pt_clust_9="41.06628"></scales>
<clustering>
<clus scale="   41.066">  1  9  2 -1</clus>
<clus scale="   86.004">  7  8 -1 -1</clus>
<clus scale="   90.483">  5  6 -1 -1</clus>
<clus scale="  169.184">  2  7  1 -1</clus>
<clus scale="   41.066">  1  5  2 -1</clus>
</clustering>
</event>
<event>
 9    1  0.3288491E-005  0.1084000E+03  0.7546771E-02  0.1289811E+00
         21   -1    0    0  501  502  0.00000000000E+00  0.00000000000E+00  0.18992975424E+03  0.18992975424E+03  0.00000000000E+00 0. -1.
          1   -1    0    0  502    0 -0.00000000000E+00 -0.00000000000E+00 -0.15688956009E+03  0.15688956009E+03  0.00000000000E+00 0. -1.
         23    2    1    2    0    0  0.27036479807E+02 -0.69026155404E+01 -0.85766391775E+02  0.14023881126E+03  0.10738916558E+03 0.  0.
         23    2    1    2    0    0  0.48606316202E+01 -0.26103754410E+02 -0.99172026363E+01  0.69917926210E+02  0.63915051149E+02 0.  0.
        -11    1    4    4    0    0  0.31815816594E+02 -0.66523752834E+01 -0.15833005898E+02  0.36155004608E+02  0.00000000000E+00 0.  1.
         11    1    4    4    0    0 -0.26955184974E+02 -0.19451379126E+02  0.59158032615E+01  0.33762921602E+02  0.00000000000E+00 0. -1.
        -13    1    3    3    0    0  0.23888578679E+02  0.37546003913E+02 -0.10448969010E+01  0.44513575577E+02  0.00000000000E+00 0.  1.
         13    1    3    3    0    0  0.31479011276E+01 -0.44448619453E+02 -0.84721494874E+02  0.95725235683E+02  0.00000000000E+00 0. -1.
          1    1    1    2  501    0 -0.31897111427E+02  0.33006369950E+02  0.12872378855E+03  0.13666257686E+03  0.00000000000E+00 0. -1.
<scales pt_clust_5="13000.00000" pt_clust_6="13000.00000" pt_clust_7="13000.00000" pt_clust_8="13000.00000" pt_clust_9="45.90039"></scales>
<clustering>
<clus scale="   45.900">  1  9  2 -1</clus>
<clus scale="   63.915">  5  6 -1 -1</clus>
<clus scale="   65.599">  1  5  2 -1</clus>
<clus scale="  107.389">  7  8 -1 -1</clus>
<clus scale="   45.900">  1  5  2 -1</clus>
</clustering>
</event>
<event>
 9    1  0.3288491E-005  0.1410122E+03  0.7546771E-02  0.1212294E+00
          2   -1    0    0  502    0 -0.00000000000E+00  0.00000000000E+00  0.14311670974E+03  0.14311670974E+03  0.00000000000E+00 0. -1.
         21   -1    0    0  501  502  0.00000000000E+00 -0.00000000000E+00 -0.38514537905E+03  0.38514537905E+03  0.00000000000E+00 0.  1.
         23    2    1    2    0    0 -0.35157161113E+02 -0.10255575359E+03  0.84462602581E+02  0.16551255546E+03  0.92232132196E+02 0.  0.
         23    2    1    2    0    0  0.46136536344E+02  0.82389363557E+02 -0.30200063548E+03  0.32917839633E+03  0.90760374441E+02 0.  0.
        -11    1    3    3    0    0 -0.30001426726E+02 -0.37735708663E+02 -0.11531159652E+02  0.49568507712E+02  0.00000000000E+00 0.  1.
         11    1    3    3    0    0 -0.51557343871E+01 -0.64820044923E+02  0.95993762233E+02  0.11594404775E+03  0.00000000000E+00 0. -1.
        -13    1    4    4    0    0 -0.72217682646E+01  0.75261555272E+02 -0.20057699591E+03  0.21435388246E+03  0.00000000000E+00 0.  1.
         13    1    4    4    0    0  0.53358304609E+02  0.71278082850E+01 -0.10142363957E+03  0.11482451387E+03  0.00000000000E+00 0. -1.
          2    1    1    2  501    0 -0.10979375231E+02  0.20166390029E+02 -0.24490636422E+02  0.33571137002E+02  0.00000000000E+00 0. -1.
<scales pt_clust_5="13000.00000" pt_clust_6="13000.00000" pt_clust_7="13000.00000" pt_clust_8="13000.00000" pt_clust_9="22.96149"></scales>
<clustering>
<clus scale="   22.961">  2  9  1 -1</clus>
<clus scale="   90.760">  7  8 -1 -1</clus>
<clus scale="   92.232">  5  6 -1 -1</clus>
<clus scale="  140.054">  2  7  1 -1</clus>
<clus scale="   22.961">  2  5  1 -1</clus>
</clustering>
</event>
<event>
 9    1  0.3288491E-005  0.9372865E+02  0.7546771E-02  0.1294822E+00
         -3   -1    0    0    0  501 -0.00000000000E+00  0.00000000000E+00  0.16265456346E+03  0.16265456346E+03  0.00000000000E+00 0.  1.
         21   -1    0    0  501  502  0.00000000000E+00 -0.00000000000E+00 -0.43724102376E+03  0.43724102376E+03  0.00000000000E+00 0. -1.
         23    2    1    2    0    0  0.15109171221E+02  0.45185861126E+01  0.13446763383E+03  0.16393648454E+03  0.92438745874E+02 0.  0.
         23    2    1    2    0    0  0.58228816540E+01 -0.44839551767E+02 -0.23487452527E+03  0.25595228804E+03  0.91110042157E+02 0.  0.
        -11    1    3    3    0    0  0.47853935708E+02  0.50138638140E+01  0.11767827516E+03  0.12713502443E+03  0.00000000000E+00 0.  1.
         11    1    3    3    0    0 -0.32744764487E+02 -0.49527770140E+00  0.16789358677E+02  0.36801460109E+02  0.00000000000E+00 0. -1.
        -11    1    4    4    0    0  0.18555420309E+02 -0.68296924674E+02 -0.19919872383E+03  0.21139750500E+03  0.00000000000E+00 0. -1.
         11    1    4    4    0    0 -0.12732538655E+02  0.23457372906E+02 -0.35675801433E+02  0.44554783045E+02  0.00000000000E+00 0.  1.
         -3    1    1    2    0  502 -0.20932052875E+02  0.40320965655E+02 -0.17417956886E+03  0.18000681464E+03  0.00000000000E+00 0.  1.
<scales pt_clust_5="13000.00000" pt_clust_6="13000.00000" pt_clust_7="13000.00000" pt_clust_8="13000.00000" pt_clust_9="45.43051"></scales>
<clustering>
<clus scale="   45.431">  2  9  1 -1</clus>
<clus scale="   91.110">  7  8 -1 -1</clus>
<clus scale="   92.418">  2  7  1 -1</clus>
<clus scale="   92.439">  5  6 -1 -1</clus>
<clus scale="   45.431">  2  5  1 -1</clus>
</clustering>
</event>
<event>
 9    1  0.3288491E-005  0.1242387E+03  0.7546771E-02  0.1236664E+00
         21   -1    0    0  501  502  0.00000000000E+00  0.00000000000E+00  0.14923354771E+03  0.14923354771E+03  0.00000000000E+00 0.  1.
          2   -1    0    0  502    0 -0.00000000000E+00 -0.00000000000E+00 -0.28320962738E+03  0.28320962738E+03  0.00000000000E+00 0. -1.
         23    2    1    2    0    0 -0.50750911346E+02 -0.61523129380E+02 -0.20613515647E+03  0.23953118706E+03  0.92318667614E+02 0.  0.
         23    2    1    2    0    0  0.45255005228E+02  0.92069303855E+02  0.29638886375E+02  0.14026941636E+03  0.90952038839E+02 0.  0.
        -13    1    3    3    0    0 -0.49870288203E+01 -0.71491757243E+02 -0.15131007423E+03  0.16742365536E+03  0.00000000000E+00 0. -1.
         13    1    3    3    0    0 -0.45763882526E+02  0.99686278633E+01 -0.54825082239E+02  0.72107531700E+02  0.00000000000E+00 0.  1.
        -13    1    4    4    0    0  0.42445861219E+02 -0.22546225180E+01  0.54571592702E+01  0.42854580206E+02  0.00000000000E+00 0. -1.
         13    1    4    4    0    0  0.28091440085E+01  0.94323926373E+02  0.24181727105E+02  0.97414836150E+02  0.00000000000E+00 0.  1.
          2    1    1    2  501    0  0.54959061185E+01 -0.30546174475E+02  0.42520190422E+02  0.52642571675E+02  0.00000000000E+00 0. -1.
<scales pt_clust_5="13000.00000" pt_clust_6="13000.00000" pt_clust_7="13000.00000" pt_clust_8="13000.00000" pt_clust_9="31.03665"></scales>
<clustering>
<clus scale="   31.037">  1  9  2 -1</clus>
<clus scale="   90.952">  7  8 -1 -1</clus>
<clus scale="   92.319">  5  6 -1 -1</clus>
<clus scale="  123.227">  1  7  2 -1</clus>
<clus scale="   31.037">  1  5  2 -1</clus>
</clustering>
</event>
<event>
 9    1  0.3288491E-005  0.1529606E+03  0.7546771E-02  0.1197024E+00
         -2   -1    0    0    0  501 -0.00000000000E+00  0.00000000000E+00  0.16319786557E+03  0.16319786557E+03  0.00000000000E+00 0.  1.
         21   -1    0    0  501  502  0.00000000000E+00 -0.00000000000E+00 -0.18285870515E+03  0.18285870515E+03  0.00000000000E+00 0.  1.
         23    2    1    2    0    0  0.13125099753E+03  0.29754871560E+02  0.19225394087E+02  0.16210694987E+03  0.88299890619E+02 0.  0.
         23    2    1    2    0    0 -0.11297382510E+03  0.85598279737E+00 -0.34954593912E+02  0.14808128904E+03  0.89120293214E+02 0.  0.
        -13    1    4    4    0    0 -0.95817789923E+02  0.33089436941E+02 -0.61211822312E+01  0.10155505194E+03  0.00000000000E+00 0.  1.
         13    1    4    4    0    0 -0.17156035178E+02 -0.32233454144E+02 -0.28833411681E+02  0.46526237095E+02  0.00000000000E+00 0. -1.
        -13    1    3    3    0    0  0.76630132263E+02  0.30227127822E+02 -0.30889697322E+02  0.87977439310E+02  0.00000000000E+00 0. -1.
         13    1    3    3    0    0  0.54620865267E+02 -0.47225626174E+00  0.50115091409E+02  0.74129510557E+02  0.00000000000E+00 0.  1.
         -2    1    1    2    0  502 -0.18277172429E+02 -0.30610854358E+02 -0.39316397547E+01  0.35868331821E+02  0.00000000000E+00 0.  1.
<scales pt_clust_5="13000.00000" pt_clust_6="13000.00000" pt_clust_7="13000.00000" pt_clust_8="13000.00000" pt_clust_9="35.65220"></scales>
<clustering>
<clus scale="   35.652">  2  9  1 -1</clus>
<clus scale="   88.300">  7  8 -1 -1</clus>
<clus scale="   89.120">  5  6 -1 -1</clus>
<clus scale="  152.484">  1  7  2 -1</clus>
<clus scale="   35.652">  2  5  1 -1</clus>
</clustering>
</event>
<event>
 9    1  0.3288491E-005  0.1036520E+03  0.7546771E-02  0.1274201E+00
         21   -1    0    0  501  502  0.00000000000E+00  0.00000000000E+00  0.20030179030E+03  0.20030179030E+03  0.00000000000E+00 0. -1.
          4   -1    0    0  502    0 -0.00000000000E+00 -0.00000000000E+00 -0.39288776079E+03  0.39288776079E+03  0.00000000000E+00 0. -1.
         23    2    1    2    0    0 -0.44597722278E+02  0.14458739425E+02 -0.27102942264E+03  0.28887998989E+03  0.88298859831E+02 0.  0.
         23    2    1    2    0    0  0.20446718801E+02 -0.86551359131E+02 -0.64101976823E+02  0.14275518612E+03  0.91437266226E+02 0.  0.
        -11    1    3    3    0    0 -0.62173403972E+02  0.35990427607E+02 -0.18432518222E+03  0.19782976480E+03  0.00000000000E+00 0. -1.
         11    1    3    3    0    0  0.17575681694E+02 -0.21531688182E+02 -0.86704240416E+02  0.91050225090E+02  0.00000000000E+00 0.  1.
        -11    1    4    4    0    0  0.12024381028E+01 -0.36356664173E+02  0.21069357905E+02  0.42037729835E+02  0.00000000000E+00 0.  1.
         11    1    4    4    0    0  0.19244280698E+02 -0.50194694958E+02 -0.85171334728E+02  0.10071745629E+03  0.00000000000E+00 0. -1.
          4    1    1    2  501    0  0.24151003477E+02  0.72092619706E+02  0.14254542897E+03  0.16155437508E+03  0.00000000000E+00 0. -1.
<scales pt_clust_5="13000.00000" pt_clust_6="13000.00000" pt_clust_7="13000.00000" pt_clust_8="13000.00000" pt_clust_9="76.03037"></scales>
<clustering>
<clus scale="   76.030">  1  9  2 -1</clus>
<clus scale="   88.299">  5  6 -1 -1</clus>
<clus scale="   91.437">  7  8 -1 -1</clus>
<clus scale="  100.894">  2  5  1 -1</clus>
<clus scale="   76.030">  1  5  2 -1</clus>
</clustering>
</event>
<event>
 9    1  0.3288491E-005  0.1024854E+03  0.7546771E-02  0.1276425E+00
         21   -1    0    0  501  502  0.00000000000E+00  0.00000000000E+00  0.69935039782E+02  0.69935039782E+02  0.00000000000E+00 0.  1.
          1   -1    0    0  502    0 -0.00000000000E+00 -0.00000000000E+00 -0.42542108119E+03  0.42542108119E+03  0.00000000000E+00 0. -1.
         23    2    1    2    0    0 -0.23455472699E+00 -0.45410220219E+02 -0.35451339006E+03  0.36913581809E+03  0.92300408189E+02 0.  0.
         23    2    1    2    0    0 -0.24114354707E+02  0.38126370534E+02 -0.53978292145E+01  0.10042289882E+03  0.89557243225E+02 0.  0.
        -11    1    3    3    0    0  0.10268027528E+02 -0.66355218398E+02 -0.32277867346E+03  0.32968851881E+03  0.00000000000E+00 0. -1.
         11    1    3    3    0    0 -0.10502582255E+02  0.20944998179E+02 -0.31734716603E+02  0.39447299282E+02  0.00000000000E+00 0.  1.
        -13    1    4    4    0    0 -0.91369052702E+01  0.61478854992E+02 -0.24426211319E+02  0.66781527749E+02  0.00000000000E+00 0.  1.
         13    1    4    4    0    0 -0.14977449436E+02 -0.23352484458E+02  0.19028382104E+02  0.33641371070E+02  0.00000000000E+00 0. -1.
          1    1    1    2  501    0  0.24348909434E+02  0.72838496852E+01  0.44251778694E+01  0.25797404056E+02  0.00000000000E+00 0. -1.
<scales pt_clust_5="13000.00000" pt_clust_6="13000.00000" pt_clust_7="13000.00000" pt_clust_8="13000.00000" pt_clust_9="25.41503"></scales>
<clustering>
<clus scale="   25.415">  1  9  2 -1</clus>
<clus scale="   89.557">  7  8 -1 -1</clus>
<clus scale="   92.300">  5  6 -1 -1</clus>
<clus scale="  100.022">  1  7  2 -1</clus>
<clus scale="   25.415">  1  5  2 -1</clus>
</clustering>
</event>
<event>
 9    1  0.3288491E-005  0.1112796E+03  0.7546771E-02  0.1260912E+00
         -2   -1    0    0    0  501 -0.00000000000E+00  0.00000000000E+00  0.83976178091E+03  0.83976178091E+03  0.00000000000E+00 0.  1.
         21   -1    0    0  501  502  0.00000000000E+00 -0.00000000000E+00 -0.23148285341E+02  0.23148285341E+02  0.00000000000E+00 0.  1.
         23    2    1    2    0    0 -0.46703238528E+02  0.45750117468E+02  0.53558618306E+03  0.54719165773E+03  0.91059788436E+02 0.  0.
         23    2    1    2    0    0  0.87772778496E+01 -0.31020935091E+02  0.21106131545E+03  0.23478282888E+03  0.97656330248E+02 0.  0.
        -11    1    4    4    0    0  0.26411760335E+02  0.28097786443E+02  0.56907609093E+02  0.68742582579E+02  0.00000000000E+00 0. -1.
         11    1    4    4    0    0 -0.17634482485E+02 -0.59118721534E+02  0.15415370635E+03  0.16604024630E+03  0.00000000000E+00 0.  1.
        -11    1    3    3    0    0 -0.49395186412E+02 -0.13225086455E+02  0.29963044174E+03  0.30396247954E+03  0.00000000000E+00 0.  1.
         11    1    3    3    0    0  0.26919478836E+01  0.58975203922E+02  0.23595574132E+03  0.24322917819E+03  0.00000000000E+00 0. -1.
         -2    1    1    2    0  502  0.37925960679E+02 -0.14729182377E+02  0.69965997072E+02  0.80935579650E+02  0.00000000000E+00 0.  1.
<scales pt_clust_5="13000.00000" pt_clust_6="13000.00000" pt_clust_7="13000.00000" pt_clust_8="13000.00000" pt_clust_9="40.68571"></scales>
<clustering>
<clus scale="   40.686">  2  9  1 -1</clus>
<clus scale="   91.060">  7  8 -1 -1</clus>
<clus scale="   97.656">  5  6 -1 -1</clus>
<clus scale="  105.538">  1  7  2 -1</clus>
<clus scale="   40.686">  2  5  1 -1</clus>
</clustering>
</event>
<event>
 9    1  0.3288491E-005  0.1480701E+03  0.7546771E-02  0.1203075E+00
         -3   -1    0    0    0  501 -0.00000000000E+00  0.00000000000E+00  0.11483390241E+03  0.11483390241E+03  0.00000000000E+00 0.  1.
         21   -1    0    0  501  502  0.00000000000E+00 -0.00000000000E+00 -0.26413509175E+03  0.26413509175E+03  0.00000000000E+00 0. -1.
         23    2    1    2    0    0 -0.90029869481E+02  0.85979737016E+02 -0.15346511840E+02  0.15510196149E+03  0.91231630793E+02 0.  0.
         23    2    1    2    0    0  0.93969244591E+02 -0.52008101360E+02 -0.84398009615E+02  0.16365528931E+03  0.90138605251E+02 0.  0.
        -13    1    4    4    0    0  0.52516811553E+02 -0.56748195282E+02 -0.93114700421E+02  0.12103189909E+03  0.00000000000E+00 0. -1.
         13    1    4    4    0    0  0.41452433038E+02  0.47400939225E+01  0.87166908056E+01  0.42623390219E+02  0.00000000000E+00 0.  1.
        -13    1    3    3    0    0 -0.55999138732E+02  0.94331936088E+02 -0.34716766557E+02  0.11506377182E+03  0.00000000000E+00 0.  1.
         13    1    3    3    0    0 -0.34030730748E+02 -0.83521990723E+01  0.19370254716E+02  0.40038189674E+02  0.00000000000E+00 0. -1.
         -3    1    1    2    0  502 -0.39393751107E+01 -0.33971635656E+02 -0.49556667885E+02  0.60211743350E+02  0.00000000000E+00 0.  1.
<scales pt_clust_5="13000.00000" pt_clust_6="13000.00000" pt_clust_7="13000.00000" pt_clust_8="13000.00000" pt_clust_9="34.19928"></scales>
<clustering>
<clus scale="   34.199">  2  9  1 -1</clus>
<clus scale="   90.139">  5  6 -1 -1</clus>
<clus scale="   91.232">  7  8 -1 -1</clus>
<clus scale="  147.399">  2  5  1 -1</clus>
<clus scale="   34.199">  2  5  1 -1</clus>
</clustering>
</event>
<event>
 9    1  0.3288491E-005  0.9657138E+02  0.7546771E-02  0.1288969E+00
          1   -1    0    0  502    0 -0.00000000000E+00  0.00000000000E+00  0.53523252732E+03  0.53523252732E+03  0.00000000000E+00 0. -1.
         21   -1    0    0  501  502  0.00000000000E+00 -0.00000000000E+00 -0.28101107463E+02  0.28101107463E+02  0.00000000000E+00 0.  1.
         23    2    1    2    0    0 -0.25246263483E+02 -0.10832736309E+02  0.28371339320E+03  0.29859846983E+03  0.88955239907E+02 0.  0.
         23    2    1    2    0    0  0.12582760230E+02  0.46952649244E+02  0.16940394934E+03  0.19853446274E+03  0.91407645836E+02 0.  0.
        -13    1    4    4    0    0 -0.34316650028E+02  0.28400159958E+02  0.40844717774E+02  0.60435854630E+02  0.00000000000E+00 0.  1.
         13    1    4    4    0    0  0.46899410258E+02  0.18552489286E+02  0.12855923156E+03  0.13809860811E+03  0.00000000000E+00 0. -1.
        -13    1    3    3    0    0 -0.34673303688E+02  0.33108344053E+02  0.15662892470E+03  0.16380177193E+03  0.00000000000E+00 0.  1.
         13    1    3    3    0    0  0.94270402051E+01 -0.43941080363E+02  0.12708446850E+03  0.13479669790E+03  0.00000000000E+00 0. -1.
          1    1    1    2  501    0  0.12663503253E+02 -0.36119912935E+02  0.54014077310E+02  0.66200702207E+02  0.00000000000E+00 0. -1.
<scales pt_clust_5="13000.00000" pt_clust_6="13000.00000" pt_clust_7="13000.00000" pt_clust_8="13000.00000" pt_clust_9="38.27548"></scales>
<clustering>
<clus scale="   38.275">  2  9  1 -1</clus>
<clus scale="   88.955">  7  8 -1 -1</clus>
<clus scale="   91.408">  5  6 -1 -1</clus>
<clus scale="   94.253">  1  7  2 -1</clus>
<clus scale="   38.275">  2  5  1 -1</clus>
</clustering>
</event>
<event>
 9    1  0.3288491E-005  0.1117907E+03  0.7546771E-02  0.1257832E+00
          2   -1    0    0  502    0 -0.00000000000E+00  0.00000000000E+00  0.45522583281E+03  0.45522583281E+03  0.00000000000E+00 0. -1.
         21   -1    0    0  501  502  0.00000000000E+00 -0.00000000000E+00 -0.47415787586E+02  0.47415787586E+02  0.00000000000E+00 0. -1.
         23    2    1    2    0    0  0.79557347976E+01 -0.63578365601E+02  0.23758551750E+03  0.26247123089E+03  0.91316847467E+02 0.  0.
         23    2    1    2    0    0  0.28716327159E+02  0.59716135763E+02  0.16826743672E+03  0.20324360853E+03  0.92754459910E+02 0.  0.
        -11    1    3    3    0    0 -0.33470878155E+02 -0.12843568385E+02  0.37246947119E+02  0.51697117937E+02  0.00000000000E+00 0.  1.
         11    1    3    3    0    0  0.41426612953E+02 -0.50734797216E+02  0.20033857038E+03  0.21077411296E+03  0.00000000000E+00 0. -1.
        -13    1    4    4    0    0  0.62742203067E+02  0.37843777673E+02  0.10160418985E+03  0.12526829986E+03  0.00000000000E+00 0. -1.
         13    1    4    4    0    0 -0.34025875908E+02  0.21872358091E+02  0.66663246868E+02  0.77975308673E+02  0.00000000000E+00 0.  1.
          2    1    1    2  501    0 -0.36672061956E+02  0.38622298380E+01  0.19570909990E+01  0.36926780967E+02  0.00000000000E+00 0. -1.
<scales pt_clust_5="13000.00000" pt_clust_6="13000.00000" pt_clust_7="13000.00000" pt_clust_8="13000.00000" pt_clust_9="36.87488"></scales>
<clustering>
<clus scale="   36.875">  2  9  1 -1</clus>
<clus scale="   91.317">  5  6 -1 -1</clus>
<clus scale="   92.754">  7  8 -1 -1</clus>
<clus scale="  110.601">  1  5  2 -1</clus>
<clus scale="   36.875">  2  5  1 -1</clus>
</clustering>
</event>
<event>
 9    1  0.3288491E-005  0.1196236E+03  0.7546771E-02  0.1243827E+00
         21   -1    0    0  501  502  0.00000000000E+00  0.00000000000E+00  0.39327343863E+02  0.39327343863E+02  0.00000000000E+00 0.  1.
          2   -1    0    0  502    0 -0.00000000000E+00 -0.00000000000E+00 -0.61292549490E+03  0.61292549490E+03  0.00000000000E+00 0. -1.
         23    2    1    2    0    0  0.24584705838E+02 -0.69379826751E+02 -0.43242583015E+03  0.44817927082E+03  0.91948855866E+02 0.  0.
         23    2    1    2    0    0 -0.14121079542E+02  0.86675582256E+02 -0.11753944772E+03  0.17297463985E+03  0.91611368379E+02 0.  0.
        -11    1    4    4    0    0 -0.51155367736E+02  0.68598822994E+02 -0.75754004104E+02  0.11428621659E+03  0.00000000000E+00 0.  1.
         11    1    4    4    0    0  0.37034288194E+02  0.18076759262E+02 -0.41785443612E+02  0.58688423264E+02  0.00000000000E+00 0. -1.
        -11    1    3    3    0    0  0.59784491451E+02 -0.44059609216E+02 -0.26177072268E+03  0.27210171965E+03  0.00000000000E+00 0. -1.
         11    1    3    3    0    0 -0.35199785614E+02 -0.25320217534E+02 -0.17065510746E+03  0.17607755117E+03  0.00000000000E+00 0.  1.
          2    1    1    2  501    0 -0.10463626295E+02 -0.17295755505E+02 -0.23632873177E+02  0.31098928090E+02  0.00000000000E+00 0. -1.
<scales pt_clust_5="13000.00000" pt_clust_6="13000.00000" pt_clust_7="13000.00000" pt_clust_8="13000.00000" pt_clust_9="20.21461"></scales>
<clustering>
<clus scale="   20.215">  1  9  2 -1</clus>
<clus scale="   91.611">  5  6 -1 -1</clus>
<clus scale="   91.949">  7  8 -1 -1</clus>
<clus scale="  119.364">  1  5  2 -1</clus>
<clus scale="   20.215">  1  5  2 -1</clus>
</clustering>
</event>
<event>
 9    1  0.3798007E-005  0.1105298E+03  0.7546771E-02  0.1259833E+00
         21   -1    0    0  501  502  0.00000000000E+00  0.00000000000E+00  0.25967013351E+03  0.25967013351E+03  0.00000000000E+00 0. -1.
          3   -1    0    0  502    0 -0.00000000000E+00 -0.00000000000E+00 -0.48800987999E+03  0.48800987999E+03  0.00000000000E+00 0. -1.
         23    2    1    2    0    0 -0.48228812812E+02 -0.44358893858E+02 -0.38505037959E+03  0.40120094774E+03  0.91677018926E+02 0.  0.
         23    2    1    2    0    0  0.27501297963E+01  0.61176971256E+02 -0.59553582703E+02  0.12484565362E+03  0.91047366726E+02 0.  0.
        -11    1    3    3    0    0  0.68858443203E+01 -0.55864840027E+02 -0.18418925122E+03  0.19259796331E+03  0.00000000000E+00 0. -1.
         11    1    3    3    0    0 -0.55114657132E+02  0.11505946170E+02 -0.20086112836E+03  0.20860298443E+03  0.00000000000E+00 0.  1.
        -13    1    4    4    0    0  0.25162409702E+02  0.10811293151E+02 -0.63925880576E+02  0.69545302710E+02  0.00000000000E+00 0. -1.
         13    1    4    4    0    0 -0.22412279905E+02  0.50365678105E+02  0.43722978728E+01  0.55300350905E+02  0.00000000000E+00 0.  1.
          3    1    1    2  501    0  0.45478683015E+02 -0.16818077398E+02  0.21626421582E+03  0.22163341214E+03  0.00000000000E+00 0. -1.
<scales pt_clust_5="13000.00000" pt_clust_6="13000.00000" pt_clust_7="13000.00000" pt_clust_8="13000.00000" pt_clust_9="48.48874"></scales>
<clustering>
<clus scale="   48.489">  1  9  2 -1</clus>
<clus scale="   91.047">  7  8 -1 -1</clus>
<clus scale="   91.677">  5  6 -1 -1</clus>
<clus scale="  110.008">  1  7  2 -1</clus>
<clus scale="   48.489">  1  5  2 -1</clus>
</clustering>
</event>
<event>
 9    1  0.3288491E-005  0.2070008E+03  0.7546771E-02  0.1166425E+00
          2   -1    0    0  502    0 -0.00000000000E+00  0.00000000000E+00  0.98181975847E+03  0.98181975847E+03  0.00000000000E+00 0. -1.
         21   -1    0    0  501  502  0.00000000000E+00 -0.00000000000E+00 -0.84939176820E+02  0.84939176820E+02  0.00000000000E+00 0. -1.
         23    2    1    2    0    0 -0.28071656143E+01  0.56299212247E+02  0.33530410983E+03  0.35686446060E+03  0.10837857577E+03 0.  0.
         23    2    1    2    0    0  0.69829566074E+02  0.13241622063E+03  0.44497280250E+03  0.47815770060E+03  0.90684992656E+02 0.  0.
        -13    1    3    3    0    0  0.45284286173E+02  0.23232758327E+02  0.23815260202E+03  0.24353046931E+03  0.00000000000E+00 0.  1.
         13    1    3    3    0    0 -0.48091451787E+02  0.33066453920E+02  0.97151507814E+02  0.11333399128E+03  0.00000000000E+00 0. -1.
        -13    1    4    4    0    0  0.16144615795E+02  0.11839320255E+03  0.29847179035E+03  0.32150117988E+03  0.00000000000E+00 0. -1.
         13    1    4    4    0    0  0.53684950280E+02  0.14023018078E+02  0.14650101215E+03  0.15665652072E+03  0.00000000000E+00 0.  1.
          2    1    1    2  501    0 -0.67022400460E+02 -0.18871543288E+03  0.11660366931E+03  0.23173677409E+03  0.00000000000E+00 0. -1.
<scales pt_clust_5="13000.00000" pt_clust_6="13000.00000" pt_clust_7="13000.00000" pt_clust_8="13000.00000" pt_clust_9="186.07947"></scales>
<clustering>
<clus scale="   90.685">  7  8 -1 -1</clus>
<clus scale="  108.379">  5  6 -1 -1</clus>
<clus scale="  122.161">  1  5  2 -1</clus>
<clus scale="  186.079">  2  9  1 -1</clus>
<clus scale="  186.079">  2  5  1 -1</clus>
</clustering>
</event>
<event>
 9    1  0.3288491E-005  0.9370144E+02  0.7546771E-02  0.1294703E+00
         21   -1    0    0  501  502  0.00000000000E+00  0.00000000000E+00  0.64332981679E+02  0.64332981679E+02  0.00000000000E+00 0. -1.
         -3   -1    0    0    0  501 -0.00000000000E+00 -0.00000000000E+00 -0.37097391554E+03  0.37097391554E+03  0.00000000000E+00 0.  1.
         23    2    1    2    0    0 -0.15312600137E+01 -0.57551960460E+01 -0.18651548120E+03  0.20830652367E+03  0.92564118530E+02 0.  0.
         23    2    1    2    0    0 -0.18314904939E+02  0.21018818598E+02 -0.15614052731E+03  0.18313770104E+03  0.91555047881E+02 0.  0.
        -11    1    4    4    0    0 -0.95571575088E+01 -0.33344108456E+02 -0.93549139384E+02  0.99772793425E+02  0.00000000000E+00 0.  1.
         11    1    4    4    0    0 -0.87577474307E+01  0.54362927053E+02 -0.62591387930E+02  0.83364907610E+02  0.00000000000E+00 0. -1.
        -11    1    3    3    0    0 -0.16651328999E+02  0.23507267089E+02 -0.16813936905E+03  0.17058928978E+03  0.00000000000E+00 0. -1.
         11    1    3    3    0    0  0.15120068986E+02 -0.29262463135E+02 -0.18376112152E+02  0.37717233895E+02  0.00000000000E+00 0.  1.
         -3    1    1    2    0  502  0.19846164953E+02 -0.15263622552E+02  0.36015074657E+02  0.43862672505E+02  0.00000000000E+00 0.  1.
<scales pt_clust_5="13000.00000" pt_clust_6="13000.00000" pt_clust_7="13000.00000" pt_clust_8="13000.00000" pt_clust_9="25.03694"></scales>
<clustering>
<clus scale="   25.037">  1  9  2 -1</clus>
<clus scale="   91.555">  5  6 -1 -1</clus>
<clus scale="   92.564">  7  8 -1 -1</clus>
<clus scale="   92.705">  1  5  2 -1</clus>
<clus scale="   25.037">  1  5  2 -1</clus>
</clustering>
</event>
<event>
 9    1  0.3288491E-005  0.9223529E+02  0.7546771E-02  0.1298651E+00
         21   -1    0    0  501  502  0.00000000000E+00  0.00000000000E+00  0.57084722586E+03  0.57084722586E+03  0.00000000000E+00 0.  1.
          4   -1    0    0  502    0 -0.00000000000E+00 -0.00000000000E+00 -0.59541000844E+02  0.59541000844E+02  0.00000000000E+00 0. -1.
         23    2    1    2    0    0 -0.27599392185E+01  0.70923869225E+01 -0.10272630468E+02  0.90716985531E+02  0.89811610109E+02 0.  0.
         23    2    1    2    0    0 -0.19044979804E+02 -0.36779383629E+02  0.40996935553E+03  0.42214059518E+03  0.91719001907E+02 0.  0.
        -11    1    4    4    0    0 -0.17669730474E+02 -0.67071916819E+02  0.31045294603E+03  0.31810673224E+03  0.00000000000E+00 0.  1.
         11    1    4    4    0    0 -0.13752493298E+01  0.30292533190E+02  0.99516409501E+02  0.10403386294E+03  0.00000000000E+00 0. -1.
        -13    1    3    3    0    0  0.93236860235E+01 -0.35351361543E+02 -0.24890296103E+02  0.44228686665E+02  0.00000000000E+00 0.  1.
         13    1    3    3    0    0 -0.12083625242E+02  0.42443748465E+02  0.14617665635E+02  0.46488298866E+02  0.00000000000E+00 0. -1.
          4    1    1    2  501    0  0.21804919023E+02  0.29686996707E+02  0.11160949995E+03  0.11753064599E+03  0.00000000000E+00 0. -1.
<scales pt_clust_5="13000.00000" pt_clust_6="13000.00000" pt_clust_7="13000.00000" pt_clust_8="13000.00000" pt_clust_9="36.83439"></scales>
<clustering>
<clus scale="   36.834">  1  9  2 -1</clus>
<clus scale="   89.812">  7  8 -1 -1</clus>
<clus scale="   90.339">  2  7  1 -1</clus>
<clus scale="   91.719">  5  6 -1 -1</clus>
<clus scale="   36.834">  1  5  2 -1</clus>
</clustering>
</event>
<event>
 9    1  0.3288491E-005  0.9384359E+02  0.7546771E-02  0.1295894E+00
         21   -1    0    0  501  502  0.00000000000E+00  0.00000000000E+00  0.79942099884E+02  0.79942099884E+02  0.00000000000E+00 0. -1.
         -1   -1    0    0    0  501 -0.00000000000E+00 -0.00000000000E+00 -0.15560513543E+03  0.15560513543E+03  0.00000000000E+00 0.  1.
         23    2    1    2    0    0  0.36446945405E+01 -0.91678371768E-01 -0.77873634073E+02  0.12196826395E+03  0.93801185084E+02 0.  0.
         23    2    1    2    0    0  0.15515656883E+02  0.58584216928E+01  0.96346224365E+01  0.92236747344E+02  0.90220479371E+02 0.  0.
        -11    1    3    3    0    0  0.17666291888E+01 -0.40191775422E+02 -0.70473124931E+02  0.81147773400E+02  0.00000000000E+00 0.  1.
         11    1    3    3    0    0  0.18780653516E+01  0.40100097050E+02 -0.74005091426E+01  0.40820490547E+02  0.00000000000E+00 0. -1.
        -13    1    4    4    0    0 -0.13507906693E+02  0.35776960951E+02 -0.17957752054E+02  0.42248495085E+02  0.00000000000E+00 0.  1.
         13    1    4    4    0    0  0.29023563576E+02 -0.29918539258E+02  0.27592374490E+02  0.49988252260E+02  0.00000000000E+00 0. -1.
         -1    1    1    2    0  502 -0.19160351423E+02 -0.57667433211E+01 -0.74240239089E+01  0.21342224022E+02  0.00000000000E+00 0.  1.
<scales pt_clust_5="13000.00000" pt_clust_6="13000.00000" pt_clust_7="13000.00000" pt_clust_8="13000.00000" pt_clust_9="20.00937"></scales>
<clustering>
<clus scale="   20.009">  1  9  2 -1</clus>
<clus scale="   90.220">  7  8 -1 -1</clus>
<clus scale="   90.265">  1  7  2 -1</clus>
<clus scale="   93.801">  5  6 -1 -1</clus>
<clus scale="   20.009">  1  5  2 -1</clus>
</clustering>
</event>
<event>
 9    1  0.3288491E-005  0.9425038E+02  0.7546771E-02  0.1293027E+00
         -1   -1    0    0    0  501 -0.00000000000E+00  0.00000000000E+00  0.56605053446E+02  0.56605053446E+02  0.00000000000E+00 0.  1.
         21   -1    0    0  501  502  0.00000000000E+00 -0.00000000000E+00 -0.37045128570E+03  0.37045128570E+03  0.00000000000E+00 0. -1.
         23    2    1    2    0    0 -0.38269986978E+02  0.54953647940E+01 -0.29129393126E+02  0.10230452301E+03  0.90127148783E+02 0.  0.
         23    2    1    2    0    0  0.68462578040E+01  0.74179900308E+01 -0.93169459065E+02  0.13021491913E+03  0.90407296378E+02 0.  0.
        -11    1    4    4    0    0 -0.20457746578E+02 -0.96909000567E+01  0.80227329867E+01  0.24016602248E+02  0.00000000000E+00 0.  1.
         11    1    4    4    0    0  0.27304004382E+02  0.17108890087E+02 -0.10119219205E+03  0.10619831688E+03  0.00000000000E+00 0. -1.
        -13    1    3    3    0    0  0.14017408125E+02  0.32549754010E+02  0.24005304222E+01  0.35520934151E+02  0.00000000000E+00 0. -1.
         13    1    3    3    0    0 -0.52287395102E+02 -0.27054389216E+02 -0.31529923549E+02  0.66783588863E+02  0.00000000000E+00 0.  1.
         -1    1    1    2    0  502  0.31423729174E+02 -0.12913354825E+02 -0.19154738006E+03  0.19453689700E+03  0.00000000000E+00 0.  1.
<scales pt_clust_5="13000.00000" pt_clust_6="13000.00000" pt_clust_7="13000.00000" pt_clust_8="13000.00000" pt_clust_9="33.97360"></scales>
<clustering>
<clus scale="   33.974">  2  9  1 -1</clus>
<clus scale="   90.127">  7  8 -1 -1</clus>
<clus scale="   90.407">  5  6 -1 -1</clus>
<clus scale="   93.982">  1  7  2 -1</clus>
<clus scale="   33.974">  2  5  1 -1</clus>
</clustering>
</event>
<event>
 9    1  0.3288491E-005  0.2752911E+03  0.7546771E-02  0.1098435E+00
          4   -1    0    0  502    0 -0.00000000000E+00  0.00000000000E+00  0.49046510877E+03  0.49046510877E+03  0.00000000000E+00 0. -1.
         21   -1    0    0  501  502  0.00000000000E+00 -0.00000000000E+00 -0.20922001462E+03  0.20922001462E+03  0.00000000000E+00 0. -1.
         23    2    1    2    0    0 -0.25418848304E+02 -0.27455741430E+03  0.26483046351E+03  0.39291826640E+03  0.90673579755E+02 0.  0.
         23    2    1    2    0    0 -0.22101078050E+01  0.23428304826E+03  0.38740593958E+02  0.25306553100E+03  0.87452261736E+02 0.  0.
        -13    1    4    4    0    0  0.13485357375E+02  0.13847899076E+03  0.63404923778E+02  0.15290019655E+03  0.00000000000E+00 0. -1.
         13    1    4    4    0    0 -0.15695465180E+02  0.95804057498E+02 -0.24664329820E+02  0.10016533445E+03  0.00000000000E+00 0.  1.
        -13    1    3    3    0    0 -0.59524805203E+02 -0.16064795398E+03  0.15913902278E+03  0.23382941672E+03  0.00000000000E+00 0.  1.
         13    1    3    3    0    0  0.34105956899E+02 -0.11390946032E+03  0.10569144074E+03  0.15908884968E+03  0.00000000000E+00 0. -1.
          4    1    1    2  501    0  0.27628956109E+02  0.40274366039E+02 -0.22325963315E+02  0.53701325994E+02  0.00000000000E+00 0. -1.
<scales pt_clust_5="13000.00000" pt_clust_6="13000.00000" pt_clust_7="13000.00000" pt_clust_8="13000.00000" pt_clust_9="48.84039"></scales>
<clustering>
<clus scale="   48.840">  2  9  1 -1</clus>
<clus scale="   87.452">  5  6 -1 -1</clus>
<clus scale="   90.674">  7  8 -1 -1</clus>
<clus scale="  274.247">  2  5  1 -1</clus>
<clus scale="   48.840">  2  5  1 -1</clus>
</clustering>
</event>
<event>
 9    1  0.3288491E-005  0.9615071E+02  0.7546771E-02  0.1290960E+00
         21   -1    0    0  501  502  0.00000000000E+00  0.00000000000E+00  0.43768494822E+03  0.43768494822E+03  0.00000000000E+00 0.  1.
          1   -1    0    0  502    0 -0.00000000000E+00 -0.00000000000E+00 -0.60220884087E+02  0.60220884087E+02  0.00000000000E+00 0. -1.
         23    2    1    2    0    0 -0.19188981414E+02  0.68006320596E+01  0.12910821614E+02  0.95615367678E+02  0.92526448204E+02 0.  0.
         23    2    1    2    0    0  0.32994181735E+02 -0.59791574016E+02  0.28162533691E+03  0.30291410419E+03  0.88207005259E+02 0.  0.
        -11    1    4    4    0    0  0.39077278823E+02 -0.20344495058E+02  0.24438886387E+03  0.24832810752E+03  0.00000000000E+00 0.  1.
         11    1    4    4    0    0 -0.60830970884E+01 -0.39447078958E+02  0.37236473041E+02  0.54585996676E+02  0.00000000000E+00 0. -1.
        -11    1    3    3    0    0 -0.33776428702E+02 -0.25199221245E+02  0.34402657615E+02  0.54400282520E+02  0.00000000000E+00 0.  1.
         11    1    3    3    0    0  0.14587447287E+02  0.31999853305E+02 -0.21491836002E+02  0.41215085158E+02  0.00000000000E+00 0. -1.
          1    1    1    2  501    0 -0.13805200321E+02  0.52990941956E+02  0.82927905611E+02  0.99376360440E+02  0.00000000000E+00 0. -1.
<scales pt_clust_5="13000.00000" pt_clust_6="13000.00000" pt_clust_7="13000.00000" pt_clust_8="13000.00000" pt_clust_9="54.75969"></scales>
<clustering>
<clus scale="   54.760">  1  9  2 -1</clus>
<clus scale="   88.207">  5  6 -1 -1</clus>
<clus scale="   92.002">  1  5  2 -1</clus>
<clus scale="   92.526">  7  8 -1 -1</clus>
<clus scale="   54.760">  1  5  2 -1</clus>
</clustering>
</event>
<event>
 9    1  0.3288491E-005  0.1739921E+03  0.7546771E-02  0.1175638E+00
         21   -1    0    0  501  502  0.00000000000E+00  0.00000000000E+00  0.28797810761E+03  0.28797810761E+03  0.00000000000E+00 0. -1.
         -1   -1    0    0    0  501 -0.00000000000E+00 -0.00000000000E+00 -0.36138578636E+03  0.36138578636E+03  0.00000000000E+00 0.  1.
         23    2    1    2    0    0 -0.12425897724E+03 -0.71237847250E+02 -0.22878355440E+03  0.28781064158E+03  0.99889570729E+02 0.  0.
         23    2    1    2    0    0  0.96340857591E+02  0.58971474669E+02 -0.40022820040E+02  0.16378941450E+03  0.11165102110E+03 0.  0.
        -13    1    3    3    0    0 -0.40812524265E+02 -0.61368214351E+02 -0.16992377502E+03  0.18521827444E+03  0.00000000000E+00 0.  1.
         13    1    3    3    0    0 -0.83446452971E+02 -0.98696328990E+01 -0.58859779372E+02  0.10259236714E+03  0.00000000000E+00 0. -1.
        -13    1    4    4    0    0  0.74329851280E+02  0.33741332372E+02 -0.78177420008E+02  0.11302704677E+03  0.00000000000E+00 0.  1.
         13    1    4    4    0    0  0.22011006311E+02  0.25230142297E+02  0.38154599969E+02  0.50762367734E+02  0.00000000000E+00 0. -1.
         -1    1    1    2    0  502  0.27918119646E+02  0.12266372580E+02  0.19539869568E+03  0.19776383789E+03  0.00000000000E+00 0.  1.
<scales pt_clust_5="13000.00000" pt_clust_6="13000.00000" pt_clust_7="13000.00000" pt_clust_8="13000.00000" pt_clust_9="30.49402"></scales>
<clustering>
<clus scale="   30.494">  1  9  2 -1</clus>
<clus scale="   99.890">  5  6 -1 -1</clus>
<clus scale="  111.651">  7  8 -1 -1</clus>
<clus scale="  166.689">  2  5  1 -1</clus>
<clus scale="   30.494">  1  5  2 -1</clus>
</clustering>
</event>
<event>
 9    1  0.3288491E-005  0.9737237E+02  0.7546771E-02  0.1296881E+00
          2   -1    0    0  502    0 -0.00000000000E+00  0.00000000000E+00  0.19796952609E+03  0.19796952609E+03  0.00000000000E+00 0. -1.
         21   -1    0    0  501  502  0.00000000000E+00 -0.00000000000E+00 -0.96299961748E+02  0.96299961748E+02  0.00000000000E+00 0. -1.
         23    2    1    2    0    0 -0.10703463332E+01  0.36211690383E+02  0.12565086104E+03  0.16011194732E+03  0.92386495943E+02 0.  0.
         23    2    1    2    0    0  0.26065913506E+02 -0.16118156512E+02  0.18017083773E+02  0.81314447849E+02  0.73131370184E+02 0.  0.
        -11    1    4    4    0    0 -0.25117853798E+02 -0.24434473102E+01  0.12158139800E+02  0.28012450403E+02  0.00000000000E+00 0.  1.
         11    1    4    4    0    0  0.51183767305E+02 -0.13674709202E+02  0.58589439735E+01  0.53301997446E+02  0.00000000000E+00 0. -1.
        -11    1    3    3    0    0  0.11903693859E+02  0.51565836264E+02  0.12927332537E+03  0.13968652780E+03  0.00000000000E+00 0. -1.
         11    1    3    3    0    0 -0.12974040192E+02 -0.15354145881E+02 -0.36224643304E+01  0.20425419518E+02  0.00000000000E+00 0.  1.
          2    1    1    2  501    0 -0.24995567173E+02 -0.20093533870E+02 -0.41998380466E+02  0.52843092675E+02  0.00000000000E+00 0. -1.
<scales pt_clust_5="13000.00000" pt_clust_6="13000.00000" pt_clust_7="13000.00000" pt_clust_8="13000.00000" pt_clust_9="32.07068"></scales>
<clustering>
<clus scale="   32.071">  2  9  1 -1</clus>
<clus scale="   73.131">  5  6 -1 -1</clus>
<clus scale="   79.337">  2  5  1 -1</clus>
<clus scale="   92.386">  7  8 -1 -1</clus>
<clus scale="   32.071">  2  5  1 -1</clus>
</clustering>
</event>
<event>
 9    1  0.3288491E-005  0.1777814E+03  0.7546771E-02  0.1170659E+00
         21   -1    0    0  501  502  0.00000000000E+00  0.00000000000E+00  0.37088520488E+03  0.37088520488E+03  0.00000000000E+00 0. -1.
          4   -1    0    0  502    0 -0.00000000000E+00 -0.00000000000E+00 -0.34455256032E+03  0.34455256032E+03  0.00000000000E+00 0. -1.
         23    2    1    2    0    0 -0.15620001053E+03 -0.70592090005E+02 -0.16997520644E+03  0.25761338210E+03  0.89952194944E+02 0.  0.
         23    2    1    2    0    0  0.70888197124E+02  0.12913280248E+03 -0.61106545570E+02  0.18039458642E+03  0.84307649292E+02 0.  0.
        -11    1    3    3    0    0 -0.70852523320E+02 -0.77412963042E+02 -0.11588117725E+03  0.15633711699E+03  0.00000000000E+00 0. -1.
         11    1    3    3    0    0 -0.85347487210E+02  0.68208730371E+01 -0.54094029188E+02  0.10127626512E+03  0.00000000000E+00 0.  1.
        -11    1    4    4    0    0  0.86913182292E+02  0.85127134988E+02 -0.34157141687E+02  0.12636154754E+03  0.00000000000E+00 0.  1.
         11    1    4    4    0    0 -0.16024985168E+02  0.44005667492E+02 -0.26949403883E+02  0.54033038881E+02  0.00000000000E+00 0. -1.
          4    1    1    2  501    0  0.85311813406E+02 -0.58540712475E+02  0.25741439657E+03  0.27742979668E+03  0.00000000000E+00 0. -1.
<scales pt_clust_5="13000.00000" pt_clust_6="13000.00000" pt_clust_7="13000.00000" pt_clust_8="13000.00000" pt_clust_9="103.46555"></scales>
<clustering>
<clus scale="   84.308">  7  8 -1 -1</clus>
<clus scale="   89.952">  5  6 -1 -1</clus>
<clus scale="  103.466">  1  9  2 -1</clus>
<clus scale="  174.993">  1  7  2 -1</clus>
<clus scale="  103.466">  1  5  2 -1</clus>
</clustering>
</event>
<event>
 9    1  0.3288491E-005  0.9294391E+02  0.7546771E-02  0.1297155E+00
         -1   -1    0    0    0  501 -0.00000000000E+00  0.00000000000E+00  0.22927563199E+02  0.22927563199E+02  0.00000000000E+00 0.  1.
         21   -1    0    0  501  502  0.00000000000E+00 -0.00000000000E+00 -0.50391302062E+03  0.50391302062E+03  0.00000000000E+00 0.  1.
         23    2    1    2    0    0 -0.97284594799E+01 -0.95090735217E+00 -0.17905044920E+03  0.20120970957E+03  0.91272869567E+02 0.  0.
         23    2    1    2    0    0  0.21996716519E+02 -0.17304959388E+02 -0.19166267111E+03  0.21318633177E+03  0.89053441248E+02 0.  0.
        -11    1    4    4    0    0  0.50790989818E+02 -0.13290064869E+02 -0.66686135447E+02  0.84872793825E+02  0.00000000000E+00 0.  1.
         11    1    4    4    0    0 -0.28794273299E+02 -0.40148945198E+01 -0.12497653566E+03  0.12831353794E+03  0.00000000000E+00 0. -1.
        -13    1    3    3    0    0 -0.64896390502E+01  0.44641039716E+02 -0.10359331201E+03  0.11298899121E+03  0.00000000000E+00 0. -1.
         13    1    3    3    0    0 -0.32388204297E+01 -0.45591947068E+02 -0.75457137192E+02  0.88220718363E+02  0.00000000000E+00 0.  1.
         -1    1    1    2    0  502 -0.12268257039E+02  0.18255866740E+02 -0.11027233711E+03  0.11244454248E+03  0.00000000000E+00 0.  1.
<scales pt_clust_5="13000.00000" pt_clust_6="13000.00000" pt_clust_7="13000.00000" pt_clust_8="13000.00000" pt_clust_9="21.99515"></scales>
<clustering>
<clus scale="   21.995">  2  9  1 -1</clus>
<clus scale="   89.053">  5  6 -1 -1</clus>
<clus scale="   90.765">  2  5  1 -1</clus>
<clus scale="   91.273">  7  8 -1 -1</clus>
<clus scale="   21.995">  2  5  1 -1</clus>
</clustering>
</event>
<event>
 9    1  0.3288491E-005  0.1582536E+03  0.7546771E-02  0.1191188E+00
          2   -1    0    0  502    0 -0.00000000000E+00  0.00000000000E+00  0.84759394271E+03  0.84759394271E+03  0.00000000000E+00 0. -1.
         21   -1    0    0  501  502  0.00000000000E+00 -0.00000000000E+00 -0.12321446817E+03  0.12321446817E+03  0.00000000000E+00 0.  1.
         23    2    1    2    0    0 -0.69326265736E+02  0.92595380628E+02  0.54107604775E+03  0.56108562736E+03  0.93133002459E+02 0.  0.
         23    2    1    2    0    0  0.56621399789E+02 -0.21457203850E+03  0.15012755188E+03  0.28267807738E+03  0.90119204277E+02 0.  0.
        -11    1    3    3    0    0 -0.59169674450E+02  0.50994655375E+01  0.25103338767E+03  0.25796282028E+03  0.00000000000E+00 0.  1.
         11    1    3    3    0    0 -0.10156591286E+02  0.87495915091E+02  0.29004266007E+03  0.30312280707E+03  0.00000000000E+00 0. -1.
        -13    1    4    4    0    0  0.71937193034E+02 -0.11747682863E+03  0.63609126295E+02  0.15172964758E+03  0.00000000000E+00 0.  1.
         13    1    4    4    0    0 -0.15315793245E+02 -0.97095209870E+02  0.86518425582E+02  0.13094842980E+03  0.00000000000E+00 0. -1.
          2    1    1    2  501    0  0.12704865947E+02  0.12197665787E+03  0.33175874919E+02  0.12704470615E+03  0.00000000000E+00 0. -1.
<scales pt_clust_5="13000.00000" pt_clust_6="13000.00000" pt_clust_7="13000.00000" pt_clust_8="13000.00000" pt_clust_9="122.63653"></scales>
<clustering>
<clus scale="   90.119">  7  8 -1 -1</clus>
<clus scale="   93.133">  5  6 -1 -1</clus>
<clus scale="  122.637">  2  9  1 -1</clus>
<clus scale="  156.499">  2  7  1 -1</clus>
<clus scale="  122.637">  2  5  1 -1</clus>
</clustering>
</event>
<event>
 9    1  0.3288491E-005  0.9864780E+02  0.7546771E-02  0.1287196E+00
         21   -1    0    0  501  502  0.00000000000E+00  0.00000000000E+00  0.15172376723E+03  0.15172376723E+03  0.00000000000E+00 0. -1.
          2   -1    0    0  502    0 -0.00000000000E+00 -0.00000000000E+00 -0.22228650712E+03  0.22228650712E+03  0.00000000000E+00 0. -1.
         23    2    1    2    0    0 -0.24735968711E+02 -0.80389926174E+01 -0.12283293156E+03  0.15483061635E+03  0.90598549292E+02 0.  0.
         23    2    1    2    0    0 -0.22476980463E+02  0.82765723352E+01 -0.45529000151E+02  0.11058039035E+03  0.97884710624E+02 0.  0.
        -11    1    3    3    0    0  0.14055010964E+02 -0.37078080720E+02 -0.28670833865E+02  0.48932035698E+02  0.00000000000E+00 0.  1.
         11    1    3    3    0    0 -0.38790979675E+02  0.29039088102E+02 -0.94162097700E+02  0.10589858066E+03  0.00000000000E+00 0. -1.
        -13    1    4    4    0    0  0.31636476528E+02 -0.20847275029E+02 -0.84862446827E+01  0.38826432647E+02  0.00000000000E+00 0.  1.
         13    1    4    4    0    0 -0.54113456991E+02  0.29123847364E+02 -0.37042755469E+02  0.71753957700E+02  0.00000000000E+00 0. -1.
          2    1    1    2  501    0  0.47212949174E+02 -0.23757971781E+00  0.97799191822E+02  0.10859926765E+03  0.00000000000E+00 0. -1.
<scales pt_clust_5="13000.00000" pt_clust_6="13000.00000" pt_clust_7="13000.00000" pt_clust_8="13000.00000" pt_clust_9="47.21355"></scales>
<clustering>
<clus scale="   47.214">  1  9  2 -1</clus>
<clus scale="   90.599">  5  6 -1 -1</clus>
<clus scale="   91.422">  2  5  1 -1</clus>
<clus scale="   97.885">  7  8 -1 -1</clus>
<clus scale="   47.214">  1  5  2 -1</clus>
</clustering>
</event>
<event>
 9    1  0.3288491E-005  0.1481968E+03  0.7546771E-02  0.1202974E+00
         21   -1    0    0  501  502  0.00000000000E+00  0.00000000000E+00  0.66619064968E+02  0.66619064968E+02  0.00000000000E+00 0. -1.
          4   -1    0    0  502    0 -0.00000000000E+00 -0.00000000000E+00 -0.64385863875E+03  0.64385863875E+03  0.00000000000E+00 0. -1.
         23    2    1    2    0    0 -0.12345840472E+02  0.12653590162E+03 -0.32859894820E+03  0.36400403784E+03  0.91421642031E+02 0.  0.
         23    2    1    2    0    0 -0.25739890209E+02 -0.10632799297E+03 -0.26488814888E+03  0.30039911252E+03  0.90031724131E+02 0.  0.
        -11    1    4    4    0    0  0.30435054725E+02 -0.40338751727E+02 -0.63473078749E+02  0.81131616358E+02  0.00000000000E+00 0. -1.
         11    1    4    4    0    0 -0.56174944935E+02 -0.65989241244E+02 -0.20141507013E+03  0.21926749616E+03  0.00000000000E+00 0.  1.
        -13    1    3    3    0    0  0.26919943794E+02  0.48568279248E+02 -0.60829366404E+02  0.82363662741E+02  0.00000000000E+00 0.  1.
         13    1    3    3    0    0 -0.39265784266E+02  0.77967622374E+02 -0.26776958179E+03  0.28164037510E+03  0.00000000000E+00 0. -1.
          4    1    1    2  501    0  0.38085730681E+02 -0.20207908650E+02  0.16247523295E+02  0.46074553354E+02  0.00000000000E+00 0. -1.
<scales pt_clust_5="13000.00000" pt_clust_6="13000.00000" pt_clust_7="13000.00000" pt_clust_8="13000.00000" pt_clust_9="43.11476"></scales>
<clustering>
<clus scale="   43.115">  1  9  2 -1</clus>
<clus scale="   90.032">  5  6 -1 -1</clus>
<clus scale="   91.422">  7  8 -1 -1</clus>
<clus scale="  147.343">  1  5  2 -1</clus>
<clus scale="   43.115">  1  5  2 -1</clus>
</clustering>
</event>
<event>
 9    1  0.3288491E-005  0.1573671E+03  0.7546771E-02  0.1201597E+00
         21   -1    0    0  501  502  0.00000000000E+00  0.00000000000E+00  0.15136049690E+03  0.15136049690E+03  0.00000000000E+00 0. -1.
          1   -1    0    0  502    0 -0.00000000000E+00 -0.00000000000E+00 -0.54077189142E+03  0.54077189142E+03  0.00000000000E+00 0. -1.
         23    2    1    2    0    0 -0.87780168138E+02  0.11901565431E+02 -0.30430888948E+03  0.32966070022E+03  0.90693284589E+02 0.  0.
         23    2    1    2    0    0  0.63686543180E+02  0.11590737644E+03  0.54702715554E+02  0.17152371589E+03  0.94538364320E+02 0.  0.
        -11    1    3    3    0    0 -0.63469369230E+02  0.47932859097E+02 -0.15588117702E+03  0.17499960332E+03  0.00000000000E+00 0.  1.
         11    1    3    3    0    0 -0.24310798908E+02 -0.36031293666E+02 -0.14842771246E+03  0.15466109690E+03  0.00000000000E+00 0. -1.
        -13    1    4    4    0    0  0.71466956456E+01  0.10211249693E+03  0.21763301957E+02  0.10465026803E+03  0.00000000000E+00 0. -1.
         13    1    4    4    0    0  0.56539847535E+02  0.13794879511E+02  0.32939413597E+02  0.66873447855E+02  0.00000000000E+00 0.  1.
          1    1    1    2  501    0  0.24093624958E+02 -0.12780894187E+03 -0.13980522060E+03  0.19094797221E+03  0.00000000000E+00 0. -1.
<scales pt_clust_5="13000.00000" pt_clust_6="13000.00000" pt_clust_7="13000.00000" pt_clust_8="13000.00000" pt_clust_9="125.80504"></scales>
<clustering>
<clus scale="   90.693">  5  6 -1 -1</clus>
<clus scale="   94.538">  7  8 -1 -1</clus>
<clus scale="  126.776">  2  5  1 -1</clus>
<clus scale="  125.805">  1  9  2 -1</clus>
<clus scale="  125.805">  1  5  2 -1</clus>
</clustering>
</event>
<event>
 9    1  0.3288491E-005  0.3012102E+03  0.7546771E-02  0.1084687E+00
         21   -1    0    0  501  502  0.00000000000E+00  0.00000000000E+00  0.46763606338E+03  0.46763606338E+03  0.00000000000E+00 0. -1.
          1   -1    0    0  502    0 -0.00000000000E+00 -0.00000000000E+00 -0.72424420617E+03  0.72424420617E+03  0.00000000000E+00 0. -1.
         23    2    1    2    0    0  0.87753481319E+02  0.26421272014E+03 -0.43881038488E+03  0.52784309443E+03  0.92491856316E+02 0.  0.
         23    2    1    2    0    0 -0.14122554777E+03 -0.27525786422E+03 -0.12952169680E+03  0.34756747487E+03  0.91190638153E+02 0.  0.
        -13    1    3    3    0    0 -0.10612016967E+02  0.47986604571E+02 -0.12460301047E+03  0.13394491159E+03  0.00000000000E+00 0.  1.
         13    1    3    3    0    0  0.98365498285E+02  0.21622611557E+03 -0.31420737441E+03  0.39389818284E+03  0.00000000000E+00 0. -1.
        -13    1    4    4    0    0 -0.18214938720E+02 -0.34013666958E+02  0.14054408991E+02  0.41063852042E+02  0.00000000000E+00 0.  1.
         13    1    4    4    0    0 -0.12301060905E+03 -0.24124419726E+03 -0.14357610579E+03  0.30650362283E+03  0.00000000000E+00 0. -1.
          1    1    1    2  501    0  0.53472066456E+02  0.11045144077E+02  0.31172393889E+03  0.31646970025E+03  0.00000000000E+00 0. -1.
<scales pt_clust_5="13000.00000" pt_clust_6="13000.00000" pt_clust_7="13000.00000" pt_clust_8="13000.00000" pt_clust_9="54.60089"></scales>
<clustering>
<clus scale="   54.601">  1  9  2 -1</clus>
<clus scale="   91.191">  7  8 -1 -1</clus>
<clus scale="   92.492">  5  6 -1 -1</clus>
<clus scale="  300.813">  1  7  2 -1</clus>
<clus scale="   54.601">  1  5  2 -1</clus>
</clustering>
</event>
<event>
 9    1  0.3288491E-005  0.1645701E+03  0.7546771E-02  0.1183918E+00
         -1   -1    0    0    0  501 -0.00000000000E+00  0.00000000000E+00  0.38278293854E+03  0.38278293854E+03  0.00000000000E+00 0.  1.
         21   -1    0    0  501  502  0.00000000000E+00 -0.00000000000E+00 -0.16636519264E+03  0.16636519264E+03  0.00000000000E+00 0.  1.
         23    2    1    2    0    0 -0.11082974968E+03  0.85843266293E+02  0.18928998069E+03  0.25262982383E+03  0.91317201657E+02 0.  0.
         23    2    1    2    0    0  0.84141708253E+02 -0.10119085167E+03  0.11849084827E+03  0.20010766022E+03  0.93185723278E+02 0.  0.
        -11    1    4    4    0    0 -0.47881801215E+01 -0.62420562863E+02  0.32839494953E+02  0.70694312118E+02  0.00000000000E+00 0.  1.
         11    1    4    4    0    0  0.88929888374E+02 -0.38770288811E+02  0.85651353318E+02  0.12941334810E+03  0.00000000000E+00 0. -1.
        -11    1    3    3    0    0 -0.82475327672E+02  0.40576679173E+02  0.17446461197E+03  0.19719672258E+03  0.00000000000E+00 0.  1.
         11    1    3    3    0    0 -0.28354422010E+02  0.45266587120E+02  0.14825368724E+02  0.55433101256E+02  0.00000000000E+00 0. -1.
         -1    1    1    2    0  502  0.26688041429E+02  0.15347585381E+02 -0.91363083066E+02  0.96410647128E+02  0.00000000000E+00 0.  1.
<scales pt_clust_5="13000.00000" pt_clust_6="13000.00000" pt_clust_7="13000.00000" pt_clust_8="13000.00000" pt_clust_9="30.78636"></scales>
<clustering>
<clus scale="   30.786">  2  9  1 -1</clus>
<clus scale="   91.317">  7  8 -1 -1</clus>
<clus scale="   93.186">  5  6 -1 -1</clus>
<clus scale="  163.519">  1  7  2 -1</clus>
<clus scale="   30.786">  2  5  1 -1</clus>
</clustering>
</event>
<event>
 9    1  0.3288491E-005  0.9744634E+02  0.7546771E-02  0.1290616E+00
         21   -1    0    0  501  502  0.00000000000E+00  0.00000000000E+00  0.63633323226E+03  0.63633323226E+03  0.00000000000E+00 0.  1.
         -3   -1    0    0    0  501 -0.00000000000E+00 -0.00000000000E+00 -0.41707503281E+02  0.41707503281E+02  0.00000000000E+00 0.  1.
         23    2    1    2    0    0 -0.33215715363E+02  0.12675769319E+02  0.88485694732E+02  0.12599006831E+03  0.82339663991E+02 0.  0.
         23    2    1    2    0    0  0.23732766548E+02  0.60288121833E+02  0.14381246145E+03  0.18232789847E+03  0.91452373671E+02 0.  0.
        -11    1    4    4    0    0  0.32901522475E+02  0.26489786563E+02  0.91941291810E+01  0.43229052554E+02  0.00000000000E+00 0.  1.
         11    1    4    4    0    0 -0.91687559269E+01  0.33798335270E+02  0.13461833227E+03  0.13909884592E+03  0.00000000000E+00 0. -1.
        -13    1    3    3    0    0 -0.17047287981E+02 -0.27471491492E+02  0.73315450687E+02  0.80127699217E+02  0.00000000000E+00 0.  1.
         13    1    3    3    0    0 -0.16168427382E+02  0.40147260811E+02  0.15170244044E+02  0.45862369095E+02  0.00000000000E+00 0. -1.
         -3    1    1    2    0  502  0.94829488147E+01 -0.72963891151E+02  0.36232757280E+03  0.36972276876E+03  0.00000000000E+00 0.  1.
<scales pt_clust_5="13000.00000" pt_clust_6="13000.00000" pt_clust_7="13000.00000" pt_clust_8="13000.00000" pt_clust_9="73.57755"></scales>
<clustering>
<clus scale="   73.578">  1  9  2 -1</clus>
<clus scale="   82.340">  7  8 -1 -1</clus>
<clus scale="   88.950">  2  7  1 -1</clus>
<clus scale="   91.452">  5  6 -1 -1</clus>
<clus scale="   73.578">  1  5  2 -1</clus>
</clustering>
</event>
<event>
 9    1  0.3288491E-005  0.1174782E+03  0.7546771E-02  0.1247893E+00
          3   -1    0    0  502    0 -0.00000000000E+00  0.00000000000E+00  0.31031624074E+02  0.31031624074E+02  0.00000000000E+00 0. -1.
         21   -1    0    0  501  502  0.00000000000E+00 -0.00000000000E+00 -0.71018607891E+03  0.71018607891E+03  0.00000000000E+00 0.  1.
         23    2    1    2    0    0 -0.54199193956E+02  0.54254109539E+02 -0.13716020683E+03  0.18184354068E+03  0.91504589637E+02 0.  0.
         23    2    1    2    0    0  0.61129057194E+02 -0.30431679321E+02 -0.41976923362E+03  0.43465653993E+03  0.89762182869E+02 0.  0.
        -11    1    3    3    0    0  0.16486590324E+02  0.27313782014E+02 -0.92132258472E+01  0.33207437103E+02  0.00000000000E+00 0.  1.
         11    1    3    3    0    0 -0.70685784279E+02  0.26940327525E+02 -0.12794698098E+03  0.14863610358E+03  0.00000000000E+00 0. -1.
        -13    1    4    4    0    0  0.49815381029E+02 -0.54607311102E+02 -0.37747533743E+03  0.38464420050E+03  0.00000000000E+00 0.  1.
         13    1    4    4    0    0  0.11313676165E+02  0.24175631781E+02 -0.42293896191E+02  0.50012339431E+02  0.00000000000E+00 0. -1.
          3    1    1    2  501    0 -0.69298632384E+01 -0.23822430219E+02 -0.12222501439E+03  0.12471762237E+03  0.00000000000E+00 0. -1.
<scales pt_clust_5="13000.00000" pt_clust_6="13000.00000" pt_clust_7="13000.00000" pt_clust_8="13000.00000" pt_clust_9="24.80990"></scales>
<clustering>
<clus scale="   24.810">  2  9  1 -1</clus>
<clus scale="   89.762">  7  8 -1 -1</clus>
<clus scale="   91.505">  5  6 -1 -1</clus>
<clus scale="  116.126">  2  7  1 -1</clus>
<clus scale="   24.810">  2  5  1 -1</clus>
</clustering>
</event>
<event>
 9    1  0.3288491E-005  0.1218574E+03  0.7546771E-02  0.1242507E+00
          2   -1    0    0  502    0 -0.00000000000E+00  0.00000000000E+00  0.31449796374E+03  0.31449796374E+03  0.00000000000E+00 0. -1.
         21   -1    0    0  501  502  0.00000000000E+00 -0.00000000000E+00 -0.10874100600E+03  0.10874100600E+03  0.00000000000E+00 0. -1.
         23    2    1    2    0    0  0.41947293988E+01 -0.89464656879E+02  0.23979590580E+03  0.27167128937E+03  0.91003804575E+02 0.  0.
         23    2    1    2    0    0 -0.11703650123E+02  0.41756003631E+02 -0.42038007973E+02  0.10261377915E+03  0.82956942397E+02 0.  0.
        -13    1    4    4    0    0  0.16162284028E+02 -0.19222983979E+02 -0.19788764497E+02  0.31974016613E+02  0.00000000000E+00 0. -1.
         13    1    4    4    0    0 -0.27865934151E+02  0.60978987610E+02 -0.22249243476E+02  0.70639762537E+02  0.00000000000E+00 0.  1.
        -13    1    3    3    0    0 -0.31294490709E+02 -0.18798698796E+02  0.29295198099E+02  0.46807529916E+02  0.00000000000E+00 0.  1.
         13    1    3    3    0    0  0.35489220108E+02 -0.70665958083E+02  0.21050070770E+03  0.22486375946E+03  0.00000000000E+00 0. -1.
          2    1    1    2  501    0  0.75089207241E+01  0.47708653248E+02  0.79990599163E+01  0.48953901220E+02  0.00000000000E+00 0. -1.
<scales pt_clust_5="13000.00000" pt_clust_6="13000.00000" pt_clust_7="13000.00000" pt_clust_8="13000.00000" pt_clust_9="48.29596"></scales>
<clustering>
<clus scale="   48.296">  2  9  1 -1</clus>
<clus scale="   82.957">  5  6 -1 -1</clus>
<clus scale="   91.004">  7  8 -1 -1</clus>
<clus scale="  115.971">  2  5  1 -1</clus>
<clus scale="   48.296">  2  5  1 -1</clus>
</clustering>
</event>
<event>
 9    1  0.3288491E-005  0.9696455E+02  0.7546771E-02  0.1288115E+00
         -1   -1    0    0    0  501 -0.00000000000E+00  0.00000000000E+00  0.38292447751E+03  0.38292447751E+03  0.00000000000E+00 0.  1.
         21   -1    0    0  501  502  0.00000000000E+00 -0.00000000000E+00 -0.45256314959E+02  0.45256314959E+02  0.00000000000E+00 0. -1.
         23    2    1    2    0    0 -0.31450935810E+02 -0.79220312745E+01  0.22892060316E+03  0.24713802906E+03  0.87296293806E+02 0.  0.
         23    2    1    2    0    0  0.51742917816E+02  0.66954631975E+01  0.43368131294E+02  0.11257570110E+03  0.89835042690E+02 0.  0.
        -13    1    4    4    0    0  0.14958912060E+02 -0.30701538989E+02 -0.12100223552E+02  0.36232153625E+02  0.00000000000E+00 0. -1.
         13    1    4    4    0    0  0.36784005756E+02  0.37397002186E+02  0.55468354846E+02  0.76343547477E+02  0.00000000000E+00 0.  1.
        -13    1    3    3    0    0  0.16589786006E+02  0.28276593277E+02  0.73335784343E+02  0.80330093939E+02  0.00000000000E+00 0. -1.
         13    1    3    3    0    0 -0.48040721815E+02 -0.36198624552E+02  0.15558481882E+03  0.16680793512E+03  0.00000000000E+00 0.  1.
         -1    1    1    2    0  502 -0.20291982007E+02  0.12265680770E+01  0.65379428098E+02  0.68467062311E+02  0.00000000000E+00 0.  1.
<scales pt_clust_5="13000.00000" pt_clust_6="13000.00000" pt_clust_7="13000.00000" pt_clust_8="13000.00000" pt_clust_9="20.32903"></scales>
<clustering>
<clus scale="   20.329">  2  9  1 -1</clus>
<clus scale="   87.296">  7  8 -1 -1</clus>
<clus scale="   89.835">  5  6 -1 -1</clus>
<clus scale="   94.617">  1  7  2 -1</clus>
<clus scale="   20.329">  2  5  1 -1</clus>
</clustering>
</event>
<event>
 9    1  0.3288491E-005  0.1288672E+03  0.7546771E-02  0.1235744E+00
         21   -1    0    0  501  502  0.00000000000E+00  0.00000000000E+00  0.91548883859E+02  0.91548883859E+02  0.00000000000E+00 0. -1.
          1   -1    0    0  502    0 -0.00000000000E+00 -0.00000000000E+00 -0.38638277425E+03  0.38638277425E+03  0.00000000000E+00 0. -1.
         23    2    1    2    0    0 -0.49420119587E+02  0.52452292422E+02 -0.28304767977E+03  0.31111332277E+03  0.10715371848E+03 0.  0.
         23    2    1    2    0    0  0.64763102212E+02 -0.34102246481E+02 -0.48118029557E+02  0.12331968744E+03  0.86805402592E+02 0.  0.
        -11    1    4    4    0    0 -0.73759497202E+01 -0.31641769518E+02  0.60825111162E+01  0.33054548159E+02  0.00000000000E+00 0. -1.
         11    1    4    4    0    0  0.72139051932E+02 -0.24604769631E+01 -0.54200540673E+02  0.90265139283E+02  0.00000000000E+00 0.  1.
        -13    1    3    3    0    0  0.30343840622E+02  0.13136732240E+02 -0.12968141357E+03  0.13383045776E+03  0.00000000000E+00 0.  1.
         13    1    3    3    0    0 -0.79763960209E+02  0.39315560181E+02 -0.15336626620E+03  0.17728286502E+03  0.00000000000E+00 0. -1.
          1    1    1    2  501    0 -0.15342982625E+02 -0.18350045941E+02  0.36331818934E+02  0.43498647897E+02  0.00000000000E+00 0. -1.
<scales pt_clust_5="13000.00000" pt_clust_6="13000.00000" pt_clust_7="13000.00000" pt_clust_8="13000.00000" pt_clust_9="23.91927"></scales>
<clustering>
<clus scale="   23.919">  1  9  2 -1</clus>
<clus scale="   86.805">  5  6 -1 -1</clus>
<clus scale="  107.154">  7  8 -1 -1</clus>
<clus scale="  112.517">  1  5  2 -1</clus>
<clus scale="   23.919">  1  5  2 -1</clus>
</clustering>
</event>
<event>
 9    1  0.3381834E-005  0.9213699E+02  0.7546771E-02  0.1298529E+00
         21   -1    0    0  501  502  0.00000000000E+00  0.00000000000E+00  0.21676116758E+03  0.21676116758E+03  0.00000000000E+00 0. -1.
         -3   -1    0    0    0  501 -0.00000000000E+00 -0.00000000000E+00 -0.12332041857E+03  0.12332041857E+03  0.00000000000E+00 0.  1.
         23    2    1    2    0    0 -0.15467038592E+02 -0.44790587458E+01 -0.85373671196E+02  0.12595837470E+03  0.91200642403E+02 0.  0.
         23    2    1    2    0    0 -0.60639760440E+01 -0.11451905500E+02  0.13278911843E+03  0.16087183947E+03  0.89882594623E+02 0.  0.
        -13    1    4    4    0    0  0.19745959581E+02  0.33524837267E+02  0.54346476168E+02  0.66838290713E+02  0.00000000000E+00 0.  1.
         13    1    4    4    0    0 -0.25809935625E+02 -0.44976742767E+02  0.78442642262E+02  0.94033548757E+02  0.00000000000E+00 0. -1.
        -13    1    3    3    0    0 -0.49000719275E+02  0.88511002688E+01 -0.25233292366E+02  0.55822320886E+02  0.00000000000E+00 0.  1.
         13    1    3    3    0    0  0.33533680683E+02 -0.13330159015E+02 -0.60140378830E+02  0.70136053819E+02  0.00000000000E+00 0. -1.
         -3    1    1    2    0  502  0.21531014636E+02  0.15930964245E+02  0.46025301779E+02  0.53251371972E+02  0.00000000000E+00 0.  1.
<scales pt_clust_5="13000.00000" pt_clust_6="13000.00000" pt_clust_7="13000.00000" pt_clust_8="13000.00000" pt_clust_9="26.78395"></scales>
<clustering>
<clus scale="   26.784">  1  9  2 -1</clus>
<clus scale="   89.883">  5  6 -1 -1</clus>
<clus scale="   90.833">  1  5  2 -1</clus>
<clus scale="   91.201">  7  8 -1 -1</clus>
<clus scale="   26.784">  1  5  2 -1</clus>
</clustering>
</event>
<event>
 9    1  0.3288491E-005  0.1060972E+03  0.7546771E-02  0.1271835E+00
         21   -1    0    0  501  502  0.00000000000E+00  0.00000000000E+00  0.17153593103E+03  0.17153593103E+03  0.00000000000E+00 0.  1.
         -1   -1    0    0    0  501 -0.00000000000E+00 -0.00000000000E+00 -0.15778604782E+03  0.15778604782E+03  0.00000000000E+00 0.  1.
         23    2    1    2    0    0  0.33135774559E+02 -0.17406267342E+02 -0.90405667047E+02  0.14094723326E+03  0.10144939739E+03 0.  0.
         23    2    1    2    0    0  0.17188236295E+02  0.37635462024E+02  0.60507162138E+02  0.11875500577E+03  0.93433244926E+02 0.  0.
        -11    1    4    4    0    0 -0.33421544883E+02  0.39086079476E+02  0.33447215496E+02  0.61346862150E+02  0.00000000000E+00 0. -1.
         11    1    4    4    0    0  0.50609781179E+02 -0.14506174512E+01  0.27059946641E+02  0.57408143623E+02  0.00000000000E+00 0.  1.
        -11    1    3    3    0    0 -0.92820627194E+01  0.37542315236E+02 -0.34302428483E+02  0.51693700984E+02  0.00000000000E+00 0. -1.
         11    1    3    3    0    0  0.42417837279E+02 -0.54948582578E+02 -0.56103238564E+02  0.89253532278E+02  0.00000000000E+00 0.  1.
         -1    1    1    2    0  502 -0.50324010855E+02 -0.20229194683E+02  0.43648388125E+02  0.69619739815E+02  0.00000000000E+00 0.  1.
<scales pt_clust_5="13000.00000" pt_clust_6="13000.00000" pt_clust_7="13000.00000" pt_clust_8="13000.00000" pt_clust_9="54.23768"></scales>
<clustering>
<clus scale="   54.238">  1  9  2 -1</clus>
<clus scale="   93.433">  5  6 -1 -1</clus>
<clus scale="   98.460">  1  5  2 -1</clus>
<clus scale="  101.449">  7  8 -1 -1</clus>
<clus scale="   54.238">  1  5  2 -1</clus>
</clustering>
</event>
<event>
 9    1  0.3288491E-005  0.9552782E+02  0.7546771E-02  0.1295814E+00
         -1   -1    0    0    0  501 -0.00000000000E+00  0.00000000000E+00  0.29402300097E+03  0.29402300097E+03  0.00000000000E+00 0.  1.
         21   -1    0    0  501  502  0.00000000000E+00 -0.00000000000E+00 -0.44982575493E+02  0.44982575493E+02  0.00000000000E+00 0. -1.
         23    2    1    2    0    0  0.79186611428E+01  0.37495411157E+02  0.15147637359E+03  0.17581275200E+03  0.80600378150E+02 0.  0.
         23    2    1    2    0    0  0.99720190578E+01 -0.16397211291E+02  0.98579450629E+02  0.13551175674E+03  0.90979219750E+02 0.  0.
        -11    1    3    3    0    0  0.40093960254E+02  0.13399840723E+02  0.43777986575E+02  0.60857156430E+02  0.00000000000E+00 0. -1.
         11    1    3    3    0    0 -0.32175299111E+02  0.24095570434E+02  0.10769838701E+03  0.11495559557E+03  0.00000000000E+00 0.  1.
        -13    1    4    4    0    0 -0.69889066815E+01  0.21602076986E+02  0.90264822970E+02  0.93076489043E+02  0.00000000000E+00 0.  1.
         13    1    4    4    0    0  0.16960925739E+02 -0.37999288277E+02  0.83146276592E+01  0.42435267698E+02  0.00000000000E+00 0. -1.
         -1    1    1    2    0  502 -0.17890680201E+02 -0.21098199866E+02 -0.10153987417E+01  0.27681067722E+02  0.00000000000E+00 0.  1.
<scales pt_clust_5="13000.00000" pt_clust_6="13000.00000" pt_clust_7="13000.00000" pt_clust_8="13000.00000" pt_clust_9="27.66244"></scales>
<clustering>
<clus scale="   27.662">  2  9  1 -1</clus>
<clus scale="   80.600">  5  6 -1 -1</clus>
<clus scale="   85.702">  1  5  2 -1</clus>
<clus scale="   90.979">  7  8 -1 -1</clus>
<clus scale="   27.662">  2  5  1 -1</clus>
</clustering>
</event>
<event>
 9    1  0.3288491E-005  0.1160823E+03  0.7546771E-02  0.1250256E+00
         21   -1    0    0  501  502  0.00000000000E+00  0.00000000000E+00  0.10241041622E+03  0.10241041622E+03  0.00000000000E+00 0. -1.
          2   -1    0    0  502    0 -0.00000000000E+00 -0.00000000000E+00 -0.45487722797E+03  0.45487722797E+03  0.00000000000E+00 0. -1.
         23    2    1    2    0    0  0.51521402754E+02 -0.35784500694E+02 -0.30788793777E+03  0.32761606249E+03  0.92748675158E+02 0.  0.
         23    2    1    2    0    0 -0.65598303162E+02  0.67982260484E+02 -0.99326680959E+02  0.16461639566E+03  0.91148467084E+02 0.  0.
        -13    1    3    3    0    0  0.37717379136E+02 -0.65641123926E+02 -0.17417214356E+03  0.18991391058E+03  0.00000000000E+00 0. -1.
         13    1    3    3    0    0  0.13804023618E+02  0.29856623232E+02 -0.13371579421E+03  0.13770215191E+03  0.00000000000E+00 0.  1.
        -13    1    4    4    0    0 -0.78324114442E+02  0.21202975921E+02 -0.49261728481E+02  0.94926029012E+02  0.00000000000E+00 0.  1.
         13    1    4    4    0    0  0.12725811281E+02  0.46779284563E+02 -0.50064952478E+02  0.69690366648E+02  0.00000000000E+00 0. -1.
          2    1    1    2  501    0  0.14076900408E+02 -0.32197759790E+02  0.54747806982E+02  0.65055186034E+02  0.00000000000E+00 0. -1.
<scales pt_clust_5="13000.00000" pt_clust_6="13000.00000" pt_clust_7="13000.00000" pt_clust_8="13000.00000" pt_clust_9="35.14050"></scales>
<clustering>
<clus scale="   35.141">  1  9  2 -1</clus>
<clus scale="   91.148">  7  8 -1 -1</clus>
<clus scale="   92.749">  5  6 -1 -1</clus>
<clus scale="  114.808">  1  7  2 -1</clus>
<clus scale="   35.141">  1  5  2 -1</clus>
</clustering>
</event>
<event>
 9    1  0.3288491E-005  0.1406190E+03  0.7546771E-02  0.1213302E+00
         21   -1    0    0  501  502  0.00000000000E+00  0.00000000000E+00  0.35673245543E+02  0.35673245543E+02  0.00000000000E+00 0. -1.
          2   -1    0    0  502    0 -0.00000000000E+00 -0.00000000000E+00 -0.80112133387E+03  0.80112133387E+03  0.00000000000E+00 0. -1.
         23    2    1    2    0    0 -0.11376730948E+03  0.30110432937E+02 -0.46015350209E+03  0.48282075873E+03  0.86746761913E+02 0.  0.
         23    2    1    2    0    0  0.80597251487E+02 -0.54170531534E+02 -0.26560834149E+03  0.29692875854E+03  0.90490514126E+02 0.  0.
        -11    1    4    4    0    0 -0.52983491997E+01 -0.38955868113E+02 -0.45312969463E+02  0.59990810681E+02  0.00000000000E+00 0. -1.
         11    1    4    4    0    0  0.85895600687E+02 -0.15214663422E+02 -0.22029537202E+03  0.23693794786E+03  0.00000000000E+00 0.  1.
        -13    1    3    3    0    0 -0.75750957170E+02  0.56914461464E+02 -0.24470535855E+03  0.26240841438E+03  0.00000000000E+00 0. -1.
         13    1    3    3    0    0 -0.38016352312E+02 -0.26804028527E+02 -0.21544814354E+03  0.22041234435E+03  0.00000000000E+00 0.  1.
          2    1    1    2  501    0  0.33170057995E+02  0.24060098597E+02 -0.39686244752E+02  0.57045062138E+02  0.00000000000E+00 0. -1.
<scales pt_clust_5="13000.00000" pt_clust_6="13000.00000" pt_clust_7="13000.00000" pt_clust_8="13000.00000" pt_clust_9="40.97732"></scales>
<clustering>
<clus scale="   40.977">  1  9  2 -1</clus>
<clus scale="   86.747">  7  8 -1 -1</clus>
<clus scale="   90.491">  5  6 -1 -1</clus>
<clus scale="  138.240">  2  7  1 -1</clus>
<clus scale="   40.977">  1  5  2 -1</clus>
</clustering>
</event>
<event>
 9    1  0.3931693E-005  0.1217521E+03  0.7546771E-02  0.1245743E+00
         21   -1    0    0  501  502  0.00000000000E+00  0.00000000000E+00  0.34793092692E+03  0.34793092692E+03  0.00000000000E+00 0. -1.
          1   -1    0    0  502    0 -0.00000000000E+00 -0.00000000000E+00 -0.50724997553E+03  0.50724997553E+03  0.00000000000E+00 0. -1.
         23    2    1    2    0    0 -0.44942289823E+02  0.42014624389E+02 -0.36735027959E+03  0.38301393360E+03  0.89265936053E+02 0.  0.
         23    2    1    2    0    0  0.11306233032E+02 -0.79238685090E+02 -0.96686048030E+02  0.16334722346E+03  0.10453479520E+03 0.  0.
        -11    1    4    4    0    0  0.20834725832E+02  0.15090402760E+02 -0.53091003436E+02  0.58995429499E+02  0.00000000000E+00 0. -1.
         11    1    4    4    0    0 -0.95284927999E+01 -0.94329087850E+02 -0.43595044594E+02  0.10435179396E+03  0.00000000000E+00 0.  1.
        -13    1    3    3    0    0 -0.57616128324E+02 -0.74000644950E+00 -0.14111796595E+03  0.15242849526E+03  0.00000000000E+00 0.  1.
         13    1    3    3    0    0  0.12673838501E+02  0.42754630838E+02 -0.22623231365E+03  0.23058543835E+03  0.00000000000E+00 0. -1.
          1    1    1    2  501    0  0.33636056791E+02  0.37224060702E+02  0.30471727901E+03  0.30881974538E+03  0.00000000000E+00 0. -1.
<scales pt_clust_5="13000.00000" pt_clust_6="13000.00000" pt_clust_7="13000.00000" pt_clust_8="13000.00000" pt_clust_9="50.16986"></scales>
<clustering>
<clus scale="   50.170">  1  9  2 -1</clus>
<clus scale="   89.266">  7  8 -1 -1</clus>
<clus scale="  104.535">  5  6 -1 -1</clus>
<clus scale="  108.924">  2  7  1 -1</clus>
<clus scale="   50.170">  1  5  2 -1</clus>
</clustering>
</event>
<event>
 9    1  0.3288491E-005  0.1191727E+03  0.7546771E-02  0.1244696E+00
         -2   -1    0    0    0  501 -0.00000000000E+00  0.00000000000E+00  0.38964758914E+03  0.38964758914E+03  0.00000000000E+00 0.  1.
         21   -1    0    0  501  502  0.00000000000E+00 -0.00000000000E+00 -0.11434073052E+03  0.11434073052E+03  0.00000000000E+00 0. -1.
         23    2    1    2    0    0  0.71584219537E+02 -0.34893207184E-01  0.28154736447E+03  0.30445914615E+03  0.91116143092E+02 0.  0.
         23    2    1    2    0    0 -0.11065187720E+03 -0.17010437123E+02 -0.33910750238E+02  0.14871118864E+03  0.91825300140E+02 0.  0.
        -11    1    3    3    0    0  0.39445730927E+02 -0.36396254697E+02  0.74619214472E+02  0.91916702578E+02  0.00000000000E+00 0.  1.
         11    1    3    3    0    0  0.32138488610E+02  0.36361361490E+02  0.20692814999E+03  0.21254244357E+03  0.00000000000E+00 0. -1.
        -13    1    4    4    0    0 -0.34488427590E+02 -0.33374051401E+01  0.31923798546E+02  0.47113892052E+02  0.00000000000E+00 0.  1.
         13    1    4    4    0    0 -0.76163449608E+02 -0.13673031983E+02 -0.65834548785E+02  0.10159729659E+03  0.00000000000E+00 0. -1.
         -2    1    1    2    0  502  0.39067657661E+02  0.17045330330E+02  0.27670244397E+02  0.50817984869E+02  0.00000000000E+00 0.  1.
<scales pt_clust_5="13000.00000" pt_clust_6="13000.00000" pt_clust_7="13000.00000" pt_clust_8="13000.00000" pt_clust_9="42.62423"></scales>
<clustering>
<clus scale="   42.624">  2  9  1 -1</clus>
<clus scale="   91.116">  5  6 -1 -1</clus>
<clus scale="   91.825">  7  8 -1 -1</clus>
<clus scale="  118.627">  1  5  2 -1</clus>
<clus scale="   42.624">  2  5  1 -1</clus>
</clustering>
</event>
<event>
 9    1  0.3288491E-005  0.2119333E+03  0.7546771E-02  0.1140147E+00
          2   -1    0    0  502    0 -0.00000000000E+00  0.00000000000E+00  0.13137395505E+04  0.13137395505E+04  0.00000000000E+00 0. -1.
         21   -1    0    0  501  502  0.00000000000E+00 -0.00000000000E+00 -0.83802197924E+02  0.83802197924E+02  0.00000000000E+00 0. -1.
         23    2    1    2    0    0  0.44730082233E+02 -0.21731227407E+03  0.76677063765E+03  0.80346665464E+03  0.91629960422E+02 0.  0.
         23    2    1    2    0    0  0.10662599014E+03  0.14505640640E+03  0.28895664070E+03  0.35225135421E+03  0.90413569358E+02 0.  0.
        -11    1    3    3    0    0 -0.26827431583E+01 -0.11730999445E+03  0.26796023207E+03  0.29252609777E+03  0.00000000000E+00 0.  1.
         11    1    3    3    0    0  0.47412825392E+02 -0.10000227963E+03  0.49881040558E+03  0.51094055687E+03  0.00000000000E+00 0. -1.
        -11    1    4    4    0    0  0.80561815293E+02  0.12036953421E+03  0.14913611681E+03  0.20789567621E+03  0.00000000000E+00 0. -1.
         11    1    4    4    0    0  0.26064174845E+02  0.24686872190E+02  0.13982052389E+03  0.14435567800E+03  0.00000000000E+00 0.  1.
          2    1    1    2  501    0 -0.15135607237E+03  0.72255867671E+02  0.17421007421E+03  0.24182373955E+03  0.00000000000E+00 0. -1.
<scales pt_clust_5="13000.00000" pt_clust_6="13000.00000" pt_clust_7="13000.00000" pt_clust_8="13000.00000" pt_clust_9="167.71873"></scales>
<clustering>
<clus scale="   90.414">  7  8 -1 -1</clus>
<clus scale="   91.630">  5  6 -1 -1</clus>
<clus scale="  167.719">  2  9  1 -1</clus>
<clus scale="  211.410">  2  7  1 -1</clus>
<clus scale="  167.719">  2  5  1 -1</clus>
</clustering>
</event>
<event>
 9    1  0.3288491E-005  0.1736755E+03  0.7546771E-02  0.1174198E+00
          1   -1    0    0  502    0 -0.00000000000E+00  0.00000000000E+00  0.55858567795E+03  0.55858567795E+03  0.00000000000E+00 0. -1.
         21   -1    0    0  501  502  0.00000000000E+00 -0.00000000000E+00 -0.12709388495E+03  0.12709388495E+03  0.00000000000E+00 0.  1.
         23    2    1    2    0    0 -0.34021510789E+02 -0.14624827913E+03  0.43082112439E+03  0.46536389337E+03  0.91709812372E+02 0.  0.
         23    2    1    2    0    0  0.60708469920E+02  0.12308054520E+03  0.36948228623E+02  0.16966984993E+03  0.92673337308E+02 0.  0.
        -11    1    3    3    0    0 -0.55724300824E+02 -0.51750263326E+02  0.23228964179E+03  0.24442128619E+03  0.00000000000E+00 0. -1.
         11    1    3    3    0    0  0.21702790034E+02 -0.94498015805E+02  0.19853148260E+03  0.22094260718E+03  0.00000000000E+00 0.  1.
        -11    1    4    4    0    0  0.50025540207E+02  0.49399771809E+02 -0.23118347340E+02  0.74009121813E+02  0.00000000000E+00 0.  1.
         11    1    4    4    0    0  0.10682929713E+02  0.73680773396E+02  0.60066575962E+02  0.95660728114E+02  0.00000000000E+00 0. -1.
          1    1    1    2  501    0 -0.26686959131E+02  0.23167733926E+02 -0.36277560018E+02  0.50645819608E+02  0.00000000000E+00 0. -1.
<scales pt_clust_5="13000.00000" pt_clust_6="13000.00000" pt_clust_7="13000.00000" pt_clust_8="13000.00000" pt_clust_9="35.34031"></scales>
<clustering>
<clus scale="   35.340">  2  9  1 -1</clus>
<clus scale="   91.710">  5  6 -1 -1</clus>
<clus scale="   92.673">  7  8 -1 -1</clus>
<clus scale="  173.163">  1  5  2 -1</clus>
<clus scale="   35.340">  2  5  1 -1</clus>
</clustering>
</event>
<event>
 9    1  0.3288491E-005  0.1862922E+03  0.7546771E-02  0.1162124E+00
         21   -1    0    0  501  502  0.00000000000E+00  0.00000000000E+00  0.67275720918E+02  0.67275720918E+02  0.00000000000E+00 0. -1.
          3   -1    0    0  502    0 -0.00000000000E+00 -0.00000000000E+00 -0.10022115134E+04  0.10022115134E+04  0.00000000000E+00 0. -1.
         23    2    1    2    0    0  0.67824138713E+02  0.14113165885E+03 -0.64583620801E+03  0.67065196344E+03  0.90285046256E+02 0.  0.
         23    2    1    2    0    0 -0.12174490681E+03 -0.14106626503E+03 -0.17228813366E+03  0.27017926226E+03  0.92693685292E+02 0.  0.
        -11    1    4    4    0    0 -0.49517785816E+02 -0.37903785518E+02 -0.75425785572E+01  0.62813999713E+02  0.00000000000E+00 0.  1.
         11    1    4    4    0    0 -0.72227120998E+02 -0.10316247951E+03 -0.16474555510E+03  0.20736526255E+03  0.00000000000E+00 0. -1.
        -11    1    3    3    0    0  0.43133157777E+02  0.12996286438E+02 -0.10425238294E+03  0.11356906317E+03  0.00000000000E+00 0.  1.
         11    1    3    3    0    0  0.24690980937E+02  0.12813537241E+03 -0.54158382507E+03  0.55708290027E+03  0.00000000000E+00 0. -1.
          3    1    1    2  501    0  0.53920768100E+02 -0.65393817030E-01 -0.11681145078E+03  0.12865600857E+03  0.00000000000E+00 0. -1.
<scales pt_clust_5="13000.00000" pt_clust_6="13000.00000" pt_clust_7="13000.00000" pt_clust_8="13000.00000" pt_clust_9="53.92083"></scales>
<clustering>
<clus scale="   53.921">  1  9  2 -1</clus>
<clus scale="   90.285">  7  8 -1 -1</clus>
<clus scale="   92.694">  5  6 -1 -1</clus>
<clus scale="  185.105">  2  7  1 -1</clus>
<clus scale="   53.921">  1  5  2 -1</clus>
</clustering>
</event>
<event>
 9    1  0.3288491E-005  0.1028142E+03  0.7546771E-02  0.1274976E+00
          3   -1    0    0  502    0 -0.00000000000E+00  0.00000000000E+00  0.73859078537E+02  0.73859078537E+02  0.00000000000E+00 0. -1.
         21   -1    0    0  501  502  0.00000000000E+00 -0.00000000000E+00 -0.38594640127E+03  0.38594640127E+03  0.00000000000E+00 0.  1.
         23    2    1    2    0    0 -0.55475727968E+02 -0.20002984503E+02  0.73139378348E+01  0.10877447513E+03  0.91108270589E+02 0.  0.
         23    2    1    2    0    0  0.29774555581E+01  0.33122103400E+01 -0.18539732167E+03  0.20614585642E+03  0.90022837411E+02 0.  0.
        -11    1    3    3    0    0 -0.10940896241E+02  0.33101371107E+02 -0.11927120577E+02  0.36846440602E+02  0.00000000000E+00 0.  1.
         11    1    3    3    0    0 -0.44534831727E+02 -0.53104355611E+02  0.19241058412E+02  0.71928034525E+02  0.00000000000E+00 0. -1.
        -13    1    4    4    0    0  0.40342891873E+01  0.43403956724E+02 -0.57805247563E+02  0.72399071779E+02  0.00000000000E+00 0.  1.
         13    1    4    4    0    0 -0.10568336292E+01 -0.40091746384E+02 -0.12759207411E+03  0.13374678464E+03  0.00000000000E+00 0. -1.
          3    1    1    2  501    0  0.52498272410E+02  0.16690774163E+02 -0.13400393889E+03  0.14488514826E+03  0.00000000000E+00 0. -1.
<scales pt_clust_5="13000.00000" pt_clust_6="13000.00000" pt_clust_7="13000.00000" pt_clust_8="13000.00000" pt_clust_9="55.08766"></scales>
<clustering>
<clus scale="   55.088">  2  9  1 -1</clus>
<clus scale="   90.023">  7  8 -1 -1</clus>
<clus scale="   91.108">  5  6 -1 -1</clus>
<clus scale="  101.854">  2  7  1 -1</clus>
<clus scale="   55.088">  2  5  1 -1</clus>
</clustering>
</event>
<event>
 9    1  0.3288491E-005  0.9573479E+02  0.7546771E-02  0.1290500E+00
         21   -1    0    0  501  502  0.00000000000E+00  0.00000000000E+00  0.58180386526E+03  0.58180386526E+03  0.00000000000E+00 0. -1.
          1   -1    0    0  502    0 -0.00000000000E+00 -0.00000000000E+00 -0.29090295070E+02  0.29090295070E+02  0.00000000000E+00 0. -1.
         23    2    1    2    0    0 -0.24962354256E+02  0.21457958238E+02  0.11466736772E+03  0.15130277272E+03  0.93061059047E+02 0.  0.
         23    2    1    2    0    0 -0.44453853511E+01 -0.11570901578E+02  0.20833894265E+03  0.22779838890E+03  0.91287149948E+02 0.  0.
        -13    1    3    3    0    0  0.12615076494E+02  0.48192223590E+02  0.77231189945E+02  0.91903684745E+02  0.00000000000E+00 0.  1.
         13    1    3    3    0    0 -0.37577430751E+02 -0.26734265352E+02  0.37436177775E+02  0.59399087974E+02  0.00000000000E+00 0. -1.
        -13    1    4    4    0    0 -0.12106587757E+02 -0.45550987695E+02  0.65013114625E+02  0.80300479578E+02  0.00000000000E+00 0.  1.
         13    1    4    4    0    0  0.76612024060E+01  0.33980086117E+02  0.14332582803E+03  0.14749790932E+03  0.00000000000E+00 0. -1.
          1    1    1    2  501    0  0.29407739607E+02 -0.98870566598E+01  0.22970725982E+03  0.23179299871E+03  0.00000000000E+00 0. -1.
<scales pt_clust_5="13000.00000" pt_clust_6="13000.00000" pt_clust_7="13000.00000" pt_clust_8="13000.00000" pt_clust_9="31.02530"></scales>
<clustering>
<clus scale="   31.025">  1  9  2 -1</clus>
<clus scale="   91.287">  7  8 -1 -1</clus>
<clus scale="   93.061">  5  6 -1 -1</clus>
<clus scale="   94.011">  1  7  2 -1</clus>
<clus scale="   31.025">  1  5  2 -1</clus>
</clustering>
</event>
<event>
 9    1  0.3288491E-005  0.1281144E+03  0.7546771E-02  0.1230607E+00
         21   -1    0    0  501  502  0.00000000000E+00  0.00000000000E+00  0.20405344143E+03  0.20405344143E+03  0.00000000000E+00 0.  1.
         -3   -1    0    0    0  501 -0.00000000000E+00 -0.00000000000E+00 -0.43532172157E+03  0.43532172157E+03  0.00000000000E+00 0.  1.
         23    2    1    2    0    0  0.81095511593E+02 -0.35622848800E+02 -0.24764081941E+03  0.27938008913E+03  0.94243245928E+02 0.  0.
         23    2    1    2    0    0 -0.65288644920E+02  0.56719814704E+02 -0.14712213849E+03  0.19438876765E+03  0.93071611246E+02 0.  0.
        -13    1    4    4    0    0 -0.31976437380E+02 -0.23508378404E+02 -0.38398020806E+02  0.55222680164E+02  0.00000000000E+00 0. -1.
         13    1    4    4    0    0 -0.33312207540E+02  0.80228193108E+02 -0.10872411768E+03  0.13916608749E+03  0.00000000000E+00 0.  1.
        -13    1    3    3    0    0  0.93351689368E+02 -0.64989219119E+01 -0.15040998760E+03  0.17714383496E+03  0.00000000000E+00 0.  1.
         13    1    3    3    0    0 -0.12256177776E+02 -0.29123926888E+02 -0.97230831814E+02  0.10223625417E+03  0.00000000000E+00 0. -1.
         -3    1    1    2    0  502 -0.15806866673E+02 -0.21096965904E+02  0.16349467776E+03  0.16560630622E+03  0.00000000000E+00 0.  1.
<scales pt_clust_5="13000.00000" pt_clust_6="13000.00000" pt_clust_7="13000.00000" pt_clust_8="13000.00000" pt_clust_9="26.36170"></scales>
<clustering>
<clus scale="   26.362">  1  9  2 -1</clus>
<clus scale="   93.072">  5  6 -1 -1</clus>
<clus scale="   94.243">  7  8 -1 -1</clus>
<clus scale="  127.255">  1  5  2 -1</clus>
<clus scale="   26.362">  1  5  2 -1</clus>
</clustering>
</event>
<event>
 9    1  0.3288491E-005  0.9901061E+02  0.7546771E-02  0.1284741E+00
         21   -1    0    0  501  502  0.00000000000E+00  0.00000000000E+00  0.96932395132E+02  0.96932395132E+02  0.00000000000E+00 0. -1.
          2   -1    0    0  502    0 -0.00000000000E+00 -0.00000000000E+00 -0.24467372260E+03  0.24467372260E+03  0.00000000000E+00 0. -1.
         23    2    1    2    0    0 -0.22974175909E+02 -0.14442710574E+02 -0.98699435940E+02  0.13643597272E+03  0.90204164818E+02 0.  0.
         23    2    1    2    0    0  0.66686820187E+02 -0.21074005204E+02 -0.84121152202E+02  0.13881664548E+03  0.85454357018E+02 0.  0.
        -11    1    4    4    0    0  0.61013262673E+02  0.13892769046E+02 -0.82244308810E+02  0.10334289325E+03  0.00000000000E+00 0. -1.
         11    1    4    4    0    0  0.56735575146E+01 -0.34966774251E+02 -0.18768433922E+01  0.35473752233E+02  0.00000000000E+00 0.  1.
        -11    1    3    3    0    0  0.23524117309E+02  0.24191652913E+02 -0.35415034054E+02  0.48916712920E+02  0.00000000000E+00 0.  1.
         11    1    3    3    0    0 -0.46498293219E+02 -0.38634363488E+02 -0.63284401886E+02  0.87519259802E+02  0.00000000000E+00 0. -1.
          2    1    1    2  501    0 -0.43712644278E+02  0.35516715779E+02  0.35079260676E+02  0.66353499523E+02  0.00000000000E+00 0. -1.
<scales pt_clust_5="13000.00000" pt_clust_6="13000.00000" pt_clust_7="13000.00000" pt_clust_8="13000.00000" pt_clust_9="56.32257"></scales>
<clustering>
<clus scale="   56.323">  1  9  2 -1</clus>
<clus scale="   85.454">  5  6 -1 -1</clus>
<clus scale="   90.204">  7  8 -1 -1</clus>
<clus scale="   94.704">  1  5  2 -1</clus>
<clus scale="   56.323">  1  5  2 -1</clus>
</clustering>
</event>
<event>
 9    1  0.3288491E-005  0.1664038E+03  0.7546771E-02  0.1181822E+00
         21   -1    0    0  501  502  0.00000000000E+00  0.00000000000E+00  0.30134639822E+03  0.30134639822E+03  0.00000000000E+00 0.  1.
          2   -1    0    0  502    0 -0.00000000000E+00 -0.00000000000E+00 -0.11908766194E+03  0.11908766194E+03  0.00000000000E+00 0. -1.
         23    2    1    2    0    0 -0.15517774879E+03  0.14152293250E+02  0.65159403156E+02  0.19205589864E+03  0.91429203520E+02 0.  0.
         23    2    1    2    0    0  0.11809588087E+03 -0.12580951709E+02  0.11957301254E+03  0.19118067326E+03  0.90263099197E+02 0.  0.
        -11    1    3    3    0    0 -0.13855003834E+03 -0.18145835574E+01  0.18211444278E+02  0.13975357791E+03  0.00000000000E+00 0.  1.
         11    1    3    3    0    0 -0.16627710453E+02  0.15966876807E+02  0.46947958878E+02  0.52302320720E+02  0.00000000000E+00 0. -1.
        -13    1    4    4    0    0  0.30711262905E+02 -0.86510168234E+01  0.95157497485E+02  0.10036419226E+03  0.00000000000E+00 0.  1.
         13    1    4    4    0    0  0.87384617968E+02 -0.39299348858E+01  0.24415515054E+02  0.90816480999E+02  0.00000000000E+00 0. -1.
          2    1    1    2  501    0  0.37081867920E+02 -0.15713415407E+01 -0.24736794143E+01  0.37197488255E+02  0.00000000000E+00 0. -1.
<scales pt_clust_5="13000.00000" pt_clust_6="13000.00000" pt_clust_7="13000.00000" pt_clust_8="13000.00000" pt_clust_9="37.11516"></scales>
<clustering>
<clus scale="   37.115">  1  9  2 -1</clus>
<clus scale="   90.263">  7  8 -1 -1</clus>
<clus scale="   91.429">  5  6 -1 -1</clus>
<clus scale="  165.766">  1  7  2 -1</clus>
<clus scale="   37.115">  1  5  2 -1</clus>
</clustering>
</event>
<event>
 9    1  0.3288491E-005  0.1222150E+03  0.7546771E-02  0.1242171E+00
         -4   -1    0    0    0  501 -0.00000000000E+00  0.00000000000E+00  0.78868219898E+02  0.78868219898E+02  0.00000000000E+00 0.  1.
         21   -1    0    0  501  502  0.00000000000E+00 -0.00000000000E+00 -0.10432121174E+04  0.10432121174E+04  0.00000000000E+00 0.  1.
         23    2    1    2    0    0 -0.19798941585E+02 -0.68878153751E+02 -0.36863278878E+01  0.11487524984E+03  0.89702485255E+02 0.  0.
         23    2    1    2    0    0 -0.82215402375E+02  0.11302567358E+03 -0.74832923929E+03  0.76754021782E+03  0.97914045573E+02 0.  0.
        -11    1    3    3    0    0  0.14426438677E+02 -0.78056821746E+02 -0.29002618014E+01  0.79431738446E+02  0.00000000000E+00 0.  1.
         11    1    3    3    0    0 -0.34225380262E+02  0.91786679946E+01 -0.78606608637E+00  0.35443511397E+02  0.00000000000E+00 0. -1.
        -13    1    4    4    0    0 -0.81549175378E+02  0.29058879260E+02 -0.36618879097E+03  0.37628302792E+03  0.00000000000E+00 0. -1.
         13    1    4    4    0    0 -0.66622699763E+00  0.83966794324E+02 -0.38214044831E+03  0.39125718990E+03  0.00000000000E+00 0.  1.
         -4    1    1    2    0  502  0.10201434396E+03 -0.44147519833E+02 -0.21232833037E+03  0.23966486968E+03  0.00000000000E+00 0.  1.
<scales pt_clust_5="13000.00000" pt_clust_6="13000.00000" pt_clust_7="13000.00000" pt_clust_8="13000.00000" pt_clust_9="111.15723"></scales>
<clustering>
<clus scale="   89.702">  5  6 -1 -1</clus>
<clus scale="   97.914">  7  8 -1 -1</clus>
<clus scale="  111.157">  2  9  1 -1</clus>
<clus scale="  115.741">  1  5  2 -1</clus>
<clus scale="  111.157">  2  5  1 -1</clus>
</clustering>
</event>
<event>
 9    1  0.3288491E-005  0.1241878E+03  0.7546771E-02  0.1243813E+00
         21   -1    0    0  501  502  0.00000000000E+00  0.00000000000E+00  0.98896777202E+02  0.98896777202E+02  0.00000000000E+00 0. -1.
         -4   -1    0    0    0  501 -0.00000000000E+00 -0.00000000000E+00 -0.18739456891E+03  0.18739456891E+03  0.00000000000E+00 0.  1.
         23    2    1    2    0    0  0.44200336934E+02  0.22267122844E+02 -0.67841280936E+02  0.12458870223E+03  0.92034834597E+02 0.  0.
         23    2    1    2    0    0 -0.63485222512E+02 -0.79220050511E+01 -0.35266109117E+02  0.13357561808E+03  0.11182851002E+03 0.  0.
        -11    1    3    3    0    0 -0.17245362206E+02 -0.22146051720E+02 -0.24507729378E+02  0.37262298959E+02  0.00000000000E+00 0. -1.
         11    1    3    3    0    0  0.61445699139E+02  0.44413174564E+02 -0.43333551558E+02  0.87326403271E+02  0.00000000000E+00 0.  1.
        -13    1    4    4    0    0 -0.50764023409E+02  0.48314133591E+02 -0.27982611503E+02  0.75460374527E+02  0.00000000000E+00 0.  1.
         13    1    4    4    0    0 -0.12721199104E+02 -0.56236138642E+02 -0.72834976137E+01  0.58115243555E+02  0.00000000000E+00 0. -1.
         -4    1    1    2    0  502  0.19284885579E+02 -0.14345117793E+02  0.14609598349E+02  0.28127025797E+02  0.00000000000E+00 0.  1.
<scales pt_clust_5="13000.00000" pt_clust_6="13000.00000" pt_clust_7="13000.00000" pt_clust_8="13000.00000" pt_clust_9="24.03517"></scales>
<clustering>
<clus scale="   24.035">  1  9  2 -1</clus>
<clus scale="   92.035">  5  6 -1 -1</clus>
<clus scale="  106.712">  2  5  1 -1</clus>
<clus scale="  111.829">  7  8 -1 -1</clus>
<clus scale="   24.035">  1  5  2 -1</clus>
</clustering>
</event>
<event>
 9    1  0.3288491E-005  0.2338551E+03  0.7546771E-02  0.1161403E+00
         -1   -1    0    0    0  501 -0.00000000000E+00  0.00000000000E+00  0.69788589629E+03  0.69788589629E+03  0.00000000000E+00 0.  1.
         21   -1    0    0  501  502  0.00000000000E+00 -0.00000000000E+00 -0.22964596358E+03  0.22964596358E+03  0.00000000000E+00 0.  1.
         23    2    1    2    0    0  0.12429560385E+02 -0.25232294156E+02  0.45167383049E+03  0.46158804335E+03  0.90901649995E+02 0.  0.
         23    2    1    2    0    0  0.20498217503E+03  0.45838733011E+02  0.72646178117E+02  0.24047217100E+03  0.91817843074E+02 0.  0.
        -11    1    3    3    0    0 -0.39123809525E+02 -0.17012079408E+02  0.18543977484E+03  0.19028398097E+03  0.00000000000E+00 0. -1.
         11    1    3    3    0    0  0.51553369910E+02 -0.82202147477E+01  0.26623405565E+03  0.27130406238E+03  0.00000000000E+00 0.  1.
        -13    1    4    4    0    0  0.19521438172E+03  0.64840588987E+02  0.75066381824E+02  0.21897013150E+03  0.00000000000E+00 0.  1.
         13    1    4    4    0    0  0.97677933151E+01 -0.19001855976E+02 -0.24202037067E+01  0.21502039502E+02  0.00000000000E+00 0. -1.
         -1    1    1    2    0  502 -0.21741173542E+03 -0.20606438855E+02 -0.56080075905E+02  0.22547164552E+03  0.00000000000E+00 0.  1.
<scales pt_clust_5="13000.00000" pt_clust_6="13000.00000" pt_clust_7="13000.00000" pt_clust_8="13000.00000" pt_clust_9="215.07600"></scales>
<clustering>
<clus scale="   90.902">  5  6 -1 -1</clus>
<clus scale="   91.818">  7  8 -1 -1</clus>
<clus scale="   95.154">  1  5  2 -1</clus>
<clus scale="  215.076">  2  9  1 -1</clus>
<clus scale="  215.076">  2  5  1 -1</clus>
</clustering>
</event>
<event>
 9    1  0.3288491E-005  0.1023410E+03  0.7546771E-02  0.1276452E+00
         21   -1    0    0  501  502  0.00000000000E+00  0.00000000000E+00  0.20720114093E+03  0.20720114093E+03  0.00000000000E+00 0.  1.
         -2   -1    0    0    0  501 -0.00000000000E+00 -0.00000000000E+00 -0.69485526770E+02  0.69485526770E+02  0.00000000000E+00 0.  1.
         23    2    1    2    0    0  0.17097511600E+02 -0.50728255265E+02  0.38390310388E+02  0.11077161546E+03  0.89055342768E+02 0.  0.
         23    2    1    2    0    0 -0.27890070463E+02  0.29621636586E+02  0.51183830778E+02  0.11225342628E+03  0.91245546702E+02 0.  0.
        -11    1    4    4    0    0 -0.57613897288E+02  0.29810326413E+02  0.51019053545E+02  0.82528543827E+02  0.00000000000E+00 0.  1.
         11    1    4    4    0    0  0.29723826826E+02 -0.18868982783E+00  0.16477723342E+00  0.29724882448E+02  0.00000000000E+00 0. -1.
        -13    1    3    3    0    0  0.32775516693E+02  0.45190327055E+01  0.41719613895E+02  0.53246430252E+02  0.00000000000E+00 0. -1.
         13    1    3    3    0    0 -0.15678005092E+02 -0.55247287970E+02 -0.33293035066E+01  0.57525185211E+02  0.00000000000E+00 0.  1.
         -2    1    1    2    0  502  0.10792558862E+02  0.21106618679E+02  0.48141472995E+02  0.53661625963E+02  0.00000000000E+00 0.  1.
<scales pt_clust_5="13000.00000" pt_clust_6="13000.00000" pt_clust_7="13000.00000" pt_clust_8="13000.00000" pt_clust_9="23.70588"></scales>
<clustering>
<clus scale="   23.706">  1  9  2 -1</clus>
<clus scale="   89.055">  7  8 -1 -1</clus>
<clus scale="   91.246">  5  6 -1 -1</clus>
<clus scale="  100.393">  2  7  1 -1</clus>
<clus scale="   23.706">  1  5  2 -1</clus>
</clustering>
</event>
<event>
 9    1  0.3288491E-005  0.1132899E+03  0.7546771E-02  0.1261540E+00
         -2   -1    0    0    0  501 -0.00000000000E+00  0.00000000000E+00  0.88820655262E+02  0.88820655262E+02  0.00000000000E+00 0.  1.
         21   -1    0    0  501  502  0.00000000000E+00 -0.00000000000E+00 -0.26394251679E+03  0.26394251679E+03  0.00000000000E+00 0. -1.
         23    2    1    2    0    0 -0.16310351512E+02 -0.41569897121E+02  0.17360496942E+02  0.10260804329E+03  0.90735548607E+02 0.  0.
         23    2    1    2    0    0  0.50531606321E+01  0.24907193672E+02 -0.78951679888E+02  0.13485731867E+03  0.10633544053E+03 0.  0.
        -11    1    4    4    0    0  0.31026332061E+02  0.47052190816E+02 -0.90706215192E+01  0.57086058863E+02  0.00000000000E+00 0.  1.
         11    1    4    4    0    0 -0.25973171429E+02 -0.22144997144E+02 -0.69881058369E+02  0.77771259803E+02  0.00000000000E+00 0. -1.
        -13    1    3    3    0    0  0.15207001122E+02 -0.56012182985E+02  0.30459827688E+02  0.65547071854E+02  0.00000000000E+00 0.  1.
         13    1    3    3    0    0 -0.31517352634E+02  0.14442285864E+02 -0.13099330745E+02  0.37060971439E+02  0.00000000000E+00 0. -1.
         -2    1    1    2    0  502  0.11257190880E+02  0.16662703449E+02 -0.11353067858E+03  0.11529781009E+03  0.00000000000E+00 0.  1.
<scales pt_clust_5="13000.00000" pt_clust_6="13000.00000" pt_clust_7="13000.00000" pt_clust_8="13000.00000" pt_clust_9="20.10895"></scales>
<clustering>
<clus scale="   20.109">  2  9  1 -1</clus>
<clus scale="   90.736">  7  8 -1 -1</clus>
<clus scale="   98.794">  1  7  2 -1</clus>
<clus scale="  106.335">  5  6 -1 -1</clus>
<clus scale="   20.109">  2  5  1 -1</clus>
</clustering>
</event>
<event>
 9    1  0.3288491E-005  0.1250234E+03  0.7546771E-02  0.1236040E+00
          1   -1    0    0  502    0 -0.00000000000E+00  0.00000000000E+00  0.47185853138E+03  0.47185853138E+03  0.00000000000E+00 0. -1.
         21   -1    0    0  501  502  0.00000000000E+00 -0.00000000000E+00 -0.13305147328E+03  0.13305147328E+03  0.00000000000E+00 0. -1.
         23    2    1    2    0    0 -0.62334622621E+02 -0.85329724077E+02  0.27272437458E+03  0.30547482946E+03  0.88144880469E+02 0.  0.
         23    2    1    2    0    0 -0.31147305965E+02  0.75946443682E+02  0.13519551390E+03  0.18280113108E+03  0.91653748249E+02 0.  0.
        -11    1    4    4    0    0 -0.52337732395E+02  0.11177945577E+02  0.73172140205E+02  0.90655098046E+02  0.00000000000E+00 0. -1.
         11    1    4    4    0    0  0.21190426430E+02  0.64768498105E+02  0.62023373697E+02  0.92146033033E+02  0.00000000000E+00 0.  1.
        -11    1    3    3    0    0 -0.63876901073E+02 -0.52727038948E+02  0.25545771331E+03  0.26854988813E+03  0.00000000000E+00 0. -1.
         11    1    3    3    0    0  0.15422784513E+01 -0.32602685130E+02  0.17266661276E+02  0.36924941329E+02  0.00000000000E+00 0.  1.
          1    1    1    2  501    0  0.93481928586E+02  0.93832803958E+01 -0.69112830388E+02  0.11663404412E+03  0.00000000000E+00 0. -1.
<scales pt_clust_5="13000.00000" pt_clust_6="13000.00000" pt_clust_7="13000.00000" pt_clust_8="13000.00000" pt_clust_9="93.95167"></scales>
<clustering>
<clus scale="   88.145">  7  8 -1 -1</clus>
<clus scale="   91.654">  5  6 -1 -1</clus>
<clus scale="   93.952">  2  9  1 -1</clus>
<clus scale="  122.474">  1  7  2 -1</clus>
<clus scale="   93.952">  2  5  1 -1</clus>
</clustering>
</event>
<event>
 9    1  0.3288491E-005  0.2869604E+03  0.7546771E-02  0.1092309E+00
         21   -1    0    0  501  502  0.00000000000E+00  0.00000000000E+00  0.11511442262E+03  0.11511442262E+03  0.00000000000E+00 0.  1.
          1   -1    0    0  502    0 -0.00000000000E+00 -0.00000000000E+00 -0.12592524408E+04  0.12592524408E+04  0.00000000000E+00 0. -1.
         23    2    1    2    0    0 -0.18827243771E+03 -0.19187574907E+03 -0.87393236924E+03  0.91873972298E+03  0.89789078894E+02 0.  0.
         23    2    1    2    0    0  0.21299101616E+03  0.18667989848E+03 -0.29738790892E+03  0.41852080351E+03  0.80656910069E+02 0.  0.
        -11    1    4    4    0    0  0.93778807462E+01  0.33376635027E+02 -0.64715911415E+02  0.73417256849E+02  0.00000000000E+00 0. -1.
         11    1    4    4    0    0  0.20361313541E+03  0.15330326345E+03 -0.23267199751E+03  0.34510354666E+03  0.00000000000E+00 0.  1.
        -11    1    3    3    0    0 -0.14484225063E+03 -0.16127721993E+03 -0.79168842560E+03  0.82082896054E+03  0.00000000000E+00 0. -1.
         11    1    3    3    0    0 -0.43430187080E+02 -0.30598529139E+02 -0.82243943646E+02  0.97910762441E+02  0.00000000000E+00 0.  1.
          1    1    1    2  501    0 -0.24718578447E+02  0.51958505902E+01  0.27182259971E+02  0.37106336938E+02  0.00000000000E+00 0. -1.
<scales pt_clust_5="13000.00000" pt_clust_6="13000.00000" pt_clust_7="13000.00000" pt_clust_8="13000.00000" pt_clust_9="25.25876"></scales>
<clustering>
<clus scale="   25.259">  1  9  2 -1</clus>
<clus scale="   80.657">  5  6 -1 -1</clus>
<clus scale="   89.789">  7  8 -1 -1</clus>
<clus scale="  284.235">  1  5  2 -1</clus>
<clus scale="   25.259">  1  5  2 -1</clus>
</clustering>
</event>
<event>
 9    1  0.3288491E-005  0.1343924E+03  0.7546771E-02  0.1221261E+00
          3   -1    0    0  502    0 -0.00000000000E+00  0.00000000000E+00  0.28022163663E+03  0.28022163663E+03  0.00000000000E+00 0. -1.
         21   -1    0    0  501  502  0.00000000000E+00 -0.00000000000E+00 -0.30975110933E+03  0.30975110933E+03  0.00000000000E+00 0. -1.
         23    2    1    2    0    0 -0.41265663170E+02 -0.79413288003E+02  0.14605770600E+03  0.19587082676E+03  0.94990536512E+02 0.  0.
         23    2    1    2    0    0  0.14471616634E+03  0.31255476990E+02  0.96283434670E+01  0.17655658825E+03  0.95707106397E+02 0.  0.
        -11    1    3    3    0    0 -0.22833551069E+02 -0.21132146444E+02 -0.62691187868E+01  0.31737052764E+02  0.00000000000E+00 0.  1.
         11    1    3    3    0    0 -0.18432112101E+02 -0.58281141559E+02  0.15232682479E+03  0.16413377400E+03  0.00000000000E+00 0. -1.
        -11    1    4    4    0    0  0.72143702399E+02  0.61056777545E+02  0.22245765985E+02  0.97095406607E+02  0.00000000000E+00 0.  1.
         11    1    4    4    0    0  0.72572463938E+02 -0.29801300555E+02 -0.12617422518E+02  0.79461181641E+02  0.00000000000E+00 0. -1.
          3    1    1    2  501    0 -0.10345050317E+03  0.48157811013E+02 -0.18521552217E+03  0.21754533095E+03  0.00000000000E+00 0. -1.
<scales pt_clust_5="13000.00000" pt_clust_6="13000.00000" pt_clust_7="13000.00000" pt_clust_8="13000.00000" pt_clust_9="114.11039"></scales>
<clustering>
<clus scale="   94.991">  5  6 -1 -1</clus>
<clus scale="   95.707">  7  8 -1 -1</clus>
<clus scale="  114.110">  2  9  1 -1</clus>
<clus scale="  133.883">  1  5  2 -1</clus>
<clus scale="  114.110">  2  5  1 -1</clus>
</clustering>
</event>
<event>
 9    1  0.3288491E-005  0.1094329E+03  0.7546771E-02  0.1269071E+00
         21   -1    0    0  501  502  0.00000000000E+00  0.00000000000E+00  0.32316825698E+02  0.32316825698E+02  0.00000000000E+00 0. -1.
          2   -1    0    0  502    0 -0.00000000000E+00 -0.00000000000E+00 -0.53837038844E+03  0.53837038844E+03  0.00000000000E+00 0. -1.
         23    2    1    2    0    0 -0.48771452030E+02 -0.19030311252E+02 -0.31193351748E+03  0.33272226917E+03  0.10325106194E+03 0.  0.
         23    2    1    2    0    0  0.14445550723E+02  0.15627128554E+02 -0.17891341626E+03  0.20026758806E+03  0.87431202805E+02 0.  0.
        -11    1    4    4    0    0  0.36505481458E+02 -0.17154310670E+01 -0.26124012595E+02  0.44922788363E+02  0.00000000000E+00 0.  1.
         11    1    4    4    0    0 -0.22059930735E+02  0.17342559621E+02 -0.15278940367E+03  0.15534479969E+03  0.00000000000E+00 0. -1.
        -13    1    3    3    0    0  0.31758515881E+02 -0.26742807362E+01 -0.63468206507E+02  0.71020900766E+02  0.00000000000E+00 0.  1.
         13    1    3    3    0    0 -0.80529967910E+02 -0.16356030515E+02 -0.24846531097E+03  0.26170136840E+03  0.00000000000E+00 0. -1.
          2    1    1    2  501    0  0.34325901307E+02  0.34031826976E+01 -0.15206629000E+02  0.37697356917E+02  0.00000000000E+00 0. -1.
<scales pt_clust_5="13000.00000" pt_clust_6="13000.00000" pt_clust_7="13000.00000" pt_clust_8="13000.00000" pt_clust_9="34.49419"></scales>
<clustering>
<clus scale="   34.494">  1  9  2 -1</clus>
<clus scale="   87.431">  5  6 -1 -1</clus>
<clus scale="   94.652">  1  5  2 -1</clus>
<clus scale="  103.251">  7  8 -1 -1</clus>
<clus scale="   34.494">  1  5  2 -1</clus>
</clustering>
</event>
<event>
 9    1  0.3288491E-005  0.2265549E+03  0.7546771E-02  0.1129380E+00
         21   -1    0    0  501  502  0.00000000000E+00  0.00000000000E+00  0.16583847508E+03  0.16583847508E+03  0.00000000000E+00 0.  1.
          2   -1    0    0  502    0 -0.00000000000E+00 -0.00000000000E+00 -0.85254491962E+03  0.85254491962E+03  0.00000000000E+00 0. -1.
         23    2    1    2    0    0  0.68936813332E+02  0.19427224153E+03 -0.52907340936E+03  0.57578202936E+03  0.95458288162E+02 0.  0.
         23    2    1    2    0    0  0.22087482721E+02 -0.21714564092E+03 -0.22539696859E+03  0.32684055357E+03  0.91547079387E+02 0.  0.
        -13    1    4    4    0    0  0.24873937488E+02 -0.30567451310E+02 -0.83784531756E+02  0.92590116143E+02  0.00000000000E+00 0. -1.
         13    1    4    4    0    0 -0.27864547666E+01 -0.18657818961E+03 -0.14161243683E+03  0.23425043742E+03  0.00000000000E+00 0.  1.
        -13    1    3    3    0    0  0.51915721022E+01  0.14873625713E+03 -0.34491082430E+03  0.37564997448E+03  0.00000000000E+00 0. -1.
         13    1    3    3    0    0  0.63745241229E+02  0.45535984398E+02 -0.18416258506E+03  0.20013205488E+03  0.00000000000E+00 0.  1.
          2    1    1    2  501    0 -0.91024296053E+02  0.22873399394E+02  0.67763933403E+02  0.11576081177E+03  0.00000000000E+00 0. -1.
<scales pt_clust_5="13000.00000" pt_clust_6="13000.00000" pt_clust_7="13000.00000" pt_clust_8="13000.00000" pt_clust_9="93.85422"></scales>
<clustering>
<clus scale="   91.547">  5  6 -1 -1</clus>
<clus scale="   93.854">  1  9  2 -1</clus>
<clus scale="   95.458">  7  8 -1 -1</clus>
<clus scale="  224.935">  1  5  2 -1</clus>
<clus scale="   93.854">  1  5  2 -1</clus>
</clustering>
</event>
<event>
 9    1  0.3288491E-005  0.1474088E+03  0.7546771E-02  0.1226644E+00
          3   -1    0    0  502    0 -0.00000000000E+00  0.00000000000E+00  0.24894150936E+03  0.24894150936E+03  0.00000000000E+00 0. -1.
         21   -1    0    0  501  502  0.00000000000E+00 -0.00000000000E+00 -0.19389979322E+03  0.19389979322E+03  0.00000000000E+00 0. -1.
         23    2    1    2    0    0 -0.37715716772E+01  0.13436717665E+02  0.10204222106E+03  0.13651282281E+03  0.89601148309E+02 0.  0.
         23    2    1    2    0    0 -0.65830920290E+02 -0.10525852288E+03  0.44230642973E+02  0.15936292889E+03  0.89594233185E+02 0.  0.
        -11    1    4    4    0    0 -0.24774063907E+02 -0.67923472267E+02 -0.19473954743E+02  0.74877147653E+02  0.00000000000E+00 0. -1.
         11    1    4    4    0    0 -0.41056856383E+02 -0.37335050614E+02  0.63704597716E+02  0.84485781233E+02  0.00000000000E+00 0.  1.
        -13    1    3    3    0    0 -0.31114051170E+02  0.26939694728E+02  0.97306705394E+02  0.10565238401E+03  0.00000000000E+00 0.  1.
         13    1    3    3    0    0  0.27342479493E+02 -0.13502977063E+02  0.47355156676E+01  0.30860438802E+02  0.00000000000E+00 0. -1.
          3    1    1    2  501    0  0.69602491967E+02  0.91821805216E+02 -0.91231147897E+02  0.14696555089E+03  0.00000000000E+00 0. -1.
<scales pt_clust_5="13000.00000" pt_clust_6="13000.00000" pt_clust_7="13000.00000" pt_clust_8="13000.00000" pt_clust_9="117.05655"></scales>
<clustering>
<clus scale="   89.594">  5  6 -1 -1</clus>
<clus scale="   89.601">  7  8 -1 -1</clus>
<clus scale="   90.682">  1  7  2 -1</clus>
<clus scale="  117.057">  2  9  1 -1</clus>
<clus scale="  117.057">  2  5  1 -1</clus>
</clustering>
</event>
<event>
 9    1  0.3288491E-005  0.2064503E+03  0.7546771E-02  0.1161856E+00
         -2   -1    0    0    0  501 -0.00000000000E+00  0.00000000000E+00  0.77770501650E+03  0.77770501650E+03  0.00000000000E+00 0.  1.
         21   -1    0    0  501  502  0.00000000000E+00 -0.00000000000E+00 -0.14537894187E+03  0.14537894187E+03  0.00000000000E+00 0.  1.
         23    2    1    2    0    0  0.35933623741E+02  0.96090460765E+02  0.24471999975E+03  0.28038727262E+03  0.90578929133E+02 0.  0.
         23    2    1    2    0    0 -0.21510873943E+03 -0.86523755496E+02  0.39064794310E+03  0.46324057163E+03  0.90707671761E+02 0.  0.
        -11    1    4    4    0    0 -0.19943807973E+03 -0.59503019876E+02  0.37358758448E+03  0.42764920238E+03  0.00000000000E+00 0.  1.
         11    1    4    4    0    0 -0.15670659709E+02 -0.27020735621E+02  0.17060358615E+02  0.35591369252E+02  0.00000000000E+00 0. -1.
        -13    1    3    3    0    0  0.35234190423E+02  0.65187659600E+02  0.66683557321E+02  0.99687391158E+02  0.00000000000E+00 0.  1.
         13    1    3    3    0    0  0.69943331854E+00  0.30902801166E+02  0.17803644243E+03  0.18069988146E+03  0.00000000000E+00 0. -1.
         -2    1    1    2    0  502  0.17917511569E+03 -0.95667052688E+01 -0.30418682088E+01  0.17945611412E+03  0.00000000000E+00 0.  1.
<scales pt_clust_5="13000.00000" pt_clust_6="13000.00000" pt_clust_7="13000.00000" pt_clust_8="13000.00000" pt_clust_9="185.45577"></scales>
<clustering>
<clus scale="   90.579">  7  8 -1 -1</clus>
<clus scale="   90.708">  5  6 -1 -1</clus>
<clus scale="  136.854">  1  7  2 -1</clus>
<clus scale="  185.456">  2  9  1 -1</clus>
<clus scale="  185.456">  2  5  1 -1</clus>
</clustering>
</event>
<event>
 9    1  0.3288491E-005  0.2059275E+03  0.7546771E-02  0.1144971E+00
          3   -1    0    0  502    0 -0.00000000000E+00  0.00000000000E+00  0.82115554606E+02  0.82115554606E+02  0.00000000000E+00 0. -1.
         21   -1    0    0  501  502  0.00000000000E+00 -0.00000000000E+00 -0.74714299825E+03  0.74714299825E+03  0.00000000000E+00 0.  1.
         23    2    1    2    0    0 -0.11755632535E+01 -0.19367543522E+03 -0.18842668037E+03  0.28458797689E+03  0.89298077013E+02 0.  0.
         23    2    1    2    0    0 -0.52323805879E+02  0.16610460155E+03 -0.41169557527E+03  0.45615494573E+03  0.90860159030E+02 0.  0.
        -13    1    4    4    0    0  0.24671432295E+02  0.63638961892E+02 -0.14155716480E+03  0.15715288082E+03  0.00000000000E+00 0.  1.
         13    1    4    4    0    0 -0.76995238175E+02  0.10246563966E+03 -0.27013841046E+03  0.29900206491E+03  0.00000000000E+00 0. -1.
        -13    1    3    3    0    0  0.11048663207E+02 -0.93532158138E+02 -0.14900072199E+03  0.17627124757E+03  0.00000000000E+00 0.  1.
         13    1    3    3    0    0 -0.12224226460E+02 -0.10014327708E+03 -0.39425958380E+02  0.10831672932E+03  0.00000000000E+00 0. -1.
          3    1    1    2  501    0  0.53499369133E+02  0.27570833668E+02 -0.64905188005E+02  0.88515630239E+02  0.00000000000E+00 0. -1.
<scales pt_clust_5="13000.00000" pt_clust_6="13000.00000" pt_clust_7="13000.00000" pt_clust_8="13000.00000" pt_clust_9="60.18585"></scales>
<clustering>
<clus scale="   60.186">  2  9  1 -1</clus>
<clus scale="   89.298">  7  8 -1 -1</clus>
<clus scale="   90.860">  5  6 -1 -1</clus>
<clus scale="  205.243">  1  7  2 -1</clus>
<clus scale="   60.186">  2  5  1 -1</clus>
</clustering>
</event>
<event>
 9    1  0.3288491E-005  0.9493528E+02  0.7546771E-02  0.1291479E+00
          1   -1    0    0  502    0 -0.00000000000E+00  0.00000000000E+00  0.17748859269E+03  0.17748859269E+03  0.00000000000E+00 0. -1.
         21   -1    0    0  501  502  0.00000000000E+00 -0.00000000000E+00 -0.11345773646E+03  0.11345773646E+03  0.00000000000E+00 0. -1.
         23    2    1    2    0    0  0.26185020242E+02  0.22287718013E+02  0.92605468443E+02  0.13451339951E+03  0.91299968260E+02 0.  0.
         23    2    1    2    0    0  0.13239236459E+02 -0.20299700684E+02  0.16877955810E+02  0.96231931567E+02  0.91588012485E+02 0.  0.
        -13    1    4    4    0    0 -0.69937694669E+00  0.36276501527E+02  0.35289943825E+01  0.36454457787E+02  0.00000000000E+00 0.  1.
         13    1    4    4    0    0  0.13938613405E+02 -0.56576202212E+02  0.13348961428E+02  0.59777473781E+02  0.00000000000E+00 0. -1.
        -13    1    3    3    0    0  0.18452637406E+02  0.47127075122E+02  0.15186267106E+02  0.52840171701E+02  0.00000000000E+00 0.  1.
         13    1    3    3    0    0  0.77323828358E+01 -0.24839357109E+02  0.77419201337E+02  0.81673227814E+02  0.00000000000E+00 0. -1.
          1    1    1    2  501    0 -0.39424256700E+02 -0.19880173283E+01 -0.45452568023E+02  0.60200998075E+02  0.00000000000E+00 0. -1.
<scales pt_clust_5="13000.00000" pt_clust_6="13000.00000" pt_clust_7="13000.00000" pt_clust_8="13000.00000" pt_clust_9="39.47435"></scales>
<clustering>
<clus scale="   39.474">  2  9  1 -1</clus>
<clus scale="   91.300">  7  8 -1 -1</clus>
<clus scale="   91.588">  5  6 -1 -1</clus>
<clus scale="   94.657">  1  7  2 -1</clus>
<clus scale="   39.474">  2  5  1 -1</clus>
</clustering>
</event>
<event>
 9    1  0.3430068E-005  0.9226398E+02  0.7546771E-02  0.1297664E+00
         21   -1    0    0  501  502  0.00000000000E+00  0.00000000000E+00  0.43759262321E+03  0.43759262321E+03  0.00000000000E+00 0. -1.
          3   -1    0    0  502    0 -0.00000000000E+00 -0.00000000000E+00 -0.10871825304E+03  0.10871825304E+03  0.00000000000E+00 0. -1.
         23    2    1    2    0    0 -0.60260593941E+00 -0.54720066184E+00 -0.20105470996E+02  0.94237307869E+02  0.92063986813E+02 0.  0.
         23    2    1    2    0    0  0.37652195520E+02 -0.56600515103E+02  0.36472158338E+03  0.38217123685E+03  0.91715400872E+02 0.  0.
        -11    1    3    3    0    0  0.44556563209E+02 -0.10603259611E+02 -0.97344837621E+01  0.46823889346E+02  0.00000000000E+00 0.  1.
         11    1    3    3    0    0 -0.45159169149E+02  0.10056058949E+02 -0.10370987234E+02  0.47413418522E+02  0.00000000000E+00 0. -1.
        -13    1    4    4    0    0  0.87622290832E+01 -0.77598600268E+02  0.26383723825E+03  0.27515160859E+03  0.00000000000E+00 0. -1.
         13    1    4    4    0    0  0.28889966437E+02  0.20998085165E+02  0.10088434513E+03  0.10701962826E+03  0.00000000000E+00 0.  1.
          3    1    1    2  501    0 -0.37049589581E+02  0.57147715764E+02 -0.15741742208E+02  0.69902331527E+02  0.00000000000E+00 0. -1.
<scales pt_clust_5="13000.00000" pt_clust_6="13000.00000" pt_clust_7="13000.00000" pt_clust_8="13000.00000" pt_clust_9="68.10681"></scales>
<clustering>
<clus scale="   68.107">  1  9  2 -1</clus>
<clus scale="   91.715">  7  8 -1 -1</clus>
<clus scale="   91.916">  1  7  2 -1</clus>
<clus scale="   92.064">  5  6 -1 -1</clus>
<clus scale="   68.107">  1  5  2 -1</clus>
</clustering>
</event>
<event>
 9    1  0.3288491E-005  0.1339984E+03  0.7546771E-02  0.1238988E+00
         21   -1    0    0  501  502  0.00000000000E+00  0.00000000000E+00  0.92042670948E+02  0.92042670948E+02  0.00000000000E+00 0. -1.
          1   -1    0    0  502    0 -0.00000000000E+00 -0.00000000000E+00 -0.62538228228E+03  0.62538228228E+03  0.00000000000E+00 0. -1.
         23    2    1    2    0    0  0.17311922315E+02  0.13173842566E+02 -0.13960407620E+03  0.16811757174E+03  0.91109643038E+02 0.  0.
         23    2    1    2    0    0 -0.10642675269E+03  0.28694891578E+02 -0.42323545905E+03  0.44652270654E+03  0.90023458964E+02 0.  0.
        -11    1    4    4    0    0 -0.53080919881E+02  0.54412426956E+02 -0.30440755554E+03  0.31375508941E+03  0.00000000000E+00 0. -1.
         11    1    4    4    0    0 -0.53345832810E+02 -0.25717535377E+02 -0.11882790352E+03  0.13276761713E+03  0.00000000000E+00 0.  1.
        -11    1    3    3    0    0  0.42263042333E+02  0.41279779376E+01 -0.22525955399E+02  0.48068946480E+02  0.00000000000E+00 0.  1.
         11    1    3    3    0    0 -0.24951120018E+02  0.90458646284E+01 -0.11707812080E+03  0.12004862526E+03  0.00000000000E+00 0. -1.
          1    1    1    2  501    0  0.89114830376E+02 -0.41868734144E+02  0.29499923924E+02  0.10278467494E+03  0.00000000000E+00 0. -1.
<scales pt_clust_5="13000.00000" pt_clust_6="13000.00000" pt_clust_7="13000.00000" pt_clust_8="13000.00000" pt_clust_9="99.25398"></scales>
<clustering>
<clus scale="   90.023">  5  6 -1 -1</clus>
<clus scale="   91.110">  7  8 -1 -1</clus>
<clus scale="   93.671">  2  7  1 -1</clus>
<clus scale="   99.254">  1  9  2 -1</clus>
<clus scale="   99.254">  1  5  2 -1</clus>
</clustering>
</event>
<event>
 9    1  0.3288491E-005  0.1587549E+03  0.7546771E-02  0.1209337E+00
         21   -1    0    0  501  502  0.00000000000E+00  0.00000000000E+00  0.30251625246E+03  0.30251625246E+03  0.00000000000E+00 0. -1.
          1   -1    0    0  502    0 -0.00000000000E+00 -0.00000000000E+00 -0.18503304264E+03  0.18503304264E+03  0.00000000000E+00 0. -1.
         23    2    1    2    0    0  0.37663308155E+02 -0.15363330794E+02  0.97349789022E+00  0.10454205035E+03  0.96299199782E+02 0.  0.
         23    2    1    2    0    0  0.43619417665E+02  0.11884916214E+03 -0.56194686618E+02  0.16588283783E+03  0.91277029660E+02 0.  0.
        -13    1    3    3    0    0 -0.15609180949E+02 -0.29234894655E+02 -0.27042551800E+02  0.42774118381E+02  0.00000000000E+00 0.  1.
         13    1    3    3    0    0  0.53272489104E+02  0.13871563861E+02  0.28016049690E+02  0.61767931968E+02  0.00000000000E+00 0. -1.
        -13    1    4    4    0    0 -0.75259309709E+01  0.33353516508E+02  0.20756061051E+02  0.39998884619E+02  0.00000000000E+00 0.  1.
         13    1    4    4    0    0  0.51145348636E+02  0.85495645633E+02 -0.76950747669E+02  0.12588395321E+03  0.00000000000E+00 0. -1.
          1    1    1    2  501    0 -0.81282725820E+02 -0.10348583135E+03  0.17270439855E+03  0.21712440693E+03  0.00000000000E+00 0. -1.
<scales pt_clust_5="13000.00000" pt_clust_6="13000.00000" pt_clust_7="13000.00000" pt_clust_8="13000.00000" pt_clust_9="129.89083"></scales>
<clustering>
<clus scale="   91.277">  7  8 -1 -1</clus>
<clus scale="   96.299">  5  6 -1 -1</clus>
<clus scale="  104.538">  2  5  1 -1</clus>
<clus scale="  129.891">  1  9  2 -1</clus>
<clus scale="  129.891">  1  5  2 -1</clus>
</clustering>
</event>
<event>
 9    1  0.3288491E-005  0.1101963E+03  0.7546771E-02  0.1260210E+00
         21   -1    0    0  501  502  0.00000000000E+00  0.00000000000E+00  0.13783496156E+03  0.13783496156E+03  0.00000000000E+00 0.  1.
          1   -1    0    0  502    0 -0.00000000000E+00 -0.00000000000E+00 -0.29259744087E+03  0.29259744087E+03  0.00000000000E+00 0. -1.
         23    2    1    2    0    0 -0.44532835922E+02 -0.38955113435E+02 -0.24348335464E+03  0.26794048968E+03  0.94906731509E+02 0.  0.
         23    2    1    2    0    0  0.13170483501E+02  0.28607650796E+02  0.80736836638E+02  0.12851527363E+03  0.94899312147E+02 0.  0.
        -11    1    3    3    0    0 -0.61172133823E+01  0.29951324226E+02 -0.95041730732E+02  0.99837030720E+02  0.00000000000E+00 0.  1.
         11    1    3    3    0    0 -0.38415622539E+02 -0.68906437661E+02 -0.14844162391E+03  0.16810345896E+03  0.00000000000E+00 0. -1.
        -13    1    4    4    0    0 -0.87548912992E+01  0.57179919209E+02  0.70255976130E+02  0.91006007848E+02  0.00000000000E+00 0.  1.
         13    1    4    4    0    0  0.21925374800E+02 -0.28572268414E+02  0.10480860508E+02  0.37509265781E+02  0.00000000000E+00 0. -1.
          1    1    1    2  501    0  0.31362352421E+02  0.10347462639E+02  0.79840386869E+01  0.33976639124E+02  0.00000000000E+00 0. -1.
<scales pt_clust_5="13000.00000" pt_clust_6="13000.00000" pt_clust_7="13000.00000" pt_clust_8="13000.00000" pt_clust_9="33.02525"></scales>
<clustering>
<clus scale="   33.025">  1  9  2 -1</clus>
<clus scale="   94.899">  7  8 -1 -1</clus>
<clus scale="   94.907">  5  6 -1 -1</clus>
<clus scale="  110.190">  1  7  2 -1</clus>
<clus scale="   33.025">  1  5  2 -1</clus>
</clustering>
</event>
