<event>
 9    1  0.2728138E-005  0.2311483E+03  0.7546771E-02  0.1155333E+00
         21   -1    0    0  501  502  0.00000000000E+00  0.00000000000E+00  0.76861146694E+03  0.76861146694E+03  0.00000000000E+00 0. -1.
          1   -1    0    0  502    0 -0.00000000000E+00 -0.00000000000E+00 -0.84624481071E+02  0.84624481071E+02  0.00000000000E+00 0. -1.
         23    2    1    2    0    0  0.41107234349E+02  0.52544152200E+02 -0.17288385927E+02  0.11484805730E+03  0.91872168424E+02 0.  0.
        -24    2    1    2    0    0 -0.80174310144E+02  0.28263903586E+02  0.21504564943E+03  0.24394323132E+03  0.77697493621E+02 0.  0.
         11    1    4    4    0    0 -0.92006898354E+02  0.16493258562E+02  0.20260096485E+03  0.22312428797E+03  0.00000000000E+00 0. -1.
        -12    1    4    4    0    0  0.11832588210E+02  0.11770645023E+02  0.12444684581E+02  0.20818943353E+02  0.00000000000E+00 0.  1.
        -13    1    3    3    0    0  0.56420157267E+02  0.58774816147E+01 -0.29923308688E+02  0.64134104337E+02  0.00000000000E+00 0. -1.
         13    1    3    3    0    0 -0.15312922918E+02  0.46666670585E+02  0.12634922761E+02  0.50713952961E+02  0.00000000000E+00 0.  1.
          2    1    1    2  501    0  0.39067075795E+02 -0.80808055785E+02  0.48622972236E+03  0.49444465939E+03  0.00000000000E+00 0. -1.
<scales pt_clust_5="13000.00000" pt_clust_6="13000.00000" pt_clust_7="13000.00000" pt_clust_8="13000.00000" pt_clust_9="13000.00000"></scales>
<clustering>
<clus scale="   77.697">  5  6 -1 -1</clus>
<clus scale="   89.756">  5  9 -1 -1</clus>
<clus scale="   91.872">  7  8 -1 -1</clus>
<clus scale="  113.539">  2  7  1 -1</clus>
<clus scale="  231.148">  1  5  2 -1</clus>
</clustering>
</event>
<event>
 9    1  0.2728138E-005  0.3897554E+03  0.7546771E-02  0.1094828E+00
         21   -1    0    0  501  502  0.00000000000E+00  0.00000000000E+00  0.21272131768E+03  0.21272131768E+03  0.00000000000E+00 0. -1.
          1   -1    0    0  502    0 -0.00000000000E+00 -0.00000000000E+00 -0.31931583350E+03  0.31931583350E+03  0.00000000000E+00 0. -1.
         23    2    1    2    0    0  0.43971842237E+02 -0.86659051751E+01 -0.94422330265E+02  0.14209169005E+03  0.96259291009E+02 0.  0.
        -24    2    1    2    0    0  0.12946634769E+03 -0.64837763430E+02 -0.88763950502E+02  0.18659872897E+03  0.77295381444E+02 0.  0.
         13    1    4    4    0    0  0.11907799107E+03 -0.80936204941E+02 -0.84589766076E+02  0.16699001692E+03  0.00000000000E+00 0. -1.
        -14    1    4    4    0    0  0.10388356621E+02  0.16098441511E+02 -0.41741844255E+01  0.19608712043E+02  0.00000000000E+00 0.  1.
        -11    1    3    3    0    0  0.59319119899E+02  0.51528924668E+01 -0.10360054024E+03  0.11949218478E+03  0.00000000000E+00 0. -1.
         11    1    3    3    0    0 -0.15347277662E+02 -0.13818797642E+02  0.91782099738E+01  0.22599505265E+02  0.00000000000E+00 0.  1.
          2    1    1    2  501    0 -0.17343818993E+03  0.73503668605E+02  0.76591764953E+02  0.20334673216E+03  0.00000000000E+00 0. -1.
<scales pt_clust_5="13000.00000" pt_clust_6="13000.00000" pt_clust_7="13000.00000" pt_clust_8="13000.00000" pt_clust_9="13000.00000"></scales>
<clustering>
<clus scale="   77.295">  5  6 -1 -1</clus>
<clus scale="   96.259">  7  8 -1 -1</clus>
<clus scale="  106.181">  2  7  1 -1</clus>
<clus scale="  174.567">  5  9 -1 -1</clus>
<clus scale="  389.755">  1  5  2 -1</clus>
</clustering>
</event>
<event>
 9    1  0.2728138E-005  0.1757412E+03  0.7546771E-02  0.1199448E+00
         21   -1    0    0  501  502  0.00000000000E+00  0.00000000000E+00  0.10525994204E+03  0.10525994204E+03  0.00000000000E+00 0.  1.
          1   -1    0    0  502    0 -0.00000000000E+00 -0.00000000000E+00 -0.30482617961E+03  0.30482617961E+03  0.00000000000E+00 0. -1.
         23    2    1    2    0    0 -0.20695239631E+01 -0.30091924710E+02  0.47775251458E+02  0.10666763960E+03  0.90474879518E+02 0.  0.
        -24    2    1    2    0    0 -0.13788345076E+02 -0.40571548932E+02 -0.19212744764E+03  0.21235043670E+03  0.79646611910E+02 0.  0.
         11    1    4    4    0    0 -0.33740728645E+02 -0.15028168407E+02 -0.31677720509E+02  0.48659640276E+02  0.00000000000E+00 0. -1.
        -12    1    4    4    0    0  0.19952383569E+02 -0.25543380525E+02 -0.16044972713E+03  0.16369079642E+03  0.00000000000E+00 0.  1.
        -11    1    3    3    0    0  0.96216187062E+01 -0.52021082023E+02  0.59133136679E+02  0.79344164088E+02  0.00000000000E+00 0.  1.
         11    1    3    3    0    0 -0.11691142669E+02  0.21929157313E+02 -0.11357885221E+02  0.27323475512E+02  0.00000000000E+00 0. -1.
          2    1    1    2  501    0  0.15857869039E+02  0.70663473641E+02 -0.55214041396E+02  0.91068045355E+02  0.00000000000E+00 0. -1.
<scales pt_clust_5="13000.00000" pt_clust_6="13000.00000" pt_clust_7="13000.00000" pt_clust_8="13000.00000" pt_clust_9="13000.00000"></scales>
<clustering>
<clus scale="   79.647">  5  6 -1 -1</clus>
<clus scale="   72.421">  5  9 -1 -1</clus>
<clus scale="   90.475">  7  8 -1 -1</clus>
<clus scale="   95.370">  2  7  1 -1</clus>
<clus scale="  175.741">  1  5  2 -1</clus>
</clustering>
</event>
<event>
 9    1  0.2728138E-005  0.1631440E+03  0.7546771E-02  0.1199528E+00
          1   -1    0    0  502    0 -0.00000000000E+00  0.00000000000E+00  0.22921366416E+03  0.22921366416E+03  0.00000000000E+00 0. -1.
         21   -1    0    0  501  502  0.00000000000E+00 -0.00000000000E+00 -0.28423607812E+03  0.28423607812E+03  0.00000000000E+00 0. -1.
         23    2    1    2    0    0 -0.50510632694E+02 -0.59472375062E+02  0.18695170177E+03  0.22161513370E+03  0.89855669162E+02 0.  0.
        -24    2    1    2    0    0  0.75523499939E+02  0.22384245912E+02 -0.14336663764E+03  0.18355438145E+03  0.83266828055E+02 0.  0.
         13    1    4    4    0    0  0.71746413265E+02  0.43354409078E+02 -0.13818823190E+03  0.16162654497E+03  0.00000000000E+00 0. -1.
        -14    1    4    4    0    0  0.37770866741E+01 -0.20970163166E+02 -0.51784057429E+01  0.21927836487E+02  0.00000000000E+00 0.  1.
        -13    1    3    3    0    0  0.56695980170E+01 -0.58660229925E+02  0.67486093846E+02  0.89596538879E+02  0.00000000000E+00 0. -1.
         13    1    3    3    0    0 -0.56180230711E+02 -0.81214513691E+00  0.11946560792E+03  0.13201859482E+03  0.00000000000E+00 0.  1.
          2    1    1    2  501    0 -0.25012867245E+02  0.37088129150E+02 -0.98607478084E+02  0.10828022712E+03  0.00000000000E+00 0. -1.
<scales pt_clust_5="13000.00000" pt_clust_6="13000.00000" pt_clust_7="13000.00000" pt_clust_8="13000.00000" pt_clust_9="13000.00000"></scales>
<clustering>
<clus scale="   83.267">  5  6 -1 -1</clus>
<clus scale="   44.734">  5  9 -1 -1</clus>
<clus scale="   89.856">  7  8 -1 -1</clus>
<clus scale="  119.006">  1  7  2 -1</clus>
<clus scale="  163.144">  2  5  1 -1</clus>
</clustering>
</event>
<event>
 9    1  0.2728138E-005  0.3217228E+03  0.7546771E-02  0.1086467E+00
          1   -1    0    0  502    0 -0.00000000000E+00  0.00000000000E+00  0.63480779439E+03  0.63480779439E+03  0.00000000000E+00 0. -1.
         21   -1    0    0  501  502  0.00000000000E+00 -0.00000000000E+00 -0.12314382288E+03  0.12314382288E+03  0.00000000000E+00 0. -1.
         23    2    1    2    0    0 -0.14735865225E+03 -0.15848156757E+03  0.24847185436E+03  0.34228874747E+03  0.92694900520E+02 0.  0.
        -24    2    1    2    0    0  0.17204089420E+02 -0.15934462815E+02  0.13554577982E+02  0.84483065401E+02  0.80023583756E+02 0.  0.
         13    1    4    4    0    0  0.12658296903E+02 -0.31567143210E+02  0.40570859848E+02  0.52940642986E+02  0.00000000000E+00 0. -1.
        -14    1    4    4    0    0  0.45457925170E+01  0.15632680394E+02 -0.27016281866E+02  0.31542422415E+02  0.00000000000E+00 0.  1.
        -13    1    3    3    0    0 -0.14051823671E+03 -0.12289298046E+03  0.24174122841E+03  0.30542901140E+03  0.00000000000E+00 0. -1.
         13    1    3    3    0    0 -0.68404155450E+01 -0.35588587110E+02  0.67306259515E+01  0.36859736068E+02  0.00000000000E+00 0.  1.
          2    1    1    2  501    0  0.13015456283E+03  0.17441603039E+03  0.24963753917E+03  0.33117980440E+03  0.00000000000E+00 0. -1.
<scales pt_clust_5="13000.00000" pt_clust_6="13000.00000" pt_clust_7="13000.00000" pt_clust_8="13000.00000" pt_clust_9="13000.00000"></scales>
<clustering>
<clus scale="   80.024">  5  6 -1 -1</clus>
<clus scale="   92.695">  7  8 -1 -1</clus>
<clus scale="  217.626">  5  9 -1 -1</clus>
<clus scale="  235.422">  1  7  2 -1</clus>
<clus scale="  321.723">  2  5  1 -1</clus>
</clustering>
</event>
<event>
 9    1  0.2728138E-005  0.5050938E+03  0.7546771E-02  0.1027208E+00
          1   -1    0    0  502    0 -0.00000000000E+00  0.00000000000E+00  0.11238063594E+04  0.11238063594E+04  0.00000000000E+00 0. -1.
         21   -1    0    0  501  502  0.00000000000E+00 -0.00000000000E+00 -0.15270058020E+03  0.15270058020E+03  0.00000000000E+00 0. -1.
         23    2    1    2    0    0 -0.25058557077E+03  0.18215070442E+03  0.39484135343E+03  0.51021691382E+03  0.91921691481E+02 0.  0.
        -24    2    1    2    0    0 -0.92643787343E+02 -0.36769899515E+02  0.19397329684E+03  0.23235325239E+03  0.80171673097E+02 0.  0.
         13    1    4    4    0    0 -0.23909946971E+02 -0.38935304238E+02  0.30311785254E+02  0.54831084300E+02  0.00000000000E+00 0. -1.
        -14    1    4    4    0    0 -0.68733840372E+02  0.21654047228E+01  0.16366151159E+03  0.17752216809E+03  0.00000000000E+00 0.  1.
        -13    1    3    3    0    0 -0.32765829876E+02  0.61066815883E+02  0.53340205589E+02  0.87452462183E+02  0.00000000000E+00 0. -1.
         13    1    3    3    0    0 -0.21781974090E+03  0.12108388854E+03  0.34150114784E+03  0.42276445163E+03  0.00000000000E+00 0.  1.
          2    1    1    2  501    0  0.34322935811E+03 -0.14538080491E+03  0.38229112889E+03  0.53393677335E+03  0.00000000000E+00 0. -1.
<scales pt_clust_5="13000.00000" pt_clust_6="13000.00000" pt_clust_7="13000.00000" pt_clust_8="13000.00000" pt_clust_9="13000.00000"></scales>
<clustering>
<clus scale="   80.172">  5  6 -1 -1</clus>
<clus scale="   91.922">  7  8 -1 -1</clus>
<clus scale="  323.143">  1  7  2 -1</clus>
<clus scale="  173.501">  5  9 -1 -1</clus>
<clus scale="  505.094">  2  5  1 -1</clus>
</clustering>
</event>
<event>
 9    1  0.2728138E-005  0.2497431E+03  0.7546771E-02  0.1151886E+00
          1   -1    0    0  502    0 -0.00000000000E+00  0.00000000000E+00  0.37996795798E+03  0.37996795798E+03  0.00000000000E+00 0. -1.
         21   -1    0    0  501  502  0.00000000000E+00 -0.00000000000E+00 -0.82736009969E+02  0.82736009969E+02  0.00000000000E+00 0.  1.
         23    2    1    2    0    0  0.28083309789E+02 -0.25129188915E+01  0.12817260334E+03  0.16112038436E+03  0.93469647267E+02 0.  0.
        -24    2    1    2    0    0  0.54803471442E+02  0.83691387356E+02  0.62464806083E+02  0.14403182098E+03  0.82677957491E+02 0.  0.
         11    1    4    4    0    0  0.60561911931E+02  0.20386845472E+02  0.44852078152E+02  0.78070977704E+02  0.00000000000E+00 0. -1.
        -12    1    4    4    0    0 -0.57584404892E+01  0.63304541884E+02  0.17612727930E+02  0.65960843272E+02  0.00000000000E+00 0.  1.
        -13    1    3    3    0    0  0.14795960225E+02  0.34201553298E+02  0.11341401876E+03  0.11937925422E+03  0.00000000000E+00 0.  1.
         13    1    3    3    0    0  0.13287349564E+02 -0.36714472189E+02  0.14758584576E+02  0.41741130138E+02  0.00000000000E+00 0. -1.
          2    1    1    2  501    0 -0.82886781230E+02 -0.81178468465E+02  0.10659453859E+03  0.15755176261E+03  0.00000000000E+00 0. -1.
<scales pt_clust_5="13000.00000" pt_clust_6="13000.00000" pt_clust_7="13000.00000" pt_clust_8="13000.00000" pt_clust_9="13000.00000"></scales>
<clustering>
<clus scale="   82.678">  5  6 -1 -1</clus>
<clus scale="   93.470">  7  8 -1 -1</clus>
<clus scale="   97.630">  1  7  2 -1</clus>
<clus scale="  106.427">  5  9 -1 -1</clus>
<clus scale="  249.743">  2  5  1 -1</clus>
</clustering>
</event>
<event>
 9    1  0.2728138E-005  0.3147043E+03  0.7546771E-02  0.1119407E+00
         21   -1    0    0  501  502  0.00000000000E+00  0.00000000000E+00  0.47881198838E+02  0.47881198838E+02  0.00000000000E+00 0. -1.
          1   -1    0    0  502    0 -0.00000000000E+00 -0.00000000000E+00 -0.96593445294E+03  0.96593445294E+03  0.00000000000E+00 0. -1.
         23    2    1    2    0    0  0.17937387526E+02 -0.53392108162E+02 -0.15703381943E+03  0.19029311861E+03  0.91538972364E+02 0.  0.
        -24    2    1    2    0    0 -0.84360408254E+02  0.75722935485E+02 -0.73638148415E+03  0.74924122907E+03  0.79082790156E+02 0.  0.
         11    1    4    4    0    0 -0.42605377936E+02  0.79886965597E+02 -0.39238521028E+03  0.40269504435E+03  0.00000000000E+00 0. -1.
        -12    1    4    4    0    0 -0.41755030318E+02 -0.41640301118E+01 -0.34399627388E+03  0.34654618472E+03  0.00000000000E+00 0.  1.
        -13    1    3    3    0    0 -0.30875368757E+02 -0.38457644945E+02 -0.43299502566E+02  0.65628696262E+02  0.00000000000E+00 0. -1.
         13    1    3    3    0    0  0.48812756283E+02 -0.14934463217E+02 -0.11373431686E+03  0.12466442235E+03  0.00000000000E+00 0.  1.
          2    1    1    2  501    0  0.66423020728E+02 -0.22330827323E+02 -0.24637950516E+02  0.74281304089E+02  0.00000000000E+00 0. -1.
<scales pt_clust_5="13000.00000" pt_clust_6="13000.00000" pt_clust_7="13000.00000" pt_clust_8="13000.00000" pt_clust_9="13000.00000"></scales>
<clustering>
<clus scale="   79.083">  5  6 -1 -1</clus>
<clus scale="   70.076">  5  9 -1 -1</clus>
<clus scale="   91.539">  7  8 -1 -1</clus>
<clus scale="  107.480">  2  7  1 -1</clus>
<clus scale="  314.704">  1  5  2 -1</clus>
</clustering>
</event>
<event>
 9    1  0.2728138E-005  0.2017285E+03  0.7546771E-02  0.1163954E+00
         21   -1    0    0  501  502  0.00000000000E+00  0.00000000000E+00  0.71752101638E+02  0.71752101638E+02  0.00000000000E+00 0.  1.
          1   -1    0    0  502    0 -0.00000000000E+00 -0.00000000000E+00 -0.42496989712E+03  0.42496989712E+03  0.00000000000E+00 0. -1.
         23    2    1    2    0    0  0.10319075270E+03 -0.21180271662E+02 -0.19725457413E+03  0.24173393833E+03  0.91809555994E+02 0.  0.
        -24    2    1    2    0    0 -0.87757204802E+02 -0.39436024223E+02 -0.49130737035E+02  0.13119101106E+03  0.74436046786E+02 0.  0.
         11    1    4    4    0    0 -0.99834921774E+02 -0.41392978539E+02 -0.49671386157E+02  0.11894383919E+03  0.00000000000E+00 0. -1.
        -12    1    4    4    0    0  0.12077716973E+02  0.19569543160E+01  0.54064912257E+00  0.12247171875E+02  0.00000000000E+00 0.  1.
        -11    1    3    3    0    0  0.45971014883E+02  0.12407239334E+02 -0.15715126372E+03  0.16420655738E+03  0.00000000000E+00 0. -1.
         11    1    3    3    0    0  0.57219737816E+02 -0.33587510996E+02 -0.40103310416E+02  0.77527380950E+02  0.00000000000E+00 0.  1.
          2    1    1    2  501    0 -0.15433547897E+02  0.60616295885E+02 -0.10683248431E+03  0.12379704936E+03  0.00000000000E+00 0. -1.
<scales pt_clust_5="13000.00000" pt_clust_6="13000.00000" pt_clust_7="13000.00000" pt_clust_8="13000.00000" pt_clust_9="13000.00000"></scales>
<clustering>
<clus scale="   74.436">  5  6 -1 -1</clus>
<clus scale="   62.550">  5  9 -1 -1</clus>
<clus scale="   91.810">  7  8 -1 -1</clus>
<clus scale="  139.735">  2  7  1 -1</clus>
<clus scale="  201.728">  1  5  2 -1</clus>
</clustering>
</event>
<event>
 9    1  0.2728138E-005  0.2248950E+03  0.7546771E-02  0.1161979E+00
          3   -1    0    0  502    0 -0.00000000000E+00  0.00000000000E+00  0.21930076847E+03  0.21930076847E+03  0.00000000000E+00 0. -1.
         21   -1    0    0  501  502  0.00000000000E+00 -0.00000000000E+00 -0.13284210700E+03  0.13284210700E+03  0.00000000000E+00 0. -1.
         23    2    1    2    0    0 -0.42360810123E+02 -0.26578072467E+02  0.69957159882E+02  0.12664325399E+03  0.92971379422E+02 0.  0.
        -24    2    1    2    0    0  0.21118407619E+02 -0.59876666278E+02 -0.51029552091E+02  0.11375838143E+03  0.79408764343E+02 0.  0.
         13    1    4    4    0    0  0.35177345329E+02 -0.73342422995E+02 -0.46772918316E+02  0.93831031769E+02  0.00000000000E+00 0. -1.
        -14    1    4    4    0    0 -0.14058937710E+02  0.13465756717E+02 -0.42566337757E+01  0.19927349663E+02  0.00000000000E+00 0.  1.
        -11    1    3    3    0    0  0.22626122167E+02 -0.20372508125E+02 -0.68662109027E+00  0.30454095622E+02  0.00000000000E+00 0.  1.
         11    1    3    3    0    0 -0.64986932290E+02 -0.62055643416E+01  0.70643780972E+02  0.96189158367E+02  0.00000000000E+00 0. -1.
          4    1    1    2  501    0  0.21242402505E+02  0.86454738745E+02  0.67531053689E+02  0.11174124005E+03  0.00000000000E+00 0. -1.
<scales pt_clust_5="13000.00000" pt_clust_6="13000.00000" pt_clust_7="13000.00000" pt_clust_8="13000.00000" pt_clust_9="13000.00000"></scales>
<clustering>
<clus scale="   79.409">  5  6 -1 -1</clus>
<clus scale="   89.026">  5  9 -1 -1</clus>
<clus scale="   92.971">  7  8 -1 -1</clus>
<clus scale="  105.568">  1  7  2 -1</clus>
<clus scale="  224.895">  2  5  1 -1</clus>
</clustering>
</event>
<event>
 9    1  0.2728138E-005  0.5579490E+03  0.7546771E-02  0.1022868E+00
         21   -1    0    0  501  502  0.00000000000E+00  0.00000000000E+00  0.41886681805E+03  0.41886681805E+03  0.00000000000E+00 0.  1.
         -2   -1    0    0    0  501 -0.00000000000E+00 -0.00000000000E+00 -0.41364461694E+03  0.41364461694E+03  0.00000000000E+00 0.  1.
         23    2    1    2    0    0 -0.21830789421E+03  0.13606247291E+03 -0.21871649599E+02  0.27390501808E+03  0.91510964716E+02 0.  0.
        -24    2    1    2    0    0 -0.10962087313E+03  0.46356696314E+02 -0.84869469057E+02  0.16700736849E+03  0.80764814321E+02 0.  0.
         11    1    4    4    0    0 -0.13626596977E+02 -0.20775515643E+02 -0.53160592855E+01  0.25408004285E+02  0.00000000000E+00 0. -1.
        -12    1    4    4    0    0 -0.95994276154E+02  0.67132211957E+02 -0.79553409772E+02  0.14159936420E+03  0.00000000000E+00 0.  1.
        -13    1    3    3    0    0 -0.69812555253E+02  0.15278733922E+02 -0.39544569048E+02  0.81676223728E+02  0.00000000000E+00 0. -1.
         13    1    3    3    0    0 -0.14849533896E+03  0.12078373898E+03  0.17672919449E+02  0.19222879435E+03  0.00000000000E+00 0.  1.
         -1    1    1    2    0  502  0.32792876734E+03 -0.18241916922E+03  0.11196331977E+03  0.39159904842E+03  0.00000000000E+00 0.  1.
<scales pt_clust_5="13000.00000" pt_clust_6="13000.00000" pt_clust_7="13000.00000" pt_clust_8="13000.00000" pt_clust_9="13000.00000"></scales>
<clustering>
<clus scale="   80.765">  5  6 -1 -1</clus>
<clus scale="   91.511">  7  8 -1 -1</clus>
<clus scale="  273.030">  2  7  1 -1</clus>
<clus scale="  240.177">  5  9 -1 -1</clus>
<clus scale="  557.949">  1  5  2 -1</clus>
</clustering>
</event>
<event>
 9    1  0.2728138E-005  0.5121881E+03  0.7546771E-02  0.1037601E+00
          1   -1    0    0  502    0 -0.00000000000E+00  0.00000000000E+00  0.10948532953E+04  0.10948532953E+04  0.00000000000E+00 0. -1.
         21   -1    0    0  501  502  0.00000000000E+00 -0.00000000000E+00 -0.13002532254E+03  0.13002532254E+03  0.00000000000E+00 0. -1.
         23    2    1    2    0    0  0.19059714764E+03 -0.81615453890E+02  0.19378962682E+03  0.29922382189E+03  0.94826795369E+02 0.  0.
        -24    2    1    2    0    0 -0.23166605923E+03 -0.13575819508E+03  0.33468863707E+03  0.43643191505E+03  0.79730058079E+02 0.  0.
         11    1    4    4    0    0 -0.16822599597E+03 -0.11035930053E+03  0.19144688747E+03  0.27772481282E+03  0.00000000000E+00 0. -1.
        -12    1    4    4    0    0 -0.63440063260E+02 -0.25398894559E+02  0.14324174960E+03  0.15870710224E+03  0.00000000000E+00 0.  1.
        -13    1    3    3    0    0  0.15419301745E+03 -0.23201986509E+02  0.11017882024E+03  0.19092718831E+03  0.00000000000E+00 0. -1.
         13    1    3    3    0    0  0.36404130195E+02 -0.58413467381E+02  0.83610806589E+02  0.10829663358E+03  0.00000000000E+00 0.  1.
          2    1    1    2  501    0  0.41068911592E+02  0.21737364898E+03  0.43634970891E+03  0.48922288094E+03  0.00000000000E+00 0. -1.
<scales pt_clust_5="13000.00000" pt_clust_6="13000.00000" pt_clust_7="13000.00000" pt_clust_8="13000.00000" pt_clust_9="13000.00000"></scales>
<clustering>
<clus scale="   79.730">  5  6 -1 -1</clus>
<clus scale="   94.827">  7  8 -1 -1</clus>
<clus scale="  221.219">  5  9 -1 -1</clus>
<clus scale="  227.992">  1  7  2 -1</clus>
<clus scale="  512.188">  2  5  1 -1</clus>
</clustering>
</event>
<event>
 9    1  0.2728138E-005  0.7071278E+03  0.7546771E-02  0.1009640E+00
         21   -1    0    0  501  502  0.00000000000E+00  0.00000000000E+00  0.49938984956E+03  0.49938984956E+03  0.00000000000E+00 0. -1.
          1   -1    0    0  502    0 -0.00000000000E+00 -0.00000000000E+00 -0.41823318526E+03  0.41823318526E+03  0.00000000000E+00 0. -1.
         23    2    1    2    0    0 -0.11313046578E+03 -0.13799976916E+03  0.62393779089E+02  0.21024635071E+03  0.92022311110E+02 0.  0.
        -24    2    1    2    0    0 -0.13697244627E+03  0.53584264370E+01  0.28017698107E+03  0.32204238518E+03  0.80137340585E+02 0.  0.
         11    1    4    4    0    0 -0.22024387377E+02 -0.70665296637E+01  0.51431217911E+01  0.23695172137E+02  0.00000000000E+00 0. -1.
        -12    1    4    4    0    0 -0.11494805890E+03  0.12424956101E+02  0.27503385928E+03  0.29834721304E+03  0.00000000000E+00 0.  1.
        -11    1    3    3    0    0 -0.83501134378E+02 -0.12605174019E+03  0.13448176190E+02  0.15179701608E+03  0.00000000000E+00 0.  1.
         11    1    3    3    0    0 -0.29629331403E+02 -0.11948028968E+02  0.48945602900E+02  0.58449334631E+02  0.00000000000E+00 0. -1.
          2    1    1    2  501    0  0.25010291205E+03  0.13264134272E+03 -0.26141409587E+03  0.38533429893E+03  0.00000000000E+00 0. -1.
<scales pt_clust_5="13000.00000" pt_clust_6="13000.00000" pt_clust_7="13000.00000" pt_clust_8="13000.00000" pt_clust_9="13000.00000"></scales>
<clustering>
<clus scale="   80.137">  5  6 -1 -1</clus>
<clus scale="   92.022">  7  8 -1 -1</clus>
<clus scale="  200.775">  2  7  1 -1</clus>
<clus scale="  143.882">  5  9 -1 -1</clus>
<clus scale="  707.128">  1  5  2 -1</clus>
</clustering>
</event>
<event>
 9    1  0.2728138E-005  0.3205342E+03  0.7546771E-02  0.1087941E+00
          1   -1    0    0  502    0 -0.00000000000E+00  0.00000000000E+00  0.12673241699E+04  0.12673241699E+04  0.00000000000E+00 0. -1.
         21   -1    0    0  501  502  0.00000000000E+00 -0.00000000000E+00 -0.62505089695E+02  0.62505089695E+02  0.00000000000E+00 0. -1.
         23    2    1    2    0    0 -0.20555432411E+03  0.47114242685E+02  0.64928376605E+03  0.68845445174E+03  0.89038144808E+02 0.  0.
        -24    2    1    2    0    0 -0.15868591217E+02 -0.25819980444E+02  0.91944637658E+02  0.12717847534E+03  0.82474630153E+02 0.  0.
         11    1    4    4    0    0 -0.22238781233E+02  0.68174819238E+01 -0.57660478107E+01  0.23964322604E+02  0.00000000000E+00 0. -1.
        -12    1    4    4    0    0  0.63701900162E+01 -0.32637462367E+02  0.97710685469E+02  0.10321415274E+03  0.00000000000E+00 0.  1.
        -11    1    3    3    0    0 -0.68801431301E+02  0.54828698177E+02  0.31866790813E+03  0.33058895742E+03  0.00000000000E+00 0.  1.
         11    1    3    3    0    0 -0.13675289281E+03 -0.77144554916E+01  0.33061585792E+03  0.35786549432E+03  0.00000000000E+00 0. -1.
          2    1    1    2  501    0  0.22142291533E+03 -0.21294262242E+02  0.46359067645E+03  0.51419633247E+03  0.00000000000E+00 0. -1.
<scales pt_clust_5="13000.00000" pt_clust_6="13000.00000" pt_clust_7="13000.00000" pt_clust_8="13000.00000" pt_clust_9="13000.00000"></scales>
<clustering>
<clus scale="   82.475">  5  6 -1 -1</clus>
<clus scale="   89.038">  7  8 -1 -1</clus>
<clus scale="  222.445">  5  9 -1 -1</clus>
<clus scale="  228.911">  1  7  2 -1</clus>
<clus scale="  320.534">  2  5  1 -1</clus>
</clustering>
</event>
<event>
 9    1  0.2728138E-005  0.6019844E+03  0.7546771E-02  0.1022793E+00
         21   -1    0    0  501  502  0.00000000000E+00  0.00000000000E+00  0.21221548554E+03  0.21221548554E+03  0.00000000000E+00 0.  1.
          1   -1    0    0  502    0 -0.00000000000E+00 -0.00000000000E+00 -0.17652025206E+04  0.17652025206E+04  0.00000000000E+00 0. -1.
         23    2    1    2    0    0  0.18040978013E+03 -0.68049309615E+02  0.83802105608E+02  0.23343867067E+03  0.10145157839E+03 0.  0.
        -24    2    1    2    0    0  0.18795591521E+03  0.16904344470E+01 -0.36608277495E+03  0.41929391859E+03  0.80377287929E+02 0.  0.
         11    1    4    4    0    0  0.14991812889E+02 -0.20496314884E+02 -0.83128925399E+02  0.86921065430E+02  0.00000000000E+00 0. -1.
        -12    1    4    4    0    0  0.17296410232E+03  0.22186749331E+02 -0.28295384955E+03  0.33237285316E+03  0.00000000000E+00 0.  1.
        -11    1    3    3    0    0  0.17161607837E+03 -0.41730482893E+02  0.39208983696E+02  0.18091671001E+03  0.00000000000E+00 0.  1.
         11    1    3    3    0    0  0.87937017566E+01 -0.26318826722E+02  0.44593121911E+02  0.52521960668E+02  0.00000000000E+00 0. -1.
          2    1    1    2  501    0 -0.36836569534E+03  0.66358875168E+02 -0.12707063657E+04  0.13246854168E+04  0.00000000000E+00 0. -1.
<scales pt_clust_5="13000.00000" pt_clust_6="13000.00000" pt_clust_7="13000.00000" pt_clust_8="13000.00000" pt_clust_9="13000.00000"></scales>
<clustering>
<clus scale="   80.377">  5  6 -1 -1</clus>
<clus scale="  101.452">  7  8 -1 -1</clus>
<clus scale="  217.878">  2  7  1 -1</clus>
<clus scale="  230.300">  5  9 -1 -1</clus>
<clus scale="  601.984">  1  5  2 -1</clus>
</clustering>
</event>
<event>
 9    1  0.2728138E-005  0.1205467E+03  0.7546771E-02  0.1253901E+00
         -2   -1    0    0    0  501 -0.00000000000E+00  0.00000000000E+00  0.13207637729E+03  0.13207637729E+03  0.00000000000E+00 0.  1.
         21   -1    0    0  501  502  0.00000000000E+00 -0.00000000000E+00 -0.26033109135E+03  0.26033109135E+03  0.00000000000E+00 0.  1.
         23    2    1    2    0    0  0.26629501103E+02  0.41916774302E+02  0.92497914027E+02  0.15194526248E+03  0.10984239798E+03 0.  0.
        -24    2    1    2    0    0 -0.13396425218E+02 -0.10976731818E+02 -0.15895716303E+03  0.17009829476E+03  0.58018077802E+02 0.  0.
         11    1    4    4    0    0 -0.29432907561E+02  0.31541902310E+00 -0.40714929330E+02  0.50240431994E+02  0.00000000000E+00 0. -1.
        -12    1    4    4    0    0  0.16036482343E+02 -0.11292150841E+02 -0.11824223370E+03  0.11985786276E+03  0.00000000000E+00 0.  1.
        -13    1    3    3    0    0  0.63576388680E+01  0.62374373274E+02  0.10358713310E+03  0.12108375678E+03  0.00000000000E+00 0.  1.
         13    1    3    3    0    0  0.20271862235E+02 -0.20457598972E+02 -0.11089219071E+02  0.30861505695E+02  0.00000000000E+00 0. -1.
         -1    1    1    2    0  502 -0.13233075885E+02 -0.30940042484E+02 -0.61795465062E+02  0.70363911407E+02  0.00000000000E+00 0.  1.
<scales pt_clust_5="13000.00000" pt_clust_6="13000.00000" pt_clust_7="13000.00000" pt_clust_8="13000.00000" pt_clust_9="13000.00000"></scales>
<clustering>
<clus scale="   58.018">  5  6 -1 -1</clus>
<clus scale="   33.651">  5  9 -1 -1</clus>
<clus scale="   95.343">  2  5  1 -1</clus>
<clus scale="  109.842">  7  8 -1 -1</clus>
<clus scale="   95.343">  2  5  1 -1</clus>
</clustering>
</event>
<event>
 9    1  0.3346344E-005  0.5798042E+03  0.7546771E-02  0.1021247E+00
         -2   -1    0    0    0  501 -0.00000000000E+00  0.00000000000E+00  0.10430982464E+04  0.10430982464E+04  0.00000000000E+00 0.  1.
         21   -1    0    0  501  502  0.00000000000E+00 -0.00000000000E+00 -0.19219900541E+03  0.19219900541E+03  0.00000000000E+00 0.  1.
         23    2    1    2    0    0  0.13889091725E+02 -0.24162241894E+03  0.74188534955E+02  0.26604371484E+03  0.81859753738E+02 0.  0.
        -24    2    1    2    0    0 -0.11636878515E+03 -0.11099290376E+03  0.42360533879E+03  0.45981948458E+03  0.78302978909E+02 0.  0.
         13    1    4    4    0    0 -0.10426937820E+03 -0.52508448970E+02  0.31397676746E+03  0.33497858282E+03  0.00000000000E+00 0. -1.
        -14    1    4    4    0    0 -0.12099406951E+02 -0.58484454789E+02  0.10962857133E+03  0.12484090176E+03  0.00000000000E+00 0.  1.
        -11    1    3    3    0    0  0.11338709286E+02 -0.69752915200E+02 -0.15225431456E+02  0.72290035760E+02  0.00000000000E+00 0. -1.
         11    1    3    3    0    0  0.25503824397E+01 -0.17186950374E+03  0.89413966411E+02  0.19375367908E+03  0.00000000000E+00 0.  1.
         -1    1    1    2    0  502  0.10247969342E+03  0.35261532270E+03  0.35310536729E+03  0.50943405243E+03  0.00000000000E+00 0.  1.
<scales pt_clust_5="13000.00000" pt_clust_6="13000.00000" pt_clust_7="13000.00000" pt_clust_8="13000.00000" pt_clust_9="13000.00000"></scales>
<clustering>
<clus scale="   78.303">  5  6 -1 -1</clus>
<clus scale="   81.860">  7  8 -1 -1</clus>
<clus scale="  255.490">  1  7  2 -1</clus>
<clus scale="  257.606">  5  9 -1 -1</clus>
<clus scale="  579.804">  2  5  1 -1</clus>
</clustering>
</event>
<event>
 9    1  0.2728138E-005  0.1143558E+03  0.7546771E-02  0.1258914E+00
          1   -1    0    0  502    0 -0.00000000000E+00  0.00000000000E+00  0.82522532126E+03  0.82522532126E+03  0.00000000000E+00 0. -1.
         21   -1    0    0  501  502  0.00000000000E+00 -0.00000000000E+00 -0.14583109984E+02  0.14583109984E+02  0.00000000000E+00 0. -1.
         23    2    1    2    0    0 -0.40213960687E+02  0.15485828417E+02  0.30264230340E+03  0.31909627771E+03  0.91504628978E+02 0.  0.
        -24    2    1    2    0    0  0.15538185738E+02 -0.25323037291E+02  0.34922379841E+03  0.35972918088E+03  0.81025494553E+02 0.  0.
         11    1    4    4    0    0  0.11391677675E+02 -0.21615264184E+02  0.23313530148E+02  0.33771447318E+02  0.00000000000E+00 0. -1.
        -12    1    4    4    0    0  0.41465080634E+01 -0.37077731068E+01  0.32591026827E+03  0.32595773357E+03  0.00000000000E+00 0.  1.
        -13    1    3    3    0    0 -0.67442724004E+02  0.24381470499E+02  0.19731587759E+03  0.20994411798E+03  0.00000000000E+00 0. -1.
         13    1    3    3    0    0  0.27228763317E+02 -0.88956420816E+01  0.10532642581E+03  0.10915215973E+03  0.00000000000E+00 0.  1.
          2    1    1    2  501    0  0.24675774949E+02  0.98372088738E+01  0.15877610946E+03  0.16098297265E+03  0.00000000000E+00 0. -1.
<scales pt_clust_5="13000.00000" pt_clust_6="13000.00000" pt_clust_7="13000.00000" pt_clust_8="13000.00000" pt_clust_9="13000.00000"></scales>
<clustering>
<clus scale="   81.025">  5  6 -1 -1</clus>
<clus scale="   26.564">  5  9 -1 -1</clus>
<clus scale="   91.505">  7  8 -1 -1</clus>
<clus scale="  101.144">  1  7  2 -1</clus>
<clus scale="  114.356">  2  5  1 -1</clus>
</clustering>
</event>
<event>
 9    1  0.2728138E-005  0.1663899E+03  0.7546771E-02  0.1202333E+00
          3   -1    0    0  502    0 -0.00000000000E+00  0.00000000000E+00  0.88112660801E+03  0.88112660801E+03  0.00000000000E+00 0. -1.
         21   -1    0    0  501  502  0.00000000000E+00 -0.00000000000E+00 -0.21268460871E+02  0.21268460871E+02  0.00000000000E+00 0. -1.
         23    2    1    2    0    0 -0.15298088018E+02  0.35883932490E+02  0.38600760601E+03  0.40018004525E+03  0.98084191440E+02 0.  0.
        -24    2    1    2    0    0  0.21355710580E+02  0.34087941647E+02  0.15765824104E+03  0.17831638424E+03  0.72955861875E+02 0.  0.
         13    1    4    4    0    0 -0.64377390657E+01  0.38519224130E+02  0.34907372368E+02  0.52380337509E+02  0.00000000000E+00 0. -1.
        -14    1    4    4    0    0  0.27793449646E+02 -0.44312824828E+01  0.12275086867E+03  0.12593604674E+03  0.00000000000E+00 0.  1.
        -13    1    3    3    0    0 -0.46388441818E+02  0.52574355823E+02  0.26684235277E+03  0.27589996675E+03  0.00000000000E+00 0.  1.
         13    1    3    3    0    0  0.31090353800E+02 -0.16690423333E+02  0.11916525324E+03  0.12428007850E+03  0.00000000000E+00 0. -1.
          4    1    1    2  501    0 -0.60576225621E+01 -0.69971874137E+02  0.31619230009E+03  0.32389863939E+03  0.00000000000E+00 0. -1.
<scales pt_clust_5="13000.00000" pt_clust_6="13000.00000" pt_clust_7="13000.00000" pt_clust_8="13000.00000" pt_clust_9="13000.00000"></scales>
<clustering>
<clus scale="   72.956">  5  6 -1 -1</clus>
<clus scale="   70.234">  5  9 -1 -1</clus>
<clus scale="   98.084">  7  8 -1 -1</clus>
<clus scale="  105.557">  1  7  2 -1</clus>
<clus scale="  166.390">  2  5  1 -1</clus>
</clustering>
</event>
<event>
 9    1  0.2728138E-005  0.3350737E+03  0.7546771E-02  0.1105191E+00
          1   -1    0    0  502    0 -0.00000000000E+00  0.00000000000E+00  0.80217389330E+03  0.80217389330E+03  0.00000000000E+00 0. -1.
         21   -1    0    0  501  502  0.00000000000E+00 -0.00000000000E+00 -0.95553924877E+02  0.95553924877E+02  0.00000000000E+00 0. -1.
         23    2    1    2    0    0  0.92528266918E+02 -0.52243357381E+01  0.47125140980E+03  0.48824916338E+03  0.87866833517E+02 0.  0.
        -24    2    1    2    0    0 -0.31557079743E+02  0.13029070026E+02 -0.58862148223E+02  0.10889570720E+03  0.85017154767E+02 0.  0.
         13    1    4    4    0    0 -0.25283497977E+02 -0.28937253172E+02 -0.53869191396E+02  0.66170308090E+02  0.00000000000E+00 0. -1.
        -14    1    4    4    0    0 -0.62735817659E+01  0.41966323197E+02 -0.49929568267E+01  0.42725399106E+02  0.00000000000E+00 0.  1.
        -11    1    3    3    0    0  0.39989548651E+01 -0.34042329550E+02  0.11180365294E+03  0.11693985057E+03  0.00000000000E+00 0.  1.
         11    1    3    3    0    0  0.88529312053E+02  0.28817993812E+02  0.35944775686E+03  0.37130931280E+03  0.00000000000E+00 0. -1.
          2    1    1    2  501    0 -0.60971187175E+02 -0.78047342877E+01  0.29423070684E+03  0.30058294761E+03  0.00000000000E+00 0. -1.
<scales pt_clust_5="13000.00000" pt_clust_6="13000.00000" pt_clust_7="13000.00000" pt_clust_8="13000.00000" pt_clust_9="13000.00000"></scales>
<clustering>
<clus scale="   85.017">  5  6 -1 -1</clus>
<clus scale="   61.469">  5  9 -1 -1</clus>
<clus scale="   87.867">  7  8 -1 -1</clus>
<clus scale="  127.708">  1  7  2 -1</clus>
<clus scale="  335.074">  2  5  1 -1</clus>
</clustering>
</event>
<event>
 9    1  0.2728138E-005  0.2218607E+03  0.7546771E-02  0.1137822E+00
         21   -1    0    0  501  502  0.00000000000E+00  0.00000000000E+00  0.17795268040E+03  0.17795268040E+03  0.00000000000E+00 0. -1.
          1   -1    0    0  502    0 -0.00000000000E+00 -0.00000000000E+00 -0.29879291014E+03  0.29879291014E+03  0.00000000000E+00 0. -1.
         23    2    1    2    0    0  0.16942380841E+03  0.32468193459E+02  0.44631212288E+02  0.19997320598E+03  0.90767436659E+02 0.  0.
        -24    2    1    2    0    0 -0.15389349342E+03 -0.64201980098E+02 -0.12625936583E+03  0.22399160380E+03  0.80160523627E+02 0.  0.
         11    1    4    4    0    0 -0.14228060127E+03 -0.72961578408E+02 -0.86803037662E+02  0.18193935464E+03  0.00000000000E+00 0. -1.
        -12    1    4    4    0    0 -0.11612892154E+02  0.87595983099E+01 -0.39456328171E+02  0.42052249160E+02  0.00000000000E+00 0.  1.
        -11    1    3    3    0    0  0.79709096879E+02 -0.22556689990E+02  0.45930467481E+02  0.94720389736E+02  0.00000000000E+00 0.  1.
         11    1    3    3    0    0  0.89714711531E+02  0.55024883450E+02 -0.12992551933E+01  0.10525281625E+03  0.00000000000E+00 0. -1.
          2    1    1    2  501    0 -0.15530314991E+02  0.31733786639E+02 -0.39212076196E+02  0.52780780761E+02  0.00000000000E+00 0. -1.
<scales pt_clust_5="13000.00000" pt_clust_6="13000.00000" pt_clust_7="13000.00000" pt_clust_8="13000.00000" pt_clust_9="13000.00000"></scales>
<clustering>
<clus scale="   80.161">  5  6 -1 -1</clus>
<clus scale="   35.330">  5  9 -1 -1</clus>
<clus scale="   90.767">  7  8 -1 -1</clus>
<clus scale="  194.929">  2  7  1 -1</clus>
<clus scale="  221.861">  1  5  2 -1</clus>
</clustering>
</event>
<event>
 9    1  0.2728138E-005  0.2094457E+03  0.7546771E-02  0.1156365E+00
         21   -1    0    0  501  502  0.00000000000E+00  0.00000000000E+00  0.50270295832E+03  0.50270295832E+03  0.00000000000E+00 0. -1.
          1   -1    0    0  502    0 -0.00000000000E+00 -0.00000000000E+00 -0.15332601956E+03  0.15332601956E+03  0.00000000000E+00 0. -1.
         23    2    1    2    0    0 -0.11536344068E+03 -0.15127412841E+02 -0.86630355287E+02  0.17232468583E+03  0.93023743335E+02 0.  0.
        -24    2    1    2    0    0  0.46828493840E+02  0.72420118377E+02  0.23338278667E+03  0.26226313952E+03  0.82926761984E+02 0.  0.
         13    1    4    4    0    0  0.50202815094E+02  0.64170926121E+02  0.23846758923E+03  0.25200202681E+03  0.00000000000E+00 0. -1.
        -14    1    4    4    0    0 -0.33743212543E+01  0.82491922558E+01 -0.50848025627E+01  0.10261112703E+02  0.00000000000E+00 0.  1.
        -11    1    3    3    0    0 -0.62504340395E+02  0.38322246214E+02 -0.35891516746E+02  0.81630803606E+02  0.00000000000E+00 0. -1.
         11    1    3    3    0    0 -0.52859100284E+02 -0.53449659055E+02 -0.50738838540E+02  0.90693882221E+02  0.00000000000E+00 0.  1.
          2    1    1    2  501    0  0.68534946839E+02 -0.57292705537E+02  0.20262450737E+03  0.22144115253E+03  0.00000000000E+00 0. -1.
<scales pt_clust_5="13000.00000" pt_clust_6="13000.00000" pt_clust_7="13000.00000" pt_clust_8="13000.00000" pt_clust_9="13000.00000"></scales>
<clustering>
<clus scale="   82.927">  5  6 -1 -1</clus>
<clus scale="   89.328">  5  9 -1 -1</clus>
<clus scale="   93.024">  7  8 -1 -1</clus>
<clus scale="  148.966">  2  7  1 -1</clus>
<clus scale="  209.446">  1  5  2 -1</clus>
</clustering>
</event>
<event>
 9    1  0.2728138E-005  0.5591546E+03  0.7546771E-02  0.1053080E+00
          3   -1    0    0  502    0 -0.00000000000E+00  0.00000000000E+00  0.15977405424E+03  0.15977405424E+03  0.00000000000E+00 0. -1.
         21   -1    0    0  501  502  0.00000000000E+00 -0.00000000000E+00 -0.82261282014E+03  0.82261282014E+03  0.00000000000E+00 0. -1.
         23    2    1    2    0    0  0.24065433598E+02  0.59255890309E+02  0.38195806793E+01  0.11227930092E+03  0.92204374016E+02 0.  0.
        -24    2    1    2    0    0  0.14816337937E+03  0.50551008162E+02 -0.64325808756E+03  0.66451600970E+03  0.57382649969E+02 0.  0.
         11    1    4    4    0    0  0.11096437315E+03  0.18597740451E+02 -0.51628114593E+03  0.52839870335E+03  0.00000000000E+00 0. -1.
        -12    1    4    4    0    0  0.37199006220E+02  0.31953267711E+02 -0.12697694163E+03  0.13611730635E+03  0.00000000000E+00 0.  1.
        -13    1    3    3    0    0  0.56348445419E+01  0.81637114059E+02  0.10568442369E+02  0.82510980112E+02  0.00000000000E+00 0.  1.
         13    1    3    3    0    0  0.18430589056E+02 -0.22381223751E+02 -0.67488616899E+01  0.29768320807E+02  0.00000000000E+00 0. -1.
          4    1    1    2  501    0 -0.17222881296E+03 -0.10980689847E+03 -0.23400259012E+02  0.20559156376E+03  0.00000000000E+00 0. -1.
<scales pt_clust_5="13000.00000" pt_clust_6="13000.00000" pt_clust_7="13000.00000" pt_clust_8="13000.00000" pt_clust_9="13000.00000"></scales>
<clustering>
<clus scale="   57.383">  5  6 -1 -1</clus>
<clus scale="   92.204">  7  8 -1 -1</clus>
<clus scale="  112.214">  1  7  2 -1</clus>
<clus scale="  161.008">  5  9 -1 -1</clus>
<clus scale="  559.155">  2  5  1 -1</clus>
</clustering>
</event>
<event>
 9    1  0.2728138E-005  0.1918346E+03  0.7546771E-02  0.1183621E+00
          3   -1    0    0  502    0 -0.00000000000E+00  0.00000000000E+00  0.41660960509E+03  0.41660960509E+03  0.00000000000E+00 0. -1.
         21   -1    0    0  501  502  0.00000000000E+00 -0.00000000000E+00 -0.55293044697E+02  0.55293044697E+02  0.00000000000E+00 0. -1.
         23    2    1    2    0    0  0.55944581816E+02 -0.16350964609E+02  0.18051513927E+03  0.20829371825E+03  0.86043054809E+02 0.  0.
        -24    2    1    2    0    0 -0.27245085868E+02 -0.55253376780E+02  0.15043538066E+03  0.18070573987E+03  0.78921038520E+02 0.  0.
         13    1    4    4    0    0 -0.24712622633E+02 -0.67645649727E+02  0.74108230079E+02  0.10333768630E+03  0.00000000000E+00 0. -1.
        -14    1    4    4    0    0 -0.25324632356E+01  0.12392272947E+02  0.76327150576E+02  0.77368053575E+02  0.00000000000E+00 0.  1.
        -13    1    3    3    0    0  0.20510416091E+02 -0.39251662818E+02  0.14952220425E+03  0.15594312991E+03  0.00000000000E+00 0.  1.
         13    1    3    3    0    0  0.35434165724E+02  0.22900698209E+02  0.30992935021E+02  0.52350588347E+02  0.00000000000E+00 0. -1.
          4    1    1    2  501    0 -0.28699495948E+02  0.71604341389E+02  0.30366040470E+02  0.82903191659E+02  0.00000000000E+00 0. -1.
<scales pt_clust_5="13000.00000" pt_clust_6="13000.00000" pt_clust_7="13000.00000" pt_clust_8="13000.00000" pt_clust_9="13000.00000"></scales>
<clustering>
<clus scale="   78.921">  5  6 -1 -1</clus>
<clus scale="   77.142">  5  9 -1 -1</clus>
<clus scale="   86.043">  7  8 -1 -1</clus>
<clus scale="  103.926">  1  7  2 -1</clus>
<clus scale="  191.835">  2  5  1 -1</clus>
</clustering>
</event>
<event>
 9    1  0.2728138E-005  0.4148222E+03  0.7546771E-02  0.1060547E+00
         21   -1    0    0  501  502  0.00000000000E+00  0.00000000000E+00  0.73520452314E+02  0.73520452314E+02  0.00000000000E+00 0.  1.
          1   -1    0    0  502    0 -0.00000000000E+00 -0.00000000000E+00 -0.15089120652E+04  0.15089120652E+04  0.00000000000E+00 0. -1.
         23    2    1    2    0    0  0.44167135184E+02 -0.19852924036E+03 -0.29998438653E+03  0.37362026458E+03  0.90757230198E+02 0.  0.
        -24    2    1    2    0    0 -0.12580918014E+02 -0.92875218086E+02 -0.34105169248E+03  0.36210394323E+03  0.77581719041E+02 0.  0.
         13    1    4    4    0    0  0.12562394743E+02 -0.78780751818E+02 -0.16014348183E+03  0.17891382113E+03  0.00000000000E+00 0. -1.
        -14    1    4    4    0    0 -0.25143312757E+02 -0.14094466268E+02 -0.18090821065E+03  0.18319012210E+03  0.00000000000E+00 0.  1.
        -11    1    3    3    0    0  0.37524668574E+02 -0.43911173488E+02 -0.13794480866E+03  0.14954953074E+03  0.00000000000E+00 0. -1.
         11    1    3    3    0    0  0.66424666100E+01 -0.15461806687E+03 -0.16203957787E+03  0.22407073384E+03  0.00000000000E+00 0.  1.
          2    1    1    2  501    0 -0.31586217170E+02  0.29140445845E+03 -0.79435553384E+03  0.84670830967E+03  0.00000000000E+00 0. -1.
<scales pt_clust_5="13000.00000" pt_clust_6="13000.00000" pt_clust_7="13000.00000" pt_clust_8="13000.00000" pt_clust_9="13000.00000"></scales>
<clustering>
<clus scale="   77.582">  5  6 -1 -1</clus>
<clus scale="   90.757">  7  8 -1 -1</clus>
<clus scale="  222.714">  2  7  1 -1</clus>
<clus scale="  152.426">  5  9 -1 -1</clus>
<clus scale="  414.822">  1  5  2 -1</clus>
</clustering>
</event>
<event>
 9    1  0.2728138E-005  0.1851982E+03  0.7546771E-02  0.1175573E+00
         21   -1    0    0  501  502  0.00000000000E+00  0.00000000000E+00  0.56968157020E+02  0.56968157020E+02  0.00000000000E+00 0.  1.
          1   -1    0    0  502    0 -0.00000000000E+00 -0.00000000000E+00 -0.46287598706E+03  0.46287598706E+03  0.00000000000E+00 0. -1.
         23    2    1    2    0    0  0.13505350454E+02 -0.98491146186E+02 -0.15222471643E+03  0.20575262005E+03  0.96326922495E+02 0.  0.
        -24    2    1    2    0    0  0.36836829621E+02  0.37853852115E+02 -0.84871072736E+02  0.12778875521E+03  0.79605281443E+02 0.  0.
         11    1    4    4    0    0  0.47313772997E+02  0.52016714728E+02 -0.84814499686E+02  0.11017182527E+03  0.00000000000E+00 0. -1.
        -12    1    4    4    0    0 -0.10476943376E+02 -0.14162862613E+02 -0.56573049903E-01  0.17616929937E+02  0.00000000000E+00 0.  1.
        -13    1    3    3    0    0  0.30848618395E+02 -0.77765631909E+02 -0.44639670210E+02  0.94825265196E+02  0.00000000000E+00 0.  1.
         13    1    3    3    0    0 -0.17343267940E+02 -0.20725514278E+02 -0.10758504622E+03  0.11092735485E+03  0.00000000000E+00 0. -1.
          2    1    1    2  501    0 -0.50342180075E+02  0.60637294071E+02 -0.16881204087E+03  0.18630276882E+03  0.00000000000E+00 0. -1.
<scales pt_clust_5="13000.00000" pt_clust_6="13000.00000" pt_clust_7="13000.00000" pt_clust_8="13000.00000" pt_clust_9="13000.00000"></scales>
<clustering>
<clus scale="   79.605">  5  6 -1 -1</clus>
<clus scale="   78.811">  5  9 -1 -1</clus>
<clus scale="   96.327">  7  8 -1 -1</clus>
<clus scale="  138.426">  2  7  1 -1</clus>
<clus scale="  185.198">  1  5  2 -1</clus>
</clustering>
</event>
<event>
 9    1  0.2728138E-005  0.1629025E+03  0.7546771E-02  0.1207501E+00
          1   -1    0    0  502    0 -0.00000000000E+00  0.00000000000E+00  0.51989964105E+03  0.51989964105E+03  0.00000000000E+00 0. -1.
         21   -1    0    0  501  502  0.00000000000E+00 -0.00000000000E+00 -0.34762618486E+02  0.34762618486E+02  0.00000000000E+00 0. -1.
         23    2    1    2    0    0  0.21255877590E+02 -0.39829850125E+02  0.24099302568E+03  0.26116008897E+03  0.89937335710E+02 0.  0.
        -24    2    1    2    0    0 -0.34470827551E+02 -0.16330150801E+02  0.84663347390E+02  0.12390659818E+03  0.82036887465E+02 0.  0.
         11    1    4    4    0    0 -0.58201694194E+02 -0.18662709827E+02  0.39321037176E+02  0.72676529291E+02  0.00000000000E+00 0. -1.
        -12    1    4    4    0    0  0.23730866643E+02  0.23325590263E+01  0.45342310214E+02  0.51230068893E+02  0.00000000000E+00 0.  1.
        -13    1    3    3    0    0  0.22354194498E+02 -0.60029037049E+02  0.22867161427E+03  0.23747400379E+03  0.00000000000E+00 0. -1.
         13    1    3    3    0    0 -0.10983169087E+01  0.20199186925E+02  0.12321411405E+02  0.23686085187E+02  0.00000000000E+00 0.  1.
          2    1    1    2  501    0  0.13214949962E+02  0.56160000925E+02  0.15948064949E+03  0.16959557238E+03  0.00000000000E+00 0. -1.
<scales pt_clust_5="13000.00000" pt_clust_6="13000.00000" pt_clust_7="13000.00000" pt_clust_8="13000.00000" pt_clust_9="13000.00000"></scales>
<clustering>
<clus scale="   82.037">  5  6 -1 -1</clus>
<clus scale="   57.694">  5  9 -1 -1</clus>
<clus scale="   89.937">  7  8 -1 -1</clus>
<clus scale="  100.633">  1  7  2 -1</clus>
<clus scale="  162.903">  2  5  1 -1</clus>
</clustering>
</event>
<event>
 9    1  0.2728138E-005  0.2452361E+03  0.7546771E-02  0.1150674E+00
         21   -1    0    0  501  502  0.00000000000E+00  0.00000000000E+00  0.34016803587E+03  0.34016803587E+03  0.00000000000E+00 0.  1.
         -4   -1    0    0    0  501 -0.00000000000E+00 -0.00000000000E+00 -0.11828423011E+03  0.11828423011E+03  0.00000000000E+00 0.  1.
         23    2    1    2    0    0 -0.14318727740E+02 -0.52820703857E+02 -0.26536960933E+02  0.10937687190E+03  0.90906749423E+02 0.  0.
        -24    2    1    2    0    0  0.33752742240E+02  0.11503485332E+03  0.72265619370E+02  0.16124856629E+03  0.80040710263E+02 0.  0.
         11    1    4    4    0    0  0.36757569030E+02  0.11001220393E+02  0.88588953943E+01  0.39377985712E+02  0.00000000000E+00 0. -1.
        -12    1    4    4    0    0 -0.30048267903E+01  0.10403363293E+03  0.63406723975E+02  0.12187058058E+03  0.00000000000E+00 0.  1.
        -11    1    3    3    0    0 -0.23832210750E+02  0.11681777609E+02 -0.34679167620E+02  0.43670159882E+02  0.00000000000E+00 0.  1.
         11    1    3    3    0    0  0.95134830094E+01 -0.64502481466E+02  0.81422066862E+01  0.65706712016E+02  0.00000000000E+00 0. -1.
         -3    1    1    2    0  502 -0.19434014500E+02 -0.62214149465E+02  0.17615514732E+03  0.18782682780E+03  0.00000000000E+00 0.  1.
<scales pt_clust_5="13000.00000" pt_clust_6="13000.00000" pt_clust_7="13000.00000" pt_clust_8="13000.00000" pt_clust_9="13000.00000"></scales>
<clustering>
<clus scale="   80.041">  5  6 -1 -1</clus>
<clus scale="   65.179">  5  9 -1 -1</clus>
<clus scale="   90.907">  7  8 -1 -1</clus>
<clus scale="  106.109">  2  7  1 -1</clus>
<clus scale="  245.236">  1  5  2 -1</clus>
</clustering>
</event>
<event>
 9    1  0.2728138E-005  0.1850275E+03  0.7546771E-02  0.1192466E+00
          1   -1    0    0  502    0 -0.00000000000E+00  0.00000000000E+00  0.66444512753E+03  0.66444512753E+03  0.00000000000E+00 0. -1.
         21   -1    0    0  501  502  0.00000000000E+00 -0.00000000000E+00 -0.32480897832E+02  0.32480897832E+02  0.00000000000E+00 0.  1.
         23    2    1    2    0    0 -0.72115245451E+01 -0.45449486539E+02  0.12412414208E+03  0.15642926672E+03  0.83340571918E+02 0.  0.
        -24    2    1    2    0    0  0.41196277288E+02 -0.27327850513E+02  0.18292673798E+03  0.20580258632E+03  0.80302978738E+02 0.  0.
         11    1    4    4    0    0  0.28090102172E+02  0.16131399256E+02  0.13868020961E+03  0.14241304863E+03  0.00000000000E+00 0. -1.
        -12    1    4    4    0    0  0.13106175116E+02 -0.43459249769E+02  0.44246528368E+02  0.63389537696E+02  0.00000000000E+00 0.  1.
        -11    1    3    3    0    0 -0.23303822782E+02 -0.17945771658E+02  0.11949890016E+01  0.29437168263E+02  0.00000000000E+00 0.  1.
         11    1    3    3    0    0  0.16092298236E+02 -0.27503714881E+02  0.12292915308E+03  0.12699209846E+03  0.00000000000E+00 0. -1.
          2    1    1    2  501    0 -0.33984752743E+02  0.72777337052E+02  0.32491334964E+03  0.33469417232E+03  0.00000000000E+00 0. -1.
<scales pt_clust_5="13000.00000" pt_clust_6="13000.00000" pt_clust_7="13000.00000" pt_clust_8="13000.00000" pt_clust_9="13000.00000"></scales>
<clustering>
<clus scale="   80.303">  5  6 -1 -1</clus>
<clus scale="   80.321">  5  9 -1 -1</clus>
<clus scale="   83.341">  7  8 -1 -1</clus>
<clus scale="   95.201">  1  7  2 -1</clus>
<clus scale="  185.028">  2  5  1 -1</clus>
</clustering>
</event>
<event>
 9    1  0.2728138E-005  0.3156380E+03  0.7546771E-02  0.1104480E+00
          1   -1    0    0  502    0 -0.00000000000E+00  0.00000000000E+00  0.49246723881E+03  0.49246723881E+03  0.00000000000E+00 0. -1.
         21   -1    0    0  501  502  0.00000000000E+00 -0.00000000000E+00 -0.12966683237E+03  0.12966683237E+03  0.00000000000E+00 0. -1.
         23    2    1    2    0    0  0.12291991197E+03  0.44548704107E+02  0.23447076537E+03  0.28140564638E+03  0.84372425612E+02 0.  0.
        -24    2    1    2    0    0  0.63714260941E+00 -0.92905161877E+02  0.16335893669E+03  0.20349962208E+03  0.78065222332E+02 0.  0.
         11    1    4    4    0    0  0.39179200356E+02 -0.45647281398E+02  0.75096946846E+02  0.96219724927E+02  0.00000000000E+00 0. -1.
        -12    1    4    4    0    0 -0.38542057746E+02 -0.47257880480E+02  0.88261989841E+02  0.10727989715E+03  0.00000000000E+00 0.  1.
        -11    1    3    3    0    0  0.43260312012E+01  0.27764556481E+02  0.16210273559E+02  0.32440069534E+02  0.00000000000E+00 0.  1.
         11    1    3    3    0    0  0.11859388077E+03  0.16784147626E+02  0.21826049181E+03  0.24896557685E+03  0.00000000000E+00 0. -1.
          2    1    1    2  501    0 -0.12355705458E+03  0.48356457770E+02 -0.35029295623E+02  0.13722880272E+03  0.00000000000E+00 0. -1.
<scales pt_clust_5="13000.00000" pt_clust_6="13000.00000" pt_clust_7="13000.00000" pt_clust_8="13000.00000" pt_clust_9="13000.00000"></scales>
<clustering>
<clus scale="   78.065">  5  6 -1 -1</clus>
<clus scale="   84.372">  7  8 -1 -1</clus>
<clus scale="  132.683">  5  9 -1 -1</clus>
<clus scale="  155.604">  1  7  2 -1</clus>
<clus scale="  315.638">  2  5  1 -1</clus>
</clustering>
</event>
<event>
 9    1  0.2728138E-005  0.1594906E+03  0.7546771E-02  0.1213233E+00
          3   -1    0    0  502    0 -0.00000000000E+00  0.00000000000E+00  0.10356285118E+03  0.10356285118E+03  0.00000000000E+00 0. -1.
         21   -1    0    0  501  502  0.00000000000E+00 -0.00000000000E+00 -0.17787306241E+03  0.17787306241E+03  0.00000000000E+00 0. -1.
         23    2    1    2    0    0 -0.28113066656E+02  0.30892237920E+02  0.18837836043E+02  0.96736672134E+02  0.85196506902E+02 0.  0.
        -24    2    1    2    0    0  0.53875331442E+02  0.54084926894E+01 -0.10008432438E+03  0.13964872237E+03  0.80951161456E+02 0.  0.
         11    1    4    4    0    0  0.42814817116E+02 -0.19912147687E+02 -0.10153731331E+03  0.11197958825E+03  0.00000000000E+00 0. -1.
        -12    1    4    4    0    0  0.11060514325E+02  0.25320640377E+02  0.14529889247E+01  0.27669134122E+02  0.00000000000E+00 0.  1.
        -13    1    3    3    0    0 -0.54795485242E+01 -0.29401149419E+02  0.10971798091E+02  0.31856449779E+02  0.00000000000E+00 0.  1.
         13    1    3    3    0    0 -0.22633518132E+02  0.60293387339E+02  0.78660379519E+01  0.64880222355E+02  0.00000000000E+00 0. -1.
          4    1    1    2  501    0 -0.25762264786E+02 -0.36300730609E+02  0.69362771066E+01  0.45050519084E+02  0.00000000000E+00 0. -1.
<scales pt_clust_5="13000.00000" pt_clust_6="13000.00000" pt_clust_7="13000.00000" pt_clust_8="13000.00000" pt_clust_9="13000.00000"></scales>
<clustering>
<clus scale="   80.951">  5  6 -1 -1</clus>
<clus scale="   44.513">  5  9 -1 -1</clus>
<clus scale="   85.197">  7  8 -1 -1</clus>
<clus scale="   94.885">  1  7  2 -1</clus>
<clus scale="  159.491">  2  5  1 -1</clus>
</clustering>
</event>
<event>
 9    1  0.2728138E-005  0.1615927E+03  0.7546771E-02  0.1213100E+00
          1   -1    0    0  502    0 -0.00000000000E+00  0.00000000000E+00  0.69378702261E+02  0.69378702261E+02  0.00000000000E+00 0. -1.
         21   -1    0    0  501  502  0.00000000000E+00 -0.00000000000E+00 -0.25532094812E+03  0.25532094812E+03  0.00000000000E+00 0. -1.
         23    2    1    2    0    0  0.61536399299E+01 -0.12008630658E+02 -0.11823280568E+03  0.14949475806E+03  0.90485423428E+02 0.  0.
        -24    2    1    2    0    0  0.30581674622E+02  0.22576108837E+02 -0.93441733613E+02  0.12912554928E+03  0.80604778908E+02 0.  0.
         11    1    4    4    0    0  0.38679734504E+02  0.20372085622E+02 -0.10563469431E+03  0.11432336759E+03  0.00000000000E+00 0. -1.
        -12    1    4    4    0    0 -0.80980598818E+01  0.22040232152E+01  0.12192960700E+02  0.14802181691E+02  0.00000000000E+00 0.  1.
        -11    1    3    3    0    0  0.35847622071E+02  0.20766620888E+02 -0.31176155397E+02  0.51848406114E+02  0.00000000000E+00 0.  1.
         11    1    3    3    0    0 -0.29693982141E+02 -0.32775251546E+02 -0.87056650283E+02  0.97646351943E+02  0.00000000000E+00 0. -1.
          2    1    1    2  501    0 -0.36735314552E+02 -0.10567478179E+02  0.25732293434E+02  0.46079343047E+02  0.00000000000E+00 0. -1.
<scales pt_clust_5="13000.00000" pt_clust_6="13000.00000" pt_clust_7="13000.00000" pt_clust_8="13000.00000" pt_clust_9="13000.00000"></scales>
<clustering>
<clus scale="   80.605">  5  6 -1 -1</clus>
<clus scale="   38.225">  5  9 -1 -1</clus>
<clus scale="   90.485">  7  8 -1 -1</clus>
<clus scale="   91.486">  1  7  2 -1</clus>
<clus scale="  161.593">  2  5  1 -1</clus>
</clustering>
</event>
<event>
 9    1  0.2728138E-005  0.3617242E+03  0.7546771E-02  0.1076819E+00
         21   -1    0    0  501  502  0.00000000000E+00  0.00000000000E+00  0.67925320384E+03  0.67925320384E+03  0.00000000000E+00 0. -1.
          1   -1    0    0  502    0 -0.00000000000E+00 -0.00000000000E+00 -0.15707928225E+03  0.15707928225E+03  0.00000000000E+00 0. -1.
         23    2    1    2    0    0 -0.17847287964E+03 -0.70940715256E+02  0.40104803891E+03  0.45486707913E+03  0.95809061741E+02 0.  0.
        -24    2    1    2    0    0 -0.52375974794E+02 -0.15530306021E+02 -0.71616421341E+01  0.10356952694E+03  0.87697917031E+02 0.  0.
         13    1    4    4    0    0 -0.24759637256E+02 -0.51752029789E+02 -0.85285474107E+01  0.58000416768E+02  0.00000000000E+00 0. -1.
        -14    1    4    4    0    0 -0.27616337538E+02  0.36221723768E+02  0.13669052766E+01  0.45569110171E+02  0.00000000000E+00 0.  1.
        -13    1    3    3    0    0 -0.53716249823E+02 -0.50450445135E+02  0.74912395155E+02  0.10508353752E+03  0.00000000000E+00 0.  1.
         13    1    3    3    0    0 -0.12475662982E+03 -0.20490270121E+02  0.32613564376E+03  0.34978354161E+03  0.00000000000E+00 0. -1.
          2    1    1    2  501    0  0.23084885443E+03  0.86471021277E+02  0.12828752481E+03  0.27789588003E+03  0.00000000000E+00 0. -1.
<scales pt_clust_5="13000.00000" pt_clust_6="13000.00000" pt_clust_7="13000.00000" pt_clust_8="13000.00000" pt_clust_9="13000.00000"></scales>
<clustering>
<clus scale="   87.698">  5  6 -1 -1</clus>
<clus scale="   95.809">  7  8 -1 -1</clus>
<clus scale="  214.627">  2  7  1 -1</clus>
<clus scale="  136.185">  5  9 -1 -1</clus>
<clus scale="  361.724">  1  5  2 -1</clus>
</clustering>
</event>
<event>
 9    1  0.2728138E-005  0.1211640E+03  0.7546771E-02  0.1247244E+00
         -4   -1    0    0    0  501 -0.00000000000E+00  0.00000000000E+00  0.30178759967E+03  0.30178759967E+03  0.00000000000E+00 0.  1.
         21   -1    0    0  501  502  0.00000000000E+00 -0.00000000000E+00 -0.22734915886E+03  0.22734915886E+03  0.00000000000E+00 0. -1.
         23    2    1    2    0    0  0.47378404882E+02  0.23845133585E+02 -0.20122778285E+03  0.22801788483E+03  0.93199954764E+02 0.  0.
        -24    2    1    2    0    0 -0.54384206653E+02 -0.24222288171E+01  0.23685658986E+03  0.25623892514E+03  0.81202422815E+02 0.  0.
         11    1    4    4    0    0 -0.17738550788E+00  0.20824410915E+02  0.12565528814E+02  0.24322419081E+02  0.00000000000E+00 0. -1.
        -12    1    4    4    0    0 -0.54206821145E+02 -0.23246639732E+02  0.22429106105E+03  0.23191650606E+03  0.00000000000E+00 0.  1.
        -13    1    3    3    0    0  0.67852504374E+02 -0.67796614902E+01 -0.15143079125E+03  0.16607591848E+03  0.00000000000E+00 0.  1.
         13    1    3    3    0    0 -0.20474099492E+02  0.30624795075E+02 -0.49796991593E+02  0.61941966349E+02  0.00000000000E+00 0. -1.
         -3    1    1    2    0  502  0.70058017712E+01 -0.21422904768E+02  0.38809633799E+02  0.44879948560E+02  0.00000000000E+00 0.  1.
<scales pt_clust_5="13000.00000" pt_clust_6="13000.00000" pt_clust_7="13000.00000" pt_clust_8="13000.00000" pt_clust_9="13000.00000"></scales>
<clustering>
<clus scale="   81.202">  5  6 -1 -1</clus>
<clus scale="   22.539">  5  9 -1 -1</clus>
<clus scale="   93.200">  7  8 -1 -1</clus>
<clus scale="  107.236">  1  7  2 -1</clus>
<clus scale="  121.164">  2  5  1 -1</clus>
</clustering>
</event>
<event>
 9    1  0.2728138E-005  0.3832399E+03  0.7546771E-02  0.1100626E+00
         21   -1    0    0  501  502  0.00000000000E+00  0.00000000000E+00  0.12061587038E+03  0.12061587038E+03  0.00000000000E+00 0. -1.
          3   -1    0    0  502    0 -0.00000000000E+00 -0.00000000000E+00 -0.65513413149E+03  0.65513413149E+03  0.00000000000E+00 0. -1.
         23    2    1    2    0    0  0.18419935660E+02 -0.44874928757E+01 -0.32518203841E+03  0.33906417365E+03  0.94136731025E+02 0.  0.
        -24    2    1    2    0    0  0.58456220736E+02 -0.95251152461E+02  0.50653071771E+02  0.14780492881E+03  0.82405409495E+02 0.  0.
         13    1    4    4    0    0  0.29762257631E+02 -0.95689906887E+02  0.60979003149E+02  0.11730638978E+03  0.00000000000E+00 0. -1.
        -14    1    4    4    0    0  0.28693963106E+02  0.43875442544E+00 -0.10325931378E+02  0.30498539030E+02  0.00000000000E+00 0.  1.
        -11    1    3    3    0    0 -0.38333308260E+02  0.34203359633E+01 -0.11907201351E+03  0.12513706734E+03  0.00000000000E+00 0.  1.
         11    1    3    3    0    0  0.56753243920E+02 -0.79078288390E+01 -0.20611002490E+03  0.21392710632E+03  0.00000000000E+00 0. -1.
          4    1    1    2  501    0 -0.76876156397E+02  0.99738645337E+02 -0.25998929447E+03  0.28888089940E+03  0.00000000000E+00 0. -1.
<scales pt_clust_5="13000.00000" pt_clust_6="13000.00000" pt_clust_7="13000.00000" pt_clust_8="13000.00000" pt_clust_9="13000.00000"></scales>
<clustering>
<clus scale="   82.405">  5  6 -1 -1</clus>
<clus scale="   94.137">  7  8 -1 -1</clus>
<clus scale="   96.027">  2  7  1 -1</clus>
<clus scale="  113.800">  5  9 -1 -1</clus>
<clus scale="  383.240">  1  5  2 -1</clus>
</clustering>
</event>
<event>
 9    1  0.2728138E-005  0.1913224E+03  0.7546771E-02  0.1182489E+00
          1   -1    0    0  502    0 -0.00000000000E+00  0.00000000000E+00  0.32580976450E+03  0.32580976450E+03  0.00000000000E+00 0. -1.
         21   -1    0    0  501  502  0.00000000000E+00 -0.00000000000E+00 -0.11639535120E+03  0.11639535120E+03  0.00000000000E+00 0. -1.
         23    2    1    2    0    0  0.18418774454E+02  0.53907642967E+02  0.22592186456E+03  0.25017187626E+03  0.91104300469E+02 0.  0.
        -24    2    1    2    0    0 -0.49855930939E+01  0.35323455032E+02 -0.44445021815E+02  0.97570828610E+02  0.79196616200E+02 0.  0.
         13    1    4    4    0    0  0.19982925929E+02  0.45935376147E+02 -0.48984938647E+02  0.70063544905E+02  0.00000000000E+00 0. -1.
        -14    1    4    4    0    0 -0.24968519023E+02 -0.10611921115E+02  0.45399168320E+01  0.27507283704E+02  0.00000000000E+00 0.  1.
        -13    1    3    3    0    0 -0.15755219475E+02  0.28989298392E+02  0.17200242257E+02  0.37208261121E+02  0.00000000000E+00 0. -1.
         13    1    3    3    0    0  0.34173993929E+02  0.24918344575E+02  0.20872162230E+03  0.21296361514E+03  0.00000000000E+00 0.  1.
          2    1    1    2  501    0 -0.13433181360E+02 -0.89231097999E+02  0.27937570557E+02  0.94462410832E+02  0.00000000000E+00 0. -1.
<scales pt_clust_5="13000.00000" pt_clust_6="13000.00000" pt_clust_7="13000.00000" pt_clust_8="13000.00000" pt_clust_9="13000.00000"></scales>
<clustering>
<clus scale="   79.197">  5  6 -1 -1</clus>
<clus scale="   90.237">  5  9 -1 -1</clus>
<clus scale="   91.104">  7  8 -1 -1</clus>
<clus scale="  107.449">  1  7  2 -1</clus>
<clus scale="  191.322">  2  5  1 -1</clus>
</clustering>
</event>
<event>
 9    1  0.2728138E-005  0.1952773E+03  0.7546771E-02  0.1185280E+00
          3   -1    0    0  502    0 -0.00000000000E+00  0.00000000000E+00  0.28274366285E+03  0.28274366285E+03  0.00000000000E+00 0. -1.
         21   -1    0    0  501  502  0.00000000000E+00 -0.00000000000E+00 -0.10740660001E+03  0.10740660001E+03  0.00000000000E+00 0. -1.
         23    2    1    2    0    0  0.90817254136E+01 -0.24879516948E+02  0.17009772750E+03  0.19480265399E+03  0.91177678201E+02 0.  0.
        -24    2    1    2    0    0  0.67885833890E+02 -0.70699919581E+00  0.31595057457E+02  0.11006396987E+03  0.80665008007E+02 0.  0.
         13    1    4    4    0    0  0.54168218700E+02  0.24569000125E+02 -0.91630991954E+01  0.60181343215E+02  0.00000000000E+00 0. -1.
        -14    1    4    4    0    0  0.13717615190E+02 -0.25275999321E+02  0.40758156653E+02  0.49882626654E+02  0.00000000000E+00 0.  1.
        -13    1    3    3    0    0 -0.29026900692E+02 -0.42330489426E+01  0.13451902946E+02  0.32271246645E+02  0.00000000000E+00 0.  1.
         13    1    3    3    0    0  0.38108626105E+02 -0.20646468005E+02  0.15664582455E+03  0.16253140735E+03  0.00000000000E+00 0. -1.
          4    1    1    2  501    0 -0.76967559303E+02  0.25586516144E+02 -0.26355722117E+02  0.85283639004E+02  0.00000000000E+00 0. -1.
<scales pt_clust_5="13000.00000" pt_clust_6="13000.00000" pt_clust_7="13000.00000" pt_clust_8="13000.00000" pt_clust_9="13000.00000"></scales>
<clustering>
<clus scale="   80.665">  5  6 -1 -1</clus>
<clus scale="   81.109">  5  9 -1 -1</clus>
<clus scale="   91.178">  7  8 -1 -1</clus>
<clus scale="   94.946">  1  7  2 -1</clus>
<clus scale="  195.277">  2  5  1 -1</clus>
</clustering>
</event>
<event>
 9    1  0.2728138E-005  0.3842487E+03  0.7546771E-02  0.1077915E+00
          1   -1    0    0  502    0 -0.00000000000E+00  0.00000000000E+00  0.93178563289E+03  0.93178563289E+03  0.00000000000E+00 0. -1.
         21   -1    0    0  501  502  0.00000000000E+00 -0.00000000000E+00 -0.12881433437E+03  0.12881433437E+03  0.00000000000E+00 0. -1.
         23    2    1    2    0    0  0.98594443810E+02 -0.10980180620E+03  0.60275574302E+03  0.62731789480E+03  0.91847451746E+02 0.  0.
        -24    2    1    2    0    0 -0.12235612161E+03 -0.57844882987E+01 -0.51540827160E+02  0.15524235405E+03  0.80244942691E+02 0.  0.
         13    1    4    4    0    0 -0.43945409988E+02 -0.17153795541E+02 -0.59137293752E+02  0.75648339524E+02  0.00000000000E+00 0. -1.
        -14    1    4    4    0    0 -0.78410711623E+02  0.11369307242E+02  0.75964665922E+01  0.79594014530E+02  0.00000000000E+00 0.  1.
        -11    1    3    3    0    0  0.46748486994E+02 -0.10384409664E+03  0.49016631206E+03  0.50322165189E+03  0.00000000000E+00 0. -1.
         11    1    3    3    0    0  0.51845956816E+02 -0.59577095533E+01  0.11258943096E+03  0.12409624291E+03  0.00000000000E+00 0.  1.
          2    1    1    2  501    0  0.23761677801E+02  0.11558629450E+03  0.25175638265E+03  0.27803971841E+03  0.00000000000E+00 0. -1.
<scales pt_clust_5="13000.00000" pt_clust_6="13000.00000" pt_clust_7="13000.00000" pt_clust_8="13000.00000" pt_clust_9="13000.00000"></scales>
<clustering>
<clus scale="   80.245">  5  6 -1 -1</clus>
<clus scale="   91.847">  7  8 -1 -1</clus>
<clus scale="  118.003">  5  9 -1 -1</clus>
<clus scale="  173.820">  1  7  2 -1</clus>
<clus scale="  384.249">  2  5  1 -1</clus>
</clustering>
</event>
<event>
 9    1  0.2728138E-005  0.1628559E+03  0.7546771E-02  0.1199304E+00
         21   -1    0    0  501  502  0.00000000000E+00  0.00000000000E+00  0.38450343706E+02  0.38450343706E+02  0.00000000000E+00 0.  1.
          1   -1    0    0  502    0 -0.00000000000E+00 -0.00000000000E+00 -0.54605146485E+03  0.54605146485E+03  0.00000000000E+00 0. -1.
         23    2    1    2    0    0 -0.68795413971E+02 -0.38876092868E+02 -0.27922266970E+03  0.30400445751E+03  0.90604918915E+02 0.  0.
        -24    2    1    2    0    0  0.56458031365E+02 -0.19472430812E+02 -0.16969021593E+03  0.19682495289E+03  0.79866187030E+02 0.  0.
         11    1    4    4    0    0  0.27465043683E+02 -0.48970147837E+02 -0.11756154065E+03  0.13028092663E+03  0.00000000000E+00 0. -1.
        -12    1    4    4    0    0  0.28992987682E+02  0.29497717025E+02 -0.52128675278E+02  0.66544026258E+02  0.00000000000E+00 0.  1.
        -13    1    3    3    0    0 -0.34293956098E+02  0.12371526522E+02 -0.20124122745E+03  0.20451689837E+03  0.00000000000E+00 0. -1.
         13    1    3    3    0    0 -0.34501457873E+02 -0.51247619390E+02 -0.77981442256E+02  0.99487559146E+02  0.00000000000E+00 0.  1.
          2    1    1    2  501    0  0.12337382606E+02  0.58348523680E+02 -0.58688235513E+02  0.83672398154E+02  0.00000000000E+00 0. -1.
<scales pt_clust_5="13000.00000" pt_clust_6="13000.00000" pt_clust_7="13000.00000" pt_clust_8="13000.00000" pt_clust_9="13000.00000"></scales>
<clustering>
<clus scale="   79.866">  5  6 -1 -1</clus>
<clus scale="   59.639">  5  9 -1 -1</clus>
<clus scale="   90.605">  7  8 -1 -1</clus>
<clus scale="  120.222">  2  7  1 -1</clus>
<clus scale="  162.856">  1  5  2 -1</clus>
</clustering>
</event>
<event>
 9    1  0.2728138E-005  0.3841125E+03  0.7546771E-02  0.1092979E+00
         21   -1    0    0  501  502  0.00000000000E+00  0.00000000000E+00  0.87872195274E+02  0.87872195274E+02  0.00000000000E+00 0.  1.
          1   -1    0    0  502    0 -0.00000000000E+00 -0.00000000000E+00 -0.78450866554E+03  0.78450866554E+03  0.00000000000E+00 0. -1.
         23    2    1    2    0    0 -0.20643248686E+02  0.71003367851E+02 -0.29249108586E+03  0.31481837787E+03  0.89955287644E+02 0.  0.
        -24    2    1    2    0    0  0.94967508025E+02 -0.20075714773E+03 -0.24309789669E+03  0.33779799032E+03  0.75423039876E+02 0.  0.
         11    1    4    4    0    0  0.46631245754E+02 -0.95669293640E+02 -0.62771639978E+02  0.12356118165E+03  0.00000000000E+00 0. -1.
        -12    1    4    4    0    0  0.48336262271E+02 -0.10508785409E+03 -0.18032625672E+03  0.21423680867E+03  0.00000000000E+00 0.  1.
        -11    1    3    3    0    0 -0.53554900873E+02  0.32232695439E+02 -0.12468996618E+03  0.13947996892E+03  0.00000000000E+00 0. -1.
         11    1    3    3    0    0  0.32911652188E+02  0.38770672412E+02 -0.16780111968E+03  0.17533840895E+03  0.00000000000E+00 0.  1.
          2    1    1    2  501    0 -0.74324259340E+02  0.12975377988E+03 -0.16104748771E+03  0.21976449262E+03  0.00000000000E+00 0. -1.
<scales pt_clust_5="13000.00000" pt_clust_6="13000.00000" pt_clust_7="13000.00000" pt_clust_8="13000.00000" pt_clust_9="13000.00000"></scales>
<clustering>
<clus scale="   75.423">  5  6 -1 -1</clus>
<clus scale="   89.955">  7  8 -1 -1</clus>
<clus scale="  116.446">  2  7  1 -1</clus>
<clus scale="  178.126">  5  9 -1 -1</clus>
<clus scale="  384.113">  1  5  2 -1</clus>
</clustering>
</event>
<event>
 9    1  0.2728138E-005  0.3311003E+03  0.7546771E-02  0.1117700E+00
         21   -1    0    0  501  502  0.00000000000E+00  0.00000000000E+00  0.55858699143E+03  0.55858699143E+03  0.00000000000E+00 0. -1.
          3   -1    0    0  502    0 -0.00000000000E+00 -0.00000000000E+00 -0.81778119796E+02  0.81778119796E+02  0.00000000000E+00 0. -1.
         23    2    1    2    0    0  0.12634194659E+02  0.21674000785E+02  0.10422802571E+03  0.14192366323E+03  0.93002471241E+02 0.  0.
        -24    2    1    2    0    0  0.98883483434E+02 -0.12293666177E+03  0.22783924611E+03  0.28953848068E+03  0.83847740705E+02 0.  0.
         11    1    4    4    0    0  0.10099488291E+03 -0.11742697758E+03  0.23425108283E+03  0.28082491208E+03  0.00000000000E+00 0. -1.
        -12    1    4    4    0    0 -0.21113994810E+01 -0.55096841909E+01 -0.64118367159E+01  0.87135685986E+01  0.00000000000E+00 0.  1.
        -13    1    3    3    0    0 -0.29955958327E+02 -0.19645747583E+02  0.28882413370E+02  0.46016395333E+02  0.00000000000E+00 0.  1.
         13    1    3    3    0    0  0.42590152987E+02  0.41319748369E+02  0.75345612342E+02  0.95907267899E+02  0.00000000000E+00 0. -1.
          4    1    1    2  501    0 -0.11151767809E+03  0.10126266099E+03  0.14474159981E+03  0.20890296732E+03  0.00000000000E+00 0. -1.
<scales pt_clust_5="13000.00000" pt_clust_6="13000.00000" pt_clust_7="13000.00000" pt_clust_8="13000.00000" pt_clust_9="13000.00000"></scales>
<clustering>
<clus scale="   83.848">  5  6 -1 -1</clus>
<clus scale="   93.002">  7  8 -1 -1</clus>
<clus scale="   96.327">  2  7  1 -1</clus>
<clus scale="  153.802">  5  9 -1 -1</clus>
<clus scale="  331.100">  1  5  2 -1</clus>
</clustering>
</event>
<event>
 9    1  0.2728138E-005  0.2054525E+03  0.7546771E-02  0.1171437E+00
          3   -1    0    0  502    0 -0.00000000000E+00  0.00000000000E+00  0.16702953722E+03  0.16702953722E+03  0.00000000000E+00 0. -1.
         21   -1    0    0  501  502  0.00000000000E+00 -0.00000000000E+00 -0.15028134137E+03  0.15028134137E+03  0.00000000000E+00 0. -1.
         23    2    1    2    0    0 -0.39781740059E+02 -0.49050699009E+02  0.38387053136E+01  0.11145315434E+03  0.91752449768E+02 0.  0.
        -24    2    1    2    0    0 -0.48099409827E+02 -0.45492898930E+01 -0.24961932873E+02  0.96174999869E+02  0.79323913436E+02 0.  0.
         11    1    4    4    0    0  0.81453219118E+01 -0.28922593227E+02 -0.16543721487E+02  0.34300982328E+02  0.00000000000E+00 0. -1.
        -12    1    4    4    0    0 -0.56244731739E+02  0.24373303334E+02 -0.84182113857E+01  0.61874017542E+02  0.00000000000E+00 0.  1.
        -13    1    3    3    0    0 -0.25977207748E+02 -0.73801064711E+02 -0.11737330494E+02  0.79114963199E+02  0.00000000000E+00 0.  1.
         13    1    3    3    0    0 -0.13804532311E+02  0.24750365703E+02  0.15576035808E+02  0.32338191140E+02  0.00000000000E+00 0. -1.
          4    1    1    2  501    0  0.87881149886E+02  0.53599988902E+02  0.37871423414E+02  0.10968272438E+03  0.00000000000E+00 0. -1.
<scales pt_clust_5="13000.00000" pt_clust_6="13000.00000" pt_clust_7="13000.00000" pt_clust_8="13000.00000" pt_clust_9="13000.00000"></scales>
<clustering>
<clus scale="   79.324">  5  6 -1 -1</clus>
<clus scale="   91.752">  7  8 -1 -1</clus>
<clus scale="  102.937">  5  9 -1 -1</clus>
<clus scale="  111.387">  1  7  2 -1</clus>
<clus scale="  205.453">  2  5  1 -1</clus>
</clustering>
</event>
<event>
 9    1  0.2728138E-005  0.3156383E+03  0.7546771E-02  0.1089896E+00
          1   -1    0    0  502    0 -0.00000000000E+00  0.00000000000E+00  0.61581795695E+03  0.61581795695E+03  0.00000000000E+00 0. -1.
         21   -1    0    0  501  502  0.00000000000E+00 -0.00000000000E+00 -0.13222051603E+03  0.13222051603E+03  0.00000000000E+00 0. -1.
         23    2    1    2    0    0 -0.19264570156E+03 -0.79381830307E+02  0.31949784742E+03  0.39229103250E+03  0.91648995427E+02 0.  0.
        -24    2    1    2    0    0  0.36622297901E+01  0.77382963182E+02  0.11562741634E+03  0.16063644635E+03  0.80204947269E+02 0.  0.
         11    1    4    4    0    0  0.22720146910E+02  0.87149082568E+02  0.94933449785E+02  0.13085689724E+03  0.00000000000E+00 0. -1.
        -12    1    4    4    0    0 -0.19057917120E+02 -0.97661193861E+01  0.20693966559E+02  0.29779549102E+02  0.00000000000E+00 0.  1.
        -13    1    3    3    0    0 -0.16363077722E+03 -0.85699246128E+02  0.31045458311E+03  0.36124983075E+03  0.00000000000E+00 0. -1.
         13    1    3    3    0    0 -0.29014924338E+02  0.63174158213E+01  0.90432643115E+01  0.31041201755E+02  0.00000000000E+00 0.  1.
          2    1    1    2  501    0  0.18898347177E+03  0.19988671249E+01  0.48472177155E+02  0.19511099413E+03  0.00000000000E+00 0. -1.
<scales pt_clust_5="13000.00000" pt_clust_6="13000.00000" pt_clust_7="13000.00000" pt_clust_8="13000.00000" pt_clust_9="13000.00000"></scales>
<clustering>
<clus scale="   80.205">  5  6 -1 -1</clus>
<clus scale="   91.649">  7  8 -1 -1</clus>
<clus scale="  188.994">  5  9 -1 -1</clus>
<clus scale="  227.626">  1  7  2 -1</clus>
<clus scale="  315.638">  2  5  1 -1</clus>
</clustering>
</event>
<event>
 9    1  0.2728138E-005  0.2532127E+03  0.7546771E-02  0.1147852E+00
          1   -1    0    0  502    0 -0.00000000000E+00  0.00000000000E+00  0.63558735449E+03  0.63558735449E+03  0.00000000000E+00 0. -1.
         21   -1    0    0  501  502  0.00000000000E+00 -0.00000000000E+00 -0.49966429239E+02  0.49966429239E+02  0.00000000000E+00 0. -1.
         23    2    1    2    0    0  0.24483686215E+02  0.40344269925E+02  0.17804983856E+03  0.20573002134E+03  0.91629611261E+02 0.  0.
        -24    2    1    2    0    0 -0.54117295703E+02  0.48574488160E+02  0.69761851319E+02  0.12925311923E+03  0.80941277084E+02 0.  0.
         11    1    4    4    0    0 -0.60539494141E+02  0.45091645101E+02  0.18830197749E+02  0.77800148817E+02  0.00000000000E+00 0. -1.
        -12    1    4    4    0    0  0.64221984372E+01  0.34828430590E+01  0.50931653569E+02  0.51452970408E+02  0.00000000000E+00 0.  1.
        -11    1    3    3    0    0  0.39707444582E+02  0.58547140590E+02  0.16284440631E+03  0.17754647136E+03  0.00000000000E+00 0. -1.
         11    1    3    3    0    0 -0.15223758367E+02 -0.18202870664E+02  0.15205432257E+02  0.28183549978E+02  0.00000000000E+00 0.  1.
          2    1    1    2  501    0  0.29633609488E+02 -0.88918758085E+02  0.33780923537E+03  0.35057064317E+03  0.00000000000E+00 0. -1.
<scales pt_clust_5="13000.00000" pt_clust_6="13000.00000" pt_clust_7="13000.00000" pt_clust_8="13000.00000" pt_clust_9="13000.00000"></scales>
<clustering>
<clus scale="   80.941">  5  6 -1 -1</clus>
<clus scale="   91.630">  7  8 -1 -1</clus>
<clus scale="   93.727">  5  9 -1 -1</clus>
<clus scale="  103.068">  1  7  2 -1</clus>
<clus scale="  253.213">  2  5  1 -1</clus>
</clustering>
</event>
<event>
 9    1  0.2728138E-005  0.1315788E+03  0.7546771E-02  0.1236867E+00
          1   -1    0    0  502    0 -0.00000000000E+00  0.00000000000E+00  0.65207549700E+03  0.65207549700E+03  0.00000000000E+00 0. -1.
         21   -1    0    0  501  502  0.00000000000E+00 -0.00000000000E+00 -0.24383127380E+02  0.24383127380E+02  0.00000000000E+00 0. -1.
         23    2    1    2    0    0 -0.46210311196E+02  0.14608407489E+02  0.40342334559E+03  0.41644022958E+03  0.91231960513E+02 0.  0.
        -24    2    1    2    0    0  0.51952172182E+01 -0.31874265659E+02  0.14506875816E+03  0.16917220662E+03  0.80816655491E+02 0.  0.
         13    1    4    4    0    0 -0.31556629066E+02  0.78616230112E+01  0.46927548068E+02  0.57094839715E+02  0.00000000000E+00 0. -1.
        -14    1    4    4    0    0  0.36751846284E+02 -0.39735888670E+02  0.98141210091E+02  0.11207736690E+03  0.00000000000E+00 0.  1.
        -13    1    3    3    0    0 -0.11488907670E+02 -0.37875614333E+02  0.13133606055E+03  0.13717039754E+03  0.00000000000E+00 0. -1.
         13    1    3    3    0    0 -0.34721403526E+02  0.52484021823E+02  0.27208728503E+03  0.27926983204E+03  0.00000000000E+00 0.  1.
          2    1    1    2  501    0  0.41015093978E+02  0.17265858169E+02  0.79200265872E+02  0.90846188179E+02  0.00000000000E+00 0. -1.
<scales pt_clust_5="13000.00000" pt_clust_6="13000.00000" pt_clust_7="13000.00000" pt_clust_8="13000.00000" pt_clust_9="13000.00000"></scales>
<clustering>
<clus scale="   80.817">  5  6 -1 -1</clus>
<clus scale="   44.501">  5  9 -1 -1</clus>
<clus scale="   91.232">  7  8 -1 -1</clus>
<clus scale="  103.306">  1  7  2 -1</clus>
<clus scale="  131.579">  2  5  1 -1</clus>
</clustering>
</event>
<event>
 9    1  0.2728138E-005  0.4469055E+03  0.7546771E-02  0.1041064E+00
         21   -1    0    0  501  502  0.00000000000E+00  0.00000000000E+00  0.14073265268E+03  0.14073265268E+03  0.00000000000E+00 0. -1.
          1   -1    0    0  502    0 -0.00000000000E+00 -0.00000000000E+00 -0.10496605596E+04  0.10496605596E+04  0.00000000000E+00 0. -1.
         23    2    1    2    0    0  0.28578209392E+03  0.82045668969E+02 -0.47590178848E+03  0.56811018166E+03  0.88677895924E+02 0.  0.
        -24    2    1    2    0    0  0.12788772370E+02  0.63632257782E+02 -0.16735578755E+03  0.19690396994E+03  0.80935757382E+02 0.  0.
         13    1    4    4    0    0  0.81887074702E-01  0.39450769582E+02 -0.15139658279E+02  0.42256114101E+02  0.00000000000E+00 0. -1.
        -14    1    4    4    0    0  0.12706885295E+02  0.24181488200E+02 -0.15221612928E+03  0.15464785584E+03  0.00000000000E+00 0.  1.
        -13    1    3    3    0    0  0.10181750392E+03 -0.13907042261E+02 -0.15452226660E+03  0.18557300667E+03  0.00000000000E+00 0.  1.
         13    1    3    3    0    0  0.18396459000E+03  0.95952711230E+02 -0.32137952188E+03  0.38253717499E+03  0.00000000000E+00 0. -1.
          2    1    1    2  501    0 -0.29857086629E+03 -0.14567792675E+03 -0.26567033084E+03  0.42537906064E+03  0.00000000000E+00 0. -1.
<scales pt_clust_5="13000.00000" pt_clust_6="13000.00000" pt_clust_7="13000.00000" pt_clust_8="13000.00000" pt_clust_9="13000.00000"></scales>
<clustering>
<clus scale="   80.936">  5  6 -1 -1</clus>
<clus scale="   88.678">  7  8 -1 -1</clus>
<clus scale="  310.269">  2  7  1 -1</clus>
<clus scale="  144.472">  5  9 -1 -1</clus>
<clus scale="  446.906">  1  5  2 -1</clus>
</clustering>
</event>
<event>
 9    1  0.2728138E-005  0.1450551E+03  0.7546771E-02  0.1216018E+00
         21   -1    0    0  501  502  0.00000000000E+00  0.00000000000E+00  0.25661320904E+03  0.25661320904E+03  0.00000000000E+00 0.  1.
          1   -1    0    0  502    0 -0.00000000000E+00 -0.00000000000E+00 -0.78352974490E+02  0.78352974490E+02  0.00000000000E+00 0. -1.
         23    2    1    2    0    0  0.48690910609E+02  0.59313322707E+02  0.14246311837E+03  0.18555933159E+03  0.90816575675E+02 0.  0.
        -24    2    1    2    0    0 -0.91873006993E+01 -0.67487913928E+01  0.20045009633E+02  0.81792548657E+02  0.78474619625E+02 0.  0.
         11    1    4    4    0    0 -0.63122123799E+01  0.27552433198E+02  0.34377716656E+02  0.44506269252E+02  0.00000000000E+00 0. -1.
        -12    1    4    4    0    0 -0.28750883195E+01 -0.34301224591E+02 -0.14332707023E+02  0.37286279405E+02  0.00000000000E+00 0.  1.
        -13    1    3    3    0    0  0.24664062256E+02 -0.76886785816E+01 -0.51848308718E+00  0.25839902670E+02  0.00000000000E+00 0. -1.
         13    1    3    3    0    0  0.24026848353E+02  0.67002001288E+02  0.14298160146E+03  0.15971942892E+03  0.00000000000E+00 0.  1.
          2    1    1    2  501    0 -0.39503609910E+02 -0.52564531314E+02  0.15752106546E+02  0.67614303285E+02  0.00000000000E+00 0. -1.
<scales pt_clust_5="13000.00000" pt_clust_6="13000.00000" pt_clust_7="13000.00000" pt_clust_8="13000.00000" pt_clust_9="13000.00000"></scales>
<clustering>
<clus scale="   78.475">  5  6 -1 -1</clus>
<clus scale="   65.754">  5  9 -1 -1</clus>
<clus scale="   90.817">  7  8 -1 -1</clus>
<clus scale="  118.897">  2  7  1 -1</clus>
<clus scale="  145.055">  1  5  2 -1</clus>
</clustering>
</event>
<event>
 9    1  0.2728138E-005  0.4238431E+03  0.7546771E-02  0.1073314E+00
         21   -1    0    0  501  502  0.00000000000E+00  0.00000000000E+00  0.99686406985E+02  0.99686406985E+02  0.00000000000E+00 0. -1.
          1   -1    0    0  502    0 -0.00000000000E+00 -0.00000000000E+00 -0.81652066210E+03  0.81652066210E+03  0.00000000000E+00 0. -1.
         23    2    1    2    0    0 -0.11962655384E+03 -0.23545446702E+02 -0.18515937294E+03  0.23626502696E+03  0.81683958830E+02 0.  0.
        -24    2    1    2    0    0 -0.84928952893E+02 -0.11845696090E+03 -0.20268321185E+03  0.26733671226E+03  0.95621413532E+02 0.  0.
         11    1    4    4    0    0 -0.10528430332E+03 -0.10868995508E+03 -0.16972535067E+03  0.22738730290E+03  0.00000000000E+00 0. -1.
        -12    1    4    4    0    0  0.20355350429E+02 -0.97670058274E+01 -0.32957861179E+02  0.39949409350E+02  0.00000000000E+00 0.  1.
        -11    1    3    3    0    0 -0.45619947658E+02  0.66440422331E+01 -0.15356902619E+02  0.48591741887E+02  0.00000000000E+00 0. -1.
         11    1    3    3    0    0 -0.74006606181E+02 -0.30189488935E+02 -0.16980247032E+03  0.18767328507E+03  0.00000000000E+00 0.  1.
          2    1    1    2  501    0  0.20455550673E+03  0.14200240761E+03 -0.32899167032E+03  0.41260532988E+03  0.00000000000E+00 0. -1.
<scales pt_clust_5="13000.00000" pt_clust_6="13000.00000" pt_clust_7="13000.00000" pt_clust_8="13000.00000" pt_clust_9="13000.00000"></scales>
<clustering>
<clus scale="   81.684">  7  8 -1 -1</clus>
<clus scale="   95.621">  5  6 -1 -1</clus>
<clus scale="  146.755">  2  7  1 -1</clus>
<clus scale="  183.108">  5  9 -1 -1</clus>
<clus scale="  423.843">  1  5  2 -1</clus>
</clustering>
</event>
<event>
 9    1  0.2728138E-005  0.3256869E+03  0.7546771E-02  0.1109326E+00
          1   -1    0    0  502    0 -0.00000000000E+00  0.00000000000E+00  0.31166822803E+03  0.31166822803E+03  0.00000000000E+00 0. -1.
         21   -1    0    0  501  502  0.00000000000E+00 -0.00000000000E+00 -0.20262493917E+03  0.20262493917E+03  0.00000000000E+00 0. -1.
         23    2    1    2    0    0  0.56019463403E+02 -0.61945169513E+02 -0.69256742360E+02  0.14299425430E+03  0.93142235832E+02 0.  0.
        -24    2    1    2    0    0 -0.83792906951E+02 -0.83400348207E+02  0.17243263313E+03  0.22320735322E+03  0.78176980165E+02 0.  0.
         11    1    4    4    0    0 -0.41033636129E+02 -0.88905132953E+02  0.10914284447E+03  0.14662892777E+03  0.00000000000E+00 0. -1.
        -12    1    4    4    0    0 -0.42759270821E+02  0.55047847467E+01  0.63289788656E+02  0.76578425450E+02  0.00000000000E+00 0.  1.
        -11    1    3    3    0    0  0.76847550507E+02 -0.59604799852E+02 -0.73128936241E+02  0.12168039900E+03  0.00000000000E+00 0.  1.
         11    1    3    3    0    0 -0.20828087104E+02 -0.23403696607E+01  0.38721938817E+01  0.21313855307E+02  0.00000000000E+00 0. -1.
          2    1    1    2  501    0  0.27773443548E+02  0.14534551772E+03  0.58673980981E+01  0.14809155968E+03  0.00000000000E+00 0. -1.
<scales pt_clust_5="13000.00000" pt_clust_6="13000.00000" pt_clust_7="13000.00000" pt_clust_8="13000.00000" pt_clust_9="13000.00000"></scales>
<clustering>
<clus scale="   78.177">  5  6 -1 -1</clus>
<clus scale="   93.142">  7  8 -1 -1</clus>
<clus scale="  125.103">  1  7  2 -1</clus>
<clus scale="  135.172">  5  9 -1 -1</clus>
<clus scale="  325.687">  2  5  1 -1</clus>
</clustering>
</event>
<event>
 9    1  0.2812326E-005  0.2994173E+03  0.7546771E-02  0.1099442E+00
          3   -1    0    0  502    0 -0.00000000000E+00  0.00000000000E+00  0.26543902828E+03  0.26543902828E+03  0.00000000000E+00 0. -1.
         21   -1    0    0  501  502  0.00000000000E+00 -0.00000000000E+00 -0.36443711235E+03  0.36443711235E+03  0.00000000000E+00 0. -1.
         23    2    1    2    0    0  0.18441377736E+03 -0.49439669974E+02 -0.22397957601E+03  0.30542104910E+03  0.81623798719E+02 0.  0.
        -24    2    1    2    0    0 -0.46161518019E+01 -0.43166569205E+02  0.15540552963E+02  0.94497658921E+02  0.82484163333E+02 0.  0.
         13    1    4    4    0    0 -0.32719978232E+02 -0.53181293819E+02  0.42059037982E+01  0.62582238811E+02  0.00000000000E+00 0. -1.
        -14    1    4    4    0    0  0.28103826430E+02  0.10014724614E+02  0.11334649165E+02  0.31915420110E+02  0.00000000000E+00 0.  1.
        -13    1    3    3    0    0  0.17023894308E+03 -0.67704987955E+02 -0.18686429292E+03  0.26169357482E+03  0.00000000000E+00 0. -1.
         13    1    3    3    0    0  0.14174834274E+02  0.18265317981E+02 -0.37115283089E+02  0.43727474274E+02  0.00000000000E+00 0.  1.
          4    1    1    2  501    0 -0.17979762556E+03  0.92606239179E+02  0.10944093897E+03  0.22995743261E+03  0.00000000000E+00 0. -1.
<scales pt_clust_5="13000.00000" pt_clust_6="13000.00000" pt_clust_7="13000.00000" pt_clust_8="13000.00000" pt_clust_9="13000.00000"></scales>
<clustering>
<clus scale="   81.624">  7  8 -1 -1</clus>
<clus scale="   82.484">  5  6 -1 -1</clus>
<clus scale="  202.245">  5  9 -1 -1</clus>
<clus scale="  207.642">  1  7  2 -1</clus>
<clus scale="  299.417">  2  5  1 -1</clus>
</clustering>
</event>
<event>
 9    1  0.2728138E-005  0.1193128E+03  0.7546771E-02  0.1256692E+00
          3   -1    0    0  502    0 -0.00000000000E+00  0.00000000000E+00  0.86958193122E+02  0.86958193122E+02  0.00000000000E+00 0. -1.
         21   -1    0    0  501  502  0.00000000000E+00 -0.00000000000E+00 -0.34892629735E+03  0.34892629735E+03  0.00000000000E+00 0. -1.
         23    2    1    2    0    0 -0.31228098784E+01  0.20323502165E+02  0.47316595897E+02  0.10438402398E+03  0.90743415926E+02 0.  0.
        -24    2    1    2    0    0  0.70226065325E+01  0.17158529011E+02 -0.21964132876E+03  0.23425826832E+03  0.79315136367E+02 0.  0.
         11    1    4    4    0    0 -0.28493150997E+02  0.12085537396E+02 -0.17121770605E+03  0.17399259390E+03  0.00000000000E+00 0. -1.
        -12    1    4    4    0    0  0.35515757530E+02  0.50729916156E+01 -0.48423622715E+02  0.60265674423E+02  0.00000000000E+00 0.  1.
        -13    1    3    3    0    0  0.19905247927E+02  0.19487969954E+02 -0.19303441402E+02  0.33891336916E+02  0.00000000000E+00 0.  1.
         13    1    3    3    0    0 -0.23028057805E+02  0.83553221011E+00  0.66620037299E+02  0.70492687068E+02  0.00000000000E+00 0. -1.
          4    1    1    2  501    0 -0.38997966541E+01 -0.37482031176E+02 -0.89643371366E+02  0.97242198170E+02  0.00000000000E+00 0. -1.
<scales pt_clust_5="13000.00000" pt_clust_6="13000.00000" pt_clust_7="13000.00000" pt_clust_8="13000.00000" pt_clust_9="13000.00000"></scales>
<clustering>
<clus scale="   79.315">  5  6 -1 -1</clus>
<clus scale="   37.684">  5  9 -1 -1</clus>
<clus scale="   90.743">  7  8 -1 -1</clus>
<clus scale="   93.044">  1  7  2 -1</clus>
<clus scale="  119.313">  2  5  1 -1</clus>
</clustering>
</event>
<event>
 9    1  0.2728138E-005  0.2079711E+03  0.7546771E-02  0.1162065E+00
         -2   -1    0    0    0  501 -0.00000000000E+00  0.00000000000E+00  0.22049985714E+03  0.22049985714E+03  0.00000000000E+00 0.  1.
         21   -1    0    0  501  502  0.00000000000E+00 -0.00000000000E+00 -0.13379402145E+03  0.13379402145E+03  0.00000000000E+00 0. -1.
         23    2    1    2    0    0  0.96141476602E+02  0.20521319751E+01  0.13912664122E+02  0.13395134655E+03  0.92206324351E+02 0.  0.
        -24    2    1    2    0    0 -0.13899316095E+03 -0.18585034958E+02  0.48980957281E+02  0.16860642007E+03  0.79777743739E+02 0.  0.
         13    1    4    4    0    0 -0.13370582157E+03 -0.37542288242E+02  0.52769882159E+02  0.14856423053E+03  0.00000000000E+00 0. -1.
        -14    1    4    4    0    0 -0.52873393763E+01  0.18957253284E+02 -0.37889248784E+01  0.20042189539E+02  0.00000000000E+00 0.  1.
        -13    1    3    3    0    0  0.83568480145E+02 -0.14642704423E+02 -0.26137054712E+02  0.88776378027E+02  0.00000000000E+00 0.  1.
         13    1    3    3    0    0  0.12572996457E+02  0.16694836398E+02  0.40049718833E+02  0.45174968521E+02  0.00000000000E+00 0. -1.
         -1    1    1    2    0  502  0.42851684349E+02  0.16532902983E+02  0.23812214295E+02  0.51736111974E+02  0.00000000000E+00 0.  1.
<scales pt_clust_5="13000.00000" pt_clust_6="13000.00000" pt_clust_7="13000.00000" pt_clust_8="13000.00000" pt_clust_9="13000.00000"></scales>
<clustering>
<clus scale="   79.778">  5  6 -1 -1</clus>
<clus scale="   45.930">  5  9 -1 -1</clus>
<clus scale="   92.206">  7  8 -1 -1</clus>
<clus scale="  133.227">  1  7  2 -1</clus>
<clus scale="  207.971">  2  5  1 -1</clus>
</clustering>
</event>
<event>
 9    1  0.2728138E-005  0.2546754E+03  0.7546771E-02  0.1139247E+00
          1   -1    0    0  502    0 -0.00000000000E+00  0.00000000000E+00  0.25635291018E+03  0.25635291018E+03  0.00000000000E+00 0. -1.
         21   -1    0    0  501  502  0.00000000000E+00 -0.00000000000E+00 -0.39317531413E+03  0.39317531413E+03  0.00000000000E+00 0. -1.
         23    2    1    2    0    0 -0.39883371176E+02  0.71670475791E+02  0.19492729234E+03  0.23129689852E+03  0.93671049778E+02 0.  0.
        -24    2    1    2    0    0  0.11763312043E+03 -0.90327889900E+02 -0.17879475157E+03  0.24563834295E+03  0.79837044174E+02 0.  0.
         13    1    4    4    0    0  0.11916481818E+03 -0.53733381501E+02 -0.15058437805E+03  0.19940708386E+03  0.00000000000E+00 0. -1.
        -14    1    4    4    0    0 -0.15316977544E+01 -0.36594508399E+02 -0.28210373515E+02  0.46231259087E+02  0.00000000000E+00 0.  1.
        -11    1    3    3    0    0 -0.22650378526E+01  0.29504701556E+02  0.16445639241E+03  0.16709746502E+03  0.00000000000E+00 0.  1.
         11    1    3    3    0    0 -0.37618333323E+02  0.42165774235E+02  0.30470899931E+02  0.64199433498E+02  0.00000000000E+00 0. -1.
          2    1    1    2  501    0 -0.77749749254E+02  0.18657414109E+02 -0.15295494472E+03  0.17259298284E+03  0.00000000000E+00 0. -1.
<scales pt_clust_5="13000.00000" pt_clust_6="13000.00000" pt_clust_7="13000.00000" pt_clust_8="13000.00000" pt_clust_9="13000.00000"></scales>
<clustering>
<clus scale="   79.837">  5  6 -1 -1</clus>
<clus scale="   79.957">  5  9 -1 -1</clus>
<clus scale="   93.671">  7  8 -1 -1</clus>
<clus scale="  124.505">  1  7  2 -1</clus>
<clus scale="  254.675">  2  5  1 -1</clus>
</clustering>
</event>
<event>
 9    1  0.2728138E-005  0.2477731E+03  0.7546771E-02  0.1149469E+00
          1   -1    0    0  502    0 -0.00000000000E+00  0.00000000000E+00  0.61763619822E+03  0.61763619822E+03  0.00000000000E+00 0. -1.
         21   -1    0    0  501  502  0.00000000000E+00 -0.00000000000E+00 -0.53803223550E+02  0.53803223550E+02  0.00000000000E+00 0. -1.
         23    2    1    2    0    0  0.23483267595E+02 -0.62269590762E+02  0.10025059399E+03  0.14579685068E+03  0.82326024344E+02 0.  0.
        -24    2    1    2    0    0 -0.38701676656E+02 -0.53972255974E+02  0.33918259901E+03  0.35470669836E+03  0.79757019713E+02 0.  0.
         11    1    4    4    0    0 -0.61222476753E+02 -0.32700764255E+02  0.18849711192E+03  0.20086984055E+03  0.00000000000E+00 0. -1.
        -12    1    4    4    0    0  0.22520800097E+02 -0.21271491719E+02  0.15068548710E+03  0.15383685780E+03  0.00000000000E+00 0.  1.
        -11    1    3    3    0    0 -0.20260604373E+02  0.10517296724E+01  0.11484608569E+01  0.20320363855E+02  0.00000000000E+00 0.  1.
         11    1    3    3    0    0  0.43743871968E+02 -0.63321320434E+02  0.99102133130E+02  0.12547648683E+03  0.00000000000E+00 0. -1.
          2    1    1    2  501    0  0.15218409061E+02  0.11624184674E+03  0.12439978167E+03  0.17093587273E+03  0.00000000000E+00 0. -1.
<scales pt_clust_5="13000.00000" pt_clust_6="13000.00000" pt_clust_7="13000.00000" pt_clust_8="13000.00000" pt_clust_9="13000.00000"></scales>
<clustering>
<clus scale="   79.757">  5  6 -1 -1</clus>
<clus scale="   82.326">  7  8 -1 -1</clus>
<clus scale="  105.861">  1  7  2 -1</clus>
<clus scale="  100.149">  5  9 -1 -1</clus>
<clus scale="  247.773">  2  5  1 -1</clus>
</clustering>
</event>
<event>
 9    1  0.2728138E-005  0.2282478E+03  0.7546771E-02  0.1155713E+00
          1   -1    0    0  502    0 -0.00000000000E+00  0.00000000000E+00  0.18114636863E+04  0.18114636863E+04  0.00000000000E+00 0. -1.
         21   -1    0    0  501  502  0.00000000000E+00 -0.00000000000E+00 -0.19813969236E+02  0.19813969236E+02  0.00000000000E+00 0.  1.
         23    2    1    2    0    0 -0.73123957454E+02 -0.10309291341E+00  0.29474787818E+03  0.31707417067E+03  0.91173429422E+02 0.  0.
        -24    2    1    2    0    0 -0.35444164867E+02  0.50651318212E+02  0.77262351290E+03  0.78009092282E+03  0.88164110159E+02 0.  0.
         13    1    4    4    0    0  0.65605822535E+01  0.48769963691E+02  0.20150250215E+03  0.20742422465E+03  0.00000000000E+00 0. -1.
        -14    1    4    4    0    0 -0.42004747120E+02  0.18813545216E+01  0.57112101075E+03  0.57266669817E+03  0.00000000000E+00 0.  1.
        -11    1    3    3    0    0 -0.15884991185E+02  0.29530639347E+02  0.19801637658E+03  0.20083544756E+03  0.00000000000E+00 0. -1.
         11    1    3    3    0    0 -0.57238966269E+02 -0.29633732260E+02  0.96731501603E+02  0.11623872311E+03  0.00000000000E+00 0.  1.
          2    1    1    2  501    0  0.10856812232E+03 -0.50548225299E+02  0.72427832603E+03  0.73411256210E+03  0.00000000000E+00 0. -1.
<scales pt_clust_5="13000.00000" pt_clust_6="13000.00000" pt_clust_7="13000.00000" pt_clust_8="13000.00000" pt_clust_9="13000.00000"></scales>
<clustering>
<clus scale="   88.164">  5  6 -1 -1</clus>
<clus scale="   91.173">  7  8 -1 -1</clus>
<clus scale="  116.875">  1  7  2 -1</clus>
<clus scale="   88.946">  5  9 -1 -1</clus>
<clus scale="  228.248">  2  5  1 -1</clus>
</clustering>
</event>
<event>
 9    1  0.2728138E-005  0.1683179E+03  0.7546771E-02  0.1205820E+00
         -2   -1    0    0    0  501 -0.00000000000E+00  0.00000000000E+00  0.35921188015E+02  0.35921188015E+02  0.00000000000E+00 0.  1.
         21   -1    0    0  501  502  0.00000000000E+00 -0.00000000000E+00 -0.50612792998E+03  0.50612792998E+03  0.00000000000E+00 0.  1.
         23    2    1    2    0    0  0.21588056668E+02 -0.74885367238E+01 -0.11438188781E+03  0.14842208779E+03  0.91781139191E+02 0.  0.
        -24    2    1    2    0    0  0.27719607743E+01 -0.27789702413E+02 -0.86419281731E+02  0.12083163608E+03  0.79699690685E+02 0.  0.
         13    1    4    4    0    0  0.41182590511E+02 -0.11823477281E+02 -0.43015064801E+02  0.60713229003E+02  0.00000000000E+00 0. -1.
        -14    1    4    4    0    0 -0.38410629736E+02 -0.15966225133E+02 -0.43404216930E+02  0.60118407074E+02  0.00000000000E+00 0.  1.
        -11    1    3    3    0    0  0.48027196494E+02  0.21446462553E+02 -0.47346690100E+02  0.70769141739E+02  0.00000000000E+00 0.  1.
         11    1    3    3    0    0 -0.26439139826E+02 -0.28934999277E+02 -0.67035197709E+02  0.77652946047E+02  0.00000000000E+00 0. -1.
         -1    1    1    2    0  502 -0.24360017442E+02  0.35278239137E+02 -0.26940557242E+03  0.27279539413E+03  0.00000000000E+00 0.  1.
<scales pt_clust_5="13000.00000" pt_clust_6="13000.00000" pt_clust_7="13000.00000" pt_clust_8="13000.00000" pt_clust_9="13000.00000"></scales>
<clustering>
<clus scale="   79.700">  5  6 -1 -1</clus>
<clus scale="   42.872">  5  9 -1 -1</clus>
<clus scale="   91.781">  7  8 -1 -1</clus>
<clus scale="   94.583">  1  7  2 -1</clus>
<clus scale="  168.318">  2  5  1 -1</clus>
</clustering>
</event>
<event>
 9    1  0.2728138E-005  0.2267456E+03  0.7546771E-02  0.1149487E+00
         21   -1    0    0  501  502  0.00000000000E+00  0.00000000000E+00  0.83695394503E+02  0.83695394503E+02  0.00000000000E+00 0. -1.
          3   -1    0    0  502    0 -0.00000000000E+00 -0.00000000000E+00 -0.50973032723E+03  0.50973032723E+03  0.00000000000E+00 0. -1.
         23    2    1    2    0    0  0.10416186461E+03  0.10123735411E+02 -0.30858914674E+03  0.33806895829E+03  0.90062062046E+02 0.  0.
        -24    2    1    2    0    0  0.20210173996E+02 -0.48319729445E+02 -0.62512475265E+02  0.11412997217E+03  0.79841052073E+02 0.  0.
         11    1    4    4    0    0 -0.11056330716E+02 -0.37829777903E+02  0.42751904579E+01  0.39643559358E+02  0.00000000000E+00 0. -1.
        -12    1    4    4    0    0  0.31266504712E+02 -0.10489951542E+02 -0.66787665723E+02  0.74486412808E+02  0.00000000000E+00 0.  1.
        -11    1    3    3    0    0  0.62779001231E+02  0.29530325092E+02 -0.26834869440E+03  0.27717190493E+03  0.00000000000E+00 0. -1.
         11    1    3    3    0    0  0.41382863376E+02 -0.19406589681E+02 -0.40240452340E+02  0.60897053367E+02  0.00000000000E+00 0.  1.
          4    1    1    2  501    0 -0.12437203860E+03  0.38195994034E+02 -0.54933310724E+02  0.14122679127E+03  0.00000000000E+00 0. -1.
<scales pt_clust_5="13000.00000" pt_clust_6="13000.00000" pt_clust_7="13000.00000" pt_clust_8="13000.00000" pt_clust_9="13000.00000"></scales>
<clustering>
<clus scale="   79.841">  5  6 -1 -1</clus>
<clus scale="   90.062">  7  8 -1 -1</clus>
<clus scale="  130.105">  5  9 -1 -1</clus>
<clus scale="  138.070">  2  7  1 -1</clus>
<clus scale="  226.746">  1  5  2 -1</clus>
</clustering>
</event>
<event>
 9    1  0.2728138E-005  0.2141852E+03  0.7546771E-02  0.1175846E+00
         -2   -1    0    0    0  501 -0.00000000000E+00  0.00000000000E+00  0.28465203593E+03  0.28465203593E+03  0.00000000000E+00 0.  1.
         21   -1    0    0  501  502  0.00000000000E+00 -0.00000000000E+00 -0.95305924222E+02  0.95305924222E+02  0.00000000000E+00 0.  1.
         23    2    1    2    0    0 -0.23822071186E+02 -0.61248892140E+01 -0.72428233752E+01  0.89230439401E+02  0.85466996448E+02 0.  0.
        -24    2    1    2    0    0 -0.45334041562E+02  0.27264615868E+02  0.19691566255E+03  0.21841180514E+03  0.78290509418E+02 0.  0.
         13    1    4    4    0    0  0.61225301431E+01  0.31681086134E+02  0.12965794725E+03  0.13361272349E+03  0.00000000000E+00 0. -1.
        -14    1    4    4    0    0 -0.51456571705E+02 -0.44164702656E+01  0.67257715303E+02  0.84799081652E+02  0.00000000000E+00 0.  1.
        -13    1    3    3    0    0 -0.31830279668E+02  0.30533674551E+02  0.13792120556E+02  0.46213575655E+02  0.00000000000E+00 0.  1.
         13    1    3    3    0    0  0.80082084819E+01 -0.36658563765E+02 -0.21034943931E+02  0.43016863747E+02  0.00000000000E+00 0. -1.
         -1    1    1    2    0  502  0.69156112748E+02 -0.21139726654E+02 -0.32672746529E+00  0.72315715611E+02  0.00000000000E+00 0.  1.
<scales pt_clust_5="13000.00000" pt_clust_6="13000.00000" pt_clust_7="13000.00000" pt_clust_8="13000.00000" pt_clust_9="13000.00000"></scales>
<clustering>
<clus scale="   78.291">  5  6 -1 -1</clus>
<clus scale="   72.315">  5  9 -1 -1</clus>
<clus scale="   85.467">  7  8 -1 -1</clus>
<clus scale="   88.936">  1  7  2 -1</clus>
<clus scale="  214.185">  2  5  1 -1</clus>
</clustering>
</event>
<event>
 9    1  0.2728138E-005  0.2241874E+03  0.7546771E-02  0.1161693E+00
         21   -1    0    0  501  502  0.00000000000E+00  0.00000000000E+00  0.44279368663E+03  0.44279368663E+03  0.00000000000E+00 0. -1.
          1   -1    0    0  502    0 -0.00000000000E+00 -0.00000000000E+00 -0.63674761541E+02  0.63674761541E+02  0.00000000000E+00 0. -1.
         23    2    1    2    0    0  0.58108652299E+02 -0.26061692385E+00  0.86303806413E+02  0.13768577254E+03  0.90179496367E+02 0.  0.
        -24    2    1    2    0    0  0.37300560241E+01 -0.69227401304E+02  0.70018236534E+02  0.12734725732E+03  0.80674804553E+02 0.  0.
         13    1    4    4    0    0  0.19406883026E+02 -0.52200951971E+02  0.83645150634E+02  0.10048919206E+03  0.00000000000E+00 0. -1.
        -14    1    4    4    0    0 -0.15676827002E+02 -0.17026449333E+02 -0.13626914099E+02  0.26858065262E+02  0.00000000000E+00 0.  1.
        -11    1    3    3    0    0  0.29918380249E+02 -0.20274841185E+02 -0.81973612385E+01  0.37059079766E+02  0.00000000000E+00 0.  1.
         11    1    3    3    0    0  0.28190272050E+02  0.20014224261E+02  0.94501167651E+02  0.10062669277E+03  0.00000000000E+00 0. -1.
          2    1    1    2  501    0 -0.61838708323E+02  0.69488018228E+02  0.22279688214E+03  0.24143541831E+03  0.00000000000E+00 0. -1.
<scales pt_clust_5="13000.00000" pt_clust_6="13000.00000" pt_clust_7="13000.00000" pt_clust_8="13000.00000" pt_clust_9="13000.00000"></scales>
<clustering>
<clus scale="   80.675">  5  6 -1 -1</clus>
<clus scale="   90.179">  7  8 -1 -1</clus>
<clus scale="   93.019">  5  9 -1 -1</clus>
<clus scale="  107.280">  2  7  1 -1</clus>
<clus scale="  224.187">  1  5  2 -1</clus>
</clustering>
</event>
<event>
 9    1  0.2728138E-005  0.3005446E+03  0.7546771E-02  0.1126933E+00
         21   -1    0    0  501  502  0.00000000000E+00  0.00000000000E+00  0.58364595438E+03  0.58364595438E+03  0.00000000000E+00 0. -1.
          3   -1    0    0  502    0 -0.00000000000E+00 -0.00000000000E+00 -0.79778507766E+02  0.79778507766E+02  0.00000000000E+00 0. -1.
         23    2    1    2    0    0 -0.42827368632E+00  0.48403419078E+02  0.38289587654E+02  0.10926764722E+03  0.90167908973E+02 0.  0.
        -24    2    1    2    0    0 -0.94020694571E+01 -0.16314816035E+03  0.24502216265E+03  0.30534402090E+03  0.80581572180E+02 0.  0.
         11    1    4    4    0    0 -0.33733348137E+02 -0.11686476360E+03  0.20909786791E+03  0.24190334870E+03  0.00000000000E+00 0. -1.
        -12    1    4    4    0    0  0.24331278680E+02 -0.46283396752E+02  0.35924294744E+02  0.63440672206E+02  0.00000000000E+00 0.  1.
        -11    1    3    3    0    0  0.34227431628E+02  0.56629341322E+02  0.30233766696E+02  0.72749433146E+02  0.00000000000E+00 0.  1.
         11    1    3    3    0    0 -0.34655705314E+02 -0.82259222440E+01  0.80558209582E+01  0.36518214070E+02  0.00000000000E+00 0. -1.
          4    1    1    2  501    0  0.98303431434E+01  0.11474474127E+03  0.22055569631E+03  0.24881279403E+03  0.00000000000E+00 0. -1.
<scales pt_clust_5="13000.00000" pt_clust_6="13000.00000" pt_clust_7="13000.00000" pt_clust_8="13000.00000" pt_clust_9="13000.00000"></scales>
<clustering>
<clus scale="   80.582">  5  6 -1 -1</clus>
<clus scale="   90.168">  7  8 -1 -1</clus>
<clus scale="  102.339">  2  7  1 -1</clus>
<clus scale="  130.546">  5  9 -1 -1</clus>
<clus scale="  300.545">  1  5  2 -1</clus>
</clustering>
</event>
<event>
 9    1  0.2728138E-005  0.1507316E+03  0.7546771E-02  0.1215503E+00
         -4   -1    0    0    0  501 -0.00000000000E+00  0.00000000000E+00  0.17618662389E+03  0.17618662389E+03  0.00000000000E+00 0.  1.
         21   -1    0    0  501  502  0.00000000000E+00 -0.00000000000E+00 -0.96989845193E+02  0.96989845193E+02  0.00000000000E+00 0.  1.
         23    2    1    2    0    0 -0.51447476391E+02 -0.34072206756E+02  0.55322141776E+02  0.12056583640E+03  0.87566108945E+02 0.  0.
        -24    2    1    2    0    0 -0.11674828179E+02  0.12348149263E+02  0.83916853318E+01  0.84082669060E+02  0.81918840631E+02 0.  0.
         11    1    4    4    0    0  0.30417865261E+02 -0.13213198908E+02  0.10515048786E+02  0.34790823551E+02  0.00000000000E+00 0. -1.
        -12    1    4    4    0    0 -0.42092693440E+02  0.25561348171E+02 -0.21233634541E+01  0.49291845509E+02  0.00000000000E+00 0.  1.
        -13    1    3    3    0    0 -0.75029019857E+02 -0.34649478427E+02  0.49260270023E+02  0.96210780990E+02  0.00000000000E+00 0.  1.
         13    1    3    3    0    0  0.23581543466E+02  0.57727167096E+00  0.60618717534E+01  0.24355055409E+02  0.00000000000E+00 0. -1.
         -3    1    1    2    0  502  0.63122304570E+02  0.21724057493E+02  0.15482951585E+02  0.68527963621E+02  0.00000000000E+00 0.  1.
<scales pt_clust_5="13000.00000" pt_clust_6="13000.00000" pt_clust_7="13000.00000" pt_clust_8="13000.00000" pt_clust_9="13000.00000"></scales>
<clustering>
<clus scale="   81.919">  5  6 -1 -1</clus>
<clus scale="   66.756">  5  9 -1 -1</clus>
<clus scale="   87.566">  7  8 -1 -1</clus>
<clus scale="  107.124">  1  7  2 -1</clus>
<clus scale="  150.732">  2  5  1 -1</clus>
</clustering>
</event>
<event>
 9    1  0.2728138E-005  0.1667881E+03  0.7546771E-02  0.1207090E+00
         21   -1    0    0  501  502  0.00000000000E+00  0.00000000000E+00  0.39736721296E+03  0.39736721296E+03  0.00000000000E+00 0. -1.
          1   -1    0    0  502    0 -0.00000000000E+00 -0.00000000000E+00 -0.43533753563E+02  0.43533753563E+02  0.00000000000E+00 0. -1.
         23    2    1    2    0    0  0.13881218935E+02  0.10784564193E+01  0.15251807591E+03  0.17947000243E+03  0.93562102302E+02 0.  0.
        -24    2    1    2    0    0  0.36463039312E+02  0.38507917834E+02  0.15852788624E+03  0.18440891994E+03  0.77866206175E+02 0.  0.
         11    1    4    4    0    0  0.41790785760E+02  0.38927370830E+02  0.16581332990E+03  0.17537351666E+03  0.00000000000E+00 0. -1.
        -12    1    4    4    0    0 -0.53277464475E+01 -0.41945299600E+00 -0.72854436581E+01  0.90354032738E+01  0.00000000000E+00 0.  1.
        -11    1    3    3    0    0 -0.29451119713E+02  0.98358038758E+01  0.12165309494E+03  0.12555312421E+03  0.00000000000E+00 0. -1.
         11    1    3    3    0    0  0.43332338648E+02 -0.87573474564E+01  0.30864980967E+02  0.53916878223E+02  0.00000000000E+00 0.  1.
          2    1    1    2  501    0 -0.50344258248E+02 -0.39586374253E+02  0.42787497251E+02  0.77022044156E+02  0.00000000000E+00 0. -1.
<scales pt_clust_5="13000.00000" pt_clust_6="13000.00000" pt_clust_7="13000.00000" pt_clust_8="13000.00000" pt_clust_9="13000.00000"></scales>
<clustering>
<clus scale="   77.866">  5  6 -1 -1</clus>
<clus scale="   64.044">  5  9 -1 -1</clus>
<clus scale="   93.562">  7  8 -1 -1</clus>
<clus scale="   94.592">  2  7  1 -1</clus>
<clus scale="  166.788">  1  5  2 -1</clus>
</clustering>
</event>
<event>
 9    1  0.2728138E-005  0.1436680E+03  0.7546771E-02  0.1228054E+00
         21   -1    0    0  501  502  0.00000000000E+00  0.00000000000E+00  0.31071139441E+03  0.31071139441E+03  0.00000000000E+00 0. -1.
          1   -1    0    0  502    0 -0.00000000000E+00 -0.00000000000E+00 -0.56513894480E+02  0.56513894480E+02  0.00000000000E+00 0. -1.
         23    2    1    2    0    0  0.40420772763E+02 -0.37036019266E+02  0.27828292685E+02  0.99114258542E+02  0.77741345362E+02 0.  0.
        -24    2    1    2    0    0 -0.57932916016E+02 -0.16914732840E+01  0.17454805491E+03  0.20108920055E+03  0.81306575773E+02 0.  0.
         13    1    4    4    0    0 -0.66754012340E+02 -0.48074901940E+00  0.17906611411E+03  0.19110468991E+03  0.00000000000E+00 0. -1.
        -14    1    4    4    0    0  0.88210963243E+01 -0.12107242646E+01 -0.45180592046E+01  0.99845106331E+01  0.00000000000E+00 0.  1.
        -13    1    3    3    0    0 -0.10101995233E+02 -0.34758981488E+02 -0.80811127836E+01  0.37088293107E+02  0.00000000000E+00 0. -1.
         13    1    3    3    0    0  0.50522767996E+02 -0.22770377782E+01  0.35909405469E+02  0.62025965435E+02  0.00000000000E+00 0.  1.
          2    1    1    2  501    0  0.17512143253E+02  0.38727492550E+02  0.51821152336E+02  0.67021829802E+02  0.00000000000E+00 0. -1.
<scales pt_clust_5="13000.00000" pt_clust_6="13000.00000" pt_clust_7="13000.00000" pt_clust_8="13000.00000" pt_clust_9="13000.00000"></scales>
<clustering>
<clus scale="   77.741">  7  8 -1 -1</clus>
<clus scale="   81.307">  5  6 -1 -1</clus>
<clus scale="   42.503">  5  9 -1 -1</clus>
<clus scale="   95.127">  2  7  1 -1</clus>
<clus scale="  143.668">  1  5  2 -1</clus>
</clustering>
</event>
<event>
 9    1  0.2728138E-005  0.2507021E+03  0.7546771E-02  0.1151951E+00
         21   -1    0    0  501  502  0.00000000000E+00  0.00000000000E+00  0.29906545806E+02  0.29906545806E+02  0.00000000000E+00 0. -1.
          1   -1    0    0  502    0 -0.00000000000E+00 -0.00000000000E+00 -0.15424220637E+04  0.15424220637E+04  0.00000000000E+00 0. -1.
         23    2    1    2    0    0 -0.10714815525E+02 -0.29310814530E+02 -0.10442426122E+03  0.14209347544E+03  0.91171258145E+02 0.  0.
        -24    2    1    2    0    0  0.52585244745E+02  0.11684668747E+03 -0.94518429654E+03  0.95726735964E+03  0.81049904900E+02 0.  0.
         13    1    4    4    0    0  0.55415054835E+02  0.12013280886E+03 -0.72076613993E+03  0.73280730655E+03  0.00000000000E+00 0. -1.
        -14    1    4    4    0    0 -0.28298100904E+01 -0.32861213980E+01 -0.22441815661E+03  0.22446005309E+03  0.00000000000E+00 0.  1.
        -11    1    3    3    0    0  0.29734367761E+02 -0.43030441988E+02 -0.69117717370E+02  0.86677623516E+02  0.00000000000E+00 0.  1.
         11    1    3    3    0    0 -0.40449183286E+02  0.13719627458E+02 -0.35306543847E+02  0.55415851925E+02  0.00000000000E+00 0. -1.
          2    1    1    2  501    0 -0.41870429220E+02 -0.87535872936E+02 -0.46290696011E+03  0.47296777439E+03  0.00000000000E+00 0. -1.
<scales pt_clust_5="13000.00000" pt_clust_6="13000.00000" pt_clust_7="13000.00000" pt_clust_8="13000.00000" pt_clust_9="13000.00000"></scales>
<clustering>
<clus scale="   81.050">  5  6 -1 -1</clus>
<clus scale="   91.171">  7  8 -1 -1</clus>
<clus scale="   96.365">  2  7  1 -1</clus>
<clus scale="  107.282">  5  9 -1 -1</clus>
<clus scale="  250.702">  1  5  2 -1</clus>
</clustering>
</event>
<event>
 9    1  0.2728138E-005  0.1449779E+03  0.7546771E-02  0.1219119E+00
          3   -1    0    0  502    0 -0.00000000000E+00  0.00000000000E+00  0.54547382222E+03  0.54547382222E+03  0.00000000000E+00 0. -1.
         21   -1    0    0  501  502  0.00000000000E+00 -0.00000000000E+00 -0.82962045902E+02  0.82962045902E+02  0.00000000000E+00 0. -1.
         23    2    1    2    0    0  0.48930062256E+01  0.52232767654E+02  0.47020309407E+03  0.48325408710E+03  0.98444702738E+02 0.  0.
        -24    2    1    2    0    0  0.27421543253E+02 -0.93595374787E+01  0.16021840180E+02  0.86490573569E+02  0.79902302703E+02 0.  0.
         13    1    4    4    0    0  0.46642722229E+02 -0.22490521043E+02 -0.87294775577E+01  0.52512578038E+02  0.00000000000E+00 0. -1.
        -14    1    4    4    0    0 -0.19221178976E+02  0.13130983564E+02  0.24751317738E+02  0.33977995531E+02  0.00000000000E+00 0.  1.
        -13    1    3    3    0    0 -0.32003382900E+02 -0.90623747122E+01  0.81573996687E+02  0.88094608734E+02  0.00000000000E+00 0.  1.
         13    1    3    3    0    0  0.36896389126E+02  0.61295142366E+02  0.38862909738E+03  0.39515947836E+03  0.00000000000E+00 0. -1.
          4    1    1    2  501    0 -0.32314549479E+02 -0.42873230175E+02 -0.23713157931E+02  0.58691207456E+02  0.00000000000E+00 0. -1.
<scales pt_clust_5="13000.00000" pt_clust_6="13000.00000" pt_clust_7="13000.00000" pt_clust_8="13000.00000" pt_clust_9="13000.00000"></scales>
<clustering>
<clus scale="   79.902">  5  6 -1 -1</clus>
<clus scale="   53.687">  5  9 -1 -1</clus>
<clus scale="   98.445">  7  8 -1 -1</clus>
<clus scale="  111.551">  1  7  2 -1</clus>
<clus scale="  144.978">  2  5  1 -1</clus>
</clustering>
</event>
<event>
 9    1  0.2728138E-005  0.2652792E+03  0.7546771E-02  0.1135611E+00
         21   -1    0    0  501  502  0.00000000000E+00  0.00000000000E+00  0.51183929091E+02  0.51183929091E+02  0.00000000000E+00 0. -1.
          3   -1    0    0  502    0 -0.00000000000E+00 -0.00000000000E+00 -0.76539211837E+03  0.76539211837E+03  0.00000000000E+00 0. -1.
         23    2    1    2    0    0 -0.79291430510E+02  0.19125284689E+01 -0.14374937326E+03  0.18745260458E+03  0.90464401477E+02 0.  0.
        -24    2    1    2    0    0 -0.43180935413E+02  0.10332674553E+02 -0.77540720734E+02  0.12107061682E+03  0.81695615167E+02 0.  0.
         13    1    4    4    0    0 -0.47716454226E+02 -0.83516895375E+01 -0.82217856519E+01  0.49134595565E+02  0.00000000000E+00 0. -1.
        -14    1    4    4    0    0  0.45355188129E+01  0.18684364090E+02 -0.69318935082E+02  0.71936021250E+02  0.00000000000E+00 0.  1.
        -13    1    3    3    0    0 -0.44154807198E+02  0.45928226405E+02 -0.82653238555E+02  0.10435807023E+03  0.00000000000E+00 0.  1.
         13    1    3    3    0    0 -0.35136623312E+02 -0.44015697936E+02 -0.61096134705E+02  0.83094534348E+02  0.00000000000E+00 0. -1.
          4    1    1    2  501    0  0.12247236592E+03 -0.12245203021E+02 -0.49291809529E+03  0.50805282607E+03  0.00000000000E+00 0. -1.
<scales pt_clust_5="13000.00000" pt_clust_6="13000.00000" pt_clust_7="13000.00000" pt_clust_8="13000.00000" pt_clust_9="13000.00000"></scales>
<clustering>
<clus scale="   81.696">  5  6 -1 -1</clus>
<clus scale="   90.464">  7  8 -1 -1</clus>
<clus scale="  120.310">  2  7  1 -1</clus>
<clus scale="   57.307">  5  9 -1 -1</clus>
<clus scale="  265.279">  1  5  2 -1</clus>
</clustering>
</event>
<event>
 9    1  0.2728138E-005  0.2223400E+03  0.7546771E-02  0.1168499E+00
         21   -1    0    0  501  502  0.00000000000E+00  0.00000000000E+00  0.56422711783E+03  0.56422711783E+03  0.00000000000E+00 0. -1.
          3   -1    0    0  502    0 -0.00000000000E+00 -0.00000000000E+00 -0.73977422352E+02  0.73977422352E+02  0.00000000000E+00 0. -1.
         23    2    1    2    0    0 -0.27246482592E+02  0.67761265571E+01 -0.62429363365E+01  0.94200858492E+02  0.89702512684E+02 0.  0.
        -24    2    1    2    0    0 -0.26249718424E+02  0.59394774746E+02  0.40992889566E+03  0.42262117834E+03  0.79687978393E+02 0.  0.
         13    1    4    4    0    0 -0.11183845393E+02  0.77236050765E+02  0.28306631888E+03  0.29362736048E+03  0.00000000000E+00 0. -1.
        -14    1    4    4    0    0 -0.15065873031E+02 -0.17841276019E+02  0.12686257677E+03  0.12899381786E+03  0.00000000000E+00 0.  1.
        -11    1    3    3    0    0  0.33168689186E+02  0.67733891084E+00 -0.17349905133E+00  0.33176058118E+02  0.00000000000E+00 0.  1.
         11    1    3    3    0    0 -0.60415171778E+02  0.60987876462E+01 -0.60694372852E+01  0.61024800374E+02  0.00000000000E+00 0. -1.
          4    1    1    2  501    0  0.53496201016E+02 -0.66170901303E+02  0.86563736154E+02  0.12138250335E+03  0.00000000000E+00 0. -1.
<scales pt_clust_5="13000.00000" pt_clust_6="13000.00000" pt_clust_7="13000.00000" pt_clust_8="13000.00000" pt_clust_9="13000.00000"></scales>
<clustering>
<clus scale="   79.688">  5  6 -1 -1</clus>
<clus scale="   85.091">  5  9 -1 -1</clus>
<clus scale="   89.703">  7  8 -1 -1</clus>
<clus scale="   93.994">  2  7  1 -1</clus>
<clus scale="  222.340">  1  5  2 -1</clus>
</clustering>
</event>
<event>
 9    1  0.2728138E-005  0.4112562E+03  0.7546771E-02  0.1045921E+00
         21   -1    0    0  501  502  0.00000000000E+00  0.00000000000E+00  0.82200360659E+03  0.82200360659E+03  0.00000000000E+00 0. -1.
          3   -1    0    0  502    0 -0.00000000000E+00 -0.00000000000E+00 -0.17454851097E+03  0.17454851097E+03  0.00000000000E+00 0. -1.
         23    2    1    2    0    0  0.20651728687E+02  0.33299655858E+03  0.30985368872E+03  0.46447474176E+03  0.91729359540E+02 0.  0.
        -24    2    1    2    0    0  0.14931278811E+02 -0.68821344812E+01  0.62382976130E+02  0.10386953763E+03  0.81406008835E+02 0.  0.
         13    1    4    4    0    0  0.34865124149E+02 -0.54265335015E+01  0.73114749127E+02  0.81183684861E+02  0.00000000000E+00 0. -1.
        -14    1    4    4    0    0 -0.19933845338E+02 -0.14556009797E+01 -0.10731772997E+02  0.22685852768E+02  0.00000000000E+00 0.  1.
        -11    1    3    3    0    0  0.35099763973E+02  0.10458711121E+03  0.59757412255E+02  0.12546475832E+03  0.00000000000E+00 0.  1.
         11    1    3    3    0    0 -0.14448035286E+02  0.22840944737E+03  0.25009627646E+03  0.33900998344E+03  0.00000000000E+00 0. -1.
          4    1    1    2  501    0 -0.35583007497E+02 -0.32611442410E+03  0.27521843077E+03  0.42820783816E+03  0.00000000000E+00 0. -1.
<scales pt_clust_5="13000.00000" pt_clust_6="13000.00000" pt_clust_7="13000.00000" pt_clust_8="13000.00000" pt_clust_9="13000.00000"></scales>
<clustering>
<clus scale="   81.406">  5  6 -1 -1</clus>
<clus scale="   91.729">  7  8 -1 -1</clus>
<clus scale="  328.050">  5  9 -1 -1</clus>
<clus scale="  346.017">  2  7  1 -1</clus>
<clus scale="  411.256">  1  5  2 -1</clus>
</clustering>
</event>
<event>
 9    1  0.2728138E-005  0.2206855E+03  0.7546771E-02  0.1153947E+00
         21   -1    0    0  501  502  0.00000000000E+00  0.00000000000E+00  0.15795572970E+03  0.15795572970E+03  0.00000000000E+00 0. -1.
          1   -1    0    0  502    0 -0.00000000000E+00 -0.00000000000E+00 -0.44924971252E+03  0.44924971252E+03  0.00000000000E+00 0. -1.
         23    2    1    2    0    0  0.34193337565E+01 -0.99752267582E+02 -0.35316488200E+03  0.37801099983E+03  0.90579663170E+02 0.  0.
        -24    2    1    2    0    0  0.33986381588E+02  0.10922778256E+02 -0.32757672429E+02  0.94122490164E+02  0.80694465941E+02 0.  0.
         11    1    4    4    0    0 -0.15959593280E+02  0.29333745360E+02 -0.21491083018E+02  0.39712011833E+02  0.00000000000E+00 0. -1.
        -12    1    4    4    0    0  0.49945974868E+02 -0.18410967104E+02 -0.11266589411E+02  0.54410478331E+02  0.00000000000E+00 0.  1.
        -11    1    3    3    0    0 -0.29100699277E+02 -0.44933329328E+01 -0.12845728198E+03  0.13178889951E+03  0.00000000000E+00 0.  1.
         11    1    3    3    0    0  0.32520033034E+02 -0.95258934649E+02 -0.22470760002E+03  0.24622210031E+03  0.00000000000E+00 0. -1.
          2    1    1    2  501    0 -0.37405715344E+02  0.88829489325E+02  0.94628571608E+02  0.13507195223E+03  0.00000000000E+00 0. -1.
<scales pt_clust_5="13000.00000" pt_clust_6="13000.00000" pt_clust_7="13000.00000" pt_clust_8="13000.00000" pt_clust_9="13000.00000"></scales>
<clustering>
<clus scale="   80.694">  5  6 -1 -1</clus>
<clus scale="   90.580">  7  8 -1 -1</clus>
<clus scale="   96.384">  5  9 -1 -1</clus>
<clus scale="  134.785">  2  7  1 -1</clus>
<clus scale="  220.685">  1  5  2 -1</clus>
</clustering>
</event>
<event>
 9    1  0.2728138E-005  0.2116651E+03  0.7546771E-02  0.1164198E+00
         -4   -1    0    0    0  501 -0.00000000000E+00  0.00000000000E+00  0.10328436113E+03  0.10328436113E+03  0.00000000000E+00 0.  1.
         21   -1    0    0  501  502  0.00000000000E+00 -0.00000000000E+00 -0.27316728903E+03  0.27316728903E+03  0.00000000000E+00 0.  1.
         23    2    1    2    0    0  0.74620904066E+02 -0.21378476558E+02 -0.89949229497E+02  0.15019626918E+03  0.91884366494E+02 0.  0.
        -24    2    1    2    0    0  0.22540790836E+02 -0.35579102345E+02 -0.65444231145E+02  0.11270140521E+03  0.81515026652E+02 0.  0.
         13    1    4    4    0    0  0.20194571494E+02  0.23451337436E+02 -0.33240330184E+02  0.45417017692E+02  0.00000000000E+00 0. -1.
        -14    1    4    4    0    0  0.23462193423E+01 -0.59030439781E+02 -0.32203900961E+02  0.67284387514E+02  0.00000000000E+00 0.  1.
        -13    1    3    3    0    0  0.32625682086E+02  0.78107425164E+01  0.12411704526E+02  0.35770004745E+02  0.00000000000E+00 0. -1.
         13    1    3    3    0    0  0.41995221980E+02 -0.29189219074E+02 -0.10236093402E+03  0.11442626444E+03  0.00000000000E+00 0.  1.
         -3    1    1    2    0  502 -0.97161694902E+02  0.56957578903E+02 -0.14489467263E+02  0.11355397577E+03  0.00000000000E+00 0.  1.
<scales pt_clust_5="13000.00000" pt_clust_6="13000.00000" pt_clust_7="13000.00000" pt_clust_8="13000.00000" pt_clust_9="13000.00000"></scales>
<clustering>
<clus scale="   81.515">  5  6 -1 -1</clus>
<clus scale="   91.884">  7  8 -1 -1</clus>
<clus scale="  112.626">  5  9 -1 -1</clus>
<clus scale="  120.283">  1  7  2 -1</clus>
<clus scale="  211.665">  2  5  1 -1</clus>
</clustering>
</event>
<event>
 9    1  0.4496636E-005  0.2310982E+03  0.7546771E-02  0.1161698E+00
         21   -1    0    0  501  502  0.00000000000E+00  0.00000000000E+00  0.25917503826E+03  0.25917503826E+03  0.00000000000E+00 0.  1.
         -4   -1    0    0    0  501 -0.00000000000E+00 -0.00000000000E+00 -0.14716855000E+03  0.14716855000E+03  0.00000000000E+00 0.  1.
         23    2    1    2    0    0  0.78226099282E+01  0.37406572895E+02 -0.63013529683E+02  0.11644985466E+03  0.90163289673E+02 0.  0.
        -24    2    1    2    0    0  0.58596583849E+02  0.57397148810E+02  0.95329442738E+02  0.14935959993E+03  0.80576641215E+02 0.  0.
         11    1    4    4    0    0  0.65929365691E+01  0.44048005238E+02  0.57302134397E+01  0.44905778293E+02  0.00000000000E+00 0. -1.
        -12    1    4    4    0    0  0.52003647280E+02  0.13349143572E+02  0.89599229298E+02  0.10445382164E+03  0.00000000000E+00 0.  1.
        -13    1    3    3    0    0  0.16979453368E+02  0.63729584955E+02 -0.58613657346E+02  0.88234475477E+02  0.00000000000E+00 0.  1.
         13    1    3    3    0    0 -0.91568434395E+01 -0.26323012060E+02 -0.43998723368E+01  0.28215379180E+02  0.00000000000E+00 0. -1.
         -3    1    1    2    0  502 -0.66419193777E+02 -0.94803721705E+02  0.79690575199E+02  0.14053413367E+03  0.00000000000E+00 0.  1.
<scales pt_clust_5="13000.00000" pt_clust_6="13000.00000" pt_clust_7="13000.00000" pt_clust_8="13000.00000" pt_clust_9="13000.00000"></scales>
<clustering>
<clus scale="   80.577">  5  6 -1 -1</clus>
<clus scale="   90.163">  7  8 -1 -1</clus>
<clus scale="   97.928">  2  7  1 -1</clus>
<clus scale="   97.478">  5  9 -1 -1</clus>
<clus scale="  231.098">  1  5  2 -1</clus>
</clustering>
</event>
<event>
 9    1  0.2728138E-005  0.2671203E+03  0.7546771E-02  0.1127382E+00
         21   -1    0    0  501  502  0.00000000000E+00  0.00000000000E+00  0.21275531160E+03  0.21275531160E+03  0.00000000000E+00 0.  1.
         -2   -1    0    0    0  501 -0.00000000000E+00 -0.00000000000E+00 -0.19889544579E+03  0.19889544579E+03  0.00000000000E+00 0.  1.
         23    2    1    2    0    0  0.20038183682E+02 -0.93821890363E+02 -0.28206801633E+00  0.14415637749E+03  0.10759603009E+03 0.  0.
        -24    2    1    2    0    0 -0.45104661022E+02 -0.60043588532E+02  0.67580129526E+01  0.11142568936E+03  0.82038713665E+02 0.  0.
         11    1    4    4    0    0 -0.47295868685E+02 -0.15439341360E+02  0.32930702498E+02  0.59663251867E+02  0.00000000000E+00 0. -1.
        -12    1    4    4    0    0  0.21912076633E+01 -0.44604247172E+02 -0.26172689545E+02  0.51762437490E+02  0.00000000000E+00 0.  1.
        -13    1    3    3    0    0 -0.28400454072E+02 -0.70167969368E+02 -0.31357028839E+02  0.81935297488E+02  0.00000000000E+00 0. -1.
         13    1    3    3    0    0  0.48438637754E+02 -0.23653920995E+02  0.31074960823E+02  0.62221079998E+02  0.00000000000E+00 0.  1.
         -1    1    1    2    0  502  0.25066477340E+02  0.15386547890E+03  0.73839208647E+01  0.15606869055E+03  0.00000000000E+00 0.  1.
<scales pt_clust_5="13000.00000" pt_clust_6="13000.00000" pt_clust_7="13000.00000" pt_clust_8="13000.00000" pt_clust_9="13000.00000"></scales>
<clustering>
<clus scale="   82.039">  5  6 -1 -1</clus>
<clus scale="  107.596">  7  8 -1 -1</clus>
<clus scale="  144.156">  2  7  1 -1</clus>
<clus scale="  105.444">  5  9 -1 -1</clus>
<clus scale="  267.120">  1  5  2 -1</clus>
</clustering>
</event>
<event>
 9    1  0.2728138E-005  0.3794263E+03  0.7546771E-02  0.1091324E+00
         21   -1    0    0  501  502  0.00000000000E+00  0.00000000000E+00  0.24834684035E+03  0.24834684035E+03  0.00000000000E+00 0. -1.
          3   -1    0    0  502    0 -0.00000000000E+00 -0.00000000000E+00 -0.48803434748E+03  0.48803434748E+03  0.00000000000E+00 0. -1.
         23    2    1    2    0    0 -0.63052669090E+02 -0.87101961587E+02 -0.32399335890E+03  0.34770161095E+03  0.66047883041E+02 0.  0.
        -24    2    1    2    0    0 -0.49581696027E+02 -0.55389418987E+02 -0.86396410796E+02  0.13942156560E+03  0.80297576793E+02 0.  0.
         13    1    4    4    0    0 -0.53724042499E+02 -0.55154880103E+02 -0.29624341855E+02  0.82498091929E+02  0.00000000000E+00 0. -1.
        -14    1    4    4    0    0  0.41423464713E+01 -0.23453888464E+00 -0.56772068941E+02  0.56923473670E+02  0.00000000000E+00 0.  1.
        -11    1    3    3    0    0  0.11161225528E+01 -0.25803029602E+02 -0.15184687958E+03  0.15402764981E+03  0.00000000000E+00 0.  1.
         11    1    3    3    0    0 -0.64168791643E+02 -0.61298931985E+02 -0.17214647932E+03  0.19367396115E+03  0.00000000000E+00 0. -1.
          4    1    1    2  501    0  0.11263436512E+03  0.14249138057E+03  0.17070226256E+03  0.24925801128E+03  0.00000000000E+00 0. -1.
<scales pt_clust_5="13000.00000" pt_clust_6="13000.00000" pt_clust_7="13000.00000" pt_clust_8="13000.00000" pt_clust_9="13000.00000"></scales>
<clustering>
<clus scale="   66.048">  7  8 -1 -1</clus>
<clus scale="   80.298">  5  6 -1 -1</clus>
<clus scale="  126.193">  2  7  1 -1</clus>
<clus scale="  153.910">  5  9 -1 -1</clus>
<clus scale="  379.426">  1  5  2 -1</clus>
</clustering>
</event>
<event>
 9    1  0.2728138E-005  0.4529333E+03  0.7546771E-02  0.1057147E+00
          1   -1    0    0  502    0 -0.00000000000E+00  0.00000000000E+00  0.28463928490E+03  0.28463928490E+03  0.00000000000E+00 0. -1.
         21   -1    0    0  501  502  0.00000000000E+00 -0.00000000000E+00 -0.36227064071E+03  0.36227064071E+03  0.00000000000E+00 0. -1.
         23    2    1    2    0    0 -0.16045495634E+03  0.37843381354E+02 -0.40018207177E+02  0.19241755011E+03  0.90802765151E+02 0.  0.
        -24    2    1    2    0    0 -0.11314607344E+03 -0.75913867021E+02  0.46888486638E+02  0.16561971889E+03  0.81648098348E+02 0.  0.
         11    1    4    4    0    0 -0.11055994644E+02 -0.41740078657E+02  0.38131434864E+02  0.57606210678E+02  0.00000000000E+00 0. -1.
        -12    1    4    4    0    0 -0.10209007880E+03 -0.34173788364E+02  0.87570517733E+01  0.10801350821E+03  0.00000000000E+00 0.  1.
        -13    1    3    3    0    0 -0.43678252718E+02  0.54183009266E+02 -0.68795238726E+01  0.69935084917E+02  0.00000000000E+00 0.  1.
         13    1    3    3    0    0 -0.11677670362E+03 -0.16339627912E+02 -0.33138683304E+02  0.12248246520E+03  0.00000000000E+00 0. -1.
          2    1    1    2  501    0  0.27360102978E+03  0.38070485667E+02 -0.84501635272E+02  0.28887265662E+03  0.00000000000E+00 0. -1.
<scales pt_clust_5="13000.00000" pt_clust_6="13000.00000" pt_clust_7="13000.00000" pt_clust_8="13000.00000" pt_clust_9="13000.00000"></scales>
<clustering>
<clus scale="   81.648">  5  6 -1 -1</clus>
<clus scale="   90.803">  7  8 -1 -1</clus>
<clus scale="  188.210">  1  7  2 -1</clus>
<clus scale="  202.997">  5  9 -1 -1</clus>
<clus scale="  452.933">  2  5  1 -1</clus>
</clustering>
</event>
<event>
 9    1  0.2728138E-005  0.1932509E+03  0.7546771E-02  0.1188406E+00
         -2   -1    0    0    0  501 -0.00000000000E+00  0.00000000000E+00  0.10108964856E+03  0.10108964856E+03  0.00000000000E+00 0.  1.
         21   -1    0    0  501  502  0.00000000000E+00 -0.00000000000E+00 -0.34572563656E+03  0.34572563656E+03  0.00000000000E+00 0.  1.
         23    2    1    2    0    0 -0.56332311727E+01 -0.12506040792E+02  0.42429705543E+02  0.10076238021E+03  0.90358414128E+02 0.  0.
        -24    2    1    2    0    0  0.37644348404E+02 -0.51015674533E+02 -0.23823561578E+03  0.25977372759E+03  0.81893130983E+02 0.  0.
         13    1    4    4    0    0  0.26365183579E+02  0.13320262133E+02 -0.32498235013E+02  0.43916825562E+02  0.00000000000E+00 0. -1.
        -14    1    4    4    0    0  0.11279164825E+02 -0.64335936667E+02 -0.20573738077E+03  0.21585690202E+03  0.00000000000E+00 0.  1.
        -11    1    3    3    0    0  0.19562589592E+02  0.59402396728E+01  0.61065986439E+02  0.64397484878E+02  0.00000000000E+00 0.  1.
         11    1    3    3    0    0 -0.25195820764E+02 -0.18446280464E+02 -0.18636280896E+02  0.36364895333E+02  0.00000000000E+00 0. -1.
         -1    1    1    2    0  502 -0.32011117231E+02  0.63521715325E+02 -0.48830077765E+02  0.86279177318E+02  0.00000000000E+00 0.  1.
<scales pt_clust_5="13000.00000" pt_clust_6="13000.00000" pt_clust_7="13000.00000" pt_clust_8="13000.00000" pt_clust_9="13000.00000"></scales>
<clustering>
<clus scale="   81.893">  5  6 -1 -1</clus>
<clus scale="   71.132">  5  9 -1 -1</clus>
<clus scale="   90.358">  7  8 -1 -1</clus>
<clus scale="   91.394">  1  7  2 -1</clus>
<clus scale="  193.251">  2  5  1 -1</clus>
</clustering>
</event>
<event>
 9    1  0.2728138E-005  0.1298338E+04  0.7546771E-02  0.9666692E-01
         21   -1    0    0  501  502  0.00000000000E+00  0.00000000000E+00  0.75679996515E+03  0.75679996515E+03  0.00000000000E+00 0. -1.
          1   -1    0    0  502    0 -0.00000000000E+00 -0.00000000000E+00 -0.70425260670E+03  0.70425260670E+03  0.00000000000E+00 0. -1.
         23    2    1    2    0    0 -0.70143024595E+02 -0.57735613718E+02  0.96603063553E+02  0.16196774646E+03  0.92994376260E+02 0.  0.
        -24    2    1    2    0    0 -0.59377169632E+00  0.66873642765E+03  0.56933952225E+02  0.67576741037E+03  0.78812155028E+02 0.  0.
         11    1    4    4    0    0 -0.32416103017E+02  0.23085417270E+03  0.51037719939E+00  0.23311952572E+03  0.00000000000E+00 0. -1.
        -12    1    4    4    0    0  0.31822331321E+02  0.43788225495E+03  0.56423575026E+02  0.44264788466E+03  0.00000000000E+00 0.  1.
        -11    1    3    3    0    0 -0.13602733649E+02 -0.67216431998E+02  0.72443468090E+02  0.99755396657E+02  0.00000000000E+00 0. -1.
         11    1    3    3    0    0 -0.56540290947E+02  0.94808182802E+01  0.24159595464E+02  0.62212349808E+02  0.00000000000E+00 0.  1.
          2    1    1    2  501    0  0.70736796292E+02 -0.61100081393E+03 -0.10098965733E+03  0.62331741501E+03  0.00000000000E+00 0. -1.
<scales pt_clust_5="13000.00000" pt_clust_6="13000.00000" pt_clust_7="13000.00000" pt_clust_8="13000.00000" pt_clust_9="13000.00000"></scales>
<clustering>
<clus scale="   78.812">  5  6 -1 -1</clus>
<clus scale="   92.994">  7  8 -1 -1</clus>
<clus scale="  130.005">  2  7  1 -1</clus>
<clus scale="  642.979">  5  9 -1 -1</clus>
<clus scale=" 1298.338">  1  5  2 -1</clus>
</clustering>
</event>
<event>
 9    1  0.2728138E-005  0.3590347E+03  0.7546771E-02  0.1096368E+00
         21   -1    0    0  501  502  0.00000000000E+00  0.00000000000E+00  0.29147705364E+03  0.29147705364E+03  0.00000000000E+00 0. -1.
          1   -1    0    0  502    0 -0.00000000000E+00 -0.00000000000E+00 -0.20657078785E+03  0.20657078785E+03  0.00000000000E+00 0. -1.
         23    2    1    2    0    0  0.92412956234E+02 -0.18660806824E+01  0.70095149797E+01  0.13065997943E+03  0.92082898455E+02 0.  0.
        -24    2    1    2    0    0  0.13657411551E+02  0.72357547753E+02 -0.91355055945E+02  0.15557156443E+03  0.10215001617E+03 0.  0.
         11    1    4    4    0    0  0.68041767390E+01  0.91364041108E+02 -0.39220827756E+02  0.99659210104E+02  0.00000000000E+00 0. -1.
        -12    1    4    4    0    0  0.68532348119E+01 -0.19006493355E+02 -0.52134228189E+02  0.55912354323E+02  0.00000000000E+00 0.  1.
        -13    1    3    3    0    0  0.39500693024E+02 -0.46667257382E+02  0.33363127749E+01  0.61231271781E+02  0.00000000000E+00 0.  1.
         13    1    3    3    0    0  0.52912263210E+02  0.44801176700E+02  0.36732022047E+01  0.69428707651E+02  0.00000000000E+00 0. -1.
          2    1    1    2  501    0 -0.10607036778E+03 -0.70491467071E+02  0.16925180676E+03  0.21181629763E+03  0.00000000000E+00 0. -1.
<scales pt_clust_5="13000.00000" pt_clust_6="13000.00000" pt_clust_7="13000.00000" pt_clust_8="13000.00000" pt_clust_9="13000.00000"></scales>
<clustering>
<clus scale="   92.083">  7  8 -1 -1</clus>
<clus scale="  102.150">  5  6 -1 -1</clus>
<clus scale="  127.358">  5  9 -1 -1</clus>
<clus scale="  130.472">  2  7  1 -1</clus>
<clus scale="  359.035">  1  5  2 -1</clus>
</clustering>
</event>
<event>
 9    1  0.2728138E-005  0.2377800E+03  0.7546771E-02  0.1160410E+00
          1   -1    0    0  502    0 -0.00000000000E+00  0.00000000000E+00  0.14042258588E+03  0.14042258588E+03  0.00000000000E+00 0. -1.
         21   -1    0    0  501  502  0.00000000000E+00 -0.00000000000E+00 -0.21300966806E+03  0.21300966806E+03  0.00000000000E+00 0. -1.
         23    2    1    2    0    0  0.15444151861E+02 -0.18964435411E+02  0.25709757557E+02  0.96135585978E+02  0.89347006780E+02 0.  0.
        -24    2    1    2    0    0  0.14110854896E+02 -0.77642983227E+02 -0.80363469905E+00  0.11689931475E+03  0.86239520459E+02 0.  0.
         13    1    4    4    0    0 -0.15368635366E+02 -0.21973728190E+02 -0.35884636804E+02  0.44796728029E+02  0.00000000000E+00 0. -1.
        -14    1    4    4    0    0  0.29479490262E+02 -0.55669255037E+02  0.35081002105E+02  0.72102586717E+02  0.00000000000E+00 0.  1.
        -11    1    3    3    0    0  0.35317647149E+02 -0.46143582806E+02  0.99267554359E+01  0.58950037386E+02  0.00000000000E+00 0.  1.
         11    1    3    3    0    0 -0.19873495289E+02  0.27179147395E+02  0.15783002121E+02  0.37185548592E+02  0.00000000000E+00 0. -1.
          2    1    1    2  501    0 -0.29555006757E+02  0.96607418638E+02 -0.97493205036E+02  0.14039735321E+03  0.00000000000E+00 0. -1.
<scales pt_clust_5="13000.00000" pt_clust_6="13000.00000" pt_clust_7="13000.00000" pt_clust_8="13000.00000" pt_clust_9="13000.00000"></scales>
<clustering>
<clus scale="   86.240">  5  6 -1 -1</clus>
<clus scale="   89.347">  7  8 -1 -1</clus>
<clus scale="   92.634">  1  7  2 -1</clus>
<clus scale="   94.947">  5  9 -1 -1</clus>
<clus scale="  237.780">  2  5  1 -1</clus>
</clustering>
</event>
<event>
 9    1  0.2728138E-005  0.1491614E+03  0.7546771E-02  0.1222466E+00
          3   -1    0    0  502    0 -0.00000000000E+00  0.00000000000E+00  0.35596654242E+02  0.35596654242E+02  0.00000000000E+00 0. -1.
         21   -1    0    0  501  502  0.00000000000E+00 -0.00000000000E+00 -0.43661945610E+03  0.43661945610E+03  0.00000000000E+00 0. -1.
         23    2    1    2    0    0 -0.14893827744E+02 -0.25955272511E+02 -0.11363739142E+03  0.14842683468E+03  0.90672852868E+02 0.  0.
        -24    2    1    2    0    0 -0.34623367387E+02  0.37251806972E+02 -0.21667173251E+03  0.23672614598E+03  0.80660732886E+02 0.  0.
         13    1    4    4    0    0 -0.32545832749E+02  0.45404468068E+02 -0.22051178553E+03  0.22747800885E+03  0.00000000000E+00 0. -1.
        -14    1    4    4    0    0 -0.20775346379E+01 -0.81526610962E+01  0.38400530268E+01  0.92481371297E+01  0.00000000000E+00 0.  1.
        -11    1    3    3    0    0  0.21340738173E+02 -0.47756794952E+02 -0.72765437881E+02  0.89615554006E+02  0.00000000000E+00 0. -1.
         11    1    3    3    0    0 -0.36234565918E+02  0.21801522440E+02 -0.40871953538E+02  0.58811280669E+02  0.00000000000E+00 0.  1.
          4    1    1    2  501    0  0.49517195131E+02 -0.11296534460E+02 -0.70713677930E+02  0.87063129687E+02  0.00000000000E+00 0. -1.
<scales pt_clust_5="13000.00000" pt_clust_6="13000.00000" pt_clust_7="13000.00000" pt_clust_8="13000.00000" pt_clust_9="13000.00000"></scales>
<clustering>
<clus scale="   80.661">  5  6 -1 -1</clus>
<clus scale="   50.789">  5  9 -1 -1</clus>
<clus scale="   90.673">  7  8 -1 -1</clus>
<clus scale="   95.483">  1  7  2 -1</clus>
<clus scale="  149.161">  2  5  1 -1</clus>
</clustering>
</event>
<event>
 9    1  0.2728138E-005  0.2748819E+03  0.7546771E-02  0.1142100E+00
         21   -1    0    0  501  502  0.00000000000E+00  0.00000000000E+00  0.85679098723E+03  0.85679098723E+03  0.00000000000E+00 0. -1.
          3   -1    0    0  502    0 -0.00000000000E+00 -0.00000000000E+00 -0.54634543788E+02  0.54634543788E+02  0.00000000000E+00 0. -1.
         23    2    1    2    0    0  0.22341579437E+01 -0.40090762299E+01  0.39103028039E+02  0.10037030781E+03  0.92325986234E+02 0.  0.
        -24    2    1    2    0    0 -0.10809520223E+03  0.59136685818E+02  0.30759025320E+03  0.34021309876E+03  0.77145760400E+02 0.  0.
         13    1    4    4    0    0 -0.11151126003E+03  0.55111949732E+02  0.31028317248E+03  0.33428690557E+03  0.00000000000E+00 0. -1.
        -14    1    4    4    0    0  0.34160578006E+01  0.40247360864E+01 -0.26929192729E+01  0.59261931856E+01  0.00000000000E+00 0.  1.
        -11    1    3    3    0    0 -0.11408901965E+02 -0.44504361992E+02  0.60353791898E+01  0.46338181690E+02  0.00000000000E+00 0.  1.
         11    1    3    3    0    0  0.13643059909E+02  0.40495285762E+02  0.33067648849E+02  0.54032126120E+02  0.00000000000E+00 0. -1.
          4    1    1    2  501    0  0.10586104428E+03 -0.55127609588E+02  0.45546316220E+03  0.47084212445E+03  0.00000000000E+00 0. -1.
<scales pt_clust_5="13000.00000" pt_clust_6="13000.00000" pt_clust_7="13000.00000" pt_clust_8="13000.00000" pt_clust_9="13000.00000"></scales>
<clustering>
<clus scale="   77.146">  5  6 -1 -1</clus>
<clus scale="   92.326">  7  8 -1 -1</clus>
<clus scale="   92.440">  2  7  1 -1</clus>
<clus scale="  120.586">  5  9 -1 -1</clus>
<clus scale="  274.882">  1  5  2 -1</clus>
</clustering>
</event>
<event>
 9    1  0.2728138E-005  0.2296597E+03  0.7546771E-02  0.1146845E+00
         21   -1    0    0  501  502  0.00000000000E+00  0.00000000000E+00  0.23442574613E+02  0.23442574613E+02  0.00000000000E+00 0.  1.
          1   -1    0    0  502    0 -0.00000000000E+00 -0.00000000000E+00 -0.15562033849E+04  0.15562033849E+04  0.00000000000E+00 0. -1.
         23    2    1    2    0    0 -0.22618083263E+02 -0.10467509361E+03 -0.41268812616E+03  0.43627096071E+03  0.92479234312E+02 0.  0.
        -24    2    1    2    0    0  0.44065869835E+02  0.15158746706E+03 -0.90416454071E+03  0.92139052924E+03  0.80786320829E+02 0.  0.
         11    1    4    4    0    0  0.59491286946E+02  0.60151303261E+02 -0.43423064405E+03  0.44239534891E+03  0.00000000000E+00 0. -1.
        -12    1    4    4    0    0 -0.15425417110E+02  0.91436163802E+02 -0.46993389666E+03  0.47899518032E+03  0.00000000000E+00 0.  1.
        -11    1    3    3    0    0  0.19914103266E+02  0.51639611049E+01 -0.34532993970E+02  0.40196587861E+02  0.00000000000E+00 0. -1.
         11    1    3    3    0    0 -0.42532186528E+02 -0.10983905471E+03 -0.37815513219E+03  0.39607437285E+03  0.00000000000E+00 0.  1.
          2    1    1    2  501    0 -0.21447786573E+02 -0.46912373457E+02 -0.21590814338E+03  0.22198446952E+03  0.00000000000E+00 0. -1.
<scales pt_clust_5="13000.00000" pt_clust_6="13000.00000" pt_clust_7="13000.00000" pt_clust_8="13000.00000" pt_clust_9="13000.00000"></scales>
<clustering>
<clus scale="   80.786">  5  6 -1 -1</clus>
<clus scale="   51.583">  5  9 -1 -1</clus>
<clus scale="   92.479">  7  8 -1 -1</clus>
<clus scale="  141.495">  2  7  1 -1</clus>
<clus scale="  229.660">  1  5  2 -1</clus>
</clustering>
</event>
<event>
 9    1  0.2728138E-005  0.1877318E+03  0.7546771E-02  0.1176672E+00
         21   -1    0    0  501  502  0.00000000000E+00  0.00000000000E+00  0.15273864034E+03  0.15273864034E+03  0.00000000000E+00 0.  1.
          1   -1    0    0  502    0 -0.00000000000E+00 -0.00000000000E+00 -0.18172753050E+03  0.18172753050E+03  0.00000000000E+00 0. -1.
         23    2    1    2    0    0 -0.88837952921E+02 -0.11092486397E+02  0.38087292106E+02  0.13511113730E+03  0.93750479830E+02 0.  0.
        -24    2    1    2    0    0  0.54927809377E+02  0.68901642431E+02 -0.30637760207E+02  0.12306902593E+03  0.80267130382E+02 0.  0.
         11    1    4    4    0    0  0.68984671968E+02  0.76199229443E+02 -0.30547948679E+02  0.10723052132E+03  0.00000000000E+00 0. -1.
        -12    1    4    4    0    0 -0.14056862591E+02 -0.72975870118E+01 -0.89811528495E-01  0.15838504608E+02  0.00000000000E+00 0.  1.
        -13    1    3    3    0    0 -0.18223594191E+02 -0.18729685788E+02  0.56055393759E+02  0.61847454955E+02  0.00000000000E+00 0. -1.
         13    1    3    3    0    0 -0.70614358730E+02  0.76371993902E+01 -0.17968101653E+02  0.73263682343E+02  0.00000000000E+00 0.  1.
          2    1    1    2  501    0  0.33910143544E+02 -0.57809156034E+02 -0.36438422056E+02  0.76286007619E+02  0.00000000000E+00 0. -1.
<scales pt_clust_5="13000.00000" pt_clust_6="13000.00000" pt_clust_7="13000.00000" pt_clust_8="13000.00000" pt_clust_9="13000.00000"></scales>
<clustering>
<clus scale="   80.267">  5  6 -1 -1</clus>
<clus scale="   67.021">  5  9 -1 -1</clus>
<clus scale="   93.750">  7  8 -1 -1</clus>
<clus scale="  129.632">  2  7  1 -1</clus>
<clus scale="  187.732">  1  5  2 -1</clus>
</clustering>
</event>
<event>
 9    1  0.2728138E-005  0.1430638E+03  0.7546771E-02  0.1228980E+00
         21   -1    0    0  501  502  0.00000000000E+00  0.00000000000E+00  0.27417742225E+03  0.27417742225E+03  0.00000000000E+00 0.  1.
         -2   -1    0    0    0  501 -0.00000000000E+00 -0.00000000000E+00 -0.55417358457E+02  0.55417358457E+02  0.00000000000E+00 0.  1.
         23    2    1    2    0    0 -0.37980865452E+01  0.33683195733E+02  0.13177313909E+03  0.16216129724E+03  0.88222123081E+02 0.  0.
        -24    2    1    2    0    0 -0.14387366908E+02 -0.45907042768E+02  0.10366191564E+03  0.13989826099E+03  0.80692488945E+02 0.  0.
         11    1    4    4    0    0  0.28353630509E+02 -0.24766291813E+02  0.17707843069E+02  0.41603669061E+02  0.00000000000E+00 0. -1.
        -12    1    4    4    0    0 -0.42740997417E+02 -0.21140750955E+02  0.85954072574E+02  0.98294591933E+02  0.00000000000E+00 0.  1.
        -11    1    3    3    0    0 -0.29097117302E+02 -0.19821649213E+02  0.45269223806E+02  0.57348431860E+02  0.00000000000E+00 0. -1.
         11    1    3    3    0    0  0.25299030757E+02  0.53504844946E+02  0.86503915286E+02  0.10481286538E+03  0.00000000000E+00 0.  1.
         -1    1    1    2    0  502  0.18185453453E+02  0.12223847035E+02 -0.16674990942E+02  0.27535222471E+02  0.00000000000E+00 0.  1.
<scales pt_clust_5="13000.00000" pt_clust_6="13000.00000" pt_clust_7="13000.00000" pt_clust_8="13000.00000" pt_clust_9="13000.00000"></scales>
<clustering>
<clus scale="   80.692">  5  6 -1 -1</clus>
<clus scale="   21.912">  5  9 -1 -1</clus>
<clus scale="   88.222">  7  8 -1 -1</clus>
<clus scale="   94.510">  2  7  1 -1</clus>
<clus scale="  143.064">  1  5  2 -1</clus>
</clustering>
</event>
<event>
 9    1  0.2728138E-005  0.1310041E+03  0.7546771E-02  0.1228023E+00
          1   -1    0    0  502    0 -0.00000000000E+00  0.00000000000E+00  0.58431565462E+02  0.58431565462E+02  0.00000000000E+00 0. -1.
         21   -1    0    0  501  502  0.00000000000E+00 -0.00000000000E+00 -0.29273786129E+03  0.29273786129E+03  0.00000000000E+00 0. -1.
         23    2    1    2    0    0  0.51806491214E+01 -0.58145229519E+02 -0.85319161903E+02  0.15633757204E+03  0.11727902712E+03 0.  0.
        -24    2    1    2    0    0 -0.79828693961E+01  0.17104670281E+02 -0.11714044485E+03  0.14280886416E+03  0.79474473344E+02 0.  0.
         13    1    4    4    0    0 -0.30329637934E+02  0.18510431182E+02 -0.11494379877E+03  0.12031043128E+03  0.00000000000E+00 0. -1.
        -14    1    4    4    0    0  0.22346768538E+02 -0.14057609015E+01 -0.21966460788E+01  0.22498432874E+02  0.00000000000E+00 0.  1.
        -13    1    3    3    0    0 -0.71413960848E+01  0.29742909966E+02 -0.54304252524E+02  0.62326495758E+02  0.00000000000E+00 0.  1.
         13    1    3    3    0    0  0.12322045206E+02 -0.87888139485E+02 -0.31014909378E+02  0.94011076283E+02  0.00000000000E+00 0. -1.
          2    1    1    2  501    0  0.28022202746E+01  0.41040559238E+02 -0.31846689075E+02  0.52022990553E+02  0.00000000000E+00 0. -1.
<scales pt_clust_5="13000.00000" pt_clust_6="13000.00000" pt_clust_7="13000.00000" pt_clust_8="13000.00000" pt_clust_9="13000.00000"></scales>
<clustering>
<clus scale="   79.474">  5  6 -1 -1</clus>
<clus scale="   41.136">  5  9 -1 -1</clus>
<clus scale="  117.279">  7  8 -1 -1</clus>
<clus scale="  125.548">  2  5  1 -1</clus>
<clus scale="  125.548">  2  5  1 -1</clus>
</clustering>
</event>
<event>
 9    1  0.2728138E-005  0.1969114E+03  0.7546771E-02  0.1180533E+00
          1   -1    0    0  502    0 -0.00000000000E+00  0.00000000000E+00  0.17380278706E+03  0.17380278706E+03  0.00000000000E+00 0. -1.
         21   -1    0    0  501  502  0.00000000000E+00 -0.00000000000E+00 -0.49807997012E+03  0.49807997012E+03  0.00000000000E+00 0. -1.
         23    2    1    2    0    0  0.23587997045E+02  0.39196663616E+02  0.13638818976E+03  0.17089704905E+03  0.92256658420E+02 0.  0.
        -24    2    1    2    0    0  0.43303171347E+02 -0.77197684825E+02 -0.25508650661E+03  0.28148359823E+03  0.79556539815E+02 0.  0.
         11    1    4    4    0    0  0.64074165478E+02 -0.56028079645E+02 -0.21779812858E+03  0.23383898136E+03  0.00000000000E+00 0. -1.
        -12    1    4    4    0    0 -0.20770994131E+02 -0.21169605180E+02 -0.37288378031E+02  0.47644616872E+02  0.00000000000E+00 0.  1.
        -13    1    3    3    0    0  0.12051947994E+02  0.57614580826E+02  0.13704885354E+03  0.14915454278E+03  0.00000000000E+00 0. -1.
         13    1    3    3    0    0  0.11536049051E+02 -0.18417917210E+02 -0.66066378227E+00  0.21742506266E+02  0.00000000000E+00 0.  1.
          2    1    1    2  501    0 -0.66891168392E+02  0.38001021209E+02 -0.20557886621E+03  0.21950210991E+03  0.00000000000E+00 0. -1.
<scales pt_clust_5="13000.00000" pt_clust_6="13000.00000" pt_clust_7="13000.00000" pt_clust_8="13000.00000" pt_clust_9="13000.00000"></scales>
<clustering>
<clus scale="   79.557">  5  6 -1 -1</clus>
<clus scale="   76.932">  5  9 -1 -1</clus>
<clus scale="   92.257">  7  8 -1 -1</clus>
<clus scale="  102.976">  1  7  2 -1</clus>
<clus scale="  196.911">  2  5  1 -1</clus>
</clustering>
</event>
<event>
 9    1  0.2728138E-005  0.1605344E+03  0.7546771E-02  0.1201331E+00
         21   -1    0    0  501  502  0.00000000000E+00  0.00000000000E+00  0.11641601800E+03  0.11641601800E+03  0.00000000000E+00 0. -1.
          1   -1    0    0  502    0 -0.00000000000E+00 -0.00000000000E+00 -0.19979290739E+03  0.19979290739E+03  0.00000000000E+00 0. -1.
         23    2    1    2    0    0 -0.76857797903E+02  0.22545947886E+01 -0.97988889987E+02  0.15501089435E+03  0.92273238323E+02 0.  0.
        -24    2    1    2    0    0  0.42905735620E+02  0.28209898493E+02  0.49439944127E+02  0.10380627610E+03  0.75463463752E+02 0.  0.
         13    1    4    4    0    0 -0.14498640776E+02  0.28966302858E+02  0.26991782656E+02  0.42164127129E+02  0.00000000000E+00 0. -1.
        -14    1    4    4    0    0  0.57404376395E+02 -0.75640436563E+00  0.22448161471E+02  0.61642148976E+02  0.00000000000E+00 0.  1.
        -13    1    3    3    0    0 -0.35399185802E+02  0.32993808732E+02 -0.49861606822E+01  0.48647256536E+02  0.00000000000E+00 0.  1.
         13    1    3    3    0    0 -0.41458612100E+02 -0.30739213943E+02 -0.93002729305E+02  0.10636363782E+03  0.00000000000E+00 0. -1.
          2    1    1    2  501    0  0.33952062283E+02 -0.30464493281E+02 -0.34827943534E+02  0.57391754939E+02  0.00000000000E+00 0. -1.
<scales pt_clust_5="13000.00000" pt_clust_6="13000.00000" pt_clust_7="13000.00000" pt_clust_8="13000.00000" pt_clust_9="13000.00000"></scales>
<clustering>
<clus scale="   75.463">  5  6 -1 -1</clus>
<clus scale="   45.616">  5  9 -1 -1</clus>
<clus scale="   92.273">  7  8 -1 -1</clus>
<clus scale="  120.111">  2  7  1 -1</clus>
<clus scale="  160.534">  1  5  2 -1</clus>
</clustering>
</event>
<event>
 9    1  0.3064527E-005  0.5971010E+03  0.7546771E-02  0.1040316E+00
         21   -1    0    0  501  502  0.00000000000E+00  0.00000000000E+00  0.91015084950E+03  0.91015084950E+03  0.00000000000E+00 0.  1.
         -2   -1    0    0    0  501 -0.00000000000E+00 -0.00000000000E+00 -0.14730093639E+03  0.14730093639E+03  0.00000000000E+00 0.  1.
         23    2    1    2    0    0 -0.77399613641E+02 -0.63285727019E+02  0.10837230480E+03  0.17152256432E+03  0.87633613329E+02 0.  0.
        -24    2    1    2    0    0  0.35994590589E+02 -0.24418925115E+03  0.43313739839E+03  0.50481673600E+03  0.79422478721E+02 0.  0.
         11    1    4    4    0    0  0.71837066675E+01 -0.20815677259E+02  0.74974469188E+01  0.23261766303E+02  0.00000000000E+00 0. -1.
        -12    1    4    4    0    0  0.28810883922E+02 -0.22337357389E+03  0.42563995147E+03  0.48155496969E+03  0.00000000000E+00 0.  1.
        -11    1    3    3    0    0 -0.43012667250E+02  0.13440870373E+02  0.58214125015E+02  0.73618142408E+02  0.00000000000E+00 0.  1.
         11    1    3    3    0    0 -0.34386946390E+02 -0.76726597392E+02  0.50158179788E+02  0.97904421907E+02  0.00000000000E+00 0. -1.
         -1    1    1    2    0  502  0.41405023051E+02  0.30747497817E+03  0.22134020992E+03  0.38111248558E+03  0.00000000000E+00 0.  1.
<scales pt_clust_5="13000.00000" pt_clust_6="13000.00000" pt_clust_7="13000.00000" pt_clust_8="13000.00000" pt_clust_9="13000.00000"></scales>
<clustering>
<clus scale="   79.422">  5  6 -1 -1</clus>
<clus scale="   87.634">  7  8 -1 -1</clus>
<clus scale="  132.949">  2  7  1 -1</clus>
<clus scale="  264.063">  5  9 -1 -1</clus>
<clus scale="  597.101">  1  5  2 -1</clus>
</clustering>
</event>
<event>
 9    1  0.2728138E-005  0.1543392E+03  0.7546771E-02  0.1217799E+00
          1   -1    0    0  502    0 -0.00000000000E+00  0.00000000000E+00  0.71818755569E+03  0.71818755569E+03  0.00000000000E+00 0. -1.
         21   -1    0    0  501  502  0.00000000000E+00 -0.00000000000E+00 -0.25117650800E+02  0.25117650800E+02  0.00000000000E+00 0. -1.
         23    2    1    2    0    0  0.26918198056E+02  0.27430403040E+02  0.41017795146E+03  0.42104996548E+03  0.86948865274E+02 0.  0.
        -24    2    1    2    0    0 -0.55185238640E+02  0.19906957121E+02  0.18189252221E+03  0.20718684240E+03  0.79998753261E+02 0.  0.
         13    1    4    4    0    0 -0.50548565955E+02  0.42649264547E+02  0.85804073301E+02  0.10833492642E+03  0.00000000000E+00 0. -1.
        -14    1    4    4    0    0 -0.46366726858E+01 -0.22742307426E+02  0.96088448907E+02  0.98851915985E+02  0.00000000000E+00 0.  1.
        -11    1    3    3    0    0  0.77891633541E+01  0.57374467021E+02  0.29025068774E+03  0.29596952928E+03  0.00000000000E+00 0.  1.
         11    1    3    3    0    0  0.19129034702E+02 -0.29944063981E+02  0.11992726372E+03  0.12508043620E+03  0.00000000000E+00 0. -1.
          2    1    1    2  501    0  0.28267040584E+02 -0.47337360162E+02  0.10099943122E+03  0.11506839861E+03  0.00000000000E+00 0. -1.
<scales pt_clust_5="13000.00000" pt_clust_6="13000.00000" pt_clust_7="13000.00000" pt_clust_8="13000.00000" pt_clust_9="13000.00000"></scales>
<clustering>
<clus scale="   79.999">  5  6 -1 -1</clus>
<clus scale="   55.135">  5  9 -1 -1</clus>
<clus scale="   86.949">  7  8 -1 -1</clus>
<clus scale="   95.064">  1  7  2 -1</clus>
<clus scale="  154.339">  2  5  1 -1</clus>
</clustering>
</event>
<event>
 9    1  0.2728138E-005  0.3040196E+03  0.7546771E-02  0.1086861E+00
         21   -1    0    0  501  502  0.00000000000E+00  0.00000000000E+00  0.15435727798E+03  0.15435727798E+03  0.00000000000E+00 0. -1.
          1   -1    0    0  502    0 -0.00000000000E+00 -0.00000000000E+00 -0.57710668035E+03  0.57710668035E+03  0.00000000000E+00 0. -1.
         23    2    1    2    0    0  0.20965743283E+03 -0.14676651432E+03 -0.11563358534E+03  0.29932043467E+03  0.10356132332E+03 0.  0.
        -24    2    1    2    0    0 -0.47566626329E+02  0.58616198870E+02 -0.73182335001E+02  0.13420262066E+03  0.83404115765E+02 0.  0.
         13    1    4    4    0    0 -0.29657943305E+02  0.24571118346E+02  0.12327167298E+02  0.40438750122E+02  0.00000000000E+00 0. -1.
        -14    1    4    4    0    0 -0.17908683025E+02  0.34045080523E+02 -0.85509502299E+02  0.93763870541E+02  0.00000000000E+00 0.  1.
        -11    1    3    3    0    0  0.11300846040E+03 -0.17293686051E+02 -0.42453076199E+02  0.12195182400E+03  0.00000000000E+00 0.  1.
         11    1    3    3    0    0  0.96648972431E+02 -0.12947282827E+03 -0.73180509141E+02  0.17736861067E+03  0.00000000000E+00 0. -1.
          2    1    1    2  501    0 -0.16209080650E+03  0.88150315455E+02 -0.23393348202E+03  0.29794090299E+03  0.00000000000E+00 0. -1.
<scales pt_clust_5="13000.00000" pt_clust_6="13000.00000" pt_clust_7="13000.00000" pt_clust_8="13000.00000" pt_clust_9="13000.00000"></scales>
<clustering>
<clus scale="   83.404">  5  6 -1 -1</clus>
<clus scale="  103.561">  7  8 -1 -1</clus>
<clus scale="  184.510">  5  9 -1 -1</clus>
<clus scale="  276.083">  2  7  1 -1</clus>
<clus scale="  304.020">  1  5  2 -1</clus>
</clustering>
</event>
<event>
 9    1  0.2728138E-005  0.1434801E+03  0.7546771E-02  0.1209889E+00
          1   -1    0    0  502    0 -0.00000000000E+00  0.00000000000E+00  0.61535545916E+03  0.61535545916E+03  0.00000000000E+00 0. -1.
         21   -1    0    0  501  502  0.00000000000E+00 -0.00000000000E+00 -0.44049652526E+02  0.44049652526E+02  0.00000000000E+00 0. -1.
         23    2    1    2    0    0  0.23338942115E+02 -0.10338117867E+03  0.11518429336E+03  0.18124888291E+03  0.91385785519E+02 0.  0.
        -24    2    1    2    0    0 -0.27420864022E+02  0.78445307421E+02  0.33869684895E+03  0.35804373337E+03  0.81081375656E+02 0.  0.
         13    1    4    4    0    0 -0.22751870741E+01  0.75482664480E+02  0.15292725140E+03  0.17055659862E+03  0.00000000000E+00 0. -1.
        -14    1    4    4    0    0 -0.25145676948E+02  0.29626429412E+01  0.18576959755E+03  0.18748713475E+03  0.00000000000E+00 0.  1.
        -11    1    3    3    0    0  0.51939096541E+01 -0.67154164720E+02  0.12276542078E+03  0.14002859378E+03  0.00000000000E+00 0.  1.
         11    1    3    3    0    0  0.18145032461E+02 -0.36227013953E+02 -0.75811274168E+01  0.41220289129E+02  0.00000000000E+00 0. -1.
          2    1    1    2  501    0  0.40819219070E+01  0.24935871252E+02  0.11742466433E+03  0.12011249541E+03  0.00000000000E+00 0. -1.
<scales pt_clust_5="13000.00000" pt_clust_6="13000.00000" pt_clust_7="13000.00000" pt_clust_8="13000.00000" pt_clust_9="13000.00000"></scales>
<clustering>
<clus scale="   81.081">  5  6 -1 -1</clus>
<clus scale="   25.268">  5  9 -1 -1</clus>
<clus scale="   91.386">  7  8 -1 -1</clus>
<clus scale="  139.942">  1  7  2 -1</clus>
<clus scale="  143.480">  2  5  1 -1</clus>
</clustering>
</event>
<event>
 9    1  0.4012532E-005  0.2511845E+03  0.7546771E-02  0.1145983E+00
         21   -1    0    0  501  502  0.00000000000E+00  0.00000000000E+00  0.73948673364E+02  0.73948673364E+02  0.00000000000E+00 0.  1.
         -2   -1    0    0    0  501 -0.00000000000E+00 -0.00000000000E+00 -0.68907121939E+03  0.68907121939E+03  0.00000000000E+00 0.  1.
         23    2    1    2    0    0 -0.19619726709E+02 -0.57078658495E+02 -0.13686736567E+02  0.11123872110E+03  0.92432783051E+02 0.  0.
        -24    2    1    2    0    0  0.18082641711E+02 -0.51957824127E+02 -0.10712985237E+03  0.14558980825E+03  0.81810693539E+02 0.  0.
         13    1    4    4    0    0  0.44994388043E+02 -0.13677421575E+02 -0.76048224354E+02  0.89414200459E+02  0.00000000000E+00 0. -1.
        -14    1    4    4    0    0 -0.26911746333E+02 -0.38280402551E+02 -0.31081628014E+02  0.56175607786E+02  0.00000000000E+00 0.  1.
        -11    1    3    3    0    0  0.96055947494E+01 -0.53456859893E+02  0.27285193095E+02  0.60781453441E+02  0.00000000000E+00 0.  1.
         11    1    3    3    0    0 -0.29225321458E+02 -0.36217986021E+01 -0.40971929662E+02  0.50457267660E+02  0.00000000000E+00 0. -1.
         -1    1    1    2    0  502  0.15370849985E+01  0.10903648262E+03 -0.49430595709E+03  0.50619136340E+03  0.00000000000E+00 0.  1.
<scales pt_clust_5="13000.00000" pt_clust_6="13000.00000" pt_clust_7="13000.00000" pt_clust_8="13000.00000" pt_clust_9="13000.00000"></scales>
<clustering>
<clus scale="   81.811">  5  6 -1 -1</clus>
<clus scale="   92.433">  7  8 -1 -1</clus>
<clus scale="  109.047">  5  9 -1 -1</clus>
<clus scale="  110.394">  2  7  1 -1</clus>
<clus scale="  251.185">  1  5  2 -1</clus>
</clustering>
</event>
<event>
 9    1  0.2728138E-005  0.2469787E+03  0.7546771E-02  0.1126419E+00
         -4   -1    0    0    0  501 -0.00000000000E+00  0.00000000000E+00  0.16553174574E+03  0.16553174574E+03  0.00000000000E+00 0.  1.
         21   -1    0    0  501  502  0.00000000000E+00 -0.00000000000E+00 -0.34535479319E+03  0.34535479319E+03  0.00000000000E+00 0.  1.
         23    2    1    2    0    0  0.11825032236E+03 -0.11223119899E+03 -0.18633467954E+03  0.26382201080E+03  0.91117834811E+02 0.  0.
        -24    2    1    2    0    0 -0.14335248774E+02  0.64532752169E+02 -0.58091320163E+02  0.11573659588E+03  0.75169027447E+02 0.  0.
         11    1    4    4    0    0  0.11668524018E+02  0.27577885085E+02  0.12067780175E+02  0.32285066468E+02  0.00000000000E+00 0. -1.
        -12    1    4    4    0    0 -0.26003772792E+02  0.36954867085E+02 -0.70159100338E+02  0.83451529410E+02  0.00000000000E+00 0.  1.
        -11    1    3    3    0    0  0.38305662848E+02 -0.50175324736E+02 -0.13782451881E+03  0.15159315619E+03  0.00000000000E+00 0. -1.
         11    1    3    3    0    0  0.79944659513E+02 -0.62055874251E+02 -0.48510160729E+02  0.11222885461E+03  0.00000000000E+00 0.  1.
         -3    1    1    2    0  502 -0.10391507359E+03  0.47698446817E+02  0.64602952261E+02  0.13132793225E+03  0.00000000000E+00 0.  1.
<scales pt_clust_5="13000.00000" pt_clust_6="13000.00000" pt_clust_7="13000.00000" pt_clust_8="13000.00000" pt_clust_9="13000.00000"></scales>
<clustering>
<clus scale="   75.169">  5  6 -1 -1</clus>
<clus scale="   91.118">  7  8 -1 -1</clus>
<clus scale="  114.339">  5  9 -1 -1</clus>
<clus scale="  186.766">  1  7  2 -1</clus>
<clus scale="  246.979">  2  5  1 -1</clus>
</clustering>
</event>
<event>
 9    1  0.2728138E-005  0.2892759E+03  0.7546771E-02  0.1125207E+00
         21   -1    0    0  501  502  0.00000000000E+00  0.00000000000E+00  0.26459299132E+03  0.26459299132E+03  0.00000000000E+00 0.  1.
          3   -1    0    0  502    0 -0.00000000000E+00 -0.00000000000E+00 -0.17567686954E+03  0.17567686954E+03  0.00000000000E+00 0. -1.
         23    2    1    2    0    0 -0.59520571499E+02  0.53689402373E+02 -0.36153498458E+02  0.12511443392E+03  0.89001661590E+02 0.  0.
        -24    2    1    2    0    0 -0.85733390830E+02 -0.68756970995E+02  0.26882234239E+02  0.13918239502E+03  0.81063858790E+02 0.  0.
         11    1    4    4    0    0 -0.61825324993E+02 -0.49277623563E+02 -0.21386994906E+02  0.81902738328E+02  0.00000000000E+00 0. -1.
        -12    1    4    4    0    0 -0.23908065838E+02 -0.19479347432E+02  0.48269229144E+02  0.57279656691E+02  0.00000000000E+00 0.  1.
        -11    1    3    3    0    0  0.11955613564E+02  0.41720185999E+02 -0.29204236077E+02  0.52310591856E+02  0.00000000000E+00 0. -1.
         11    1    3    3    0    0 -0.71476185063E+02  0.11969216374E+02 -0.69492623811E+01  0.72803842065E+02  0.00000000000E+00 0.  1.
          4    1    1    2  501    0  0.14525396233E+03  0.15067568622E+02  0.98187385994E+02  0.17597303193E+03  0.00000000000E+00 0. -1.
<scales pt_clust_5="13000.00000" pt_clust_6="13000.00000" pt_clust_7="13000.00000" pt_clust_8="13000.00000" pt_clust_9="13000.00000"></scales>
<clustering>
<clus scale="   81.064">  5  6 -1 -1</clus>
<clus scale="   89.002">  7  8 -1 -1</clus>
<clus scale="  119.777">  2  7  1 -1</clus>
<clus scale="  126.444">  5  9 -1 -1</clus>
<clus scale="  289.276">  1  5  2 -1</clus>
</clustering>
</event>
<event>
 9    1  0.2728138E-005  0.2491543E+03  0.7546771E-02  0.1137013E+00
         -2   -1    0    0    0  501 -0.00000000000E+00  0.00000000000E+00  0.15518032890E+03  0.15518032890E+03  0.00000000000E+00 0.  1.
         21   -1    0    0  501  502  0.00000000000E+00 -0.00000000000E+00 -0.44765611685E+03  0.44765611685E+03  0.00000000000E+00 0.  1.
         23    2    1    2    0    0 -0.13591808579E+02 -0.10253269391E+03  0.74785115864E+02  0.15903642684E+03  0.94879296609E+02 0.  0.
        -24    2    1    2    0    0 -0.51220487220E+02  0.42234123557E+02 -0.51901724270E+02  0.11625160509E+03  0.80083626288E+02 0.  0.
         13    1    4    4    0    0 -0.39287006052E+02  0.64270764034E+02 -0.24718383001E+02  0.79279243262E+02  0.00000000000E+00 0. -1.
        -14    1    4    4    0    0 -0.11933481169E+02 -0.22036640478E+02 -0.27183341269E+02  0.36972361825E+02  0.00000000000E+00 0.  1.
        -11    1    3    3    0    0  0.13046910924E+01 -0.38317110967E+02  0.84132380490E+02  0.92456263490E+02  0.00000000000E+00 0.  1.
         11    1    3    3    0    0 -0.14896499672E+02 -0.64215582942E+02 -0.93472646261E+01  0.66580163345E+02  0.00000000000E+00 0. -1.
         -1    1    1    2    0  502  0.64812295800E+02  0.60298570353E+02 -0.31535917954E+03  0.32754841382E+03  0.00000000000E+00 0.  1.
<scales pt_clust_5="13000.00000" pt_clust_6="13000.00000" pt_clust_7="13000.00000" pt_clust_8="13000.00000" pt_clust_9="13000.00000"></scales>
<clustering>
<clus scale="   80.084">  5  6 -1 -1</clus>
<clus scale="   88.524">  5  9 -1 -1</clus>
<clus scale="   94.879">  7  8 -1 -1</clus>
<clus scale="  140.356">  1  7  2 -1</clus>
<clus scale="  249.154">  2  5  1 -1</clus>
</clustering>
</event>
<event>
 9    1  0.2728138E-005  0.4512925E+03  0.7546771E-02  0.1043758E+00
          3   -1    0    0  502    0 -0.00000000000E+00  0.00000000000E+00  0.20930583436E+03  0.20930583436E+03  0.00000000000E+00 0. -1.
         21   -1    0    0  501  502  0.00000000000E+00 -0.00000000000E+00 -0.63788642195E+03  0.63788642195E+03  0.00000000000E+00 0.  1.
         23    2    1    2    0    0 -0.26256473724E+03 -0.11248026000E+02 -0.14449911911E+03  0.31393130703E+03  0.92769126223E+02 0.  0.
        -24    2    1    2    0    0 -0.52923450791E+02 -0.72537860008E+02 -0.11056386963E+03  0.16358375415E+03  0.80452735060E+02 0.  0.
         13    1    4    4    0    0 -0.20351441188E+02 -0.51041184532E+02 -0.10184437515E+02  0.55884760394E+02  0.00000000000E+00 0. -1.
        -14    1    4    4    0    0 -0.32572009603E+02 -0.21496675476E+02 -0.10037943211E+03  0.10769899376E+03  0.00000000000E+00 0.  1.
        -11    1    3    3    0    0 -0.15456316347E+03  0.11782389372E+02 -0.13047663054E+03  0.20261477567E+03  0.00000000000E+00 0.  1.
         11    1    3    3    0    0 -0.10800157377E+03 -0.23030415372E+02 -0.14022488564E+02  0.11131653136E+03  0.00000000000E+00 0. -1.
          4    1    1    2  501    0  0.31548818803E+03  0.83785886008E+02 -0.17351759887E+03  0.36967719513E+03  0.00000000000E+00 0. -1.
<scales pt_clust_5="13000.00000" pt_clust_6="13000.00000" pt_clust_7="13000.00000" pt_clust_8="13000.00000" pt_clust_9="13000.00000"></scales>
<clustering>
<clus scale="   80.453">  5  6 -1 -1</clus>
<clus scale="   92.769">  7  8 -1 -1</clus>
<clus scale="  278.699">  1  7  2 -1</clus>
<clus scale="  132.099">  5  9 -1 -1</clus>
<clus scale="  451.293">  2  5  1 -1</clus>
</clustering>
</event>
<event>
 9    1  0.2728138E-005  0.3518102E+03  0.7546771E-02  0.1099371E+00
         21   -1    0    0  501  502  0.00000000000E+00  0.00000000000E+00  0.12832878761E+03  0.12832878761E+03  0.00000000000E+00 0. -1.
          1   -1    0    0  502    0 -0.00000000000E+00 -0.00000000000E+00 -0.44966267289E+03  0.44966267289E+03  0.00000000000E+00 0. -1.
         23    2    1    2    0    0 -0.74498006729E+02  0.45252982009E+02 -0.96191415983E+02  0.16030794911E+03  0.94064151787E+02 0.  0.
        -24    2    1    2    0    0 -0.67353153174E+01 -0.16873218425E+03 -0.18890115222E+03  0.26550138675E+03  0.79318513459E+02 0.  0.
         13    1    4    4    0    0 -0.45244532764E+01 -0.16839609306E+03 -0.14710701594E+03  0.22364746583E+03  0.00000000000E+00 0. -1.
        -14    1    4    4    0    0 -0.22108620410E+01 -0.33609119830E+00 -0.41794136285E+02  0.41853920916E+02  0.00000000000E+00 0.  1.
        -13    1    3    3    0    0 -0.64937968416E+02  0.16739139250E+02 -0.10871200741E+03  0.12773190314E+03  0.00000000000E+00 0. -1.
         13    1    3    3    0    0 -0.95600383130E+01  0.28513842759E+02  0.12520591425E+02  0.32576045970E+02  0.00000000000E+00 0.  1.
          2    1    1    2  501    0  0.81233322046E+02  0.12347920224E+03 -0.36241317069E+02  0.15218212464E+03  0.00000000000E+00 0. -1.
<scales pt_clust_5="13000.00000" pt_clust_6="13000.00000" pt_clust_7="13000.00000" pt_clust_8="13000.00000" pt_clust_9="13000.00000"></scales>
<clustering>
<clus scale="   79.319">  5  6 -1 -1</clus>
<clus scale="   94.064">  7  8 -1 -1</clus>
<clus scale="  128.241">  2  7  1 -1</clus>
<clus scale="  149.087">  5  9 -1 -1</clus>
<clus scale="  351.810">  1  5  2 -1</clus>
</clustering>
</event>
<event>
 9    1  0.2728138E-005  0.4329432E+03  0.7546771E-02  0.1084560E+00
         21   -1    0    0  501  502  0.00000000000E+00  0.00000000000E+00  0.98319091297E+02  0.98319091297E+02  0.00000000000E+00 0. -1.
          1   -1    0    0  502    0 -0.00000000000E+00 -0.00000000000E+00 -0.77885260543E+03  0.77885260543E+03  0.00000000000E+00 0. -1.
         23    2    1    2    0    0 -0.16790393637E+02 -0.46632443780E+02 -0.23445598526E+03  0.25554080888E+03  0.88741162069E+02 0.  0.
        -24    2    1    2    0    0  0.32192152270E+02 -0.15505203278E+03 -0.62626037820E+02  0.18810016432E+03  0.79888570311E+02 0.  0.
         13    1    4    4    0    0  0.34856848531E+02 -0.93980378229E+02  0.48504470213E+00  0.10023745133E+03  0.00000000000E+00 0. -1.
        -14    1    4    4    0    0 -0.26646962605E+01 -0.61071654554E+02 -0.63111082523E+02  0.87862712986E+02  0.00000000000E+00 0.  1.
        -11    1    3    3    0    0 -0.45082323545E+02 -0.55634339451E+02 -0.17502028011E+03  0.18910233757E+03  0.00000000000E+00 0. -1.
         11    1    3    3    0    0  0.28291929908E+02  0.90018956710E+01 -0.59435705148E+02  0.66438471311E+02  0.00000000000E+00 0.  1.
          2    1    1    2  501    0 -0.15401758634E+02  0.20168447656E+03 -0.38345149105E+03  0.43353072353E+03  0.00000000000E+00 0. -1.
<scales pt_clust_5="13000.00000" pt_clust_6="13000.00000" pt_clust_7="13000.00000" pt_clust_8="13000.00000" pt_clust_9="13000.00000"></scales>
<clustering>
<clus scale="   79.889">  5  6 -1 -1</clus>
<clus scale="   88.741">  7  8 -1 -1</clus>
<clus scale="  101.644">  2  7  1 -1</clus>
<clus scale="  168.389">  5  9 -1 -1</clus>
<clus scale="  432.943">  1  5  2 -1</clus>
</clustering>
</event>
<event>
 9    1  0.2728138E-005  0.3536672E+03  0.7546771E-02  0.1066135E+00
         -2   -1    0    0    0  501 -0.00000000000E+00  0.00000000000E+00  0.23210645063E+03  0.23210645063E+03  0.00000000000E+00 0.  1.
         21   -1    0    0  501  502  0.00000000000E+00 -0.00000000000E+00 -0.49263991611E+03  0.49263991611E+03  0.00000000000E+00 0.  1.
         23    2    1    2    0    0  0.28253450438E+02 -0.29332738731E+03 -0.19725408002E+03  0.36546269046E+03  0.88400183432E+02 0.  0.
        -24    2    1    2    0    0 -0.54393403024E+02  0.75754212853E+02 -0.66957686718E+02  0.14011498950E+03  0.80321450524E+02 0.  0.
         11    1    4    4    0    0 -0.35257893265E+02  0.82045282086E+02 -0.76720218615E+02  0.11773079162E+03  0.00000000000E+00 0. -1.
        -12    1    4    4    0    0 -0.19135509760E+02 -0.62910692330E+01  0.97625318978E+01  0.22384197884E+02  0.00000000000E+00 0.  1.
        -13    1    3    3    0    0  0.44387209905E+02 -0.23032524748E+03 -0.18622484029E+03  0.29949897357E+03  0.00000000000E+00 0.  1.
         13    1    3    3    0    0 -0.16133759467E+02 -0.63002139824E+02 -0.11029239731E+02  0.65963716890E+02  0.00000000000E+00 0. -1.
         -1    1    1    2    0  502  0.26139952586E+02  0.21757317445E+03  0.36783012495E+01  0.21916868678E+03  0.00000000000E+00 0.  1.
<scales pt_clust_5="13000.00000" pt_clust_6="13000.00000" pt_clust_7="13000.00000" pt_clust_8="13000.00000" pt_clust_9="13000.00000"></scales>
<clustering>
<clus scale="   80.321">  5  6 -1 -1</clus>
<clus scale="   88.400">  7  8 -1 -1</clus>
<clus scale="  219.138">  5  9 -1 -1</clus>
<clus scale="  307.659">  1  7  2 -1</clus>
<clus scale="  353.667">  2  5  1 -1</clus>
</clustering>
</event>
<event>
 9    1  0.2728138E-005  0.2770667E+03  0.7546771E-02  0.1134844E+00
          1   -1    0    0  502    0 -0.00000000000E+00  0.00000000000E+00  0.76149966017E+03  0.76149966017E+03  0.00000000000E+00 0. -1.
         21   -1    0    0  501  502  0.00000000000E+00 -0.00000000000E+00 -0.75123096507E+02  0.75123096507E+02  0.00000000000E+00 0. -1.
         23    2    1    2    0    0  0.34317395831E+02  0.39716783036E+02  0.47795864816E+03  0.48991832483E+03  0.93916926821E+02 0.  0.
        -24    2    1    2    0    0  0.63544097897E+02 -0.10984738854E+03  0.78258751280E+02  0.16940078886E+03  0.80423217840E+02 0.  0.
         13    1    4    4    0    0  0.55671940423E+02 -0.91845407745E+02  0.21759858232E+02  0.10958300646E+03  0.00000000000E+00 0. -1.
        -14    1    4    4    0    0  0.78721574741E+01 -0.18001980799E+02  0.56498893048E+02  0.59817782403E+02  0.00000000000E+00 0.  1.
        -11    1    3    3    0    0  0.56294614970E+02  0.53062567798E+02  0.41049448443E+03  0.41772053041E+03  0.00000000000E+00 0. -1.
         11    1    3    3    0    0 -0.21977219139E+02 -0.13345784762E+02  0.67464163730E+02  0.72197794425E+02  0.00000000000E+00 0.  1.
          2    1    1    2  501    0 -0.97861493728E+02  0.70130605508E+02  0.13015916422E+03  0.17730364298E+03  0.00000000000E+00 0. -1.
<scales pt_clust_5="13000.00000" pt_clust_6="13000.00000" pt_clust_7="13000.00000" pt_clust_8="13000.00000" pt_clust_9="13000.00000"></scales>
<clustering>
<clus scale="   80.423">  5  6 -1 -1</clus>
<clus scale="   93.917">  7  8 -1 -1</clus>
<clus scale="  107.589">  1  7  2 -1</clus>
<clus scale="  121.267">  5  9 -1 -1</clus>
<clus scale="  277.067">  2  5  1 -1</clus>
</clustering>
</event>
<event>
 9    1  0.2728138E-005  0.1899237E+03  0.7546771E-02  0.1192781E+00
         21   -1    0    0  501  502  0.00000000000E+00  0.00000000000E+00  0.38603042395E+03  0.38603042395E+03  0.00000000000E+00 0.  1.
         -2   -1    0    0    0  501 -0.00000000000E+00 -0.00000000000E+00 -0.17628910539E+03  0.17628910539E+03  0.00000000000E+00 0.  1.
         23    2    1    2    0    0  0.16839829661E+02 -0.11976033908E+02 -0.13958606189E+03  0.16470084990E+03  0.84941721382E+02 0.  0.
        -24    2    1    2    0    0  0.48429724006E+02 -0.12876669814E+02  0.17840065026E+03  0.21297383491E+03  0.10497530925E+03 0.  0.
         13    1    4    4    0    0  0.16256200771E+02 -0.43312342159E+02  0.23544995114E+02  0.51909438850E+02  0.00000000000E+00 0. -1.
        -14    1    4    4    0    0  0.32173523234E+02  0.30435672344E+02  0.15485565514E+03  0.16106439606E+03  0.00000000000E+00 0.  1.
        -11    1    3    3    0    0 -0.22043968089E+02 -0.35099685705E+02 -0.56171215902E+02  0.69807807311E+02  0.00000000000E+00 0.  1.
         11    1    3    3    0    0  0.38883797750E+02  0.23123651797E+02 -0.83414845991E+02  0.94893042587E+02  0.00000000000E+00 0. -1.
         -1    1    1    2    0  502 -0.65269553666E+02  0.24852703722E+02  0.17092673019E+03  0.18464484453E+03  0.00000000000E+00 0.  1.
<scales pt_clust_5="13000.00000" pt_clust_6="13000.00000" pt_clust_7="13000.00000" pt_clust_8="13000.00000" pt_clust_9="13000.00000"></scales>
<clustering>
<clus scale="   84.942">  7  8 -1 -1</clus>
<clus scale="   87.419">  2  7  1 -1</clus>
<clus scale="  104.975">  5  6 -1 -1</clus>
<clus scale="   64.177">  5  9 -1 -1</clus>
<clus scale="  189.924">  1  5  2 -1</clus>
</clustering>
</event>
<event>
 9    1  0.2728138E-005  0.2647785E+03  0.7546771E-02  0.1143144E+00
         -2   -1    0    0    0  501 -0.00000000000E+00  0.00000000000E+00  0.39277417060E+03  0.39277417060E+03  0.00000000000E+00 0.  1.
         21   -1    0    0  501  502  0.00000000000E+00 -0.00000000000E+00 -0.86140767228E+02  0.86140767228E+02  0.00000000000E+00 0. -1.
         23    2    1    2    0    0 -0.32241541705E+02  0.29943355895E+02  0.61859756485E+02  0.11832957851E+03  0.90769698163E+02 0.  0.
        -24    2    1    2    0    0 -0.15188497783E+01  0.78895553772E+02  0.29913644104E+02  0.11737661546E+03  0.81582035060E+02 0.  0.
         13    1    4    4    0    0  0.19855713038E+02  0.82987936815E+02  0.38966041488E+02  0.93806179894E+02  0.00000000000E+00 0. -1.
        -14    1    4    4    0    0 -0.21374562817E+02 -0.40923830432E+01 -0.90523973835E+01  0.23570435570E+02  0.00000000000E+00 0.  1.
        -11    1    3    3    0    0 -0.15963785117E+01 -0.23522661449E+02 -0.82564428842E+01  0.24980650013E+02  0.00000000000E+00 0.  1.
         11    1    3    3    0    0 -0.30645163193E+02  0.53466017344E+02  0.70116199369E+02  0.93348928498E+02  0.00000000000E+00 0. -1.
         -1    1    1    2    0  502  0.33760391483E+02 -0.10883890967E+03  0.21486000279E+03  0.24320874386E+03  0.00000000000E+00 0.  1.
<scales pt_clust_5="13000.00000" pt_clust_6="13000.00000" pt_clust_7="13000.00000" pt_clust_8="13000.00000" pt_clust_9="13000.00000"></scales>
<clustering>
<clus scale="   81.582">  5  6 -1 -1</clus>
<clus scale="   90.770">  7  8 -1 -1</clus>
<clus scale="  100.873">  1  7  2 -1</clus>
<clus scale="   86.688">  5  9 -1 -1</clus>
<clus scale="  264.779">  2  5  1 -1</clus>
</clustering>
</event>
<event>
 9    1  0.2728138E-005  0.3232094E+03  0.7546771E-02  0.1085297E+00
         -2   -1    0    0    0  501 -0.00000000000E+00  0.00000000000E+00  0.19829606453E+03  0.19829606453E+03  0.00000000000E+00 0.  1.
         21   -1    0    0  501  502  0.00000000000E+00 -0.00000000000E+00 -0.42101146681E+03  0.42101146681E+03  0.00000000000E+00 0.  1.
         23    2    1    2    0    0 -0.42003427308E+02  0.21698437165E+03 -0.16529761288E+03  0.29103764194E+03  0.92374795001E+02 0.  0.
        -24    2    1    2    0    0 -0.49566590435E+02 -0.16129763101E+02  0.16052059555E+02  0.95621096947E+02  0.78541132028E+02 0.  0.
         11    1    4    4    0    0 -0.45192624204E+02  0.25292534073E+02  0.15147766268E+02  0.53958691470E+02  0.00000000000E+00 0. -1.
        -12    1    4    4    0    0 -0.43739662315E+01 -0.41422297174E+02  0.90429328661E+00  0.41662405476E+02  0.00000000000E+00 0.  1.
        -11    1    3    3    0    0  0.18265402921E+02  0.68256929379E+02 -0.17321161682E+02  0.72750642568E+02  0.00000000000E+00 0. -1.
         11    1    3    3    0    0 -0.60268830230E+02  0.14872744228E+03 -0.14797645120E+03  0.21828699937E+03  0.00000000000E+00 0.  1.
         -1    1    1    2    0  502  0.91570017744E+02 -0.20085460855E+03 -0.73469848947E+02  0.23264879246E+03  0.00000000000E+00 0.  1.
<scales pt_clust_5="13000.00000" pt_clust_6="13000.00000" pt_clust_7="13000.00000" pt_clust_8="13000.00000" pt_clust_9="13000.00000"></scales>
<clustering>
<clus scale="   78.541">  5  6 -1 -1</clus>
<clus scale="   92.375">  7  8 -1 -1</clus>
<clus scale="  220.743">  5  9 -1 -1</clus>
<clus scale="  239.541">  1  7  2 -1</clus>
<clus scale="  323.209">  2  5  1 -1</clus>
</clustering>
</event>
<event>
 9    1  0.2728138E-005  0.3506876E+03  0.7546771E-02  0.1104491E+00
         -4   -1    0    0    0  501 -0.00000000000E+00  0.00000000000E+00  0.17812186976E+03  0.17812186976E+03  0.00000000000E+00 0.  1.
         21   -1    0    0  501  502  0.00000000000E+00 -0.00000000000E+00 -0.63954402196E+03  0.63954402196E+03  0.00000000000E+00 0.  1.
         23    2    1    2    0    0 -0.35495452124E+01 -0.69260403769E+02  0.10297260719E+03  0.15319372738E+03  0.89751643310E+02 0.  0.
        -24    2    1    2    0    0 -0.10587917867E+02 -0.32360465014E+02  0.32682493203E+01  0.87611730346E+02  0.80658726372E+02 0.  0.
         11    1    4    4    0    0  0.16724794663E+02  0.21125336905E+02 -0.35202230129E+01  0.27173343296E+02  0.00000000000E+00 0. -1.
        -12    1    4    4    0    0 -0.27312712529E+02 -0.53485801919E+02  0.67884723332E+01  0.60438387050E+02  0.00000000000E+00 0.  1.
        -13    1    3    3    0    0 -0.44072653031E+02 -0.22331849440E+02  0.60147795008E+02  0.77838727436E+02  0.00000000000E+00 0.  1.
         13    1    3    3    0    0  0.40523107818E+02 -0.46928554329E+02  0.42824812181E+02  0.75354999947E+02  0.00000000000E+00 0. -1.
         -3    1    1    2    0  502  0.14137463079E+02  0.10162086878E+03 -0.56766300872E+03  0.57686043399E+03  0.00000000000E+00 0.  1.
<scales pt_clust_5="13000.00000" pt_clust_6="13000.00000" pt_clust_7="13000.00000" pt_clust_8="13000.00000" pt_clust_9="13000.00000"></scales>
<clustering>
<clus scale="   80.659">  5  6 -1 -1</clus>
<clus scale="   89.752">  7  8 -1 -1</clus>
<clus scale="  102.600">  5  9 -1 -1</clus>
<clus scale="  113.424">  1  7  2 -1</clus>
<clus scale="  350.688">  2  5  1 -1</clus>
</clustering>
</event>
<event>
 9    1  0.2728138E-005  0.1397913E+03  0.7546771E-02  0.1231697E+00
         21   -1    0    0  501  502  0.00000000000E+00  0.00000000000E+00  0.11429540343E+03  0.11429540343E+03  0.00000000000E+00 0. -1.
          1   -1    0    0  502    0 -0.00000000000E+00 -0.00000000000E+00 -0.14808521342E+03  0.14808521342E+03  0.00000000000E+00 0. -1.
         23    2    1    2    0    0 -0.66765881872E+00 -0.28931037579E+02 -0.69214914226E+02  0.11817052854E+03  0.91302348049E+02 0.  0.
        -24    2    1    2    0    0 -0.43220997887E+02  0.19538643281E+02  0.82975397774E+01  0.91766442255E+02  0.78117971800E+02 0.  0.
         11    1    4    4    0    0 -0.61464260232E+02  0.31484173266E+02  0.20756021420E+01  0.69089916604E+02  0.00000000000E+00 0. -1.
        -12    1    4    4    0    0  0.18243262346E+02 -0.11945529985E+02  0.62219376354E+01  0.22676525650E+02  0.00000000000E+00 0.  1.
        -11    1    3    3    0    0  0.40147998796E+02  0.64366535298E+01 -0.38725577692E+02  0.56151248282E+02  0.00000000000E+00 0.  1.
         11    1    3    3    0    0 -0.40815657615E+02 -0.35367691109E+02 -0.30489336535E+02  0.62019280254E+02  0.00000000000E+00 0. -1.
          2    1    1    2  501    0  0.43888656705E+02  0.93923942975E+01  0.27127564458E+02  0.52443646054E+02  0.00000000000E+00 0. -1.
<scales pt_clust_5="13000.00000" pt_clust_6="13000.00000" pt_clust_7="13000.00000" pt_clust_8="13000.00000" pt_clust_9="13000.00000"></scales>
<clustering>
<clus scale="   78.118">  5  6 -1 -1</clus>
<clus scale="   44.882">  5  9 -1 -1</clus>
<clus scale="   91.302">  7  8 -1 -1</clus>
<clus scale="   95.779">  2  7  1 -1</clus>
<clus scale="  139.791">  1  5  2 -1</clus>
</clustering>
</event>
<event>
 9    1  0.2728138E-005  0.1884795E+03  0.7546771E-02  0.1190172E+00
         21   -1    0    0  501  502  0.00000000000E+00  0.00000000000E+00  0.12210304295E+04  0.12210304295E+04  0.00000000000E+00 0.  1.
         -2   -1    0    0    0  501 -0.00000000000E+00 -0.00000000000E+00 -0.16426973897E+02  0.16426973897E+02  0.00000000000E+00 0.  1.
         23    2    1    2    0    0 -0.21234005566E+02  0.93792935773E+01  0.41222448184E+03  0.42297046828E+03  0.91848459239E+02 0.  0.
        -24    2    1    2    0    0 -0.18943954686E+02 -0.73075242793E+02  0.54636468421E+03  0.55720406919E+03  0.79140015429E+02 0.  0.
         11    1    4    4    0    0  0.21512027076E+02 -0.62291375437E+02  0.28599635941E+03  0.29349088633E+03  0.00000000000E+00 0. -1.
        -12    1    4    4    0    0 -0.40455981762E+02 -0.10783867356E+02  0.26036832480E+03  0.26371318286E+03  0.00000000000E+00 0.  1.
        -11    1    3    3    0    0 -0.86598905376E+01 -0.40054429829E+02  0.13463817474E+03  0.14073659493E+03  0.00000000000E+00 0.  1.
         11    1    3    3    0    0 -0.12574115029E+02  0.49433723406E+02  0.27758630710E+03  0.28223387335E+03  0.00000000000E+00 0. -1.
         -1    1    1    2    0  502  0.40177960252E+02  0.63695949216E+02  0.24601428952E+03  0.25728286590E+03  0.00000000000E+00 0.  1.
<scales pt_clust_5="13000.00000" pt_clust_6="13000.00000" pt_clust_7="13000.00000" pt_clust_8="13000.00000" pt_clust_9="13000.00000"></scales>
<clustering>
<clus scale="   79.140">  5  6 -1 -1</clus>
<clus scale="   75.309">  5  9 -1 -1</clus>
<clus scale="   91.848">  7  8 -1 -1</clus>
<clus scale="   94.736">  2  7  1 -1</clus>
<clus scale="  188.480">  1  5  2 -1</clus>
</clustering>
</event>
<event>
 9    1  0.2728138E-005  0.2936610E+03  0.7546771E-02  0.1128632E+00
         -2   -1    0    0    0  501 -0.00000000000E+00  0.00000000000E+00  0.29960797606E+03  0.29960797606E+03  0.00000000000E+00 0.  1.
         21   -1    0    0  501  502  0.00000000000E+00 -0.00000000000E+00 -0.14265533722E+03  0.14265533722E+03  0.00000000000E+00 0.  1.
         23    2    1    2    0    0  0.50678695026E+02 -0.78703949863E+01 -0.78920555359E+01  0.10549845523E+03  0.91855137411E+02 0.  0.
        -24    2    1    2    0    0  0.10734343059E+03  0.91546259073E+01  0.88171256891E+02  0.16111902847E+03  0.81109503301E+02 0.  0.
         13    1    4    4    0    0  0.78040971040E+02  0.15572891369E+02  0.10092320220E+03  0.12852393104E+03  0.00000000000E+00 0. -1.
        -14    1    4    4    0    0  0.29302459553E+02 -0.64182654613E+01 -0.12751945310E+02  0.32595097431E+02  0.00000000000E+00 0.  1.
        -13    1    3    3    0    0  0.69815348023E+02  0.34641584239E+00  0.18165683461E+02  0.72140798992E+02  0.00000000000E+00 0.  1.
         13    1    3    3    0    0 -0.19136652997E+02 -0.82168108287E+01 -0.26057738997E+02  0.33357656239E+02  0.00000000000E+00 0. -1.
         -1    1    1    2    0  502 -0.15802212562E+03 -0.12842309210E+01  0.76673437483E+02  0.17564582958E+03  0.00000000000E+00 0.  1.
<scales pt_clust_5="13000.00000" pt_clust_6="13000.00000" pt_clust_7="13000.00000" pt_clust_8="13000.00000" pt_clust_9="13000.00000"></scales>
<clustering>
<clus scale="   81.110">  5  6 -1 -1</clus>
<clus scale="   91.855">  7  8 -1 -1</clus>
<clus scale="  105.203">  1  7  2 -1</clus>
<clus scale="  132.634">  5  9 -1 -1</clus>
<clus scale="  293.661">  2  5  1 -1</clus>
</clustering>
</event>
<event>
 9    1  0.2728138E-005  0.4312131E+03  0.7546771E-02  0.1060106E+00
          1   -1    0    0  502    0 -0.00000000000E+00  0.00000000000E+00  0.11424439937E+04  0.11424439937E+04  0.00000000000E+00 0. -1.
         21   -1    0    0  501  502  0.00000000000E+00 -0.00000000000E+00 -0.14664479435E+03  0.14664479435E+03  0.00000000000E+00 0. -1.
         23    2    1    2    0    0 -0.63779797954E+02 -0.16597311131E+03  0.78282373543E+03  0.80814881447E+03  0.93148103917E+02 0.  0.
        -24    2    1    2    0    0  0.27529552170E+02 -0.24958227932E+02  0.26560069932E+03  0.27959879038E+03  0.79063030056E+02 0.  0.
         11    1    4    4    0    0  0.11018421649E+02 -0.18193674176E+02  0.10224339116E+02  0.23599841228E+02  0.00000000000E+00 0. -1.
        -12    1    4    4    0    0  0.16511130521E+02 -0.67645537565E+01  0.25537636020E+03  0.25599894915E+03  0.00000000000E+00 0.  1.
        -11    1    3    3    0    0 -0.73956584622E+02 -0.14264301899E+03  0.74771754783E+03  0.76478633527E+03  0.00000000000E+00 0. -1.
         11    1    3    3    0    0  0.10176786668E+02 -0.23330092322E+02  0.35106187605E+02  0.43362479205E+02  0.00000000000E+00 0.  1.
          2    1    1    2  501    0  0.36250245784E+02  0.19093133925E+03 -0.52625235447E+02  0.20134118315E+03  0.00000000000E+00 0. -1.
<scales pt_clust_5="13000.00000" pt_clust_6="13000.00000" pt_clust_7="13000.00000" pt_clust_8="13000.00000" pt_clust_9="13000.00000"></scales>
<clustering>
<clus scale="   79.063">  5  6 -1 -1</clus>
<clus scale="   93.148">  7  8 -1 -1</clus>
<clus scale="  194.342">  5  9 -1 -1</clus>
<clus scale="  200.727">  1  7  2 -1</clus>
<clus scale="  431.213">  2  5  1 -1</clus>
</clustering>
</event>
<event>
 9    1  0.2728138E-005  0.4036027E+03  0.7546771E-02  0.1092517E+00
         21   -1    0    0  501  502  0.00000000000E+00  0.00000000000E+00  0.95135572680E+03  0.95135572680E+03  0.00000000000E+00 0. -1.
          1   -1    0    0  502    0 -0.00000000000E+00 -0.00000000000E+00 -0.84370835446E+02  0.84370835446E+02  0.00000000000E+00 0. -1.
         23    2    1    2    0    0 -0.33528019192E+02  0.21307140080E+02  0.29078562192E+02  0.10568238709E+03  0.93515142480E+02 0.  0.
        -24    2    1    2    0    0  0.70819598132E+02 -0.19369632561E+03  0.38209394807E+03  0.44129718549E+03  0.78827271525E+02 0.  0.
         11    1    4    4    0    0  0.36175160789E+02 -0.17916753840E+03  0.32691078786E+03  0.37454013442E+03  0.00000000000E+00 0. -1.
        -12    1    4    4    0    0  0.34644437342E+02 -0.14528787211E+02  0.55183160218E+02  0.66757051075E+02  0.00000000000E+00 0.  1.
        -11    1    3    3    0    0 -0.40972781395E+02 -0.27409958382E+02  0.27338468790E+02  0.56369020832E+02  0.00000000000E+00 0.  1.
         11    1    3    3    0    0  0.74447622026E+01  0.48717098463E+02  0.17400934019E+01  0.49313366260E+02  0.00000000000E+00 0. -1.
          2    1    1    2  501    0 -0.37291578939E+02  0.17238918553E+03  0.45581238108E+03  0.48874698966E+03  0.00000000000E+00 0. -1.
<scales pt_clust_5="13000.00000" pt_clust_6="13000.00000" pt_clust_7="13000.00000" pt_clust_8="13000.00000" pt_clust_9="13000.00000"></scales>
<clustering>
<clus scale="   78.827">  5  6 -1 -1</clus>
<clus scale="   93.515">  7  8 -1 -1</clus>
<clus scale="  101.603">  2  7  1 -1</clus>
<clus scale="  186.628">  5  9 -1 -1</clus>
<clus scale="  403.603">  1  5  2 -1</clus>
</clustering>
</event>
<event>
 9    1  0.2728138E-005  0.3726863E+03  0.7546771E-02  0.1103392E+00
         21   -1    0    0  501  502  0.00000000000E+00  0.00000000000E+00  0.29431392070E+03  0.29431392070E+03  0.00000000000E+00 0. -1.
          1   -1    0    0  502    0 -0.00000000000E+00 -0.00000000000E+00 -0.18995759840E+03  0.18995759840E+03  0.00000000000E+00 0. -1.
         23    2    1    2    0    0 -0.25285487140E+02  0.34009198504E+02 -0.14275096821E+00  0.97211919760E+02  0.87488030741E+02 0.  0.
        -24    2    1    2    0    0  0.94502657436E+02  0.93873639660E+02  0.16693800543E+03  0.22880772033E+03  0.82107628993E+02 0.  0.
         11    1    4    4    0    0  0.99283488610E+02  0.63545964383E+02  0.15742193872E+03  0.19666460660E+03  0.00000000000E+00 0. -1.
        -12    1    4    4    0    0 -0.47808311736E+01  0.30327675277E+02  0.95160667149E+01  0.32143113728E+02  0.00000000000E+00 0.  1.
        -11    1    3    3    0    0 -0.47463045628E+02  0.33519615099E+01 -0.23164807899E+02  0.52920550557E+02  0.00000000000E+00 0. -1.
         11    1    3    3    0    0  0.22177558488E+02  0.30657236994E+02  0.23022056931E+02  0.44291369203E+02  0.00000000000E+00 0.  1.
          2    1    1    2  501    0 -0.69217170296E+02 -0.12788283816E+03 -0.62438932159E+02  0.15825187901E+03  0.00000000000E+00 0. -1.
<scales pt_clust_5="13000.00000" pt_clust_6="13000.00000" pt_clust_7="13000.00000" pt_clust_8="13000.00000" pt_clust_9="13000.00000"></scales>
<clustering>
<clus scale="   82.108">  5  6 -1 -1</clus>
<clus scale="   87.488">  7  8 -1 -1</clus>
<clus scale="   97.212">  2  7  1 -1</clus>
<clus scale="  134.836">  5  9 -1 -1</clus>
<clus scale="  372.686">  1  5  2 -1</clus>
</clustering>
</event>
<event>
 9    1  0.2728138E-005  0.4950544E+03  0.7546771E-02  0.1053886E+00
          1   -1    0    0  502    0 -0.00000000000E+00  0.00000000000E+00  0.38174519103E+03  0.38174519103E+03  0.00000000000E+00 0. -1.
         21   -1    0    0  501  502  0.00000000000E+00 -0.00000000000E+00 -0.11951470575E+04  0.11951470575E+04  0.00000000000E+00 0. -1.
         23    2    1    2    0    0 -0.60069450210E+01 -0.12944912570E+03  0.31071330836E+03  0.34859512455E+03  0.90457953411E+02 0.  0.
        -24    2    1    2    0    0  0.19566045081E+03  0.19566519462E+03 -0.57121921183E+03  0.64003955631E+03  0.82409740173E+02 0.  0.
         11    1    4    4    0    0  0.20295793431E+03  0.19023576647E+03 -0.56206278443E+03  0.62713327418E+03  0.00000000000E+00 0. -1.
        -12    1    4    4    0    0 -0.72974835052E+01  0.54294281452E+01 -0.91564274051E+01  0.12906282126E+02  0.00000000000E+00 0.  1.
        -11    1    3    3    0    0  0.37751310355E+02 -0.73543556998E+02  0.20713406886E+03  0.22302093779E+03  0.00000000000E+00 0.  1.
         11    1    3    3    0    0 -0.43758255376E+02 -0.55905568706E+02  0.10357923949E+03  0.12557418676E+03  0.00000000000E+00 0. -1.
          2    1    1    2  501    0 -0.18965350579E+03 -0.66216068914E+02 -0.55289596302E+03  0.58825756770E+03  0.00000000000E+00 0. -1.
<scales pt_clust_5="13000.00000" pt_clust_6="13000.00000" pt_clust_7="13000.00000" pt_clust_8="13000.00000" pt_clust_9="13000.00000"></scales>
<clustering>
<clus scale="   82.410">  5  6 -1 -1</clus>
<clus scale="   90.458">  7  8 -1 -1</clus>
<clus scale="  158.037">  1  7  2 -1</clus>
<clus scale="  221.088">  5  9 -1 -1</clus>
<clus scale="  495.054">  2  5  1 -1</clus>
</clustering>
</event>
<event>
 9    1  0.2728138E-005  0.2912605E+03  0.7546771E-02  0.1133647E+00
         -2   -1    0    0    0  501 -0.00000000000E+00  0.00000000000E+00  0.23019467143E+03  0.23019467143E+03  0.00000000000E+00 0.  1.
         21   -1    0    0  501  502  0.00000000000E+00 -0.00000000000E+00 -0.18762345457E+03  0.18762345457E+03  0.00000000000E+00 0.  1.
         23    2    1    2    0    0 -0.13334604984E+02  0.16590732627E+02 -0.55692878443E+02  0.11042831569E+03  0.92949728871E+02 0.  0.
        -24    2    1    2    0    0 -0.75171119292E+02 -0.15760199863E+02 -0.59407956225E+02  0.12657380203E+03  0.81194464235E+02 0.  0.
         11    1    4    4    0    0 -0.35926190784E+02  0.10281036183E+02  0.13537076851E+02  0.39744727184E+02  0.00000000000E+00 0. -1.
        -12    1    4    4    0    0 -0.39244928508E+02 -0.26041236046E+02 -0.72945033076E+02  0.86829074847E+02  0.00000000000E+00 0.  1.
        -11    1    3    3    0    0 -0.41252331664E+02  0.27595895300E+02 -0.62348246695E+02  0.79690602777E+02  0.00000000000E+00 0.  1.
         11    1    3    3    0    0  0.27917726680E+02 -0.11005162673E+02  0.66553682512E+01  0.30737712911E+02  0.00000000000E+00 0. -1.
         -1    1    1    2    0  502  0.88505724276E+02 -0.83053276407E+00  0.15767205154E+03  0.18081600828E+03  0.00000000000E+00 0.  1.
<scales pt_clust_5="13000.00000" pt_clust_6="13000.00000" pt_clust_7="13000.00000" pt_clust_8="13000.00000" pt_clust_9="13000.00000"></scales>
<clustering>
<clus scale="   81.194">  5  6 -1 -1</clus>
<clus scale="   88.510">  5  9 -1 -1</clus>
<clus scale="   92.950">  7  8 -1 -1</clus>
<clus scale="   95.356">  1  7  2 -1</clus>
<clus scale="  291.260">  2  5  1 -1</clus>
</clustering>
</event>
<event>
 9    1  0.2728138E-005  0.1036469E+04  0.7546771E-02  0.9877730E-01
          1   -1    0    0  502    0 -0.00000000000E+00  0.00000000000E+00  0.57154665431E+03  0.57154665431E+03  0.00000000000E+00 0. -1.
         21   -1    0    0  501  502  0.00000000000E+00 -0.00000000000E+00 -0.71767015349E+03  0.71767015349E+03  0.00000000000E+00 0. -1.
         23    2    1    2    0    0 -0.89203290269E+02 -0.12248589619E+02  0.16378287213E+03  0.20740850685E+03  0.89923326045E+02 0.  0.
        -24    2    1    2    0    0 -0.21933542832E+03 -0.38193616866E+03  0.64961950486E+02  0.45642519979E+03  0.10060139633E+03 0.  0.
         13    1    4    4    0    0 -0.20380791720E+03 -0.29451465492E+03  0.24917071338E+02  0.35902285375E+03  0.00000000000E+00 0. -1.
        -14    1    4    4    0    0 -0.15527511121E+02 -0.87421513744E+02  0.40044879148E+02  0.97402346034E+02  0.00000000000E+00 0.  1.
        -11    1    3    3    0    0 -0.62624233498E+02  0.35858512096E+02  0.88336386284E+02  0.11406552789E+03  0.00000000000E+00 0.  1.
         11    1    3    3    0    0 -0.26579056771E+02 -0.48107101715E+02  0.75446485847E+02  0.93342978959E+02  0.00000000000E+00 0. -1.
          2    1    1    2  501    0  0.30853871859E+03  0.39418475828E+03 -0.37486832180E+03  0.62538310116E+03  0.00000000000E+00 0. -1.
<scales pt_clust_5="13000.00000" pt_clust_6="13000.00000" pt_clust_7="13000.00000" pt_clust_8="13000.00000" pt_clust_9="13000.00000"></scales>
<clustering>
<clus scale="   89.923">  7  8 -1 -1</clus>
<clus scale="  100.601">  5  6 -1 -1</clus>
<clus scale="  127.254">  1  7  2 -1</clus>
<clus scale="  480.035">  5  9 -1 -1</clus>
<clus scale=" 1036.469">  2  5  1 -1</clus>
</clustering>
</event>
<event>
 9    1  0.2728138E-005  0.2186631E+03  0.7546771E-02  0.1141563E+00
         21   -1    0    0  501  502  0.00000000000E+00  0.00000000000E+00  0.18755969982E+03  0.18755969982E+03  0.00000000000E+00 0. -1.
          1   -1    0    0  502    0 -0.00000000000E+00 -0.00000000000E+00 -0.51033202147E+03  0.51033202147E+03  0.00000000000E+00 0. -1.
         23    2    1    2    0    0 -0.11993786517E+03  0.10998249101E+03 -0.41941733622E+03  0.45882312203E+03  0.90147188300E+02 0.  0.
        -24    2    1    2    0    0  0.50779404765E+02 -0.15909302212E+02  0.94234758677E+02  0.12228475264E+03  0.56936079429E+02 0.  0.
         11    1    4    4    0    0  0.33383840727E+02 -0.10345161981E+02  0.97639624094E+02  0.10370631317E+03  0.00000000000E+00 0. -1.
        -12    1    4    4    0    0  0.17395564037E+02 -0.55641402306E+01 -0.34048654177E+01  0.18578439472E+02  0.00000000000E+00 0.  1.
        -13    1    3    3    0    0 -0.61806778473E+02  0.75894772385E+02 -0.13634069606E+03  0.16783587144E+03  0.00000000000E+00 0. -1.
         13    1    3    3    0    0 -0.58131086693E+02  0.34087718630E+02 -0.28307664015E+03  0.29098725058E+03  0.00000000000E+00 0.  1.
          2    1    1    2  501    0  0.69158460402E+02 -0.94073188803E+02  0.24102558852E+01  0.11678384661E+03  0.00000000000E+00 0. -1.
<scales pt_clust_5="13000.00000" pt_clust_6="13000.00000" pt_clust_7="13000.00000" pt_clust_8="13000.00000" pt_clust_9="13000.00000"></scales>
<clustering>
<clus scale="   56.936">  5  6 -1 -1</clus>
<clus scale="   90.147">  7  8 -1 -1</clus>
<clus scale="  116.759">  5  9 -1 -1</clus>
<clus scale="  186.032">  2  7  1 -1</clus>
<clus scale="  218.663">  1  5  2 -1</clus>
</clustering>
</event>
<event>
 9    1  0.2728138E-005  0.1943394E+03  0.7546771E-02  0.1183181E+00
         21   -1    0    0  501  502  0.00000000000E+00  0.00000000000E+00  0.36029420636E+02  0.36029420636E+02  0.00000000000E+00 0. -1.
          1   -1    0    0  502    0 -0.00000000000E+00 -0.00000000000E+00 -0.85799022280E+03  0.85799022280E+03  0.00000000000E+00 0. -1.
         23    2    1    2    0    0 -0.38881896937E+02  0.10106161833E+02 -0.85316666776E+02  0.13217164304E+03  0.92609249954E+02 0.  0.
        -24    2    1    2    0    0  0.10158033325E+03 -0.56420292285E+00 -0.48818671484E+03  0.50542406875E+03  0.82512655384E+02 0.  0.
         13    1    4    4    0    0  0.11519498356E+03  0.30827108844E+01 -0.45504854662E+03  0.46941300273E+03  0.00000000000E+00 0. -1.
        -14    1    4    4    0    0 -0.13614650314E+02 -0.36469138073E+01 -0.33138168214E+02  0.36011066022E+02  0.00000000000E+00 0.  1.
        -11    1    3    3    0    0 -0.17657082292E+02  0.17097138846E+02 -0.10159437108E+03  0.10452512113E+03  0.00000000000E+00 0.  1.
         11    1    3    3    0    0 -0.21224814646E+02 -0.69909770126E+01  0.16277704303E+02  0.27646521910E+02  0.00000000000E+00 0. -1.
          2    1    1    2  501    0 -0.62698436312E+02 -0.95419589106E+01 -0.24845742055E+03  0.25642393165E+03  0.00000000000E+00 0. -1.
<scales pt_clust_5="13000.00000" pt_clust_6="13000.00000" pt_clust_7="13000.00000" pt_clust_8="13000.00000" pt_clust_9="13000.00000"></scales>
<clustering>
<clus scale="   82.513">  5  6 -1 -1</clus>
<clus scale="   63.420">  5  9 -1 -1</clus>
<clus scale="   92.609">  7  8 -1 -1</clus>
<clus scale="  100.948">  2  7  1 -1</clus>
<clus scale="  194.339">  1  5  2 -1</clus>
</clustering>
</event>
<event>
 9    1  0.2728138E-005  0.2363569E+03  0.7546771E-02  0.1159528E+00
          1   -1    0    0  502    0 -0.00000000000E+00  0.00000000000E+00  0.26261049536E+03  0.26261049536E+03  0.00000000000E+00 0. -1.
         21   -1    0    0  501  502  0.00000000000E+00 -0.00000000000E+00 -0.10901040934E+03  0.10901040934E+03  0.00000000000E+00 0.  1.
         23    2    1    2    0    0 -0.42051266244E+01 -0.31828517314E+02  0.76628783351E+02  0.12304663181E+03  0.90762137244E+02 0.  0.
        -24    2    1    2    0    0 -0.78987250586E+02  0.36052994402E+02 -0.21007434169E+02  0.11997158744E+03  0.80081616758E+02 0.  0.
         11    1    4    4    0    0 -0.26558957127E+02  0.13278888932E+02  0.30831427382E+02  0.42805186711E+02  0.00000000000E+00 0. -1.
        -12    1    4    4    0    0 -0.52428293459E+02  0.22774105470E+02 -0.51838861550E+02  0.77166400731E+02  0.00000000000E+00 0.  1.
        -11    1    3    3    0    0 -0.72515838647E+01 -0.62272177355E+02  0.65022502535E+02  0.90323504012E+02  0.00000000000E+00 0.  1.
         11    1    3    3    0    0  0.30464572403E+01  0.30443660041E+02  0.11606280816E+02  0.32723127796E+02  0.00000000000E+00 0. -1.
          2    1    1    2  501    0  0.83192377211E+02 -0.42244770874E+01  0.97978736842E+02  0.12860268545E+03  0.00000000000E+00 0. -1.
<scales pt_clust_5="13000.00000" pt_clust_6="13000.00000" pt_clust_7="13000.00000" pt_clust_8="13000.00000" pt_clust_9="13000.00000"></scales>
<clustering>
<clus scale="   80.082">  5  6 -1 -1</clus>
<clus scale="   83.300">  5  9 -1 -1</clus>
<clus scale="   90.762">  7  8 -1 -1</clus>
<clus scale="   96.273">  1  7  2 -1</clus>
<clus scale="  236.357">  2  5  1 -1</clus>
</clustering>
</event>
<event>
 9    1  0.2728138E-005  0.3356833E+03  0.7546771E-02  0.1113947E+00
         -2   -1    0    0    0  501 -0.00000000000E+00  0.00000000000E+00  0.43477675681E+03  0.43477675681E+03  0.00000000000E+00 0.  1.
         21   -1    0    0  501  502  0.00000000000E+00 -0.00000000000E+00 -0.11099461014E+03  0.11099461014E+03  0.00000000000E+00 0.  1.
         23    2    1    2    0    0  0.31937614548E+02  0.28048372710E+02  0.98416415994E+02  0.14145339368E+03  0.92285151640E+02 0.  0.
        -24    2    1    2    0    0 -0.14643173917E+02 -0.16750215398E+03  0.98006681299E+02  0.21466887032E+03  0.90587086145E+02 0.  0.
         11    1    4    4    0    0 -0.26868248766E+02 -0.50493880309E+02  0.75779373200E+02  0.94942341150E+02  0.00000000000E+00 0. -1.
        -12    1    4    4    0    0  0.12225074849E+02 -0.11700827367E+03  0.22227308099E+02  0.11972652917E+03  0.00000000000E+00 0.  1.
        -11    1    3    3    0    0 -0.26237688724E+02  0.34015255683E+02  0.45675681286E+02  0.62703443205E+02  0.00000000000E+00 0.  1.
         11    1    3    3    0    0  0.58175303272E+02 -0.59668829729E+01  0.52740734707E+02  0.78749950480E+02  0.00000000000E+00 0. -1.
         -1    1    1    2    0  502 -0.17294440630E+02  0.13945378127E+03  0.12735904938E+03  0.18964910294E+03  0.00000000000E+00 0.  1.
<scales pt_clust_5="13000.00000" pt_clust_6="13000.00000" pt_clust_7="13000.00000" pt_clust_8="13000.00000" pt_clust_9="13000.00000"></scales>
<clustering>
<clus scale="   90.587">  5  6 -1 -1</clus>
<clus scale="   92.285">  7  8 -1 -1</clus>
<clus scale="  101.604">  1  7  2 -1</clus>
<clus scale="  153.579">  5  9 -1 -1</clus>
<clus scale="  335.683">  2  5  1 -1</clus>
</clustering>
</event>
<event>
 9    1  0.2728138E-005  0.2343932E+03  0.7546771E-02  0.1129930E+00
          1   -1    0    0  502    0 -0.00000000000E+00  0.00000000000E+00  0.64691838377E+03  0.64691838377E+03  0.00000000000E+00 0. -1.
         21   -1    0    0  501  502  0.00000000000E+00 -0.00000000000E+00 -0.79410427099E+02  0.79410427099E+02  0.00000000000E+00 0. -1.
         23    2    1    2    0    0 -0.10524244616E+03  0.14197074133E+03  0.36580563214E+03  0.41709753556E+03  0.94471846593E+02 0.  0.
        -24    2    1    2    0    0  0.11126885450E+03 -0.80100420164E+02  0.88382951930E+02  0.17998138384E+03  0.76058642147E+02 0.  0.
         13    1    4    4    0    0  0.12147244384E+03 -0.75853815607E+02  0.72191563289E+02  0.16037760992E+03  0.00000000000E+00 0. -1.
        -14    1    4    4    0    0 -0.10203589341E+02 -0.42466045569E+01  0.16191388640E+02  0.19603773917E+02  0.00000000000E+00 0.  1.
        -13    1    3    3    0    0  0.14187888799E+02  0.25421183059E+02  0.91499879906E+02  0.96019585291E+02  0.00000000000E+00 0.  1.
         13    1    3    3    0    0 -0.11943033495E+03  0.11654955827E+03  0.27430575223E+03  0.32107795027E+03  0.00000000000E+00 0. -1.
          2    1    1    2  501    0 -0.60264083423E+01 -0.61870321162E+02  0.11331937260E+03  0.12924989147E+03  0.00000000000E+00 0. -1.
<scales pt_clust_5="13000.00000" pt_clust_6="13000.00000" pt_clust_7="13000.00000" pt_clust_8="13000.00000" pt_clust_9="13000.00000"></scales>
<clustering>
<clus scale="   76.059">  5  6 -1 -1</clus>
<clus scale="   62.163">  5  9 -1 -1</clus>
<clus scale="   94.472">  7  8 -1 -1</clus>
<clus scale="  200.391">  1  7  2 -1</clus>
<clus scale="  234.393">  2  5  1 -1</clus>
</clustering>
</event>
<event>
 9    1  0.2728138E-005  0.2038988E+03  0.7546771E-02  0.1157280E+00
          1   -1    0    0  502    0 -0.00000000000E+00  0.00000000000E+00  0.60559493577E+03  0.60559493577E+03  0.00000000000E+00 0. -1.
         21   -1    0    0  501  502  0.00000000000E+00 -0.00000000000E+00 -0.50740856859E+03  0.50740856859E+03  0.00000000000E+00 0. -1.
         23    2    1    2    0    0 -0.19451410206E+02  0.12904256646E+03  0.57399138140E+03  0.59535002326E+03  0.89135867955E+02 0.  0.
        -24    2    1    2    0    0 -0.40185811358E+00 -0.69346516000E+02 -0.13963646116E+03  0.17564899756E+03  0.80901967125E+02 0.  0.
         13    1    4    4    0    0 -0.33209048428E+02 -0.42938947218E+01 -0.49237974144E+02  0.59545415669E+02  0.00000000000E+00 0. -1.
        -14    1    4    4    0    0  0.32807190315E+02 -0.65052621278E+02 -0.90398487019E+02  0.11610358189E+03  0.00000000000E+00 0.  1.
        -13    1    3    3    0    0 -0.23477081638E+02 -0.29163391659E+01  0.55849079586E+02  0.60653096268E+02  0.00000000000E+00 0.  1.
         13    1    3    3    0    0  0.40256714317E+01  0.13195890563E+03  0.51814230181E+03  0.53469692699E+03  0.00000000000E+00 0. -1.
          2    1    1    2  501    0  0.19853268320E+02 -0.59696050460E+02 -0.33616855306E+03  0.34200448355E+03  0.00000000000E+00 0. -1.
<scales pt_clust_5="13000.00000" pt_clust_6="13000.00000" pt_clust_7="13000.00000" pt_clust_8="13000.00000" pt_clust_9="13000.00000"></scales>
<clustering>
<clus scale="   80.902">  5  6 -1 -1</clus>
<clus scale="   62.911">  5  9 -1 -1</clus>
<clus scale="   89.136">  7  8 -1 -1</clus>
<clus scale="  158.037">  1  7  2 -1</clus>
<clus scale="  203.899">  2  5  1 -1</clus>
</clustering>
</event>
<event>
 9    1  0.2728138E-005  0.1987554E+03  0.7546771E-02  0.1184429E+00
         21   -1    0    0  501  502  0.00000000000E+00  0.00000000000E+00  0.22491260536E+03  0.22491260536E+03  0.00000000000E+00 0.  1.
         -4   -1    0    0    0  501 -0.00000000000E+00 -0.00000000000E+00 -0.13034848437E+03  0.13034848437E+03  0.00000000000E+00 0.  1.
         23    2    1    2    0    0 -0.12105497888E+02 -0.32340592483E+01  0.12407470244E+03  0.15432678385E+03  0.90913267505E+02 0.  0.
        -24    2    1    2    0    0 -0.35315534183E+02 -0.22404710416E+02  0.49627391305E+02  0.10517983067E+03  0.82769322870E+02 0.  0.
         11    1    4    4    0    0  0.24604274917E+02 -0.13905885799E+02  0.30794624318E+02  0.41797761794E+02  0.00000000000E+00 0. -1.
        -12    1    4    4    0    0 -0.59919809101E+02 -0.84988246162E+01  0.18832766986E+02  0.63382068875E+02  0.00000000000E+00 0.  1.
        -11    1    3    3    0    0 -0.30599386691E+02 -0.35211089935E+02  0.99688836124E+02  0.11006365144E+03  0.00000000000E+00 0.  1.
         11    1    3    3    0    0  0.18493888803E+02  0.31977030686E+02  0.24385866316E+02  0.44263132408E+02  0.00000000000E+00 0. -1.
         -3    1    1    2    0  502  0.47421032071E+02  0.25638769664E+02 -0.79137972757E+02  0.95754475220E+02  0.00000000000E+00 0.  1.
<scales pt_clust_5="13000.00000" pt_clust_6="13000.00000" pt_clust_7="13000.00000" pt_clust_8="13000.00000" pt_clust_9="13000.00000"></scales>
<clustering>
<clus scale="   82.769">  5  6 -1 -1</clus>
<clus scale="   53.908">  5  9 -1 -1</clus>
<clus scale="   90.913">  7  8 -1 -1</clus>
<clus scale="   91.773">  2  7  1 -1</clus>
<clus scale="  198.755">  1  5  2 -1</clus>
</clustering>
</event>
<event>
 9    1  0.2728138E-005  0.1073394E+04  0.7546771E-02  0.9894418E-01
          1   -1    0    0  502    0 -0.00000000000E+00  0.00000000000E+00  0.86201767368E+03  0.86201767368E+03  0.00000000000E+00 0. -1.
         21   -1    0    0  501  502  0.00000000000E+00 -0.00000000000E+00 -0.42593052940E+03  0.42593052940E+03  0.00000000000E+00 0. -1.
         23    2    1    2    0    0 -0.54677940873E+02  0.88360626213E+01 -0.37316009271E+02  0.11479674766E+03  0.93370528036E+02 0.  0.
        -24    2    1    2    0    0 -0.26506689439E+03  0.35567893701E+03  0.51756504836E+03  0.68626520835E+03  0.79488314680E+02 0.  0.
         11    1    4    4    0    0 -0.64892844728E+02  0.12468917571E+03  0.20956788217E+03  0.25234335552E+03  0.00000000000E+00 0. -1.
        -12    1    4    4    0    0 -0.20017404966E+03  0.23098976130E+03  0.30799716619E+03  0.43392185283E+03  0.00000000000E+00 0.  1.
        -13    1    3    3    0    0 -0.80615220208E+02  0.12765040561E+02 -0.22479260051E+02  0.84658591544E+02  0.00000000000E+00 0. -1.
         13    1    3    3    0    0  0.25937279335E+02 -0.39289779398E+01 -0.14836749221E+02  0.30138156121E+02  0.00000000000E+00 0.  1.
          2    1    1    2  501    0  0.31974483526E+03 -0.36451499964E+03 -0.44161894810E+02  0.48688624707E+03  0.00000000000E+00 0. -1.
<scales pt_clust_5="13000.00000" pt_clust_6="13000.00000" pt_clust_7="13000.00000" pt_clust_8="13000.00000" pt_clust_9="13000.00000"></scales>
<clustering>
<clus scale="   79.488">  5  6 -1 -1</clus>
<clus scale="   93.371">  7  8 -1 -1</clus>
<clus scale="  108.563">  1  7  2 -1</clus>
<clus scale="  473.494">  5  9 -1 -1</clus>
<clus scale=" 1073.394">  2  5  1 -1</clus>
</clustering>
</event>
<event>
 9    1  0.2728138E-005  0.4228874E+03  0.7546771E-02  0.1083974E+00
         21   -1    0    0  501  502  0.00000000000E+00  0.00000000000E+00  0.61396591132E+02  0.61396591132E+02  0.00000000000E+00 0. -1.
          1   -1    0    0  502    0 -0.00000000000E+00 -0.00000000000E+00 -0.11598721495E+04  0.11598721495E+04  0.00000000000E+00 0. -1.
         23    2    1    2    0    0  0.60452722063E+02  0.10456385966E+01 -0.23372465043E+03  0.25865361882E+03  0.92837801282E+02 0.  0.
        -24    2    1    2    0    0 -0.11724836102E+03  0.16852764058E+03 -0.31721263929E+03  0.38661252004E+03  0.81832990414E+02 0.  0.
         11    1    4    4    0    0 -0.11933759531E+02  0.86357397855E+02 -0.13439959669E+03  0.16019758541E+03  0.00000000000E+00 0. -1.
        -12    1    4    4    0    0 -0.10531460149E+03  0.82170242729E+02 -0.18281304261E+03  0.22641493463E+03  0.00000000000E+00 0.  1.
        -13    1    3    3    0    0 -0.20011559020E+02  0.13308762153E+02 -0.25277223104E+02  0.34878699120E+02  0.00000000000E+00 0.  1.
         13    1    3    3    0    0  0.80464281083E+02 -0.12263123557E+02 -0.20844742733E+03  0.22377491970E+03  0.00000000000E+00 0. -1.
          2    1    1    2  501    0  0.56795638955E+02 -0.16957327918E+03 -0.54753826864E+03  0.57600260177E+03  0.00000000000E+00 0. -1.
<scales pt_clust_5="13000.00000" pt_clust_6="13000.00000" pt_clust_7="13000.00000" pt_clust_8="13000.00000" pt_clust_9="13000.00000"></scales>
<clustering>
<clus scale="   81.833">  5  6 -1 -1</clus>
<clus scale="   92.838">  7  8 -1 -1</clus>
<clus scale="  110.790">  2  7  1 -1</clus>
<clus scale="  193.305">  5  9 -1 -1</clus>
<clus scale="  422.887">  1  5  2 -1</clus>
</clustering>
</event>
<event>
 9    1  0.2728138E-005  0.1744373E+03  0.7546771E-02  0.1179549E+00
          1   -1    0    0  502    0 -0.00000000000E+00  0.00000000000E+00  0.72829231452E+03  0.72829231452E+03  0.00000000000E+00 0. -1.
         21   -1    0    0  501  502  0.00000000000E+00 -0.00000000000E+00 -0.41942541651E+02  0.41942541651E+02  0.00000000000E+00 0. -1.
         23    2    1    2    0    0  0.61559183620E+02  0.10363263827E+03  0.18310507445E+03  0.23761528425E+03  0.91674959583E+02 0.  0.
        -24    2    1    2    0    0 -0.76248296209E+02 -0.89625183782E+02  0.48400029383E+03  0.50464948222E+03  0.81045291304E+02 0.  0.
         11    1    4    4    0    0 -0.82959226752E+02 -0.42324003009E+02  0.35739384480E+03  0.36932900621E+03  0.00000000000E+00 0. -1.
        -12    1    4    4    0    0  0.67109305423E+01 -0.47301180773E+02  0.12660644903E+03  0.13532047601E+03  0.00000000000E+00 0.  1.
        -11    1    3    3    0    0  0.76521318542E+02  0.43663789128E+02  0.12387151596E+03  0.15200720753E+03  0.00000000000E+00 0.  1.
         11    1    3    3    0    0 -0.14962134922E+02  0.59968849139E+02  0.59233558491E+02  0.85608076722E+02  0.00000000000E+00 0. -1.
          2    1    1    2  501    0  0.14689112589E+02 -0.14007454485E+02  0.19244404587E+02  0.27970089698E+02  0.00000000000E+00 0. -1.
<scales pt_clust_5="13000.00000" pt_clust_6="13000.00000" pt_clust_7="13000.00000" pt_clust_8="13000.00000" pt_clust_9="13000.00000"></scales>
<clustering>
<clus scale="   81.045">  5  6 -1 -1</clus>
<clus scale="   20.297">  5  9 -1 -1</clus>
<clus scale="   91.675">  7  8 -1 -1</clus>
<clus scale="  151.438">  1  7  2 -1</clus>
<clus scale="  174.437">  2  5  1 -1</clus>
</clustering>
</event>
<event>
 9    1  0.2728138E-005  0.1919749E+03  0.7546771E-02  0.1179966E+00
         -2   -1    0    0    0  501 -0.00000000000E+00  0.00000000000E+00  0.18011476698E+03  0.18011476698E+03  0.00000000000E+00 0.  1.
         21   -1    0    0  501  502  0.00000000000E+00 -0.00000000000E+00 -0.20862057570E+03  0.20862057570E+03  0.00000000000E+00 0. -1.
         23    2    1    2    0    0  0.60058615960E+02 -0.26925460888E+02 -0.12969735757E+03  0.17172357317E+03  0.91299305726E+02 0.  0.
        -24    2    1    2    0    0 -0.17693388926E+02 -0.48822701449E+02  0.38259762980E+02  0.10980633013E+03  0.88864551344E+02 0.  0.
         13    1    4    4    0    0 -0.19502041279E+01  0.24824207099E+02 -0.91188439656E+00  0.24917385244E+02  0.00000000000E+00 0. -1.
        -14    1    4    4    0    0 -0.15743184798E+02 -0.73646908548E+02  0.39171647377E+02  0.84888944890E+02  0.00000000000E+00 0.  1.
        -11    1    3    3    0    0 -0.15613286240E+02  0.14510843370E+02 -0.84825651224E+01  0.22941080915E+02  0.00000000000E+00 0.  1.
         11    1    3    3    0    0  0.75671902199E+02 -0.41436304257E+02 -0.12121479245E+03  0.14878249225E+03  0.00000000000E+00 0. -1.
         -1    1    1    2    0  502 -0.42365227034E+02  0.75748162337E+02  0.62931785868E+02  0.10720543938E+03  0.00000000000E+00 0.  1.
<scales pt_clust_5="13000.00000" pt_clust_6="13000.00000" pt_clust_7="13000.00000" pt_clust_8="13000.00000" pt_clust_9="13000.00000"></scales>
<clustering>
<clus scale="   88.865">  5  6 -1 -1</clus>
<clus scale="   86.791">  5  9 -1 -1</clus>
<clus scale="   91.299">  7  8 -1 -1</clus>
<clus scale="  112.550">  1  7  2 -1</clus>
<clus scale="  191.975">  2  5  1 -1</clus>
</clustering>
</event>
<event>
 9    1  0.2728138E-005  0.3452064E+03  0.7546771E-02  0.1114655E+00
         21   -1    0    0  501  502  0.00000000000E+00  0.00000000000E+00  0.50842480806E+02  0.50842480806E+02  0.00000000000E+00 0. -1.
          1   -1    0    0  502    0 -0.00000000000E+00 -0.00000000000E+00 -0.96071803902E+03  0.96071803902E+03  0.00000000000E+00 0. -1.
         23    2    1    2    0    0 -0.51127285164E+01 -0.27054879008E+02 -0.25949661660E+03  0.27524521958E+03  0.87540450101E+02 0.  0.
        -24    2    1    2    0    0 -0.13553477756E+03  0.82412538475E+02 -0.45915325857E+03  0.49256654993E+03  0.81477535724E+02 0.  0.
         13    1    4    4    0    0 -0.11897472448E+03  0.71596045373E+02 -0.28220804323E+03  0.31451924971E+03  0.00000000000E+00 0. -1.
        -14    1    4    4    0    0 -0.16560053075E+02  0.10816493102E+02 -0.17694521534E+03  0.17804730022E+03  0.00000000000E+00 0.  1.
        -11    1    3    3    0    0  0.18023017088E+02  0.21433246152E+02 -0.15744174757E+03  0.15991284208E+03  0.00000000000E+00 0.  1.
         11    1    3    3    0    0 -0.23135745605E+02 -0.48488125160E+02 -0.10205486903E+03  0.11533237750E+03  0.00000000000E+00 0. -1.
          2    1    1    2  501    0  0.14064750607E+03 -0.55357659467E+02 -0.19122568304E+03  0.24374875032E+03  0.00000000000E+00 0. -1.
<scales pt_clust_5="13000.00000" pt_clust_6="13000.00000" pt_clust_7="13000.00000" pt_clust_8="13000.00000" pt_clust_9="13000.00000"></scales>
<clustering>
<clus scale="   81.478">  5  6 -1 -1</clus>
<clus scale="   87.540">  7  8 -1 -1</clus>
<clus scale="   91.768">  2  7  1 -1</clus>
<clus scale="  153.001">  5  9 -1 -1</clus>
<clus scale="  345.206">  1  5  2 -1</clus>
</clustering>
</event>
<event>
 9    1  0.2728138E-005  0.2332222E+03  0.7546771E-02  0.1155385E+00
         21   -1    0    0  501  502  0.00000000000E+00  0.00000000000E+00  0.53499655018E+03  0.53499655018E+03  0.00000000000E+00 0. -1.
          1   -1    0    0  502    0 -0.00000000000E+00 -0.00000000000E+00 -0.62372623945E+02  0.62372623945E+02  0.00000000000E+00 0. -1.
         23    2    1    2    0    0 -0.44856874637E+02 -0.37986020137E+02  0.66044661992E+02  0.12864826615E+03  0.93452672928E+02 0.  0.
        -24    2    1    2    0    0 -0.68625717677E+02  0.99370304190E+00  0.25556208020E+03  0.27622955711E+03  0.79248437281E+02 0.  0.
         11    1    4    4    0    0 -0.45120333065E+02  0.19583086171E+02  0.23449411851E+03  0.23959723148E+03  0.00000000000E+00 0. -1.
        -12    1    4    4    0    0 -0.23505384612E+02 -0.18589383129E+02  0.21067961695E+02  0.36632325627E+02  0.00000000000E+00 0.  1.
        -13    1    3    3    0    0 -0.35596892372E+02 -0.67054174564E+02  0.30520705347E+02  0.81822457357E+02  0.00000000000E+00 0.  1.
         13    1    3    3    0    0 -0.92599822642E+01  0.29068154427E+02  0.35523956645E+02  0.46825808792E+02  0.00000000000E+00 0. -1.
          2    1    1    2  501    0  0.11348259231E+03  0.36992317095E+02  0.15101718404E+03  0.19249135086E+03  0.00000000000E+00 0. -1.
<scales pt_clust_5="13000.00000" pt_clust_6="13000.00000" pt_clust_7="13000.00000" pt_clust_8="13000.00000" pt_clust_9="13000.00000"></scales>
<clustering>
<clus scale="   79.248">  5  6 -1 -1</clus>
<clus scale="   93.453">  7  8 -1 -1</clus>
<clus scale="  110.401">  2  7  1 -1</clus>
<clus scale="   84.352">  5  9 -1 -1</clus>
<clus scale="  233.222">  1  5  2 -1</clus>
</clustering>
</event>
<event>
 9    1  0.2728138E-005  0.3160506E+03  0.7546771E-02  0.1101125E+00
          3   -1    0    0  502    0 -0.00000000000E+00  0.00000000000E+00  0.10387172636E+03  0.10387172636E+03  0.00000000000E+00 0. -1.
         21   -1    0    0  501  502  0.00000000000E+00 -0.00000000000E+00 -0.59657299950E+03  0.59657299950E+03  0.00000000000E+00 0. -1.
         23    2    1    2    0    0 -0.61068381789E+02  0.12666051817E+03 -0.10009101165E+03  0.19643006433E+03  0.93778064814E+02 0.  0.
        -24    2    1    2    0    0 -0.98798105073E+01  0.38235253015E+02 -0.20673411281E+02  0.91024005608E+02  0.79362676582E+02 0.  0.
         13    1    4    4    0    0  0.18251959282E+02  0.16870665141E+02  0.23675391996E+02  0.34326047633E+02  0.00000000000E+00 0. -1.
        -14    1    4    4    0    0 -0.28131769789E+02  0.21364587874E+02 -0.44348803277E+02  0.56697957975E+02  0.00000000000E+00 0.  1.
        -13    1    3    3    0    0 -0.15726121434E+02  0.39582403298E+02  0.14998000019E+02  0.45155481956E+02  0.00000000000E+00 0.  1.
         13    1    3    3    0    0 -0.45342260355E+02  0.87078114873E+02 -0.11508901167E+03  0.15127458237E+03  0.00000000000E+00 0. -1.
          4    1    1    2  501    0  0.70948192296E+02 -0.16489577119E+03 -0.37193685020E+03  0.41299065592E+03  0.00000000000E+00 0. -1.
<scales pt_clust_5="13000.00000" pt_clust_6="13000.00000" pt_clust_7="13000.00000" pt_clust_8="13000.00000" pt_clust_9="13000.00000"></scales>
<clustering>
<clus scale="   79.363">  5  6 -1 -1</clus>
<clus scale="   93.778">  7  8 -1 -1</clus>
<clus scale="  169.016">  1  7  2 -1</clus>
<clus scale="  127.761">  5  9 -1 -1</clus>
<clus scale="  316.051">  2  5  1 -1</clus>
</clustering>
</event>
<event>
 9    1  0.2728138E-005  0.1826788E+03  0.7546771E-02  0.1195501E+00
         21   -1    0    0  501  502  0.00000000000E+00  0.00000000000E+00  0.69353404823E+02  0.69353404823E+02  0.00000000000E+00 0. -1.
          1   -1    0    0  502    0 -0.00000000000E+00 -0.00000000000E+00 -0.31198500961E+03  0.31198500961E+03  0.00000000000E+00 0. -1.
         23    2    1    2    0    0 -0.39687709726E+01 -0.13474480153E+02 -0.15065946327E+03  0.17681353099E+03  0.91473701739E+02 0.  0.
        -24    2    1    2    0    0  0.44555876991E+01  0.75490128007E+02 -0.26263931796E+02  0.11417143086E+03  0.81404605659E+02 0.  0.
         13    1    4    4    0    0  0.16679941143E+02  0.90322476333E+02 -0.22859481825E+02  0.94651603667E+02  0.00000000000E+00 0. -1.
        -14    1    4    4    0    0 -0.12224353443E+02 -0.14832348326E+02 -0.34044499713E+01  0.19519827191E+02  0.00000000000E+00 0.  1.
        -13    1    3    3    0    0  0.17875409468E+01  0.39117857031E+02 -0.73098087133E+02  0.82926065769E+02  0.00000000000E+00 0.  1.
         13    1    3    3    0    0 -0.57563119195E+01 -0.52592337184E+02 -0.77561376139E+02  0.93887465223E+02  0.00000000000E+00 0. -1.
          2    1    1    2  501    0 -0.48681672642E+00 -0.62015647854E+02 -0.65708209718E+02  0.90353452582E+02  0.00000000000E+00 0. -1.
<scales pt_clust_5="13000.00000" pt_clust_6="13000.00000" pt_clust_7="13000.00000" pt_clust_8="13000.00000" pt_clust_9="13000.00000"></scales>
<clustering>
<clus scale="   81.405">  5  6 -1 -1</clus>
<clus scale="   62.018">  5  9 -1 -1</clus>
<clus scale="   91.474">  7  8 -1 -1</clus>
<clus scale="   92.546">  2  7  1 -1</clus>
<clus scale="  182.679">  1  5  2 -1</clus>
</clustering>
</event>
<event>
 9    1  0.2728138E-005  0.2561999E+03  0.7546771E-02  0.1150242E+00
         21   -1    0    0  501  502  0.00000000000E+00  0.00000000000E+00  0.34498398348E+03  0.34498398348E+03  0.00000000000E+00 0. -1.
         -4   -1    0    0    0  501 -0.00000000000E+00 -0.00000000000E+00 -0.90443909425E+02  0.90443909425E+02  0.00000000000E+00 0.  1.
         23    2    1    2    0    0  0.22370349021E+01  0.14492659158E+02  0.94762487834E+02  0.13348868685E+03  0.92866888185E+02 0.  0.
        -24    2    1    2    0    0 -0.21011423569E+02  0.42439336180E+02 -0.34670255529E+02  0.98460231900E+02  0.79055761786E+02 0.  0.
         11    1    4    4    0    0 -0.14455634232E+02  0.65904668721E+02 -0.29032473168E+02  0.73452537183E+02  0.00000000000E+00 0. -1.
        -12    1    4    4    0    0 -0.65557893375E+01 -0.23465332542E+02 -0.56377823617E+01  0.25007694717E+02  0.00000000000E+00 0.  1.
        -11    1    3    3    0    0  0.29582436844E+02  0.27680877964E+02  0.94838047293E+02  0.10312907829E+03  0.00000000000E+00 0. -1.
         11    1    3    3    0    0 -0.27345401942E+02 -0.13188218806E+02 -0.75559458202E-01  0.30359608559E+02  0.00000000000E+00 0.  1.
         -3    1    1    2    0  502  0.18774388667E+02 -0.56931995338E+02  0.19444784175E+03  0.20347897416E+03  0.00000000000E+00 0.  1.
<scales pt_clust_5="13000.00000" pt_clust_6="13000.00000" pt_clust_7="13000.00000" pt_clust_8="13000.00000" pt_clust_9="13000.00000"></scales>
<clustering>
<clus scale="   79.056">  5  6 -1 -1</clus>
<clus scale="   59.948">  5  9 -1 -1</clus>
<clus scale="   92.867">  7  8 -1 -1</clus>
<clus scale="   94.018">  2  7  1 -1</clus>
<clus scale="  256.200">  1  5  2 -1</clus>
</clustering>
</event>
<event>
 9    1  0.2728138E-005  0.3053777E+03  0.7546771E-02  0.1122618E+00
          1   -1    0    0  502    0 -0.00000000000E+00  0.00000000000E+00  0.11082246303E+04  0.11082246303E+04  0.00000000000E+00 0. -1.
         21   -1    0    0  501  502  0.00000000000E+00 -0.00000000000E+00 -0.50998258272E+02  0.50998258272E+02  0.00000000000E+00 0. -1.
         23    2    1    2    0    0  0.26197353767E+01  0.59710138966E+02  0.59769393800E+03  0.60747514986E+03  0.90641328713E+02 0.  0.
        -24    2    1    2    0    0  0.61152057048E+02 -0.13739805594E+03  0.15210921348E+03  0.22831105173E+03  0.79818065974E+02 0.  0.
         13    1    4    4    0    0  0.50130232785E+02 -0.71002612169E+02  0.35940616172E+02  0.94053915733E+02  0.00000000000E+00 0. -1.
        -14    1    4    4    0    0  0.11021824263E+02 -0.66395443775E+02  0.11616859731E+03  0.13425713599E+03  0.00000000000E+00 0.  1.
        -11    1    3    3    0    0  0.45686586371E+02  0.40898338569E+02  0.31742541640E+03  0.32329372597E+03  0.00000000000E+00 0. -1.
         11    1    3    3    0    0 -0.43066850995E+02  0.18811800397E+02  0.28026852160E+03  0.28418142390E+03  0.00000000000E+00 0.  1.
          2    1    1    2  501    0 -0.63771792424E+02  0.77687916978E+02  0.30742322050E+03  0.32343668694E+03  0.00000000000E+00 0. -1.
<scales pt_clust_5="13000.00000" pt_clust_6="13000.00000" pt_clust_7="13000.00000" pt_clust_8="13000.00000" pt_clust_9="13000.00000"></scales>
<clustering>
<clus scale="   79.818">  5  6 -1 -1</clus>
<clus scale="   90.641">  7  8 -1 -1</clus>
<clus scale="  100.510">  5  9 -1 -1</clus>
<clus scale="  108.573">  1  7  2 -1</clus>
<clus scale="  305.378">  2  5  1 -1</clus>
</clustering>
</event>
<event>
 9    1  0.2728138E-005  0.2643117E+03  0.7546771E-02  0.1144347E+00
          3   -1    0    0  502    0 -0.00000000000E+00  0.00000000000E+00  0.10685037811E+03  0.10685037811E+03  0.00000000000E+00 0. -1.
         21   -1    0    0  501  502  0.00000000000E+00 -0.00000000000E+00 -0.31591203080E+03  0.31591203080E+03  0.00000000000E+00 0. -1.
         23    2    1    2    0    0  0.20017118242E+02  0.40052198006E+02 -0.28157680053E+02  0.10247046261E+03  0.87763757743E+02 0.  0.
        -24    2    1    2    0    0  0.82002587402E+02 -0.43482181814E+02 -0.12595214489E+02  0.12344778662E+03  0.80408905714E+02 0.  0.
         13    1    4    4    0    0  0.51136022710E+02 -0.36178964104E+02 -0.45746570462E+02  0.77566480978E+02  0.00000000000E+00 0. -1.
        -14    1    4    4    0    0  0.30866564692E+02 -0.73032177102E+01  0.33151355973E+02  0.45881305645E+02  0.00000000000E+00 0.  1.
        -11    1    3    3    0    0 -0.28928488671E+02 -0.43758435561E+01 -0.20931980964E+02  0.35974342116E+02  0.00000000000E+00 0.  1.
         11    1    3    3    0    0  0.48945606913E+02  0.44428041562E+02 -0.72256990891E+01  0.66496120491E+02  0.00000000000E+00 0. -1.
          4    1    1    2  501    0 -0.10201970564E+03  0.34299838086E+01 -0.16830875815E+03  0.19684415968E+03  0.00000000000E+00 0. -1.
<scales pt_clust_5="13000.00000" pt_clust_6="13000.00000" pt_clust_7="13000.00000" pt_clust_8="13000.00000" pt_clust_9="13000.00000"></scales>
<clustering>
<clus scale="   80.409">  5  6 -1 -1</clus>
<clus scale="   87.764">  7  8 -1 -1</clus>
<clus scale="   98.526">  1  7  2 -1</clus>
<clus scale="   98.610">  5  9 -1 -1</clus>
<clus scale="  264.312">  2  5  1 -1</clus>
</clustering>
</event>
<event>
 9    1  0.2728138E-005  0.2455400E+03  0.7546771E-02  0.1145216E+00
         21   -1    0    0  501  502  0.00000000000E+00  0.00000000000E+00  0.38278268829E+02  0.38278268829E+02  0.00000000000E+00 0. -1.
          1   -1    0    0  502    0 -0.00000000000E+00 -0.00000000000E+00 -0.10385886845E+04  0.10385886845E+04  0.00000000000E+00 0. -1.
         23    2    1    2    0    0 -0.42957375980E+02 -0.62777311320E+02 -0.15285582276E+03  0.19455793775E+03  0.93282161324E+02 0.  0.
        -24    2    1    2    0    0 -0.17736105688E+02 -0.63761828684E+02 -0.32698600531E+03  0.34325113061E+03  0.80754880684E+02 0.  0.
         11    1    4    4    0    0 -0.43927627636E+02 -0.10983051631E+02 -0.15296643709E+03  0.15952741071E+03  0.00000000000E+00 0. -1.
        -12    1    4    4    0    0  0.26191521948E+02 -0.52778777054E+02 -0.17401956822E+03  0.18372371990E+03  0.00000000000E+00 0.  1.
        -11    1    3    3    0    0  0.27311511785E+02 -0.34635345594E+02 -0.65532499566E+02  0.78993887990E+02  0.00000000000E+00 0.  1.
         11    1    3    3    0    0 -0.70268887765E+02 -0.28141965726E+02 -0.87323323195E+02  0.11556404976E+03  0.00000000000E+00 0. -1.
          2    1    1    2  501    0  0.60693481668E+02  0.12653914000E+03 -0.52046858758E+03  0.53905788496E+03  0.00000000000E+00 0. -1.
<scales pt_clust_5="13000.00000" pt_clust_6="13000.00000" pt_clust_7="13000.00000" pt_clust_8="13000.00000" pt_clust_9="13000.00000"></scales>
<clustering>
<clus scale="   80.755">  5  6 -1 -1</clus>
<clus scale="   93.282">  7  8 -1 -1</clus>
<clus scale="  120.366">  2  7  1 -1</clus>
<clus scale="   94.558">  5  9 -1 -1</clus>
<clus scale="  245.540">  1  5  2 -1</clus>
</clustering>
</event>
<event>
 9    1  0.2728138E-005  0.4102168E+03  0.7546771E-02  0.1093169E+00
         21   -1    0    0  501  502  0.00000000000E+00  0.00000000000E+00  0.17739982503E+03  0.17739982503E+03  0.00000000000E+00 0. -1.
          1   -1    0    0  502    0 -0.00000000000E+00 -0.00000000000E+00 -0.43891962894E+03  0.43891962894E+03  0.00000000000E+00 0. -1.
         23    2    1    2    0    0  0.20149167161E+02  0.17617880323E+02 -0.17184567949E+03  0.19641552170E+03  0.91278370717E+02 0.  0.
        -24    2    1    2    0    0  0.15305014018E+03  0.98007106501E+02 -0.69507364320E+02  0.21068195480E+03  0.80782882166E+02 0.  0.
         13    1    4    4    0    0  0.14788138204E+03  0.75830623662E+02 -0.35797518665E+02  0.17000190876E+03  0.00000000000E+00 0. -1.
        -14    1    4    4    0    0  0.51687581353E+01  0.22176482839E+02 -0.33709845655E+02  0.40680046041E+02  0.00000000000E+00 0.  1.
        -11    1    3    3    0    0  0.25374247642E+02  0.47314798704E+02 -0.14960584907E+03  0.15894795593E+03  0.00000000000E+00 0.  1.
         11    1    3    3    0    0 -0.52250804807E+01 -0.29696918380E+02 -0.22239830423E+02  0.37467565768E+02  0.00000000000E+00 0. -1.
          2    1    1    2  501    0 -0.17319930734E+03 -0.11562498682E+03 -0.20166760101E+02  0.20922197746E+03  0.00000000000E+00 0. -1.
<scales pt_clust_5="13000.00000" pt_clust_6="13000.00000" pt_clust_7="13000.00000" pt_clust_8="13000.00000" pt_clust_9="13000.00000"></scales>
<clustering>
<clus scale="   80.783">  5  6 -1 -1</clus>
<clus scale="   91.278">  7  8 -1 -1</clus>
<clus scale="   95.122">  2  7  1 -1</clus>
<clus scale="  196.307">  5  9 -1 -1</clus>
<clus scale="  410.217">  1  5  2 -1</clus>
</clustering>
</event>
<event>
 9    1  0.2728138E-005  0.3139525E+03  0.7546771E-02  0.1111198E+00
         21   -1    0    0  501  502  0.00000000000E+00  0.00000000000E+00  0.74665497222E+03  0.74665497222E+03  0.00000000000E+00 0. -1.
          1   -1    0    0  502    0 -0.00000000000E+00 -0.00000000000E+00 -0.11221001911E+03  0.11221001911E+03  0.00000000000E+00 0. -1.
         23    2    1    2    0    0  0.72623213245E+02  0.62876307910E+02  0.49984081246E+03  0.51727396755E+03  0.92216910064E+02 0.  0.
        -24    2    1    2    0    0 -0.30588716685E+02 -0.64996417362E+02  0.22070110702E+03  0.24575741076E+03  0.80793084128E+02 0.  0.
         11    1    4    4    0    0 -0.46932563582E+02 -0.65926181102E+02  0.21262265392E+03  0.22750235128E+03  0.00000000000E+00 0. -1.
        -12    1    4    4    0    0  0.16343846896E+02  0.92976374029E+00  0.80784531073E+01  0.18255059479E+02  0.00000000000E+00 0.  1.
        -13    1    3    3    0    0  0.45777012513E+02  0.81974890925E+02  0.42889047795E+03  0.43904721807E+03  0.00000000000E+00 0. -1.
         13    1    3    3    0    0  0.26846200732E+02 -0.19098583014E+02  0.70950334513E+02  0.78226749481E+02  0.00000000000E+00 0.  1.
          2    1    1    2  501    0 -0.42034496560E+02  0.21201094512E+01 -0.86096966376E+02  0.95833613019E+02  0.00000000000E+00 0. -1.
<scales pt_clust_5="13000.00000" pt_clust_6="13000.00000" pt_clust_7="13000.00000" pt_clust_8="13000.00000" pt_clust_9="13000.00000"></scales>
<clustering>
<clus scale="   80.793">  5  6 -1 -1</clus>
<clus scale="   42.088">  5  9 -1 -1</clus>
<clus scale="   92.217">  7  8 -1 -1</clus>
<clus scale="  133.160">  2  7  1 -1</clus>
<clus scale="  313.952">  1  5  2 -1</clus>
</clustering>
</event>
<event>
 9    1  0.2728138E-005  0.1413434E+03  0.7546771E-02  0.1225561E+00
         21   -1    0    0  501  502  0.00000000000E+00  0.00000000000E+00  0.25126080672E+03  0.25126080672E+03  0.00000000000E+00 0. -1.
          1   -1    0    0  502    0 -0.00000000000E+00 -0.00000000000E+00 -0.60484726362E+02  0.60484726362E+02  0.00000000000E+00 0. -1.
         23    2    1    2    0    0 -0.56450135485E+02  0.11940576628E+00  0.80324032067E+02  0.13236437602E+03  0.88779197218E+02 0.  0.
        -24    2    1    2    0    0  0.77896618114E+02 -0.71371071958E+01  0.11237234899E+03  0.15673414169E+03  0.76283844549E+02 0.  0.
         11    1    4    4    0    0  0.88711996706E+02  0.96907849971E+01  0.92880636031E+02  0.12880427875E+03  0.00000000000E+00 0. -1.
        -12    1    4    4    0    0 -0.10815378592E+02 -0.16827892193E+02  0.19491712960E+02  0.27929862940E+02  0.00000000000E+00 0.  1.
        -13    1    3    3    0    0 -0.47084843903E+02  0.31191785805E+02  0.82339933560E+02  0.99848759060E+02  0.00000000000E+00 0.  1.
         13    1    3    3    0    0 -0.93652915822E+01 -0.31072380039E+02 -0.20159014935E+01  0.32515616964E+02  0.00000000000E+00 0. -1.
          2    1    1    2  501    0 -0.21446482629E+02  0.70177014295E+01 -0.19203007015E+01  0.22647015372E+02  0.00000000000E+00 0. -1.
<scales pt_clust_5="13000.00000" pt_clust_6="13000.00000" pt_clust_7="13000.00000" pt_clust_8="13000.00000" pt_clust_9="13000.00000"></scales>
<clustering>
<clus scale="   76.284">  5  6 -1 -1</clus>
<clus scale="   22.565">  5  9 -1 -1</clus>
<clus scale="   88.779">  7  8 -1 -1</clus>
<clus scale="  105.206">  2  7  1 -1</clus>
<clus scale="  141.343">  1  5  2 -1</clus>
</clustering>
</event>
<event>
 9    1  0.2728138E-005  0.3283589E+03  0.7546771E-02  0.1101569E+00
          1   -1    0    0  502    0 -0.00000000000E+00  0.00000000000E+00  0.41233963383E+03  0.41233963383E+03  0.00000000000E+00 0. -1.
         21   -1    0    0  501  502  0.00000000000E+00 -0.00000000000E+00 -0.13843723871E+03  0.13843723871E+03  0.00000000000E+00 0. -1.
         23    2    1    2    0    0  0.40973194285E+02  0.10140604355E+03  0.97171256360E+02  0.17787813967E+03  0.10117505223E+03 0.  0.
        -24    2    1    2    0    0  0.23979894306E+02  0.54049010868E+02  0.17836464128E+03  0.20441180165E+03  0.80460602073E+02 0.  0.
         13    1    4    4    0    0  0.45556489699E+01  0.50532420684E+02  0.39899097266E+02  0.64546242651E+02  0.00000000000E+00 0. -1.
        -14    1    4    4    0    0  0.19424245336E+02  0.35165901843E+01  0.13846554402E+03  0.13986555900E+03  0.00000000000E+00 0.  1.
        -11    1    3    3    0    0  0.15406198477E+02  0.79668834130E+02  0.11432060737E+03  0.14019156663E+03  0.00000000000E+00 0.  1.
         11    1    3    3    0    0  0.25566995809E+02  0.21737209416E+02 -0.17149351012E+02  0.37686573047E+02  0.00000000000E+00 0. -1.
          2    1    1    2  501    0 -0.64953088591E+02 -0.15545505441E+03 -0.16335025197E+01  0.16848693122E+03  0.00000000000E+00 0. -1.
<scales pt_clust_5="13000.00000" pt_clust_6="13000.00000" pt_clust_7="13000.00000" pt_clust_8="13000.00000" pt_clust_9="13000.00000"></scales>
<clustering>
<clus scale="   80.461">  5  6 -1 -1</clus>
<clus scale="  101.175">  7  8 -1 -1</clus>
<clus scale="  148.991">  1  7  2 -1</clus>
<clus scale="  135.280">  5  9 -1 -1</clus>
<clus scale="  328.359">  2  5  1 -1</clus>
</clustering>
</event>
<event>
 9    1  0.2728138E-005  0.2247549E+03  0.7546771E-02  0.1154873E+00
          1   -1    0    0  502    0 -0.00000000000E+00  0.00000000000E+00  0.42675538260E+03  0.42675538260E+03  0.00000000000E+00 0. -1.
         21   -1    0    0  501  502  0.00000000000E+00 -0.00000000000E+00 -0.81945843122E+02  0.81945843122E+02  0.00000000000E+00 0. -1.
         23    2    1    2    0    0 -0.68725727697E+02  0.47061527734E+02  0.21645140752E+03  0.24987582417E+03  0.92998401321E+02 0.  0.
        -24    2    1    2    0    0 -0.39571019449E+02 -0.46657860541E+02  0.14552319828E+02  0.10172635234E+03  0.79960360283E+02 0.  0.
         13    1    4    4    0    0 -0.48084243227E+02 -0.47868610193E+02 -0.16231932773E+02  0.69763700662E+02  0.00000000000E+00 0. -1.
        -14    1    4    4    0    0  0.85132237771E+01  0.12107496515E+01  0.30784252602E+02  0.31962651674E+02  0.00000000000E+00 0.  1.
        -11    1    3    3    0    0 -0.68263589261E+01 -0.23856231346E+02  0.19407445921E+02  0.31501871490E+02  0.00000000000E+00 0.  1.
         11    1    3    3    0    0 -0.61899368771E+02  0.70917759080E+02  0.19704396160E+03  0.21837395268E+03  0.00000000000E+00 0. -1.
          2    1    1    2  501    0  0.10829674715E+03 -0.40366719286E+00  0.11380581213E+03  0.15709904922E+03  0.00000000000E+00 0. -1.
<scales pt_clust_5="13000.00000" pt_clust_6="13000.00000" pt_clust_7="13000.00000" pt_clust_8="13000.00000" pt_clust_9="13000.00000"></scales>
<clustering>
<clus scale="   79.960">  5  6 -1 -1</clus>
<clus scale="   92.998">  7  8 -1 -1</clus>
<clus scale="  108.298">  5  9 -1 -1</clus>
<clus scale="  124.847">  1  7  2 -1</clus>
<clus scale="  224.755">  2  5  1 -1</clus>
</clustering>
</event>
<event>
 9    1  0.2728138E-005  0.1568625E+03  0.7546771E-02  0.1207531E+00
          1   -1    0    0  502    0 -0.00000000000E+00  0.00000000000E+00  0.46231910004E+02  0.46231910004E+02  0.00000000000E+00 0. -1.
         21   -1    0    0  501  502  0.00000000000E+00 -0.00000000000E+00 -0.39364067759E+03  0.39364067759E+03  0.00000000000E+00 0. -1.
         23    2    1    2    0    0 -0.39731761192E+02 -0.50713773131E+02 -0.15558474112E+03  0.19207770897E+03  0.92394453190E+02 0.  0.
        -24    2    1    2    0    0  0.13143504558E+00  0.69413743688E+01 -0.16198267547E+03  0.18165325063E+03  0.81922624233E+02 0.  0.
         13    1    4    4    0    0 -0.42677977577E+01  0.29140370706E+02 -0.15528366475E+03  0.15805186440E+03  0.00000000000E+00 0. -1.
        -14    1    4    4    0    0  0.43992328033E+01 -0.22198996337E+02 -0.66990107207E+01  0.23601386236E+02  0.00000000000E+00 0.  1.
        -13    1    3    3    0    0  0.43909114474E+01 -0.53071394764E+02 -0.35186249117E+02  0.63827307419E+02  0.00000000000E+00 0. -1.
         13    1    3    3    0    0 -0.44122672640E+02  0.23576216324E+01 -0.12039849200E+03  0.12825040155E+03  0.00000000000E+00 0.  1.
          2    1    1    2  501    0  0.39600326147E+02  0.43772398762E+02 -0.29841351003E+02  0.66141627996E+02  0.00000000000E+00 0. -1.
<scales pt_clust_5="13000.00000" pt_clust_6="13000.00000" pt_clust_7="13000.00000" pt_clust_8="13000.00000" pt_clust_9="13000.00000"></scales>
<clustering>
<clus scale="   81.923">  5  6 -1 -1</clus>
<clus scale="   59.027">  5  9 -1 -1</clus>
<clus scale="   92.394">  7  8 -1 -1</clus>
<clus scale="  112.638">  1  7  2 -1</clus>
<clus scale="  156.863">  2  5  1 -1</clus>
</clustering>
</event>
<event>
 9    1  0.2728138E-005  0.3426914E+03  0.7546771E-02  0.1110736E+00
         -2   -1    0    0    0  501 -0.00000000000E+00  0.00000000000E+00  0.90498735956E+02  0.90498735956E+02  0.00000000000E+00 0.  1.
         21   -1    0    0  501  502  0.00000000000E+00 -0.00000000000E+00 -0.55526292816E+03  0.55526292816E+03  0.00000000000E+00 0.  1.
         23    2    1    2    0    0  0.14698568754E+02 -0.48650805753E+02 -0.82984856485E+02  0.13273844039E+03  0.90277673476E+02 0.  0.
        -24    2    1    2    0    0 -0.81940309686E+02 -0.11493037997E+03 -0.20973765538E+03  0.26628734101E+03  0.83641241643E+02 0.  0.
         13    1    4    4    0    0  0.39654249104E+01 -0.26951253966E+02 -0.92362452229E+02  0.96295987802E+02  0.00000000000E+00 0. -1.
        -14    1    4    4    0    0 -0.85905734596E+02 -0.87979126004E+02 -0.11737520315E+03  0.16999135320E+03  0.00000000000E+00 0.  1.
        -11    1    3    3    0    0  0.11595057771E+02  0.18115092711E+02 -0.57181168778E+02  0.61092454620E+02  0.00000000000E+00 0.  1.
         11    1    3    3    0    0  0.31035109827E+01 -0.66765898464E+02 -0.25803687706E+02  0.71645985773E+02  0.00000000000E+00 0. -1.
         -1    1    1    2    0  502  0.67241740932E+02  0.16358118572E+03 -0.17204168034E+03  0.24673588272E+03  0.00000000000E+00 0.  1.
<scales pt_clust_5="13000.00000" pt_clust_6="13000.00000" pt_clust_7="13000.00000" pt_clust_8="13000.00000" pt_clust_9="13000.00000"></scales>
<clustering>
<clus scale="   83.641">  5  6 -1 -1</clus>
<clus scale="   90.278">  7  8 -1 -1</clus>
<clus scale="  103.600">  1  7  2 -1</clus>
<clus scale="  155.510">  5  9 -1 -1</clus>
<clus scale="  342.691">  2  5  1 -1</clus>
</clustering>
</event>
<event>
 9    1  0.2728138E-005  0.1862774E+03  0.7546771E-02  0.1191449E+00
         21   -1    0    0  501  502  0.00000000000E+00  0.00000000000E+00  0.15845456414E+03  0.15845456414E+03  0.00000000000E+00 0. -1.
          1   -1    0    0  502    0 -0.00000000000E+00 -0.00000000000E+00 -0.25420679517E+03  0.25420679517E+03  0.00000000000E+00 0. -1.
         23    2    1    2    0    0 -0.24965587910E+02 -0.82763862695E+01 -0.18344601663E+03  0.20677429361E+03  0.91713621294E+02 0.  0.
        -24    2    1    2    0    0  0.66632041902E+00 -0.13285510436E+02 -0.15849271706E+02  0.97367323217E+02  0.95143299535E+02 0.  0.
         13    1    4    4    0    0 -0.76132824593E+01 -0.51450495663E+02  0.64295548931E+01  0.52406628874E+02  0.00000000000E+00 0. -1.
        -14    1    4    4    0    0  0.82796028783E+01  0.38164985227E+02 -0.22278826599E+02  0.44960694343E+02  0.00000000000E+00 0.  1.
        -13    1    3    3    0    0  0.19759705058E+01 -0.35034889505E+02 -0.23142336204E+02  0.42034695991E+02  0.00000000000E+00 0.  1.
         13    1    3    3    0    0 -0.26941558416E+02  0.26758503235E+02 -0.16030368043E+03  0.16473959762E+03  0.00000000000E+00 0. -1.
          2    1    1    2  501    0  0.24299267491E+02  0.21561896705E+02  0.10354305731E+03  0.10851974248E+03  0.00000000000E+00 0. -1.
<scales pt_clust_5="13000.00000" pt_clust_6="13000.00000" pt_clust_7="13000.00000" pt_clust_8="13000.00000" pt_clust_9="13000.00000"></scales>
<clustering>
<clus scale="   91.714">  7  8 -1 -1</clus>
<clus scale="   95.143">  5  6 -1 -1</clus>
<clus scale="   32.486">  5  9 -1 -1</clus>
<clus scale="   95.411">  2  7  1 -1</clus>
<clus scale="  186.277">  1  5  2 -1</clus>
</clustering>
</event>
<event>
 9    1  0.2728138E-005  0.1848631E+03  0.7546771E-02  0.1181200E+00
          1   -1    0    0  502    0 -0.00000000000E+00  0.00000000000E+00  0.40257464464E+03  0.40257464464E+03  0.00000000000E+00 0. -1.
         21   -1    0    0  501  502  0.00000000000E+00 -0.00000000000E+00 -0.95401086490E+02  0.95401086490E+02  0.00000000000E+00 0.  1.
         23    2    1    2    0    0  0.80288463943E+02 -0.10767026048E+02  0.28690772181E+03  0.31200507513E+03  0.92026951402E+02 0.  0.
        -24    2    1    2    0    0 -0.42796355799E+01 -0.39245881662E+02 -0.13612479084E+02  0.88881144808E+02  0.78460205247E+02 0.  0.
         11    1    4    4    0    0  0.34506161487E+02 -0.32390666621E+01 -0.21054519334E+01  0.34721746230E+02  0.00000000000E+00 0. -1.
        -12    1    4    4    0    0 -0.38785797067E+02 -0.36006815000E+02 -0.11507027151E+02  0.54159398578E+02  0.00000000000E+00 0.  1.
        -13    1    3    3    0    0 -0.14496730562E+02 -0.22588655989E+02  0.71361164212E+02  0.76241841098E+02  0.00000000000E+00 0.  1.
         13    1    3    3    0    0  0.94785194504E+02  0.11821629941E+02  0.21554655760E+03  0.23576323404E+03  0.00000000000E+00 0. -1.
          2    1    1    2  501    0 -0.76008828363E+02  0.50012907710E+02  0.33878315426E+02  0.97089511188E+02  0.00000000000E+00 0. -1.
<scales pt_clust_5="13000.00000" pt_clust_6="13000.00000" pt_clust_7="13000.00000" pt_clust_8="13000.00000" pt_clust_9="13000.00000"></scales>
<clustering>
<clus scale="   78.460">  5  6 -1 -1</clus>
<clus scale="   90.987">  5  9 -1 -1</clus>
<clus scale="   92.027">  7  8 -1 -1</clus>
<clus scale="  122.601">  1  7  2 -1</clus>
<clus scale="  184.863">  2  5  1 -1</clus>
</clustering>
</event>
<event>
 9    1  0.2728138E-005  0.4626042E+03  0.7546771E-02  0.1060628E+00
          1   -1    0    0  502    0 -0.00000000000E+00  0.00000000000E+00  0.15202375356E+04  0.15202375356E+04  0.00000000000E+00 0. -1.
         21   -1    0    0  501  502  0.00000000000E+00 -0.00000000000E+00 -0.65711611325E+02  0.65711611325E+02  0.00000000000E+00 0. -1.
         23    2    1    2    0    0 -0.90397858787E+02 -0.92571848486E+02  0.50353812492E+03  0.52841406056E+03  0.94495799610E+02 0.  0.
        -24    2    1    2    0    0 -0.14938742824E+03  0.57059844634E+02  0.63345892125E+03  0.65805708356E+03  0.78717791726E+02 0.  0.
         13    1    4    4    0    0 -0.13965195124E+03  0.67208479894E+02  0.49036457903E+03  0.51427333940E+03  0.00000000000E+00 0. -1.
        -14    1    4    4    0    0 -0.97354770054E+01 -0.10148635260E+02  0.14309434221E+03  0.14378374416E+03  0.00000000000E+00 0.  1.
        -13    1    3    3    0    0 -0.32851950935E+02  0.11148788571E+02  0.60183463079E+02  0.69466505562E+02  0.00000000000E+00 0.  1.
         13    1    3    3    0    0 -0.57545907852E+02 -0.10372063706E+03  0.44335466184E+03  0.45894755500E+03  0.00000000000E+00 0. -1.
          2    1    1    2  501    0  0.23978528703E+03  0.35512003853E+02  0.31752887812E+03  0.39947800282E+03  0.00000000000E+00 0. -1.
<scales pt_clust_5="13000.00000" pt_clust_6="13000.00000" pt_clust_7="13000.00000" pt_clust_8="13000.00000" pt_clust_9="13000.00000"></scales>
<clustering>
<clus scale="   78.718">  5  6 -1 -1</clus>
<clus scale="   94.496">  7  8 -1 -1</clus>
<clus scale="  160.221">  1  7  2 -1</clus>
<clus scale="  207.530">  5  9 -1 -1</clus>
<clus scale="  462.604">  2  5  1 -1</clus>
</clustering>
</event>
<event>
 9    1  0.2728138E-005  0.2066721E+03  0.7546771E-02  0.1173542E+00
          1   -1    0    0  502    0 -0.00000000000E+00  0.00000000000E+00  0.23678127469E+03  0.23678127469E+03  0.00000000000E+00 0. -1.
         21   -1    0    0  501  502  0.00000000000E+00 -0.00000000000E+00 -0.12164080073E+03  0.12164080073E+03  0.00000000000E+00 0.  1.
         23    2    1    2    0    0  0.54236497888E+02 -0.83233257495E+01 -0.26813560981E+02  0.10769449828E+03  0.88703226849E+02 0.  0.
        -24    2    1    2    0    0  0.22114043358E+02 -0.17530692643E+02  0.14391020411E+03  0.17009469294E+03  0.86172510814E+02 0.  0.
         11    1    4    4    0    0  0.41790648432E+02  0.20784718164E+02  0.62650010199E+02  0.78124814134E+02  0.00000000000E+00 0. -1.
        -12    1    4    4    0    0 -0.19676605073E+02 -0.38315410807E+02  0.81260193914E+02  0.91969878805E+02  0.00000000000E+00 0.  1.
        -11    1    3    3    0    0  0.50436399310E+02 -0.31062408482E+02  0.13957603312E+02  0.60856538566E+02  0.00000000000E+00 0. -1.
         11    1    3    3    0    0  0.38000985782E+01  0.22739082733E+02 -0.40771164293E+02  0.46837959718E+02  0.00000000000E+00 0.  1.
          2    1    1    2  501    0 -0.76350541246E+02  0.25854018393E+02 -0.19561691682E+01  0.80632884194E+02  0.00000000000E+00 0. -1.
<scales pt_clust_5="13000.00000" pt_clust_6="13000.00000" pt_clust_7="13000.00000" pt_clust_8="13000.00000" pt_clust_9="13000.00000"></scales>
<clustering>
<clus scale="   86.173">  5  6 -1 -1</clus>
<clus scale="   80.609">  5  9 -1 -1</clus>
<clus scale="   88.703">  7  8 -1 -1</clus>
<clus scale="  104.303">  1  7  2 -1</clus>
<clus scale="  206.672">  2  5  1 -1</clus>
</clustering>
</event>
<event>
 9    1  0.2728138E-005  0.4384239E+03  0.7546771E-02  0.1031861E+00
          1   -1    0    0  502    0 -0.00000000000E+00  0.00000000000E+00  0.43100853961E+03  0.43100853961E+03  0.00000000000E+00 0. -1.
         21   -1    0    0  501  502  0.00000000000E+00 -0.00000000000E+00 -0.49936606632E+03  0.49936606632E+03  0.00000000000E+00 0. -1.
         23    2    1    2    0    0  0.35106105382E+03 -0.23165886391E+03 -0.19725587778E+03  0.47339505163E+03  0.91012641168E+02 0.  0.
        -24    2    1    2    0    0 -0.15650778219E+03  0.93298363688E+02  0.65927603363E+02  0.21007892937E+03  0.81163028064E+02 0.  0.
         11    1    4    4    0    0 -0.56376183005E+02  0.76840838021E+02  0.49133504707E+02  0.10722355004E+03  0.00000000000E+00 0. -1.
        -12    1    4    4    0    0 -0.10013159919E+03  0.16457525667E+02  0.16794098656E+02  0.10285537933E+03  0.00000000000E+00 0.  1.
        -13    1    3    3    0    0  0.76897997826E+02 -0.78420246789E+02 -0.88387119835E+02  0.14097985717E+03  0.00000000000E+00 0.  1.
         13    1    3    3    0    0  0.27416305600E+03 -0.15323861712E+03 -0.10886875795E+03  0.33241519446E+03  0.00000000000E+00 0. -1.
          2    1    1    2  501    0 -0.19455327163E+03  0.13836050022E+03  0.62970747710E+02  0.24690062493E+03  0.00000000000E+00 0. -1.
<scales pt_clust_5="13000.00000" pt_clust_6="13000.00000" pt_clust_7="13000.00000" pt_clust_8="13000.00000" pt_clust_9="13000.00000"></scales>
<clustering>
<clus scale="   81.163">  5  6 -1 -1</clus>
<clus scale="   91.013">  7  8 -1 -1</clus>
<clus scale="  238.736">  5  9 -1 -1</clus>
<clus scale="  430.341">  1  7  2 -1</clus>
<clus scale="  438.424">  2  5  1 -1</clus>
</clustering>
</event>
<event>
 9    1  0.2728138E-005  0.5795221E+03  0.7546771E-02  0.1068321E+00
         21   -1    0    0  501  502  0.00000000000E+00  0.00000000000E+00  0.72689009547E+03  0.72689009547E+03  0.00000000000E+00 0. -1.
          1   -1    0    0  502    0 -0.00000000000E+00 -0.00000000000E+00 -0.14811709044E+03  0.14811709044E+03  0.00000000000E+00 0. -1.
         23    2    1    2    0    0 -0.73882265997E+01  0.59122364047E+01  0.17222174069E+02  0.68046718450E+02  0.65147618379E+02 0.  0.
        -24    2    1    2    0    0  0.62140690446E+01 -0.98101535024E+02 -0.84841490160E+02  0.15402610763E+03  0.82845866233E+02 0.  0.
         11    1    4    4    0    0  0.74308817456E+01 -0.96867221890E+02 -0.33663552581E+02  0.10281882830E+03  0.00000000000E+00 0. -1.
        -12    1    4    4    0    0 -0.12168127010E+01 -0.12343131340E+01 -0.51177937579E+02  0.51207279335E+02  0.00000000000E+00 0.  1.
        -11    1    3    3    0    0 -0.90122354315E+01  0.31462156969E+02 -0.62440197053E+01  0.33317795406E+02  0.00000000000E+00 0.  1.
         11    1    3    3    0    0  0.16240088317E+01 -0.25549920564E+02  0.23466193775E+02  0.34728923044E+02  0.00000000000E+00 0. -1.
          2    1    1    2  501    0  0.11741575551E+01  0.92189298619E+02  0.64639232112E+03  0.65293435982E+03  0.00000000000E+00 0. -1.
<scales pt_clust_5="13000.00000" pt_clust_6="13000.00000" pt_clust_7="13000.00000" pt_clust_8="13000.00000" pt_clust_9="13000.00000"></scales>
<clustering>
<clus scale="   65.148">  7  8 -1 -1</clus>
<clus scale="   65.831">  2  7  1 -1</clus>
<clus scale="   82.846">  5  6 -1 -1</clus>
<clus scale="   92.352">  5  9 -1 -1</clus>
<clus scale="  579.522">  1  5  2 -1</clus>
</clustering>
</event>
<event>
 9    1  0.2728138E-005  0.2530844E+03  0.7546771E-02  0.1142313E+00
         21   -1    0    0  501  502  0.00000000000E+00  0.00000000000E+00  0.20053376176E+03  0.20053376176E+03  0.00000000000E+00 0. -1.
         -4   -1    0    0    0  501 -0.00000000000E+00 -0.00000000000E+00 -0.22138643773E+03  0.22138643773E+03  0.00000000000E+00 0.  1.
         23    2    1    2    0    0 -0.21949100254E+02  0.69221397923E+02 -0.10230613860E+03  0.15605113973E+03  0.92801116822E+02 0.  0.
        -24    2    1    2    0    0  0.91625759728E+02 -0.10517140536E+02  0.10391618516E+03  0.17203089794E+03  0.10144045651E+03 0.  0.
         13    1    4    4    0    0  0.76459139617E+02  0.32600675442E+02  0.93590105989E+02  0.12517153035E+03  0.00000000000E+00 0. -1.
        -14    1    4    4    0    0  0.15166620111E+02 -0.43117815978E+02  0.10326079167E+02  0.46859367594E+02  0.00000000000E+00 0.  1.
        -11    1    3    3    0    0  0.22823575423E+02  0.54882484391E+02 -0.22753288965E+02  0.63645226425E+02  0.00000000000E+00 0.  1.
         11    1    3    3    0    0 -0.44772675678E+02  0.14338913532E+02 -0.79552849633E+02  0.92405913303E+02  0.00000000000E+00 0. -1.
         -3    1    1    2    0  502 -0.69676659474E+02 -0.58704257387E+02 -0.22462722535E+02  0.93838161824E+02  0.00000000000E+00 0.  1.
<scales pt_clust_5="13000.00000" pt_clust_6="13000.00000" pt_clust_7="13000.00000" pt_clust_8="13000.00000" pt_clust_9="13000.00000"></scales>
<clustering>
<clus scale="   92.801">  7  8 -1 -1</clus>
<clus scale="  101.440">  5  6 -1 -1</clus>
<clus scale="   91.110">  5  9 -1 -1</clus>
<clus scale="  117.836">  2  7  1 -1</clus>
<clus scale="  253.084">  1  5  2 -1</clus>
</clustering>
</event>
<event>
 9    1  0.2728138E-005  0.3286103E+03  0.7546771E-02  0.1109527E+00
         21   -1    0    0  501  502  0.00000000000E+00  0.00000000000E+00  0.12497785259E+03  0.12497785259E+03  0.00000000000E+00 0. -1.
          3   -1    0    0  502    0 -0.00000000000E+00 -0.00000000000E+00 -0.42033358996E+03  0.42033358996E+03  0.00000000000E+00 0. -1.
         23    2    1    2    0    0 -0.56668012720E+02  0.52973090840E+02 -0.35178665923E+02  0.12617321744E+03  0.93084532784E+02 0.  0.
        -24    2    1    2    0    0 -0.57253686911E+02 -0.50888500720E+01  0.30384094681E+02  0.10339015240E+03  0.80389360885E+02 0.  0.
         13    1    4    4    0    0 -0.58883336665E+02  0.19275075362E+02  0.43470096920E+02  0.75686360682E+02  0.00000000000E+00 0. -1.
        -14    1    4    4    0    0  0.16296497544E+01 -0.24363925434E+02 -0.13086002239E+02  0.27703791716E+02  0.00000000000E+00 0.  1.
        -11    1    3    3    0    0 -0.36318757477E+02 -0.20403097359E+02  0.14353873668E+01  0.41682116830E+02  0.00000000000E+00 0. -1.
         11    1    3    3    0    0 -0.20349255243E+02  0.73376188199E+02 -0.36614053290E+02  0.84491100608E+02  0.00000000000E+00 0.  1.
          4    1    1    2  501    0  0.11392169963E+03 -0.47884240768E+02 -0.29056116613E+03  0.31574807272E+03  0.00000000000E+00 0. -1.
<scales pt_clust_5="13000.00000" pt_clust_6="13000.00000" pt_clust_7="13000.00000" pt_clust_8="13000.00000" pt_clust_9="13000.00000"></scales>
<clustering>
<clus scale="   80.389">  5  6 -1 -1</clus>
<clus scale="   93.085">  7  8 -1 -1</clus>
<clus scale="  121.170">  2  7  1 -1</clus>
<clus scale="   63.347">  5  9 -1 -1</clus>
<clus scale="  328.610">  1  5  2 -1</clus>
</clustering>
</event>
<event>
 9    1  0.2728138E-005  0.4361746E+03  0.7546771E-02  0.1076208E+00
         21   -1    0    0  501  502  0.00000000000E+00  0.00000000000E+00  0.39658611914E+03  0.39658611914E+03  0.00000000000E+00 0.  1.
         -4   -1    0    0    0  501 -0.00000000000E+00 -0.00000000000E+00 -0.52608598562E+03  0.52608598562E+03  0.00000000000E+00 0.  1.
         23    2    1    2    0    0 -0.82066530063E+02  0.16034791777E+02  0.29119337239E+03  0.31667615229E+03  0.92185548778E+02 0.  0.
        -24    2    1    2    0    0 -0.75760205045E+02  0.16224356794E+03 -0.16417100321E+03  0.25600151073E+03  0.80759341206E+02 0.  0.
         13    1    4    4    0    0 -0.51081484878E+02  0.63166890858E+02 -0.11962972195E+03  0.14460513328E+03  0.00000000000E+00 0. -1.
        -14    1    4    4    0    0 -0.24678720166E+02  0.99076677085E+02 -0.44541281260E+02  0.11139637744E+03  0.00000000000E+00 0.  1.
        -11    1    3    3    0    0 -0.34836043181E+02 -0.16478235021E+02  0.28849453385E+02  0.48139101514E+02  0.00000000000E+00 0.  1.
         11    1    3    3    0    0 -0.47230486882E+02  0.32513026798E+02  0.26234391901E+03  0.26853705078E+03  0.00000000000E+00 0. -1.
         -3    1    1    2    0  502  0.15782673511E+03 -0.17827835972E+03 -0.25652223566E+03  0.34999444174E+03  0.00000000000E+00 0.  1.
<scales pt_clust_5="13000.00000" pt_clust_6="13000.00000" pt_clust_7="13000.00000" pt_clust_8="13000.00000" pt_clust_9="13000.00000"></scales>
<clustering>
<clus scale="   80.759">  5  6 -1 -1</clus>
<clus scale="   92.186">  7  8 -1 -1</clus>
<clus scale="  124.460">  2  7  1 -1</clus>
<clus scale="  201.127">  5  9 -1 -1</clus>
<clus scale="  436.175">  1  5  2 -1</clus>
</clustering>
</event>
<event>
 9    1  0.2728138E-005  0.3487228E+03  0.7546771E-02  0.1103457E+00
          3   -1    0    0  502    0 -0.00000000000E+00  0.00000000000E+00  0.31735123342E+03  0.31735123342E+03  0.00000000000E+00 0. -1.
         21   -1    0    0  501  502  0.00000000000E+00 -0.00000000000E+00 -0.29948936399E+03  0.29948936399E+03  0.00000000000E+00 0. -1.
         23    2    1    2    0    0 -0.34241726912E+02 -0.67142954943E+02  0.19311618575E+03  0.22655650938E+03  0.91396490555E+02 0.  0.
        -24    2    1    2    0    0  0.86707670669E+02  0.89894760377E+01  0.63331511789E+02  0.13917116574E+03  0.88083495367E+02 0.  0.
         13    1    4    4    0    0  0.10331945693E+03  0.18218711031E+02  0.54235082338E+02  0.11810281863E+03  0.00000000000E+00 0. -1.
        -14    1    4    4    0    0 -0.16611786260E+02 -0.92292349932E+01  0.90964294509E+01  0.21068347113E+02  0.00000000000E+00 0.  1.
        -13    1    3    3    0    0 -0.60728798527E+02 -0.45800333547E+02  0.16754009702E+03  0.18399821095E+03  0.00000000000E+00 0. -1.
         13    1    3    3    0    0  0.26487071615E+02 -0.21342621396E+02  0.25576088725E+02  0.42558298430E+02  0.00000000000E+00 0.  1.
          4    1    1    2  501    0 -0.52465943757E+02  0.58153478906E+02 -0.23858582810E+03  0.25111292228E+03  0.00000000000E+00 0. -1.
<scales pt_clust_5="13000.00000" pt_clust_6="13000.00000" pt_clust_7="13000.00000" pt_clust_8="13000.00000" pt_clust_9="13000.00000"></scales>
<clustering>
<clus scale="   88.083">  5  6 -1 -1</clus>
<clus scale="   78.323">  5  9 -1 -1</clus>
<clus scale="   91.396">  7  8 -1 -1</clus>
<clus scale="  118.465">  1  7  2 -1</clus>
<clus scale="  348.723">  2  5  1 -1</clus>
</clustering>
</event>
<event>
 9    1  0.2728138E-005  0.6091877E+03  0.7546771E-02  0.9979219E-01
          3   -1    0    0  502    0 -0.00000000000E+00  0.00000000000E+00  0.60414775111E+03  0.60414775111E+03  0.00000000000E+00 0. -1.
         21   -1    0    0  501  502  0.00000000000E+00 -0.00000000000E+00 -0.62150217108E+03  0.62150217108E+03  0.00000000000E+00 0. -1.
         23    2    1    2    0    0  0.39033062726E+03 -0.19325357224E+03  0.29544512205E+03  0.54084836883E+03  0.12459613218E+03 0.  0.
        -24    2    1    2    0    0  0.19179501134E+02 -0.74234923502E+02 -0.10915851171E+03  0.15497298689E+03  0.78881993235E+02 0.  0.
         11    1    4    4    0    0  0.37735959343E+02 -0.79316875510E+01 -0.23825836604E+02  0.45327527892E+02  0.00000000000E+00 0. -1.
        -12    1    4    4    0    0 -0.18556458209E+02 -0.66303235951E+02 -0.85332675107E+02  0.10964545900E+03  0.00000000000E+00 0.  1.
        -13    1    3    3    0    0  0.36713466471E+03 -0.21094449761E+03  0.28195309097E+03  0.50870717374E+03  0.00000000000E+00 0. -1.
         13    1    3    3    0    0  0.23195962558E+02  0.17690925366E+02  0.13492031078E+02  0.32141195091E+02  0.00000000000E+00 0.  1.
          4    1    1    2  501    0 -0.40951012840E+03  0.26748849575E+03 -0.20364103031E+03  0.52982856646E+03  0.00000000000E+00 0. -1.
<scales pt_clust_5="13000.00000" pt_clust_6="13000.00000" pt_clust_7="13000.00000" pt_clust_8="13000.00000" pt_clust_9="13000.00000"></scales>
<clustering>
<clus scale="   78.882">  5  6 -1 -1</clus>
<clus scale="  124.596">  7  8 -1 -1</clus>
<clus scale="  453.022">  1  7  2 -1</clus>
<clus scale="  118.885">  5  9 -1 -1</clus>
<clus scale="  609.188">  2  5  1 -1</clus>
</clustering>
</event>
<event>
 9    1  0.2728138E-005  0.4521439E+03  0.7546771E-02  0.1066716E+00
         21   -1    0    0  501  502  0.00000000000E+00  0.00000000000E+00  0.68302271988E+02  0.68302271988E+02  0.00000000000E+00 0. -1.
          1   -1    0    0  502    0 -0.00000000000E+00 -0.00000000000E+00 -0.13058406698E+04  0.13058406698E+04  0.00000000000E+00 0. -1.
         23    2    1    2    0    0 -0.78902013194E+02  0.66287148482E+02 -0.28314917893E+03  0.31806867506E+03  0.10185632423E+03 0.  0.
        -24    2    1    2    0    0 -0.49548420924E+02 -0.17340341857E+03 -0.81166430538E+03  0.83620200773E+03  0.88944148314E+02 0.  0.
         13    1    4    4    0    0  0.15009703481E+02 -0.10692485042E+03 -0.40896412469E+03  0.42297738724E+03  0.00000000000E+00 0. -1.
        -14    1    4    4    0    0 -0.64558124406E+02 -0.66478568147E+02 -0.40270018069E+03  0.41322462049E+03  0.00000000000E+00 0.  1.
        -11    1    3    3    0    0 -0.58987332094E+02  0.65548152985E+01 -0.53365590919E+02  0.79814517760E+02  0.00000000000E+00 0. -1.
         11    1    3    3    0    0 -0.19914681100E+02  0.59732333183E+02 -0.22978358801E+03  0.23825415730E+03  0.00000000000E+00 0.  1.
          2    1    1    2  501    0  0.12845043412E+03  0.10711627009E+03 -0.14272491350E+03  0.21987225899E+03  0.00000000000E+00 0. -1.
<scales pt_clust_5="13000.00000" pt_clust_6="13000.00000" pt_clust_7="13000.00000" pt_clust_8="13000.00000" pt_clust_9="13000.00000"></scales>
<clustering>
<clus scale="   88.944">  5  6 -1 -1</clus>
<clus scale="  101.856">  7  8 -1 -1</clus>
<clus scale="  144.894">  2  7  1 -1</clus>
<clus scale="  164.998">  5  9 -1 -1</clus>
<clus scale="  452.144">  1  5  2 -1</clus>
</clustering>
</event>
<event>
 9    1  0.2728138E-005  0.4089163E+03  0.7546771E-02  0.1072145E+00
         21   -1    0    0  501  502  0.00000000000E+00  0.00000000000E+00  0.28772591954E+03  0.28772591954E+03  0.00000000000E+00 0. -1.
          1   -1    0    0  502    0 -0.00000000000E+00 -0.00000000000E+00 -0.45051432048E+03  0.45051432048E+03  0.00000000000E+00 0. -1.
         23    2    1    2    0    0 -0.94140272573E+02 -0.10612467958E+03  0.14815000112E+03  0.22453291838E+03  0.91333291136E+02 0.  0.
        -24    2    1    2    0    0  0.16056274841E+03 -0.75812158864E+02 -0.23413838104E+03  0.30535377186E+03  0.83019665771E+02 0.  0.
         13    1    4    4    0    0  0.14048073565E+03 -0.81170209782E+02 -0.15814189111E+03  0.22656632090E+03  0.00000000000E+00 0. -1.
        -14    1    4    4    0    0  0.20082012759E+02  0.53580509186E+01 -0.75996489931E+02  0.78787450955E+02  0.00000000000E+00 0.  1.
        -13    1    3    3    0    0 -0.93293986517E+02 -0.42885870975E+02  0.71307529327E+02  0.12501091788E+03  0.00000000000E+00 0.  1.
         13    1    3    3    0    0 -0.84628605585E+00 -0.63238808600E+02  0.76842471789E+02  0.99522000502E+02  0.00000000000E+00 0. -1.
          2    1    1    2  501    0 -0.66422475834E+02  0.18193683844E+03 -0.76800021020E+02  0.20835354978E+03  0.00000000000E+00 0. -1.
<scales pt_clust_5="13000.00000" pt_clust_6="13000.00000" pt_clust_7="13000.00000" pt_clust_8="13000.00000" pt_clust_9="13000.00000"></scales>
<clustering>
<clus scale="   83.020">  5  6 -1 -1</clus>
<clus scale="   91.333">  7  8 -1 -1</clus>
<clus scale="  168.721">  2  7  1 -1</clus>
<clus scale="  175.758">  5  9 -1 -1</clus>
<clus scale="  408.916">  1  5  2 -1</clus>
</clustering>
</event>
<event>
 9    1  0.2728138E-005  0.6040989E+03  0.7546771E-02  0.1052363E+00
         21   -1    0    0  501  502  0.00000000000E+00  0.00000000000E+00  0.10253601131E+03  0.10253601131E+03  0.00000000000E+00 0. -1.
          1   -1    0    0  502    0 -0.00000000000E+00 -0.00000000000E+00 -0.11918986563E+04  0.11918986563E+04  0.00000000000E+00 0. -1.
         23    2    1    2    0    0 -0.12594910247E+02  0.33870640909E+00 -0.98791196171E+02  0.13419015870E+03  0.89936376202E+02 0.  0.
        -24    2    1    2    0    0  0.52486731513E+02  0.25456567636E+03 -0.23154973143E+03  0.35857028005E+03  0.86016434750E+02 0.  0.
         13    1    4    4    0    0  0.74533516135E+02  0.18174275414E+03 -0.15097392396E+03  0.24774745089E+03  0.00000000000E+00 0. -1.
        -14    1    4    4    0    0 -0.22046784622E+02  0.72822922218E+02 -0.80575807474E+02  0.11082282916E+03  0.00000000000E+00 0.  1.
        -11    1    3    3    0    0  0.25885085300E+02 -0.17883446293E+02 -0.83028392898E+02  0.88789466264E+02  0.00000000000E+00 0.  1.
         11    1    3    3    0    0 -0.38479995547E+02  0.18222152703E+02 -0.15762803273E+02  0.45400692434E+02  0.00000000000E+00 0. -1.
          2    1    1    2  501    0 -0.39891821266E+02 -0.25490438277E+03 -0.75902171739E+03  0.80167422887E+03  0.00000000000E+00 0. -1.
<scales pt_clust_5="13000.00000" pt_clust_6="13000.00000" pt_clust_7="13000.00000" pt_clust_8="13000.00000" pt_clust_9="13000.00000"></scales>
<clustering>
<clus scale="   86.016">  5  6 -1 -1</clus>
<clus scale="   89.936">  7  8 -1 -1</clus>
<clus scale="   90.815">  2  7  1 -1</clus>
<clus scale="  259.336">  5  9 -1 -1</clus>
<clus scale="  604.099">  1  5  2 -1</clus>
</clustering>
</event>
<event>
 9    1  0.2728138E-005  0.1194766E+03  0.7546771E-02  0.1253864E+00
         21   -1    0    0  501  502  0.00000000000E+00  0.00000000000E+00  0.16256178497E+03  0.16256178497E+03  0.00000000000E+00 0. -1.
          3   -1    0    0  502    0 -0.00000000000E+00 -0.00000000000E+00 -0.13518403338E+03  0.13518403338E+03  0.00000000000E+00 0. -1.
         23    2    1    2    0    0  0.22782817906E+01 -0.29671733434E+02 -0.87957334786E+02  0.13168303710E+03  0.93371982861E+02 0.  0.
        -24    2    1    2    0    0 -0.14313408579E+02 -0.36171749735E+01  0.82741445331E+02  0.11794478943E+03  0.82745809316E+02 0.  0.
         13    1    4    4    0    0 -0.38463148444E+00 -0.30321753262E+02  0.82422949383E+02  0.87824252045E+02  0.00000000000E+00 0. -1.
        -14    1    4    4    0    0 -0.13928777094E+02  0.26704578289E+02  0.31849594773E+00  0.30120537389E+02  0.00000000000E+00 0.  1.
        -11    1    3    3    0    0  0.28012862936E+02  0.17856073984E+02 -0.63816944040E+01  0.33827295066E+02  0.00000000000E+00 0.  1.
         11    1    3    3    0    0 -0.25734581146E+02 -0.47527807417E+02 -0.81575640382E+02  0.97855742031E+02  0.00000000000E+00 0. -1.
          4    1    1    2  501    0  0.12035126788E+02  0.33288908407E+02  0.32593641045E+02  0.48117991815E+02  0.00000000000E+00 0. -1.
<scales pt_clust_5="13000.00000" pt_clust_6="13000.00000" pt_clust_7="13000.00000" pt_clust_8="13000.00000" pt_clust_9="13000.00000"></scales>
<clustering>
<clus scale="   82.746">  5  6 -1 -1</clus>
<clus scale="   35.398">  5  9 -1 -1</clus>
<clus scale="   93.372">  7  8 -1 -1</clus>
<clus scale="   98.000">  2  7  1 -1</clus>
<clus scale="  119.477">  1  5  2 -1</clus>
</clustering>
</event>
<event>
 9    1  0.2728138E-005  0.2789704E+03  0.7546771E-02  0.1102927E+00
         21   -1    0    0  501  502  0.00000000000E+00  0.00000000000E+00  0.15476042343E+03  0.15476042343E+03  0.00000000000E+00 0. -1.
          1   -1    0    0  502    0 -0.00000000000E+00 -0.00000000000E+00 -0.43685429609E+03  0.43685429609E+03  0.00000000000E+00 0. -1.
         23    2    1    2    0    0 -0.76267464548E+02  0.20188265589E+03 -0.17553159771E+03  0.29298454892E+03  0.91952548695E+02 0.  0.
        -24    2    1    2    0    0  0.78821835111E+02 -0.60337692260E+02 -0.90319515884E+02  0.15613340307E+03  0.79790386678E+02 0.  0.
         11    1    4    4    0    0  0.83326874617E+02 -0.24638857021E+02 -0.43759146631E+02  0.97289795059E+02  0.00000000000E+00 0. -1.
        -12    1    4    4    0    0 -0.45050395062E+01 -0.35698835239E+02 -0.46560369253E+02  0.58843608008E+02  0.00000000000E+00 0.  1.
        -13    1    3    3    0    0 -0.33783090175E+01  0.12949499607E+03 -0.11809727678E+03  0.17529213833E+03  0.00000000000E+00 0. -1.
         13    1    3    3    0    0 -0.72889155531E+02  0.72387659825E+02 -0.57434320932E+02  0.11769241059E+03  0.00000000000E+00 0.  1.
          2    1    1    2  501    0 -0.25543705628E+01 -0.14154496363E+03 -0.16242759063E+02  0.14249676754E+03  0.00000000000E+00 0. -1.
<scales pt_clust_5="13000.00000" pt_clust_6="13000.00000" pt_clust_7="13000.00000" pt_clust_8="13000.00000" pt_clust_9="13000.00000"></scales>
<clustering>
<clus scale="   79.790">  5  6 -1 -1</clus>
<clus scale="   91.953">  7  8 -1 -1</clus>
<clus scale="  141.568">  5  9 -1 -1</clus>
<clus scale="  234.582">  2  7  1 -1</clus>
<clus scale="  278.970">  1  5  2 -1</clus>
</clustering>
</event>
<event>
 9    1  0.2728138E-005  0.1398571E+03  0.7546771E-02  0.1232211E+00
         21   -1    0    0  501  502  0.00000000000E+00  0.00000000000E+00  0.75004010459E+02  0.75004010459E+02  0.00000000000E+00 0. -1.
          1   -1    0    0  502    0 -0.00000000000E+00 -0.00000000000E+00 -0.18758202714E+03  0.18758202714E+03  0.00000000000E+00 0. -1.
         23    2    1    2    0    0 -0.18081995966E+01 -0.22328336892E+02 -0.26168604191E+02  0.98188322407E+02  0.91947412131E+02 0.  0.
        -24    2    1    2    0    0  0.84620632896E+01  0.54870000509E+02 -0.34899523737E+02  0.10310740264E+03  0.79566552342E+02 0.  0.
         13    1    4    4    0    0 -0.25559967287E+02  0.90377242513E+01 -0.37141668153E+02  0.45983648187E+02  0.00000000000E+00 0. -1.
        -14    1    4    4    0    0  0.34022030577E+02  0.45832276258E+02  0.22421444164E+01  0.57123754456E+02  0.00000000000E+00 0.  1.
        -11    1    3    3    0    0  0.71760536235E+01  0.35073602013E+02 -0.15963841018E+02  0.39198182659E+02  0.00000000000E+00 0.  1.
         11    1    3    3    0    0 -0.89842532201E+01 -0.57401938905E+02 -0.10204763173E+02  0.58990139747E+02  0.00000000000E+00 0. -1.
          2    1    1    2  501    0 -0.66538636930E+01 -0.32541663617E+02 -0.51509888751E+02  0.61290312547E+02  0.00000000000E+00 0. -1.
<scales pt_clust_5="13000.00000" pt_clust_6="13000.00000" pt_clust_7="13000.00000" pt_clust_8="13000.00000" pt_clust_9="13000.00000"></scales>
<clustering>
<clus scale="   79.567">  5  6 -1 -1</clus>
<clus scale="   33.215">  5  9 -1 -1</clus>
<clus scale="   91.947">  7  8 -1 -1</clus>
<clus scale="   94.637">  2  7  1 -1</clus>
<clus scale="  139.857">  1  5  2 -1</clus>
</clustering>
</event>
<event>
 9    1  0.2728138E-005  0.1714758E+03  0.7546771E-02  0.1197654E+00
         21   -1    0    0  501  502  0.00000000000E+00  0.00000000000E+00  0.24611439118E+02  0.24611439118E+02  0.00000000000E+00 0.  1.
         -2   -1    0    0    0  501 -0.00000000000E+00 -0.00000000000E+00 -0.82124750290E+03  0.82124750290E+03  0.00000000000E+00 0.  1.
         23    2    1    2    0    0 -0.25548681655E+02  0.52816197737E+02 -0.22470274188E+03  0.24877294334E+03  0.89187270695E+02 0.  0.
        -24    2    1    2    0    0 -0.12920718192E+02  0.97469671294E+01 -0.42414880020E+03  0.43205779146E+03  0.80683220812E+02 0.  0.
         11    1    4    4    0    0  0.31370541276E+01 -0.34502985650E+02 -0.20539790214E+03  0.20829929268E+03  0.00000000000E+00 0. -1.
        -12    1    4    4    0    0 -0.16057772320E+02  0.44249952780E+02 -0.21875089806E+03  0.22375849878E+03  0.00000000000E+00 0.  1.
        -13    1    3    3    0    0  0.16445199231E+02  0.57988446033E+02 -0.96589657076E+02  0.11385370572E+03  0.00000000000E+00 0.  1.
         13    1    3    3    0    0 -0.41993880886E+02 -0.51722482969E+01 -0.12811308480E+03  0.13491923762E+03  0.00000000000E+00 0. -1.
         -1    1    1    2    0  502  0.38469399847E+02 -0.62563164866E+02 -0.14778452171E+03  0.16502820723E+03  0.00000000000E+00 0.  1.
<scales pt_clust_5="13000.00000" pt_clust_6="13000.00000" pt_clust_7="13000.00000" pt_clust_8="13000.00000" pt_clust_9="13000.00000"></scales>
<clustering>
<clus scale="   80.683">  5  6 -1 -1</clus>
<clus scale="   73.444">  5  9 -1 -1</clus>
<clus scale="   89.187">  7  8 -1 -1</clus>
<clus scale="  106.755">  2  7  1 -1</clus>
<clus scale="  171.476">  1  5  2 -1</clus>
</clustering>
</event>
<event>
 9    1  0.2728138E-005  0.1550388E+03  0.7546771E-02  0.1215435E+00
          3   -1    0    0  502    0 -0.00000000000E+00  0.00000000000E+00  0.15691683482E+03  0.15691683482E+03  0.00000000000E+00 0. -1.
         21   -1    0    0  501  502  0.00000000000E+00 -0.00000000000E+00 -0.12562504708E+03  0.12562504708E+03  0.00000000000E+00 0. -1.
         23    2    1    2    0    0  0.32718661806E+02 -0.13610848703E+02  0.72202229643E+02  0.12219629564E+03  0.91994601315E+02 0.  0.
        -24    2    1    2    0    0 -0.48055433216E+02 -0.52623256483E+01 -0.73731751677E+02  0.11949645354E+03  0.80659869028E+02 0.  0.
         13    1    4    4    0    0 -0.65390298723E+02 -0.79350597103E+01 -0.77340438764E+02  0.10158936858E+03  0.00000000000E+00 0. -1.
        -14    1    4    4    0    0  0.17334865507E+02  0.26727340620E+01  0.36086870874E+01  0.17907084967E+02  0.00000000000E+00 0.  1.
        -13    1    3    3    0    0  0.51227937779E+02  0.22376537335E+02  0.54342201111E+02  0.77962079588E+02  0.00000000000E+00 0.  1.
         13    1    3    3    0    0 -0.18509275973E+02 -0.35987386039E+02  0.17860028533E+02  0.44234216057E+02  0.00000000000E+00 0. -1.
          4    1    1    2  501    0  0.15336771410E+02  0.18873174352E+02  0.32821309780E+02  0.40849132709E+02  0.00000000000E+00 0. -1.
<scales pt_clust_5="13000.00000" pt_clust_6="13000.00000" pt_clust_7="13000.00000" pt_clust_8="13000.00000" pt_clust_9="13000.00000"></scales>
<clustering>
<clus scale="   80.660">  5  6 -1 -1</clus>
<clus scale="   24.319">  5  9 -1 -1</clus>
<clus scale="   91.995">  7  8 -1 -1</clus>
<clus scale="   98.584">  1  7  2 -1</clus>
<clus scale="  155.039">  2  5  1 -1</clus>
</clustering>
</event>
<event>
 9    1  0.2728138E-005  0.2582606E+03  0.7546771E-02  0.1146326E+00
         21   -1    0    0  501  502  0.00000000000E+00  0.00000000000E+00  0.97446076603E+02  0.97446076603E+02  0.00000000000E+00 0. -1.
          1   -1    0    0  502    0 -0.00000000000E+00 -0.00000000000E+00 -0.38276754974E+03  0.38276754974E+03  0.00000000000E+00 0. -1.
         23    2    1    2    0    0 -0.13595356229E+02  0.40730225495E+02 -0.76840063199E+01  0.10102887277E+03  0.91126309046E+02 0.  0.
        -24    2    1    2    0    0  0.60917799260E+02 -0.12551859385E+03 -0.16463562239E+03  0.23019516378E+03  0.80118846721E+02 0.  0.
         11    1    4    4    0    0  0.33227887794E+01 -0.91637785558E+02 -0.75418206333E+02  0.11872838967E+03  0.00000000000E+00 0. -1.
        -12    1    4    4    0    0  0.57595010481E+02 -0.33880808291E+02 -0.89217416055E+02  0.11146677411E+03  0.00000000000E+00 0.  1.
        -11    1    3    3    0    0 -0.39119158548E+02  0.56278701700E+01 -0.32380950489E+02  0.51093125200E+02  0.00000000000E+00 0.  1.
         11    1    3    3    0    0  0.25523802319E+02  0.35102355325E+02  0.24696944169E+02  0.49935747571E+02  0.00000000000E+00 0. -1.
          2    1    1    2  501    0 -0.47322443031E+02  0.84788368354E+02 -0.11300184443E+03  0.14898958980E+03  0.00000000000E+00 0. -1.
<scales pt_clust_5="13000.00000" pt_clust_6="13000.00000" pt_clust_7="13000.00000" pt_clust_8="13000.00000" pt_clust_9="13000.00000"></scales>
<clustering>
<clus scale="   80.119">  5  6 -1 -1</clus>
<clus scale="   91.126">  7  8 -1 -1</clus>
<clus scale="   97.100">  5  9 -1 -1</clus>
<clus scale="  100.736">  2  7  1 -1</clus>
<clus scale="  258.261">  1  5  2 -1</clus>
</clustering>
</event>
<event>
 9    1  0.2728138E-005  0.3228473E+03  0.7546771E-02  0.1118456E+00
         21   -1    0    0  501  502  0.00000000000E+00  0.00000000000E+00  0.16101483460E+03  0.16101483460E+03  0.00000000000E+00 0.  1.
         -4   -1    0    0    0  501 -0.00000000000E+00 -0.00000000000E+00 -0.30254002118E+03  0.30254002118E+03  0.00000000000E+00 0.  1.
         23    2    1    2    0    0  0.29347957665E+02  0.34372042245E+02  0.17864547797E+02  0.10350564324E+03  0.91386739778E+02 0.  0.
        -24    2    1    2    0    0  0.98171881141E+02  0.32633696522E+02  0.14601613378E+02  0.13416413686E+03  0.84167286471E+02 0.  0.
         13    1    4    4    0    0  0.78280079618E+01  0.28214265309E+02  0.30551357878E+02  0.42316757245E+02  0.00000000000E+00 0. -1.
        -14    1    4    4    0    0  0.90343873180E+02  0.44194312133E+01 -0.15949744500E+02  0.91847379619E+02  0.00000000000E+00 0.  1.
        -11    1    3    3    0    0  0.11479554130E+02  0.61932971971E+02 -0.54541191347E+01  0.63223576265E+02  0.00000000000E+00 0.  1.
         11    1    3    3    0    0  0.17868403535E+02 -0.27560929727E+02  0.23318666932E+02  0.40282066975E+02  0.00000000000E+00 0. -1.
         -3    1    1    2    0  502 -0.12751983881E+03 -0.67005738767E+02 -0.17399134776E+03  0.22588507568E+03  0.00000000000E+00 0.  1.
<scales pt_clust_5="13000.00000" pt_clust_6="13000.00000" pt_clust_7="13000.00000" pt_clust_8="13000.00000" pt_clust_9="13000.00000"></scales>
<clustering>
<clus scale="   84.167">  5  6 -1 -1</clus>
<clus scale="   91.387">  7  8 -1 -1</clus>
<clus scale="  101.952">  2  7  1 -1</clus>
<clus scale="  112.488">  5  9 -1 -1</clus>
<clus scale="  322.847">  1  5  2 -1</clus>
</clustering>
</event>
<event>
 9    1  0.2728138E-005  0.3568533E+03  0.7546771E-02  0.1108985E+00
         21   -1    0    0  501  502  0.00000000000E+00  0.00000000000E+00  0.44243015862E+02  0.44243015862E+02  0.00000000000E+00 0.  1.
         -4   -1    0    0    0  501 -0.00000000000E+00 -0.00000000000E+00 -0.11636981570E+04  0.11636981570E+04  0.00000000000E+00 0.  1.
         23    2    1    2    0    0 -0.17918714761E+02  0.14633007623E+02 -0.20550044379E+03  0.22679007685E+03  0.93102638578E+02 0.  0.
        -24    2    1    2    0    0 -0.96496846937E+02 -0.30596538297E+02 -0.82574251328E+03  0.83579930038E+03  0.80386458106E+02 0.  0.
         13    1    4    4    0    0 -0.60624961352E+02  0.20968530087E+02 -0.33853820423E+03  0.34456230339E+03  0.00000000000E+00 0. -1.
        -14    1    4    4    0    0 -0.35871885585E+02 -0.51565068383E+02 -0.48720430905E+03  0.49123699699E+03  0.00000000000E+00 0.  1.
        -13    1    3    3    0    0 -0.47428929035E+02  0.35662238295E+02 -0.11791965381E+03  0.13200887585E+03  0.00000000000E+00 0.  1.
         13    1    3    3    0    0  0.29510214274E+02 -0.21029230672E+02 -0.87580789983E+02  0.94781201001E+02  0.00000000000E+00 0. -1.
         -3    1    1    2    0  502  0.11441556170E+03  0.15963530674E+02 -0.88212184019E+02  0.14535179558E+03  0.00000000000E+00 0.  1.
<scales pt_clust_5="13000.00000" pt_clust_6="13000.00000" pt_clust_7="13000.00000" pt_clust_8="13000.00000" pt_clust_9="13000.00000"></scales>
<clustering>
<clus scale="   80.386">  5  6 -1 -1</clus>
<clus scale="   93.103">  7  8 -1 -1</clus>
<clus scale="   95.934">  2  7  1 -1</clus>
<clus scale="  113.605">  5  9 -1 -1</clus>
<clus scale="  356.853">  1  5  2 -1</clus>
</clustering>
</event>
<event>
 9    1  0.2728138E-005  0.1320821E+03  0.7546771E-02  0.1236382E+00
         21   -1    0    0  501  502  0.00000000000E+00  0.00000000000E+00  0.19344560741E+03  0.19344560741E+03  0.00000000000E+00 0.  1.
          1   -1    0    0  502    0 -0.00000000000E+00 -0.00000000000E+00 -0.71538115521E+02  0.71538115521E+02  0.00000000000E+00 0. -1.
         23    2    1    2    0    0 -0.18955632558E+02  0.46456592328E+02  0.56132960909E+02  0.11743041767E+03  0.90119158442E+02 0.  0.
        -24    2    1    2    0    0  0.58497874188E+01 -0.13066934517E+01  0.56933879906E+02  0.99715729472E+02  0.81644550108E+02 0.  0.
         13    1    4    4    0    0  0.21536173369E+02 -0.45051350910E+00  0.73674087850E+02  0.76758588746E+02  0.00000000000E+00 0. -1.
        -14    1    4    4    0    0 -0.15686385950E+02 -0.85617994259E+00 -0.16740207944E+02  0.22957140725E+02  0.00000000000E+00 0.  1.
        -13    1    3    3    0    0 -0.17763494595E+02 -0.18513963757E+02  0.44570891357E+02  0.51428328289E+02  0.00000000000E+00 0.  1.
         13    1    3    3    0    0 -0.11921379629E+01  0.64970556085E+02  0.11562069552E+02  0.66002089385E+02  0.00000000000E+00 0. -1.
          2    1    1    2  501    0  0.13105845139E+02 -0.45149898876E+02  0.88406510715E+01  0.47837575782E+02  0.00000000000E+00 0. -1.
<scales pt_clust_5="13000.00000" pt_clust_6="13000.00000" pt_clust_7="13000.00000" pt_clust_8="13000.00000" pt_clust_9="13000.00000"></scales>
<clustering>
<clus scale="   81.645">  5  6 -1 -1</clus>
<clus scale="   47.014">  5  9 -1 -1</clus>
<clus scale="   90.119">  7  8 -1 -1</clus>
<clus scale="  103.146">  2  7  1 -1</clus>
<clus scale="  132.082">  1  5  2 -1</clus>
</clustering>
</event>
<event>
 9    1  0.2728138E-005  0.2313686E+03  0.7546771E-02  0.1130410E+00
         21   -1    0    0  501  502  0.00000000000E+00  0.00000000000E+00  0.64318848526E+02  0.64318848526E+02  0.00000000000E+00 0.  1.
          1   -1    0    0  502    0 -0.00000000000E+00 -0.00000000000E+00 -0.76685405248E+03  0.76685405248E+03  0.00000000000E+00 0. -1.
         23    2    1    2    0    0  0.17988549470E+03  0.42159816186E+02 -0.40427928354E+03  0.45369703054E+03  0.90901128259E+02 0.  0.
        -24    2    1    2    0    0 -0.10522434362E+03  0.89830136981E+01 -0.12698624946E+03  0.18376687037E+03  0.80572315764E+02 0.  0.
         11    1    4    4    0    0 -0.12432466474E+02 -0.16365916001E+02  0.43147365290E+01  0.21000628098E+02  0.00000000000E+00 0. -1.
        -12    1    4    4    0    0 -0.92791877150E+02  0.25348929699E+02 -0.13130098599E+03  0.16276624227E+03  0.00000000000E+00 0.  1.
        -11    1    3    3    0    0  0.12348415152E+03  0.46570319303E+02 -0.35475940783E+03  0.37851204440E+03  0.00000000000E+00 0.  1.
         11    1    3    3    0    0  0.56401343178E+02 -0.44105031162E+01 -0.49519875714E+02  0.75184986140E+02  0.00000000000E+00 0. -1.
          2    1    1    2  501    0 -0.74661151076E+02 -0.51142829884E+02 -0.17126967096E+03  0.19370900010E+03  0.00000000000E+00 0. -1.
<scales pt_clust_5="13000.00000" pt_clust_6="13000.00000" pt_clust_7="13000.00000" pt_clust_8="13000.00000" pt_clust_9="13000.00000"></scales>
<clustering>
<clus scale="   80.572">  5  6 -1 -1</clus>
<clus scale="   90.498">  5  9 -1 -1</clus>
<clus scale="   90.901">  7  8 -1 -1</clus>
<clus scale="  205.911">  2  7  1 -1</clus>
<clus scale="  231.369">  1  5  2 -1</clus>
</clustering>
</event>
<event>
 9    1  0.2728138E-005  0.4172577E+03  0.7546771E-02  0.1086758E+00
          3   -1    0    0  502    0 -0.00000000000E+00  0.00000000000E+00  0.57270200308E+02  0.57270200308E+02  0.00000000000E+00 0. -1.
         21   -1    0    0  501  502  0.00000000000E+00 -0.00000000000E+00 -0.12145553959E+04  0.12145553959E+04  0.00000000000E+00 0.  1.
         23    2    1    2    0    0  0.31526168647E+02 -0.48802557078E+02 -0.29641292085E+03  0.31516210545E+03  0.89949675812E+02 0.  0.
        -24    2    1    2    0    0  0.14084038954E+03  0.42656737968E+02 -0.70275347486E+03  0.72267725965E+03  0.82124068137E+02 0.  0.
         13    1    4    4    0    0  0.56761263498E+02 -0.22376084338E+02 -0.21591270515E+03  0.22436761448E+03  0.00000000000E+00 0. -1.
        -14    1    4    4    0    0  0.84079126038E+02  0.65032822306E+02 -0.48684076971E+03  0.49830964517E+03  0.00000000000E+00 0.  1.
        -11    1    3    3    0    0  0.44650435298E+02  0.58389169762E+01 -0.18471503584E+03  0.19012469274E+03  0.00000000000E+00 0.  1.
         11    1    3    3    0    0 -0.13124266652E+02 -0.54641474054E+02 -0.11169788501E+03  0.12503741271E+03  0.00000000000E+00 0. -1.
          4    1    1    2  501    0 -0.17236655818E+03  0.61458191100E+01 -0.15811879988E+03  0.23398623111E+03  0.00000000000E+00 0. -1.
<scales pt_clust_5="13000.00000" pt_clust_6="13000.00000" pt_clust_7="13000.00000" pt_clust_8="13000.00000" pt_clust_9="13000.00000"></scales>
<clustering>
<clus scale="   82.124">  5  6 -1 -1</clus>
<clus scale="   89.950">  7  8 -1 -1</clus>
<clus scale="  107.082">  1  7  2 -1</clus>
<clus scale="  150.939">  5  9 -1 -1</clus>
<clus scale="  417.258">  2  5  1 -1</clus>
</clustering>
</event>
<event>
 9    1  0.2728138E-005  0.3350518E+03  0.7546771E-02  0.1085954E+00
         21   -1    0    0  501  502  0.00000000000E+00  0.00000000000E+00  0.58844990191E+02  0.58844990191E+02  0.00000000000E+00 0. -1.
          1   -1    0    0  502    0 -0.00000000000E+00 -0.00000000000E+00 -0.14012727007E+04  0.14012727007E+04  0.00000000000E+00 0. -1.
         23    2    1    2    0    0  0.11640553695E+03 -0.15139496960E+03 -0.75336123432E+03  0.78243115293E+03  0.90413902957E+02 0.  0.
        -24    2    1    2    0    0  0.64765247592E+02  0.10608489239E+03 -0.27949524925E+03  0.31614788053E+03  0.79895846726E+02 0.  0.
         13    1    4    4    0    0  0.82835769505E+02  0.75421464601E+02 -0.20615591516E+03  0.23462826638E+03  0.00000000000E+00 0. -1.
        -14    1    4    4    0    0 -0.18070521914E+02  0.30663427793E+02 -0.73339334092E+02  0.81519614151E+02  0.00000000000E+00 0.  1.
        -11    1    3    3    0    0  0.30924394117E+02 -0.34541283803E+02 -0.70416025338E+02  0.84307977456E+02  0.00000000000E+00 0.  1.
         11    1    3    3    0    0  0.85481142835E+02 -0.11685368579E+03 -0.68294520898E+03  0.69812317547E+03  0.00000000000E+00 0. -1.
          2    1    1    2  501    0 -0.18117078454E+03  0.45310077202E+02 -0.30957122698E+03  0.36153865747E+03  0.00000000000E+00 0. -1.
<scales pt_clust_5="13000.00000" pt_clust_6="13000.00000" pt_clust_7="13000.00000" pt_clust_8="13000.00000" pt_clust_9="13000.00000"></scales>
<clustering>
<clus scale="   79.896">  5  6 -1 -1</clus>
<clus scale="   90.414">  7  8 -1 -1</clus>
<clus scale="  186.751">  5  9 -1 -1</clus>
<clus scale="  211.294">  2  7  1 -1</clus>
<clus scale="  335.052">  1  5  2 -1</clus>
</clustering>
</event>
<event>
 9    1  0.2728138E-005  0.3060702E+03  0.7546771E-02  0.1108798E+00
         -2   -1    0    0    0  501 -0.00000000000E+00  0.00000000000E+00  0.14640441981E+03  0.14640441981E+03  0.00000000000E+00 0.  1.
         21   -1    0    0  501  502  0.00000000000E+00 -0.00000000000E+00 -0.38291935447E+03  0.38291935447E+03  0.00000000000E+00 0.  1.
         23    2    1    2    0    0  0.11786130071E+03 -0.34936723094E+02 -0.19263257249E+02  0.15398760537E+03  0.90715206557E+02 0.  0.
        -24    2    1    2    0    0  0.74186180005E+02  0.29937791001E+02 -0.95827749225E+02  0.14806761740E+03  0.79631659332E+02 0.  0.
         11    1    4    4    0    0  0.47340197995E+02  0.56968903812E+02 -0.70935614617E+02  0.10255930854E+03  0.00000000000E+00 0. -1.
        -12    1    4    4    0    0  0.26845982010E+02 -0.27031112811E+02 -0.24892134607E+02  0.45508308859E+02  0.00000000000E+00 0.  1.
        -13    1    3    3    0    0  0.80131742735E+02 -0.63775385610E+02  0.84655161306E+00  0.10241636907E+03  0.00000000000E+00 0. -1.
         13    1    3    3    0    0  0.37729557980E+02  0.28838662516E+02 -0.20109808863E+02  0.51571236300E+02  0.00000000000E+00 0.  1.
         -1    1    1    2    0  502 -0.19204748072E+03  0.49989320930E+01 -0.12142392818E+03  0.22726855152E+03  0.00000000000E+00 0.  1.
<scales pt_clust_5="13000.00000" pt_clust_6="13000.00000" pt_clust_7="13000.00000" pt_clust_8="13000.00000" pt_clust_9="13000.00000"></scales>
<clustering>
<clus scale="   79.632">  5  6 -1 -1</clus>
<clus scale="   90.715">  7  8 -1 -1</clus>
<clus scale="  152.778">  1  7  2 -1</clus>
<clus scale="  114.619">  5  9 -1 -1</clus>
<clus scale="  306.070">  2  5  1 -1</clus>
</clustering>
</event>
<event>
 9    1  0.2728138E-005  0.3156209E+03  0.7546771E-02  0.1117789E+00
         -4   -1    0    0    0  501 -0.00000000000E+00  0.00000000000E+00  0.80963557944E+02  0.80963557944E+02  0.00000000000E+00 0.  1.
         21   -1    0    0  501  502  0.00000000000E+00 -0.00000000000E+00 -0.79530752759E+03  0.79530752759E+03  0.00000000000E+00 0.  1.
         23    2    1    2    0    0  0.54020956198E+02  0.33455142806E+02 -0.18898400840E+02  0.11255575202E+03  0.90962285969E+02 0.  0.
        -24    2    1    2    0    0  0.74981723749E+02  0.81441688459E+02 -0.23796265719E+03  0.27470246284E+03  0.81118489618E+02 0.  0.
         13    1    4    4    0    0  0.37563735198E+02 -0.58580613816E+01 -0.10195564388E+03  0.10881316283E+03  0.00000000000E+00 0. -1.
        -14    1    4    4    0    0  0.37417988551E+02  0.87299749840E+02 -0.13600701331E+03  0.16588930001E+03  0.00000000000E+00 0.  1.
        -11    1    3    3    0    0  0.41905679425E+02  0.78178678430E+01 -0.53122021779E+02  0.68111336968E+02  0.00000000000E+00 0.  1.
         11    1    3    3    0    0  0.12115276772E+02  0.25637274963E+02  0.34223620938E+02  0.44444415047E+02  0.00000000000E+00 0. -1.
         -3    1    1    2    0  502 -0.12900267995E+03 -0.11489683126E+03 -0.45748291161E+03  0.48901287067E+03  0.00000000000E+00 0.  1.
<scales pt_clust_5="13000.00000" pt_clust_6="13000.00000" pt_clust_7="13000.00000" pt_clust_8="13000.00000" pt_clust_9="13000.00000"></scales>
<clustering>
<clus scale="   81.118">  5  6 -1 -1</clus>
<clus scale="   90.962">  7  8 -1 -1</clus>
<clus scale="  110.958">  1  7  2 -1</clus>
<clus scale="  143.933">  5  9 -1 -1</clus>
<clus scale="  315.621">  2  5  1 -1</clus>
</clustering>
</event>
<event>
 9    1  0.2728138E-005  0.3928999E+03  0.7546771E-02  0.1095350E+00
         21   -1    0    0  501  502  0.00000000000E+00  0.00000000000E+00  0.35330688061E+02  0.35330688061E+02  0.00000000000E+00 0. -1.
          1   -1    0    0  502    0 -0.00000000000E+00 -0.00000000000E+00 -0.18672879051E+04  0.18672879051E+04  0.00000000000E+00 0. -1.
         23    2    1    2    0    0 -0.41700712128E+02  0.15769495268E+02 -0.20749593357E+03  0.23131826430E+03  0.92010600345E+02 0.  0.
        -24    2    1    2    0    0 -0.11271729257E+03 -0.13133921175E+03 -0.62738474230E+03  0.65573993750E+03  0.80175271649E+02 0.  0.
         13    1    4    4    0    0 -0.57081544542E+02 -0.40157611760E+02 -0.37883348503E+03  0.38520870433E+03  0.00000000000E+00 0. -1.
        -14    1    4    4    0    0 -0.55635748031E+02 -0.91181599988E+02 -0.24855125726E+03  0.27053123318E+03  0.00000000000E+00 0.  1.
        -13    1    3    3    0    0 -0.21856327225E+02 -0.17459031123E+02 -0.94509183893E+01  0.29526880396E+02  0.00000000000E+00 0. -1.
         13    1    3    3    0    0 -0.19844384903E+02  0.33228526390E+02 -0.19804501518E+03  0.20179138390E+03  0.00000000000E+00 0.  1.
          2    1    1    2  501    0  0.15441800470E+03  0.11556971648E+03 -0.99707654113E+03  0.10155603913E+04  0.00000000000E+00 0. -1.
<scales pt_clust_5="13000.00000" pt_clust_6="13000.00000" pt_clust_7="13000.00000" pt_clust_8="13000.00000" pt_clust_9="13000.00000"></scales>
<clustering>
<clus scale="   80.175">  5  6 -1 -1</clus>
<clus scale="   92.011">  7  8 -1 -1</clus>
<clus scale="  102.243">  2  7  1 -1</clus>
<clus scale="  179.732">  5  9 -1 -1</clus>
<clus scale="  392.900">  1  5  2 -1</clus>
</clustering>
</event>
<event>
 9    1  0.2728138E-005  0.2752500E+03  0.7546771E-02  0.1136422E+00
          3   -1    0    0  502    0 -0.00000000000E+00  0.00000000000E+00  0.82075222166E+02  0.82075222166E+02  0.00000000000E+00 0. -1.
         21   -1    0    0  501  502  0.00000000000E+00 -0.00000000000E+00 -0.73422025324E+03  0.73422025324E+03  0.00000000000E+00 0. -1.
         23    2    1    2    0    0 -0.36121852199E+02 -0.28230667024E+02  0.30330715889E+01  0.10564722757E+03  0.95133476775E+02 0.  0.
        -24    2    1    2    0    0  0.73699912881E+01 -0.10162268839E+03 -0.42821685960E+03  0.44758937749E+03  0.81148533109E+02 0.  0.
         13    1    4    4    0    0 -0.20879099788E+02 -0.57355300281E+02 -0.33573708686E+03  0.34124032407E+03  0.00000000000E+00 0. -1.
        -14    1    4    4    0    0  0.28249091077E+02 -0.44267388105E+02 -0.92479772741E+02  0.10634905342E+03  0.00000000000E+00 0.  1.
        -13    1    3    3    0    0 -0.55070071218E+02 -0.91854848106E+01  0.33434330323E+02  0.65076419073E+02  0.00000000000E+00 0. -1.
         13    1    3    3    0    0  0.18948219019E+02 -0.19045182214E+02 -0.30401258734E+02  0.40570808498E+02  0.00000000000E+00 0.  1.
          4    1    1    2  501    0  0.28751860911E+02  0.12985335541E+03 -0.22696124306E+03  0.26305887035E+03  0.00000000000E+00 0. -1.
<scales pt_clust_5="13000.00000" pt_clust_6="13000.00000" pt_clust_7="13000.00000" pt_clust_8="13000.00000" pt_clust_9="13000.00000"></scales>
<clustering>
<clus scale="   81.149">  5  6 -1 -1</clus>
<clus scale="   95.133">  7  8 -1 -1</clus>
<clus scale="  105.604">  1  7  2 -1</clus>
<clus scale="  111.605">  5  9 -1 -1</clus>
<clus scale="  275.250">  2  5  1 -1</clus>
</clustering>
</event>
<event>
 9    1  0.2728138E-005  0.2670410E+03  0.7546771E-02  0.1142791E+00
          3   -1    0    0  502    0 -0.00000000000E+00  0.00000000000E+00  0.17093751238E+03  0.17093751238E+03  0.00000000000E+00 0. -1.
         21   -1    0    0  501  502  0.00000000000E+00 -0.00000000000E+00 -0.19717212205E+03  0.19717212205E+03  0.00000000000E+00 0. -1.
         23    2    1    2    0    0  0.66865410695E+01  0.22303167734E+02  0.47335188585E+01  0.99278982783E+02  0.96393822931E+02 0.  0.
        -24    2    1    2    0    0  0.89029174795E+02 -0.81845357411E+02 -0.53478853284E+02  0.15388064798E+03  0.78704571535E+02 0.  0.
         11    1    4    4    0    0  0.44005187724E+02 -0.84825270731E+02 -0.51868129507E+02  0.10872941626E+03  0.00000000000E+00 0. -1.
        -12    1    4    4    0    0  0.45023987072E+02  0.29799133199E+01 -0.16107237776E+01  0.45151231725E+02  0.00000000000E+00 0.  1.
        -11    1    3    3    0    0 -0.36519803373E+02 -0.14240404225E+02 -0.10684308516E+02  0.40628064184E+02  0.00000000000E+00 0.  1.
         11    1    3    3    0    0  0.43206344442E+02  0.36543571959E+02  0.15417827375E+02  0.58650918599E+02  0.00000000000E+00 0. -1.
          4    1    1    2  501    0 -0.95715715865E+02  0.59542189677E+02  0.22510724753E+02  0.11495000367E+03  0.00000000000E+00 0. -1.
<scales pt_clust_5="13000.00000" pt_clust_6="13000.00000" pt_clust_7="13000.00000" pt_clust_8="13000.00000" pt_clust_9="13000.00000"></scales>
<clustering>
<clus scale="   78.705">  5  6 -1 -1</clus>
<clus scale="   96.394">  7  8 -1 -1</clus>
<clus scale="   99.166">  1  7  2 -1</clus>
<clus scale="  116.974">  5  9 -1 -1</clus>
<clus scale="  267.041">  2  5  1 -1</clus>
</clustering>
</event>
<event>
 9    1  0.2728138E-005  0.1661646E+03  0.7546771E-02  0.1185057E+00
          1   -1    0    0  502    0 -0.00000000000E+00  0.00000000000E+00  0.85606427530E+02  0.85606427530E+02  0.00000000000E+00 0. -1.
         21   -1    0    0  501  502  0.00000000000E+00 -0.00000000000E+00 -0.31257490081E+03  0.31257490081E+03  0.00000000000E+00 0. -1.
         23    2    1    2    0    0 -0.68071696472E+02 -0.10543095414E+03 -0.71335431667E+02  0.17051417307E+03  0.90757354823E+02 0.  0.
        -24    2    1    2    0    0  0.45860007690E+02  0.65759265266E+02 -0.13804514384E+03  0.17891742537E+03  0.80793329484E+02 0.  0.
         11    1    4    4    0    0 -0.11723770291E+02  0.40142249197E+02 -0.91387937205E+02  0.10050175136E+03  0.00000000000E+00 0. -1.
        -12    1    4    4    0    0  0.57583777981E+02  0.25617016070E+02 -0.46657206637E+02  0.78415674008E+02  0.00000000000E+00 0.  1.
        -13    1    3    3    0    0 -0.19555440053E+02 -0.90633053896E+01 -0.57909642603E+02  0.61790658248E+02  0.00000000000E+00 0.  1.
         13    1    3    3    0    0 -0.48516256419E+02 -0.96367648755E+02 -0.13425789063E+02  0.10872351482E+03  0.00000000000E+00 0. -1.
          2    1    1    2  501    0  0.22211688782E+02  0.39671688878E+02 -0.17587897766E+02  0.48749729895E+02  0.00000000000E+00 0. -1.
<scales pt_clust_5="13000.00000" pt_clust_6="13000.00000" pt_clust_7="13000.00000" pt_clust_8="13000.00000" pt_clust_9="13000.00000"></scales>
<clustering>
<clus scale="   80.793">  5  6 -1 -1</clus>
<clus scale="   45.467">  5  9 -1 -1</clus>
<clus scale="   90.757">  7  8 -1 -1</clus>
<clus scale="  154.875">  1  7  2 -1</clus>
<clus scale="  166.165">  2  5  1 -1</clus>
</clustering>
</event>
<event>
 9    1  0.2728138E-005  0.1481785E+03  0.7546771E-02  0.1215770E+00
         21   -1    0    0  501  502  0.00000000000E+00  0.00000000000E+00  0.20351703420E+03  0.20351703420E+03  0.00000000000E+00 0. -1.
          1   -1    0    0  502    0 -0.00000000000E+00 -0.00000000000E+00 -0.86494870466E+02  0.86494870466E+02  0.00000000000E+00 0. -1.
         23    2    1    2    0    0  0.38164655788E+02 -0.51964540165E+02  0.22810177860E+02  0.11441928267E+03  0.91731203230E+02 0.  0.
        -24    2    1    2    0    0 -0.38832101118E+02 -0.53839229472E+01  0.71439027480E+02  0.11388444314E+03  0.79556351334E+02 0.  0.
         13    1    4    4    0    0 -0.24320190061E+02 -0.36980052055E+02  0.64821492683E+02  0.78490902710E+02  0.00000000000E+00 0. -1.
        -14    1    4    4    0    0 -0.14511911057E+02  0.31596129107E+02  0.66175347967E+01  0.35393540426E+02  0.00000000000E+00 0.  1.
        -11    1    3    3    0    0  0.27152046529E+02  0.10494446490E+02  0.39282588155E+02  0.48892624904E+02  0.00000000000E+00 0.  1.
         11    1    3    3    0    0  0.11012609259E+02 -0.62458986654E+02 -0.16472410295E+02  0.65526657762E+02  0.00000000000E+00 0. -1.
          2    1    1    2  501    0  0.66744533008E+00  0.57348463112E+02  0.22772958393E+02  0.61708178862E+02  0.00000000000E+00 0. -1.
<scales pt_clust_5="13000.00000" pt_clust_6="13000.00000" pt_clust_7="13000.00000" pt_clust_8="13000.00000" pt_clust_9="13000.00000"></scales>
<clustering>
<clus scale="   79.556">  5  6 -1 -1</clus>
<clus scale="   57.352">  5  9 -1 -1</clus>
<clus scale="   91.731">  7  8 -1 -1</clus>
<clus scale="  112.123">  2  7  1 -1</clus>
<clus scale="  148.179">  1  5  2 -1</clus>
</clustering>
</event>
<event>
 9    1  0.2728138E-005  0.4579216E+03  0.7546771E-02  0.1040882E+00
         21   -1    0    0  501  502  0.00000000000E+00  0.00000000000E+00  0.47835850914E+03  0.47835850914E+03  0.00000000000E+00 0. -1.
          1   -1    0    0  502    0 -0.00000000000E+00 -0.00000000000E+00 -0.32619974360E+03  0.32619974360E+03  0.00000000000E+00 0. -1.
         23    2    1    2    0    0  0.27665606060E+03  0.32110358559E+02 -0.65945445304E+02  0.29734856360E+03  0.80608408509E+02 0.  0.
        -24    2    1    2    0    0  0.69048402406E+02  0.65515443078E+01  0.81255082697E+02  0.13339957378E+03  0.79890257305E+02 0.  0.
         13    1    4    4    0    0  0.24617682468E+02 -0.36117471956E+02  0.40085765559E+02  0.59307425092E+02  0.00000000000E+00 0. -1.
        -14    1    4    4    0    0  0.44430719939E+02  0.42669016264E+02  0.41169317138E+02  0.74092148685E+02  0.00000000000E+00 0.  1.
        -11    1    3    3    0    0  0.19988002177E+03  0.55758319547E+02 -0.63370047134E+02  0.21697183268E+03  0.00000000000E+00 0. -1.
         11    1    3    3    0    0  0.76776038833E+02 -0.23647960988E+02 -0.25753981697E+01  0.80376730921E+02  0.00000000000E+00 0.  1.
          2    1    1    2  501    0 -0.34570446301E+03 -0.38661902867E+02  0.13684912814E+03  0.37381011537E+03  0.00000000000E+00 0. -1.
<scales pt_clust_5="13000.00000" pt_clust_6="13000.00000" pt_clust_7="13000.00000" pt_clust_8="13000.00000" pt_clust_9="13000.00000"></scales>
<clustering>
<clus scale="   79.890">  5  6 -1 -1</clus>
<clus scale="   80.608">  7  8 -1 -1</clus>
<clus scale="  289.944">  2  7  1 -1</clus>
<clus scale="  119.586">  5  9 -1 -1</clus>
<clus scale="  457.922">  1  5  2 -1</clus>
</clustering>
</event>
<event>
 9    1  0.2728138E-005  0.3737044E+03  0.7546771E-02  0.1104788E+00
          1   -1    0    0  502    0 -0.00000000000E+00  0.00000000000E+00  0.53048970582E+03  0.53048970582E+03  0.00000000000E+00 0. -1.
         21   -1    0    0  501  502  0.00000000000E+00 -0.00000000000E+00 -0.13647804223E+03  0.13647804223E+03  0.00000000000E+00 0. -1.
         23    2    1    2    0    0  0.19491330996E+02  0.71082557913E+01  0.24953584526E+03  0.26630796484E+03  0.90671686777E+02 0.  0.
        -24    2    1    2    0    0  0.49728044495E+02 -0.16459301458E+03  0.12545655734E+03  0.22758608942E+03  0.80575067242E+02 0.  0.
         11    1    4    4    0    0  0.50625246034E+02 -0.13883617984E+03  0.64185674915E+02  0.16111549036E+03  0.00000000000E+00 0. -1.
        -12    1    4    4    0    0 -0.89720153962E+00 -0.25756834732E+02  0.61270882427E+02  0.66470599060E+02  0.00000000000E+00 0.  1.
        -11    1    3    3    0    0  0.37880077291E+02 -0.31467867034E+02  0.15316066267E+03  0.16088292482E+03  0.00000000000E+00 0. -1.
         11    1    3    3    0    0 -0.18388746294E+02  0.38576122825E+02  0.96375182587E+02  0.10542504001E+03  0.00000000000E+00 0.  1.
          2    1    1    2  501    0 -0.69219375491E+02  0.15748475879E+03  0.19019260994E+02  0.17307369379E+03  0.00000000000E+00 0. -1.
<scales pt_clust_5="13000.00000" pt_clust_6="13000.00000" pt_clust_7="13000.00000" pt_clust_8="13000.00000" pt_clust_9="13000.00000"></scales>
<clustering>
<clus scale="   80.575">  5  6 -1 -1</clus>
<clus scale="   90.672">  7  8 -1 -1</clus>
<clus scale="   93.015">  1  7  2 -1</clus>
<clus scale="  171.710">  5  9 -1 -1</clus>
<clus scale="  373.704">  2  5  1 -1</clus>
</clustering>
</event>
<event>
 9    1  0.2728138E-005  0.1233377E+03  0.7546771E-02  0.1240476E+00
         21   -1    0    0  501  502  0.00000000000E+00  0.00000000000E+00  0.19450005388E+03  0.19450005388E+03  0.00000000000E+00 0.  1.
         -2   -1    0    0    0  501 -0.00000000000E+00 -0.00000000000E+00 -0.76732861255E+02  0.76732861255E+02  0.00000000000E+00 0.  1.
         23    2    1    2    0    0 -0.23365114133E+02 -0.68547353136E+02  0.31515012020E+02  0.12072832375E+03  0.91309714662E+02 0.  0.
        -24    2    1    2    0    0  0.21936323840E+02  0.40520760135E+02  0.80276050981E+02  0.12181233665E+03  0.79188804085E+02 0.  0.
         11    1    4    4    0    0 -0.23000939024E+02  0.15231327596E+02  0.14581196340E+01  0.27625398625E+02  0.00000000000E+00 0. -1.
        -12    1    4    4    0    0  0.44937262864E+02  0.25289432539E+02  0.78817931347E+02  0.94186938021E+02  0.00000000000E+00 0.  1.
        -13    1    3    3    0    0  0.30140111412E+02 -0.46366964504E+01  0.20282712103E+02  0.36623949544E+02  0.00000000000E+00 0. -1.
         13    1    3    3    0    0 -0.53505225545E+02 -0.63910656685E+02  0.11232299917E+02  0.84104374203E+02  0.00000000000E+00 0.  1.
         -1    1    1    2    0  502  0.14287902930E+01  0.28026593000E+02  0.59761296242E+01  0.28692254742E+02  0.00000000000E+00 0.  1.
<scales pt_clust_5="13000.00000" pt_clust_6="13000.00000" pt_clust_7="13000.00000" pt_clust_8="13000.00000" pt_clust_9="13000.00000"></scales>
<clustering>
<clus scale="   79.189">  5  6 -1 -1</clus>
<clus scale="   28.063">  5  9 -1 -1</clus>
<clus scale="   91.310">  7  8 -1 -1</clus>
<clus scale="  116.542">  2  7  1 -1</clus>
<clus scale="  123.338">  1  5  2 -1</clus>
</clustering>
</event>
<event>
 9    1  0.2728138E-005  0.3572164E+03  0.7546771E-02  0.1085429E+00
          1   -1    0    0  502    0 -0.00000000000E+00  0.00000000000E+00  0.13430607167E+04  0.13430607167E+04  0.00000000000E+00 0. -1.
         21   -1    0    0  501  502  0.00000000000E+00 -0.00000000000E+00 -0.55389569329E+02  0.55389569329E+02  0.00000000000E+00 0. -1.
         23    2    1    2    0    0  0.14422932272E+03 -0.47209256238E+02  0.56999717707E+03  0.59678981926E+03  0.90722076170E+02 0.  0.
        -24    2    1    2    0    0  0.24521039934E+02  0.11603297295E+03  0.15759199441E+03  0.21267387218E+03  0.79561341075E+02 0.  0.
         11    1    4    4    0    0  0.26711942228E+02  0.29188959592E+02  0.90410562538E+01  0.40586499206E+02  0.00000000000E+00 0. -1.
        -12    1    4    4    0    0 -0.21909022934E+01  0.86844013363E+02  0.14855093816E+03  0.17208737298E+03  0.00000000000E+00 0.  1.
        -11    1    3    3    0    0  0.12553517170E+02 -0.28295372908E+02  0.41296047485E+02  0.51609906600E+02  0.00000000000E+00 0.  1.
         11    1    3    3    0    0  0.13167580555E+03 -0.18913883329E+02  0.52870112958E+03  0.54517991266E+03  0.00000000000E+00 0. -1.
          2    1    1    2  501    0 -0.16875036266E+03 -0.68823716717E+02  0.56008197588E+03  0.58898659457E+03  0.00000000000E+00 0. -1.
<scales pt_clust_5="13000.00000" pt_clust_6="13000.00000" pt_clust_7="13000.00000" pt_clust_8="13000.00000" pt_clust_9="13000.00000"></scales>
<clustering>
<clus scale="   79.561">  5  6 -1 -1</clus>
<clus scale="   90.722">  7  8 -1 -1</clus>
<clus scale="  176.809">  1  7  2 -1</clus>
<clus scale="  120.360">  5  9 -1 -1</clus>
<clus scale="  357.216">  2  5  1 -1</clus>
</clustering>
</event>
<event>
 9    1  0.2728138E-005  0.1595769E+03  0.7546771E-02  0.1213512E+00
         -4   -1    0    0    0  501 -0.00000000000E+00  0.00000000000E+00  0.27805405582E+03  0.27805405582E+03  0.00000000000E+00 0.  1.
         21   -1    0    0  501  502  0.00000000000E+00 -0.00000000000E+00 -0.57947550753E+02  0.57947550753E+02  0.00000000000E+00 0.  1.
         23    2    1    2    0    0 -0.16324059891E+02 -0.23889360452E+02  0.86751559064E+02  0.12803926401E+03  0.89616090368E+02 0.  0.
        -24    2    1    2    0    0  0.48125642473E+02 -0.27963764582E+02  0.50323971812E+02  0.10503406703E+03  0.73495601941E+02 0.  0.
         11    1    4    4    0    0 -0.50221830823E+01 -0.30343758907E+02 -0.14606213310E+01  0.30791223460E+02  0.00000000000E+00 0. -1.
        -12    1    4    4    0    0  0.53147825556E+02  0.23799943244E+01  0.51784593143E+02  0.74242843569E+02  0.00000000000E+00 0.  1.
        -13    1    3    3    0    0 -0.39316071695E+02  0.20381285222E+02  0.41126455142E+02  0.60436210945E+02  0.00000000000E+00 0.  1.
         13    1    3    3    0    0  0.22992011804E+02 -0.44270645674E+02  0.45625103922E+02  0.67603053060E+02  0.00000000000E+00 0. -1.
         -3    1    1    2    0  502 -0.31801582582E+02  0.51853125034E+02  0.83030974192E+02  0.10292827554E+03  0.00000000000E+00 0.  1.
<scales pt_clust_5="13000.00000" pt_clust_6="13000.00000" pt_clust_7="13000.00000" pt_clust_8="13000.00000" pt_clust_9="13000.00000"></scales>
<clustering>
<clus scale="   73.496">  5  6 -1 -1</clus>
<clus scale="   60.828">  5  9 -1 -1</clus>
<clus scale="   89.616">  7  8 -1 -1</clus>
<clus scale="   94.171">  1  7  2 -1</clus>
<clus scale="  159.577">  2  5  1 -1</clus>
</clustering>
</event>
<event>
 9    1  0.2728138E-005  0.3392328E+03  0.7546771E-02  0.1079386E+00
          1   -1    0    0  502    0 -0.00000000000E+00  0.00000000000E+00  0.30244481298E+03  0.30244481298E+03  0.00000000000E+00 0. -1.
         21   -1    0    0  501  502  0.00000000000E+00 -0.00000000000E+00 -0.82927481442E+03  0.82927481442E+03  0.00000000000E+00 0. -1.
         23    2    1    2    0    0 -0.13582610326E+03  0.17916147255E+03  0.20971791088E+03  0.32080548435E+03  0.91580527830E+02 0.  0.
        -24    2    1    2    0    0  0.62275956284E+02 -0.98503328409E+01 -0.82633842445E+02  0.13144413125E+03  0.80460449502E+02 0.  0.
         11    1    4    4    0    0 -0.98669190506E+01  0.20390510664E+02 -0.28067076785E+02  0.36067850171E+02  0.00000000000E+00 0. -1.
        -12    1    4    4    0    0  0.72142875335E+02 -0.30240843505E+02 -0.54566765660E+02  0.95376281077E+02  0.00000000000E+00 0.  1.
        -13    1    3    3    0    0 -0.14918257205E+03  0.16272162835E+03  0.19829468350E+03  0.29673986864E+03  0.00000000000E+00 0. -1.
         13    1    3    3    0    0  0.13356468795E+02  0.16439844198E+02  0.11423227376E+02  0.24065615713E+02  0.00000000000E+00 0.  1.
          2    1    1    2  501    0  0.73550146971E+02 -0.16931113971E+03 -0.65391406987E+03  0.67947001179E+03  0.00000000000E+00 0. -1.
<scales pt_clust_5="13000.00000" pt_clust_6="13000.00000" pt_clust_7="13000.00000" pt_clust_8="13000.00000" pt_clust_9="13000.00000"></scales>
<clustering>
<clus scale="   80.460">  5  6 -1 -1</clus>
<clus scale="   91.581">  7  8 -1 -1</clus>
<clus scale="  184.597">  5  9 -1 -1</clus>
<clus scale="  242.764">  1  7  2 -1</clus>
<clus scale="  339.233">  2  5  1 -1</clus>
</clustering>
</event>
<event>
 9    1  0.2728138E-005  0.6612527E+03  0.7546771E-02  0.1037407E+00
         21   -1    0    0  501  502  0.00000000000E+00  0.00000000000E+00  0.16830356225E+04  0.16830356225E+04  0.00000000000E+00 0.  1.
          1   -1    0    0  502    0 -0.00000000000E+00 -0.00000000000E+00 -0.89782112456E+02  0.89782112456E+02  0.00000000000E+00 0. -1.
         23    2    1    2    0    0 -0.42652504222E+02  0.26319463738E+02  0.33281164696E+03  0.34945239874E+03  0.94028912281E+02 0.  0.
        -24    2    1    2    0    0 -0.19644388392E+03 -0.91666773462E+02  0.11091143782E+04  0.11329563808E+04  0.80389426922E+02 0.  0.
         13    1    4    4    0    0 -0.11432492187E+03 -0.95543795740E+02  0.71655326094E+03  0.73187934827E+03  0.00000000000E+00 0. -1.
        -14    1    4    4    0    0 -0.82118962044E+02  0.38770222779E+01  0.39256111727E+03  0.40107703253E+03  0.00000000000E+00 0.  1.
        -11    1    3    3    0    0 -0.59712910055E+02 -0.13180733817E+02  0.23022876931E+03  0.23821135487E+03  0.00000000000E+00 0.  1.
         11    1    3    3    0    0  0.17060405833E+02  0.39500197555E+02  0.10258287765E+03  0.11124104387E+03  0.00000000000E+00 0. -1.
          2    1    1    2  501    0  0.23909638814E+03  0.65347309724E+02  0.15132748488E+03  0.29040895542E+03  0.00000000000E+00 0. -1.
<scales pt_clust_5="13000.00000" pt_clust_6="13000.00000" pt_clust_7="13000.00000" pt_clust_8="13000.00000" pt_clust_9="13000.00000"></scales>
<clustering>
<clus scale="   80.389">  5  6 -1 -1</clus>
<clus scale="   94.029">  7  8 -1 -1</clus>
<clus scale="  106.552">  2  7  1 -1</clus>
<clus scale="  220.891">  5  9 -1 -1</clus>
<clus scale="  661.253">  1  5  2 -1</clus>
</clustering>
</event>
<event>
 9    1  0.2728138E-005  0.2283706E+03  0.7546771E-02  0.1151240E+00
         21   -1    0    0  501  502  0.00000000000E+00  0.00000000000E+00  0.29596446801E+03  0.29596446801E+03  0.00000000000E+00 0. -1.
         -4   -1    0    0    0  501 -0.00000000000E+00 -0.00000000000E+00 -0.11783067032E+03  0.11783067032E+03  0.00000000000E+00 0.  1.
         23    2    1    2    0    0 -0.51411812044E+02  0.77589741084E+02  0.12333680610E+03  0.17894231883E+03  0.90249894117E+02 0.  0.
        -24    2    1    2    0    0 -0.33247064237E+02  0.71594163716E+01 -0.24263441238E+02  0.91325480428E+02  0.81209631643E+02 0.  0.
         13    1    4    4    0    0 -0.34419726209E+02  0.41081578002E+02 -0.10058889666E+02  0.54530678198E+02  0.00000000000E+00 0. -1.
        -14    1    4    4    0    0  0.11726619713E+01 -0.33922161631E+02 -0.14204551572E+02  0.36794802230E+02  0.00000000000E+00 0.  1.
        -13    1    3    3    0    0 -0.45488524544E+01  0.80238734816E+02  0.93638733225E+02  0.12339837512E+03  0.00000000000E+00 0. -1.
         13    1    3    3    0    0 -0.46862959589E+02 -0.26489937316E+01  0.29698072879E+02  0.55543943702E+02  0.00000000000E+00 0.  1.
         -3    1    1    2    0  502  0.84658876281E+02 -0.84749157456E+02  0.79060432830E+02  0.14352733907E+03  0.00000000000E+00 0.  1.
<scales pt_clust_5="13000.00000" pt_clust_6="13000.00000" pt_clust_7="13000.00000" pt_clust_8="13000.00000" pt_clust_9="13000.00000"></scales>
<clustering>
<clus scale="   81.210">  5  6 -1 -1</clus>
<clus scale="   90.250">  7  8 -1 -1</clus>
<clus scale="  119.790">  5  9 -1 -1</clus>
<clus scale="  129.647">  2  7  1 -1</clus>
<clus scale="  228.371">  1  5  2 -1</clus>
</clustering>
</event>
<event>
 9    1  0.2728138E-005  0.3013029E+03  0.7546771E-02  0.1121553E+00
          1   -1    0    0  502    0 -0.00000000000E+00  0.00000000000E+00  0.17257699515E+04  0.17257699515E+04  0.00000000000E+00 0. -1.
         21   -1    0    0  501  502  0.00000000000E+00 -0.00000000000E+00 -0.25328141726E+02  0.25328141726E+02  0.00000000000E+00 0. -1.
         23    2    1    2    0    0  0.14775624459E+02 -0.69061653584E+02  0.42691989770E+03  0.44241878805E+03  0.92119237394E+02 0.  0.
        -24    2    1    2    0    0  0.52674344228E+02 -0.54203225459E+02  0.22332975102E+03  0.24912878546E+03  0.80476070129E+02 0.  0.
         13    1    4    4    0    0  0.21207327251E+02 -0.41304431766E+02  0.36040335898E+02  0.58776803454E+02  0.00000000000E+00 0. -1.
        -14    1    4    4    0    0  0.31467016977E+02 -0.12898793693E+02  0.18728941512E+03  0.19035198201E+03  0.00000000000E+00 0.  1.
        -11    1    3    3    0    0 -0.26010414787E+02 -0.66718624232E+02  0.32106875760E+03  0.32895754073E+03  0.00000000000E+00 0.  1.
         11    1    3    3    0    0  0.40786039246E+02 -0.23430293520E+01  0.10585114010E+03  0.11346124732E+03  0.00000000000E+00 0. -1.
          2    1    1    2  501    0 -0.67449968687E+02  0.12326487904E+03  0.10501921610E+04  0.10595505197E+04  0.00000000000E+00 0. -1.
<scales pt_clust_5="13000.00000" pt_clust_6="13000.00000" pt_clust_7="13000.00000" pt_clust_8="13000.00000" pt_clust_9="13000.00000"></scales>
<clustering>
<clus scale="   80.476">  5  6 -1 -1</clus>
<clus scale="   92.119">  7  8 -1 -1</clus>
<clus scale="  116.077">  1  7  2 -1</clus>
<clus scale="   86.800">  5  9 -1 -1</clus>
<clus scale="  301.303">  2  5  1 -1</clus>
</clustering>
</event>
<event>
 9    1  0.2728138E-005  0.1257649E+03  0.7546771E-02  0.1240991E+00
          1   -1    0    0  502    0 -0.00000000000E+00  0.00000000000E+00  0.45922672248E+03  0.45922672248E+03  0.00000000000E+00 0. -1.
         21   -1    0    0  501  502  0.00000000000E+00 -0.00000000000E+00 -0.30328895462E+02  0.30328895462E+02  0.00000000000E+00 0. -1.
         23    2    1    2    0    0 -0.57315821851E+02  0.12644849767E+02  0.22646186852E+03  0.25123412885E+03  0.91589376820E+02 0.  0.
        -24    2    1    2    0    0  0.27569510677E+02 -0.27833433824E+02  0.12340775379E+03  0.15252525809E+03  0.80620733705E+02 0.  0.
         13    1    4    4    0    0  0.23197353684E+02 -0.23745984342E+00 -0.27038799203E+01  0.23355611140E+02  0.00000000000E+00 0. -1.
        -14    1    4    4    0    0  0.43721569936E+01 -0.27595973981E+02  0.12611163371E+03  0.12916964695E+03  0.00000000000E+00 0.  1.
        -11    1    3    3    0    0  0.13208208654E+02 -0.24663082362E+02  0.74909231472E+02  0.79963225093E+02  0.00000000000E+00 0.  1.
         11    1    3    3    0    0 -0.70524030505E+02  0.37307932129E+02  0.15155263705E+03  0.17127090376E+03  0.00000000000E+00 0. -1.
          2    1    1    2  501    0  0.29746311174E+02  0.15188584057E+02  0.79028204709E+02  0.85796230999E+02  0.00000000000E+00 0. -1.
<scales pt_clust_5="13000.00000" pt_clust_6="13000.00000" pt_clust_7="13000.00000" pt_clust_8="13000.00000" pt_clust_9="13000.00000"></scales>
<clustering>
<clus scale="   80.621">  5  6 -1 -1</clus>
<clus scale="   33.400">  5  9 -1 -1</clus>
<clus scale="   91.589">  7  8 -1 -1</clus>
<clus scale="  108.782">  1  7  2 -1</clus>
<clus scale="  125.765">  2  5  1 -1</clus>
</clustering>
</event>
<event>
 9    1  0.2728138E-005  0.2823214E+03  0.7546771E-02  0.1128962E+00
         21   -1    0    0  501  502  0.00000000000E+00  0.00000000000E+00  0.26097351591E+03  0.26097351591E+03  0.00000000000E+00 0.  1.
         -2   -1    0    0    0  501 -0.00000000000E+00 -0.00000000000E+00 -0.15478568238E+03  0.15478568238E+03  0.00000000000E+00 0.  1.
         23    2    1    2    0    0 -0.20964526405E+02  0.60471652620E+02  0.51280994574E+02  0.12814807445E+03  0.98467540041E+02 0.  0.
        -24    2    1    2    0    0  0.10070817685E+03  0.41474529516E+02 -0.21733305789E+02  0.13719242279E+03  0.80542850743E+02 0.  0.
         13    1    4    4    0    0  0.40197439547E+02  0.51816491849E+02  0.12711615888E+02  0.66800959216E+02  0.00000000000E+00 0. -1.
        -14    1    4    4    0    0  0.60510737307E+02 -0.10341962333E+02 -0.34444921677E+02  0.70391463571E+02  0.00000000000E+00 0.  1.
        -11    1    3    3    0    0 -0.34595851567E+00  0.51208406735E+02  0.77901279905E+02  0.93225693983E+02  0.00000000000E+00 0.  1.
         11    1    3    3    0    0 -0.20618567889E+02  0.92632458852E+01 -0.26620285331E+02  0.34922380463E+02  0.00000000000E+00 0. -1.
         -1    1    1    2    0  502 -0.79743650449E+02 -0.10194618214E+03  0.76640144750E+02  0.15041870105E+03  0.00000000000E+00 0.  1.
<scales pt_clust_5="13000.00000" pt_clust_6="13000.00000" pt_clust_7="13000.00000" pt_clust_8="13000.00000" pt_clust_9="13000.00000"></scales>
<clustering>
<clus scale="   80.543">  5  6 -1 -1</clus>
<clus scale="   98.468">  7  8 -1 -1</clus>
<clus scale="  117.440">  2  7  1 -1</clus>
<clus scale="  119.645">  5  9 -1 -1</clus>
<clus scale="  282.321">  1  5  2 -1</clus>
</clustering>
</event>
<event>
 9    1  0.2728138E-005  0.3470159E+03  0.7546771E-02  0.1106140E+00
          1   -1    0    0  502    0 -0.00000000000E+00  0.00000000000E+00  0.47658540056E+03  0.47658540056E+03  0.00000000000E+00 0. -1.
         21   -1    0    0  501  502  0.00000000000E+00 -0.00000000000E+00 -0.15371544753E+03  0.15371544753E+03  0.00000000000E+00 0. -1.
         23    2    1    2    0    0  0.17854433966E+02  0.28819868561E+02 -0.48319365283E+02  0.12216548779E+03  0.10695924322E+03 0.  0.
        -24    2    1    2    0    0 -0.17671827246E+02  0.36576244914E+02  0.42007925339E+03  0.42648420749E+03  0.61417301640E+02 0.  0.
         11    1    4    4    0    0  0.12462026920E+02  0.29876978700E+02  0.10451163933E+03  0.10941032276E+03  0.00000000000E+00 0. -1.
        -12    1    4    4    0    0 -0.30133854166E+02  0.66992662138E+01  0.31556761406E+03  0.31707388473E+03  0.00000000000E+00 0.  1.
        -11    1    3    3    0    0 -0.44228091535E+02  0.13022823542E+01 -0.17309827277E+02  0.47512631378E+02  0.00000000000E+00 0.  1.
         11    1    3    3    0    0  0.62082525500E+02  0.27517586207E+02 -0.31009538005E+02  0.74652856412E+02  0.00000000000E+00 0. -1.
          2    1    1    2  501    0 -0.18260671928E+00 -0.65396113475E+02 -0.48889935078E+02  0.81651152807E+02  0.00000000000E+00 0. -1.
<scales pt_clust_5="13000.00000" pt_clust_6="13000.00000" pt_clust_7="13000.00000" pt_clust_8="13000.00000" pt_clust_9="13000.00000"></scales>
<clustering>
<clus scale="   61.417">  5  6 -1 -1</clus>
<clus scale="   65.396">  5  9 -1 -1</clus>
<clus scale="  106.959">  7  8 -1 -1</clus>
<clus scale="  112.204">  1  7  2 -1</clus>
<clus scale="  347.016">  2  5  1 -1</clus>
</clustering>
</event>
<event>
 9    1  0.2728138E-005  0.2674806E+03  0.7546771E-02  0.1113545E+00
          3   -1    0    0  502    0 -0.00000000000E+00  0.00000000000E+00  0.16079663177E+03  0.16079663177E+03  0.00000000000E+00 0. -1.
         21   -1    0    0  501  502  0.00000000000E+00 -0.00000000000E+00 -0.36880562336E+03  0.36880562336E+03  0.00000000000E+00 0. -1.
         23    2    1    2    0    0  0.18055590685E+03  0.15727971182E+02 -0.22584638145E+02  0.20413636895E+03  0.91179968589E+02 0.  0.
        -24    2    1    2    0    0 -0.13000602883E+02  0.37013256497E+02 -0.49133700928E+02  0.10313379460E+03  0.81752444547E+02 0.  0.
         13    1    4    4    0    0  0.28431766727E+02 -0.15552358387E+01 -0.34373917067E+02  0.44635751279E+02  0.00000000000E+00 0. -1.
        -14    1    4    4    0    0 -0.41432369610E+02  0.38568492335E+02 -0.14759783861E+02  0.58498043319E+02  0.00000000000E+00 0.  1.
        -11    1    3    3    0    0  0.72448613959E+02 -0.11152507399E+02  0.32119676415E+02  0.80030329868E+02  0.00000000000E+00 0.  1.
         11    1    3    3    0    0  0.10810729289E+03  0.26880478581E+02 -0.54704314559E+02  0.12410603908E+03  0.00000000000E+00 0. -1.
          4    1    1    2  501    0 -0.16755530396E+03 -0.52741227679E+02 -0.13629065252E+03  0.22233209159E+03  0.00000000000E+00 0. -1.
<scales pt_clust_5="13000.00000" pt_clust_6="13000.00000" pt_clust_7="13000.00000" pt_clust_8="13000.00000" pt_clust_9="13000.00000"></scales>
<clustering>
<clus scale="   81.752">  5  6 -1 -1</clus>
<clus scale="   91.180">  7  8 -1 -1</clus>
<clus scale="  175.660">  5  9 -1 -1</clus>
<clus scale="  202.883">  1  7  2 -1</clus>
<clus scale="  267.481">  2  5  1 -1</clus>
</clustering>
</event>
<event>
 9    1  0.2728138E-005  0.2341770E+03  0.7546771E-02  0.1133811E+00
         21   -1    0    0  501  502  0.00000000000E+00  0.00000000000E+00  0.14748298197E+04  0.14748298197E+04  0.00000000000E+00 0. -1.
          3   -1    0    0  502    0 -0.00000000000E+00 -0.00000000000E+00 -0.35577839030E+02  0.35577839030E+02  0.00000000000E+00 0. -1.
         23    2    1    2    0    0  0.15542351328E+03  0.27907964914E+02  0.33500851456E+03  0.38160629666E+03  0.91963785466E+02 0.  0.
        -24    2    1    2    0    0 -0.52412060393E+02 -0.38644072737E+02  0.31799445832E+03  0.33576030027E+03  0.85872669029E+02 0.  0.
         11    1    4    4    0    0 -0.23881445698E+02 -0.58034072103E+02  0.26643029469E+03  0.27372135266E+03  0.00000000000E+00 0. -1.
        -12    1    4    4    0    0 -0.28530614695E+02  0.19389999366E+02  0.51564163629E+02  0.62038947614E+02  0.00000000000E+00 0.  1.
        -13    1    3    3    0    0  0.83615257859E+02  0.48972494027E+02  0.25124106762E+03  0.26928031970E+03  0.00000000000E+00 0.  1.
         13    1    3    3    0    0  0.71808255425E+02 -0.21064529112E+02  0.83767446937E+02  0.11232597696E+03  0.00000000000E+00 0. -1.
          4    1    1    2  501    0 -0.10301145289E+03  0.10736107823E+02  0.78624900780E+03  0.79304106180E+03  0.00000000000E+00 0. -1.
<scales pt_clust_5="13000.00000" pt_clust_6="13000.00000" pt_clust_7="13000.00000" pt_clust_8="13000.00000" pt_clust_9="13000.00000"></scales>
<clustering>
<clus scale="   85.873">  5  6 -1 -1</clus>
<clus scale="   91.964">  7  8 -1 -1</clus>
<clus scale="  103.569">  5  9 -1 -1</clus>
<clus scale="  182.737">  2  7  1 -1</clus>
<clus scale="  234.177">  1  5  2 -1</clus>
</clustering>
</event>
<event>
 9    1  0.2728138E-005  0.4167090E+03  0.7546771E-02  0.1073798E+00
          1   -1    0    0  502    0 -0.00000000000E+00  0.00000000000E+00  0.45889258252E+03  0.45889258252E+03  0.00000000000E+00 0. -1.
         21   -1    0    0  501  502  0.00000000000E+00 -0.00000000000E+00 -0.22561729652E+03  0.22561729652E+03  0.00000000000E+00 0. -1.
         23    2    1    2    0    0  0.12559592581E+03  0.21194265478E+01  0.21995039626E+03  0.26758785502E+03  0.86291684354E+02 0.  0.
        -24    2    1    2    0    0  0.53068992310E+01  0.10090345706E+03 -0.14019121516E+03  0.19039066060E+03  0.79908422649E+02 0.  0.
         11    1    4    4    0    0  0.51957465682E+01  0.11070988225E+03 -0.14229046596E+03  0.18036144409E+03  0.00000000000E+00 0. -1.
        -12    1    4    4    0    0  0.11115266275E+00 -0.98064251877E+01  0.20992508059E+01  0.10029216511E+02  0.00000000000E+00 0.  1.
        -13    1    3    3    0    0  0.12703390241E+03 -0.20396335068E+02  0.17404457830E+03  0.21643737682E+03  0.00000000000E+00 0. -1.
         13    1    3    3    0    0 -0.14379766019E+01  0.22515761616E+02  0.45905817957E+02  0.51150478201E+02  0.00000000000E+00 0.  1.
          2    1    1    2  501    0 -0.13090282504E+03 -0.10302288361E+03  0.15351610490E+03  0.22653136343E+03  0.00000000000E+00 0. -1.
<scales pt_clust_5="13000.00000" pt_clust_6="13000.00000" pt_clust_7="13000.00000" pt_clust_8="13000.00000" pt_clust_9="13000.00000"></scales>
<clustering>
<clus scale="   79.908">  5  6 -1 -1</clus>
<clus scale="   86.292">  7  8 -1 -1</clus>
<clus scale="  152.398">  1  7  2 -1</clus>
<clus scale="  103.102">  5  9 -1 -1</clus>
<clus scale="  416.709">  2  5  1 -1</clus>
</clustering>
</event>
<event>
 9    1  0.2728138E-005  0.5878431E+03  0.7546771E-02  0.1013175E+00
         21   -1    0    0  501  502  0.00000000000E+00  0.00000000000E+00  0.14458291324E+04  0.14458291324E+04  0.00000000000E+00 0. -1.
          1   -1    0    0  502    0 -0.00000000000E+00 -0.00000000000E+00 -0.15039926335E+03  0.15039926335E+03  0.00000000000E+00 0. -1.
         23    2    1    2    0    0 -0.29842528663E+03 -0.30653713904E+01  0.65968316185E+03  0.73035694864E+03  0.95772387416E+02 0.  0.
        -24    2    1    2    0    0 -0.87195557944E+02 -0.21720338834E+02 -0.18713950467E+01  0.12030145608E+03  0.79963115071E+02 0.  0.
         13    1    4    4    0    0 -0.44009273229E+02  0.25925286396E+02  0.16059823051E+02  0.53543015616E+02  0.00000000000E+00 0. -1.
        -14    1    4    4    0    0 -0.43186284716E+02 -0.47645625230E+02 -0.17931218097E+02  0.66758440467E+02  0.00000000000E+00 0.  1.
        -11    1    3    3    0    0 -0.58730331608E+02  0.37605297755E+02  0.12933438586E+03  0.14693806054E+03  0.00000000000E+00 0.  1.
         11    1    3    3    0    0 -0.23969495503E+03 -0.40670669145E+02  0.53034877599E+03  0.58341888810E+03  0.00000000000E+00 0. -1.
          2    1    1    2  501    0  0.38562084458E+03  0.24785710225E+02  0.63761810225E+03  0.74556999103E+03  0.00000000000E+00 0. -1.
<scales pt_clust_5="13000.00000" pt_clust_6="13000.00000" pt_clust_7="13000.00000" pt_clust_8="13000.00000" pt_clust_9="13000.00000"></scales>
<clustering>
<clus scale="   79.963">  5  6 -1 -1</clus>
<clus scale="   95.772">  7  8 -1 -1</clus>
<clus scale="  313.432">  2  7  1 -1</clus>
<clus scale="  246.736">  5  9 -1 -1</clus>
<clus scale="  587.843">  1  5  2 -1</clus>
</clustering>
</event>
<event>
 9    1  0.2728138E-005  0.2203264E+03  0.7546771E-02  0.1153081E+00
         21   -1    0    0  501  502  0.00000000000E+00  0.00000000000E+00  0.74736873953E+02  0.74736873953E+02  0.00000000000E+00 0. -1.
         -2   -1    0    0    0  501 -0.00000000000E+00 -0.00000000000E+00 -0.51154745229E+03  0.51154745229E+03  0.00000000000E+00 0.  1.
         23    2    1    2    0    0 -0.79333396285E+00 -0.10255102480E+03 -0.61974429560E+02  0.15149025899E+03  0.92688330348E+02 0.  0.
        -24    2    1    2    0    0 -0.29987703070E+02 -0.21506246321E+02 -0.19682594623E+03  0.21564728775E+03  0.80009490925E+02 0.  0.
         11    1    4    4    0    0 -0.15611169010E+02 -0.38716692963E+02 -0.18621792822E+03  0.19083974350E+03  0.00000000000E+00 0. -1.
        -12    1    4    4    0    0 -0.14376534060E+02  0.17210446642E+02 -0.10608018011E+02  0.24807544242E+02  0.00000000000E+00 0.  1.
        -11    1    3    3    0    0  0.41368430787E+02 -0.56413663180E+02 -0.54225996666E+02  0.88511621687E+02  0.00000000000E+00 0.  1.
         11    1    3    3    0    0 -0.42161764749E+02 -0.46137361617E+02 -0.77484328939E+01  0.62978637299E+02  0.00000000000E+00 0. -1.
         -1    1    1    2    0  502  0.30781037033E+02  0.12405727112E+03 -0.17801020255E+03  0.21914677951E+03  0.00000000000E+00 0.  1.
<scales pt_clust_5="13000.00000" pt_clust_6="13000.00000" pt_clust_7="13000.00000" pt_clust_8="13000.00000" pt_clust_9="13000.00000"></scales>
<clustering>
<clus scale="   80.009">  5  6 -1 -1</clus>
<clus scale="   92.688">  7  8 -1 -1</clus>
<clus scale="  127.819">  5  9 -1 -1</clus>
<clus scale="  138.233">  2  7  1 -1</clus>
<clus scale="  220.326">  1  5  2 -1</clus>
</clustering>
</event>
<event>
 9    1  0.2728138E-005  0.3425584E+03  0.7546771E-02  0.1104180E+00
         21   -1    0    0  501  502  0.00000000000E+00  0.00000000000E+00  0.45474782905E+02  0.45474782905E+02  0.00000000000E+00 0. -1.
          1   -1    0    0  502    0 -0.00000000000E+00 -0.00000000000E+00 -0.11911177561E+04  0.11911177561E+04  0.00000000000E+00 0. -1.
         23    2    1    2    0    0  0.29516884381E+02  0.80218993667E+02 -0.31996926645E+03  0.34267794180E+03  0.87985833570E+02 0.  0.
        -24    2    1    2    0    0  0.12248714167E+03  0.36662499207E+02 -0.36464463068E+03  0.39460075174E+03  0.79980046663E+02 0.  0.
         13    1    4    4    0    0  0.57833703543E+02  0.10651886271E+02 -0.68096481707E+02  0.89974056080E+02  0.00000000000E+00 0. -1.
        -14    1    4    4    0    0  0.64653438128E+02  0.26010612936E+02 -0.29654814898E+03  0.30462669566E+03  0.00000000000E+00 0.  1.
        -13    1    3    3    0    0 -0.70667700407E+01  0.45700149689E+02 -0.50173269112E+02  0.68233421824E+02  0.00000000000E+00 0.  1.
         13    1    3    3    0    0  0.36583654422E+02  0.34518843979E+02 -0.26979599734E+03  0.27444451997E+03  0.00000000000E+00 0. -1.
          2    1    1    2  501    0 -0.15200402605E+03 -0.11688149287E+03 -0.46102907611E+03  0.49931384552E+03  0.00000000000E+00 0. -1.
<scales pt_clust_5="13000.00000" pt_clust_6="13000.00000" pt_clust_7="13000.00000" pt_clust_8="13000.00000" pt_clust_9="13000.00000"></scales>
<clustering>
<clus scale="   79.980">  5  6 -1 -1</clus>
<clus scale="   87.986">  7  8 -1 -1</clus>
<clus scale="  122.670">  2  7  1 -1</clus>
<clus scale="  153.497">  5  9 -1 -1</clus>
<clus scale="  342.558">  1  5  2 -1</clus>
</clustering>
</event>
<event>
 9    1  0.2728138E-005  0.4533682E+03  0.7546771E-02  0.1081021E+00
         21   -1    0    0  501  502  0.00000000000E+00  0.00000000000E+00  0.34191634631E+02  0.34191634631E+02  0.00000000000E+00 0.  1.
          1   -1    0    0  502    0 -0.00000000000E+00 -0.00000000000E+00 -0.22747227047E+04  0.22747227047E+04  0.00000000000E+00 0. -1.
         23    2    1    2    0    0  0.32707720196E+02  0.23410867540E+02 -0.55536820302E+03  0.56383078198E+03  0.88619671098E+02 0.  0.
        -24    2    1    2    0    0 -0.78612896605E+02 -0.22246076761E+03 -0.89858061612E+03  0.93240909275E+03  0.79188458372E+02 0.  0.
         13    1    4    4    0    0 -0.71239224391E+02 -0.16413228734E+03 -0.77732438777E+03  0.79765132650E+03  0.00000000000E+00 0. -1.
        -14    1    4    4    0    0 -0.73736722141E+01 -0.58328480265E+02 -0.12125622835E+03  0.13475776626E+03  0.00000000000E+00 0.  1.
        -13    1    3    3    0    0  0.53944167021E+02 -0.12706373483E+02 -0.31815356645E+03  0.32294444867E+03  0.00000000000E+00 0. -1.
         13    1    3    3    0    0 -0.21236446825E+02  0.36117241023E+02 -0.23721463656E+03  0.24088633330E+03  0.00000000000E+00 0.  1.
          2    1    1    2  501    0  0.45905176408E+02  0.19904990007E+03 -0.78658225097E+03  0.81267446464E+03  0.00000000000E+00 0. -1.
<scales pt_clust_5="13000.00000" pt_clust_6="13000.00000" pt_clust_7="13000.00000" pt_clust_8="13000.00000" pt_clust_9="13000.00000"></scales>
<clustering>
<clus scale="   79.188">  5  6 -1 -1</clus>
<clus scale="   88.620">  7  8 -1 -1</clus>
<clus scale="   97.321">  2  7  1 -1</clus>
<clus scale="  218.689">  5  9 -1 -1</clus>
<clus scale="  453.368">  1  5  2 -1</clus>
</clustering>
</event>
<event>
 9    1  0.2728138E-005  0.4461789E+03  0.7546771E-02  0.1086955E+00
          1   -1    0    0  502    0 -0.00000000000E+00  0.00000000000E+00  0.22564294170E+03  0.22564294170E+03  0.00000000000E+00 0. -1.
         21   -1    0    0  501  502  0.00000000000E+00 -0.00000000000E+00 -0.42013718835E+03  0.42013718835E+03  0.00000000000E+00 0. -1.
         23    2    1    2    0    0  0.21632731035E+02  0.13475610725E+02  0.83014480235E+02  0.12034060922E+03  0.83312010914E+02 0.  0.
        -24    2    1    2    0    0  0.10167321842E+03  0.22888281419E+02  0.71209115639E+02  0.15377996759E+03  0.87842037260E+02 0.  0.
         11    1    4    4    0    0  0.87954052189E+02 -0.18991210915E+02  0.34302260386E+02  0.96297593200E+02  0.00000000000E+00 0. -1.
        -12    1    4    4    0    0  0.13719166231E+02  0.41879492334E+02  0.36906855253E+02  0.57482374385E+02  0.00000000000E+00 0.  1.
        -13    1    3    3    0    0  0.42164915717E+02  0.29862643322E+02  0.26609442430E+02  0.58118155597E+02  0.00000000000E+00 0. -1.
         13    1    3    3    0    0 -0.20532184682E+02 -0.16387032597E+02  0.56405037805E+02  0.62222453623E+02  0.00000000000E+00 0.  1.
          2    1    1    2  501    0 -0.12330594946E+03 -0.36363892144E+02 -0.34871784253E+03  0.37165955325E+03  0.00000000000E+00 0. -1.
<scales pt_clust_5="13000.00000" pt_clust_6="13000.00000" pt_clust_7="13000.00000" pt_clust_8="13000.00000" pt_clust_9="13000.00000"></scales>
<clustering>
<clus scale="   83.312">  7  8 -1 -1</clus>
<clus scale="   87.123">  1  7  2 -1</clus>
<clus scale="   87.842">  5  6 -1 -1</clus>
<clus scale="  126.285">  5  9 -1 -1</clus>
<clus scale="  446.179">  2  5  1 -1</clus>
</clustering>
</event>
<event>
 9    1  0.2728138E-005  0.3547682E+03  0.7546771E-02  0.1109657E+00
          1   -1    0    0  502    0 -0.00000000000E+00  0.00000000000E+00  0.15841500801E+03  0.15841500801E+03  0.00000000000E+00 0. -1.
         21   -1    0    0  501  502  0.00000000000E+00 -0.00000000000E+00 -0.32988195730E+03  0.32988195730E+03  0.00000000000E+00 0. -1.
         23    2    1    2    0    0 -0.17568512672E+02 -0.26471829105E+02 -0.41896324841E+01  0.96069786100E+02  0.90567325274E+02 0.  0.
        -24    2    1    2    0    0 -0.10157252838E+03  0.32969067699E+01 -0.22157351105E+03  0.25926199054E+03  0.88284261486E+02 0.  0.
         11    1    4    4    0    0 -0.97648217511E+02  0.23356230854E+02 -0.21581471062E+03  0.23802663133E+03  0.00000000000E+00 0. -1.
        -12    1    4    4    0    0 -0.39243108652E+01 -0.20059324084E+02 -0.57588004299E+01  0.21235359212E+02  0.00000000000E+00 0.  1.
        -11    1    3    3    0    0 -0.35351292468E+02  0.21671694921E+02  0.10329945334E+02  0.42732704226E+02  0.00000000000E+00 0.  1.
         11    1    3    3    0    0  0.17782779795E+02 -0.48143524026E+02 -0.14519577818E+02  0.53337081874E+02  0.00000000000E+00 0. -1.
          2    1    1    2  501    0  0.11914104105E+03  0.23174922335E+02  0.54296194239E+02  0.13296518866E+03  0.00000000000E+00 0. -1.
<scales pt_clust_5="13000.00000" pt_clust_6="13000.00000" pt_clust_7="13000.00000" pt_clust_8="13000.00000" pt_clust_9="13000.00000"></scales>
<clustering>
<clus scale="   88.284">  5  6 -1 -1</clus>
<clus scale="   90.567">  7  8 -1 -1</clus>
<clus scale="   95.978">  1  7  2 -1</clus>
<clus scale="  104.522">  5  9 -1 -1</clus>
<clus scale="  354.768">  2  5  1 -1</clus>
</clustering>
</event>
<event>
 9    1  0.2728138E-005  0.3696606E+03  0.7546771E-02  0.1082013E+00
         21   -1    0    0  501  502  0.00000000000E+00  0.00000000000E+00  0.46987055898E+02  0.46987055898E+02  0.00000000000E+00 0. -1.
          1   -1    0    0  502    0 -0.00000000000E+00 -0.00000000000E+00 -0.15896853876E+04  0.15896853876E+04  0.00000000000E+00 0. -1.
         23    2    1    2    0    0 -0.14738447767E+03 -0.20751882407E+02 -0.56489206424E+03  0.59132367092E+03  0.91694136489E+02 0.  0.
        -24    2    1    2    0    0 -0.44159591211E+02  0.27751380830E+01 -0.69249784036E+02  0.11664689510E+03  0.82784024179E+02 0.  0.
         11    1    4    4    0    0 -0.30942998899E+02  0.48222651671E+01  0.12567204922E+02  0.33744007790E+02  0.00000000000E+00 0. -1.
        -12    1    4    4    0    0 -0.13216592312E+02 -0.20471270841E+01 -0.81816988957E+02  0.82902887306E+02  0.00000000000E+00 0.  1.
        -13    1    3    3    0    0 -0.13423310504E+03  0.10944345520E+02 -0.37724831365E+03  0.40056784112E+03  0.00000000000E+00 0. -1.
         13    1    3    3    0    0 -0.13151372630E+02 -0.31696227927E+02 -0.18764375059E+03  0.19075582980E+03  0.00000000000E+00 0.  1.
          2    1    1    2  501    0  0.19154406888E+03  0.17976744324E+02 -0.90855648339E+03  0.92870187744E+03  0.00000000000E+00 0. -1.
<scales pt_clust_5="13000.00000" pt_clust_6="13000.00000" pt_clust_7="13000.00000" pt_clust_8="13000.00000" pt_clust_9="13000.00000"></scales>
<clustering>
<clus scale="   82.784">  5  6 -1 -1</clus>
<clus scale="   91.694">  7  8 -1 -1</clus>
<clus scale="  174.816">  2  7  1 -1</clus>
<clus scale="   57.709">  5  9 -1 -1</clus>
<clus scale="  369.661">  1  5  2 -1</clus>
</clustering>
</event>
<event>
 9    1  0.2728138E-005  0.5169055E+03  0.7546771E-02  0.1026450E+00
          3   -1    0    0  502    0 -0.00000000000E+00  0.00000000000E+00  0.21399894786E+03  0.21399894786E+03  0.00000000000E+00 0. -1.
         21   -1    0    0  501  502  0.00000000000E+00 -0.00000000000E+00 -0.11744411003E+04  0.11744411003E+04  0.00000000000E+00 0.  1.
         23    2    1    2    0    0 -0.27570778408E+03 -0.99895890124E+02 -0.12404742633E+02  0.30864089763E+03  0.95453417885E+02 0.  0.
        -24    2    1    2    0    0  0.29310781170E+03  0.23211576961E+03 -0.74690449829E+03  0.83847093917E+03  0.73329847172E+02 0.  0.
         11    1    4    4    0    0  0.61054320605E+02  0.25619349652E+02 -0.89060271798E+02  0.11097618282E+03  0.00000000000E+00 0. -1.
        -12    1    4    4    0    0  0.23205349110E+03  0.20649641996E+03 -0.65784422649E+03  0.72749475635E+03  0.00000000000E+00 0.  1.
        -13    1    3    3    0    0 -0.12799501318E+03 -0.59551561153E+02 -0.52063850461E+02  0.15046513337E+03  0.00000000000E+00 0.  1.
         13    1    3    3    0    0 -0.14771277090E+03 -0.40344328971E+02  0.39659107828E+02  0.15817576426E+03  0.00000000000E+00 0. -1.
          4    1    1    2  501    0 -0.17400027622E+02 -0.13221987949E+03 -0.20113291148E+03  0.24132821131E+03  0.00000000000E+00 0. -1.
<scales pt_clust_5="13000.00000" pt_clust_6="13000.00000" pt_clust_7="13000.00000" pt_clust_8="13000.00000" pt_clust_9="13000.00000"></scales>
<clustering>
<clus scale="   73.330">  5  6 -1 -1</clus>
<clus scale="   95.453">  7  8 -1 -1</clus>
<clus scale="  133.360">  5  9 -1 -1</clus>
<clus scale="  308.392">  1  7  2 -1</clus>
<clus scale="  516.905">  2  5  1 -1</clus>
</clustering>
</event>
<event>
 9    1  0.2728138E-005  0.2516416E+03  0.7546771E-02  0.1157786E+00
          3   -1    0    0  502    0 -0.00000000000E+00  0.00000000000E+00  0.37309426232E+03  0.37309426232E+03  0.00000000000E+00 0. -1.
         21   -1    0    0  501  502  0.00000000000E+00 -0.00000000000E+00 -0.10771137434E+03  0.10771137434E+03  0.00000000000E+00 0. -1.
         23    2    1    2    0    0 -0.85137081896E+01 -0.12451257497E+02  0.20618390475E+03  0.22229445280E+03  0.81703758342E+02 0.  0.
        -24    2    1    2    0    0 -0.32098507023E+02 -0.97313228743E+02  0.55246621914E+02  0.14140774401E+03  0.80273172307E+02 0.  0.
         13    1    4    4    0    0 -0.46068976951E+02 -0.69374149343E+02  0.65253713440E+01  0.83532650536E+02  0.00000000000E+00 0. -1.
        -14    1    4    4    0    0  0.13970469929E+02 -0.27939079400E+02  0.48721250570E+02  0.57875093475E+02  0.00000000000E+00 0.  1.
        -11    1    3    3    0    0  0.15842482097E+02  0.30103837454E+02  0.87604832116E+02  0.93977826526E+02  0.00000000000E+00 0.  1.
         11    1    3    3    0    0 -0.24356190286E+02 -0.42555094952E+02  0.11857907264E+03  0.12831662628E+03  0.00000000000E+00 0. -1.
          4    1    1    2  501    0  0.40612215212E+02  0.10976448624E+03  0.39523613101E+01  0.11710343985E+03  0.00000000000E+00 0. -1.
<scales pt_clust_5="13000.00000" pt_clust_6="13000.00000" pt_clust_7="13000.00000" pt_clust_8="13000.00000" pt_clust_9="13000.00000"></scales>
<clustering>
<clus scale="   80.273">  5  6 -1 -1</clus>
<clus scale="   81.704">  7  8 -1 -1</clus>
<clus scale="   83.084">  1  7  2 -1</clus>
<clus scale="  111.470">  5  9 -1 -1</clus>
<clus scale="  251.642">  2  5  1 -1</clus>
</clustering>
</event>
<event>
 9    1  0.2728138E-005  0.2542156E+03  0.7546771E-02  0.1137773E+00
          3   -1    0    0  502    0 -0.00000000000E+00  0.00000000000E+00  0.25817042345E+03  0.25817042345E+03  0.00000000000E+00 0. -1.
         21   -1    0    0  501  502  0.00000000000E+00 -0.00000000000E+00 -0.16002434338E+03  0.16002434338E+03  0.00000000000E+00 0. -1.
         23    2    1    2    0    0 -0.63163471255E+01 -0.91500817160E+02  0.10028770900E+03  0.16397017970E+03  0.91740391707E+02 0.  0.
        -24    2    1    2    0    0  0.57064418261E+01 -0.53350749135E+02  0.37521450873E+02  0.10403967397E+03  0.80854984833E+02 0.  0.
         11    1    4    4    0    0 -0.28898579537E+02 -0.23956148588E+02  0.44373957692E+02  0.58121192999E+02  0.00000000000E+00 0. -1.
        -12    1    4    4    0    0  0.34605021363E+02 -0.29394600546E+02 -0.68525068184E+01  0.45918480969E+02  0.00000000000E+00 0.  1.
        -13    1    3    3    0    0 -0.40637918523E+02 -0.12423297809E+02  0.43071238491E+02  0.60505457072E+02  0.00000000000E+00 0.  1.
         13    1    3    3    0    0  0.34321571397E+02 -0.79077519351E+02  0.57216470512E+02  0.10346472262E+03  0.00000000000E+00 0. -1.
          4    1    1    2  501    0  0.60990529942E+00  0.14485156629E+03 -0.39663079812E+02  0.15018491317E+03  0.00000000000E+00 0. -1.
<scales pt_clust_5="13000.00000" pt_clust_6="13000.00000" pt_clust_7="13000.00000" pt_clust_8="13000.00000" pt_clust_9="13000.00000"></scales>
<clustering>
<clus scale="   80.855">  5  6 -1 -1</clus>
<clus scale="   91.740">  7  8 -1 -1</clus>
<clus scale="  129.725">  1  7  2 -1</clus>
<clus scale="  104.757">  5  9 -1 -1</clus>
<clus scale="  254.216">  2  5  1 -1</clus>
</clustering>
</event>
<event>
 9    1  0.2728138E-005  0.1408982E+03  0.7546771E-02  0.1226992E+00
         21   -1    0    0  501  502  0.00000000000E+00  0.00000000000E+00  0.66626916125E+02  0.66626916125E+02  0.00000000000E+00 0. -1.
         -2   -1    0    0    0  501 -0.00000000000E+00 -0.00000000000E+00 -0.24174533640E+03  0.24174533640E+03  0.00000000000E+00 0.  1.
         23    2    1    2    0    0  0.28599396727E+02  0.40179052895E+02 -0.33000267671E+02  0.10824760151E+03  0.90533108758E+02 0.  0.
        -24    2    1    2    0    0 -0.44302288558E+02  0.19043194005E+01 -0.11738463792E+03  0.14884758222E+03  0.80063289403E+02 0.  0.
         11    1    4    4    0    0 -0.68164161491E+01 -0.33606724243E+02 -0.23088482112E+02  0.41339490197E+02  0.00000000000E+00 0. -1.
        -12    1    4    4    0    0 -0.37485872409E+02  0.35511043644E+02 -0.94296155807E+02  0.10750809203E+03  0.00000000000E+00 0.  1.
        -13    1    3    3    0    0 -0.31257859862E+02  0.28095224712E+02 -0.13733703414E+02  0.44215495747E+02  0.00000000000E+00 0.  1.
         13    1    3    3    0    0  0.59857256589E+02  0.12083828183E+02 -0.19266564257E+02  0.64032105761E+02  0.00000000000E+00 0. -1.
         -1    1    1    2    0  502  0.15702891831E+02 -0.42083372295E+02 -0.24733514688E+02  0.51277068797E+02  0.00000000000E+00 0.  1.
<scales pt_clust_5="13000.00000" pt_clust_6="13000.00000" pt_clust_7="13000.00000" pt_clust_8="13000.00000" pt_clust_9="13000.00000"></scales>
<clustering>
<clus scale="   80.063">  5  6 -1 -1</clus>
<clus scale="   44.918">  5  9 -1 -1</clus>
<clus scale="   90.533">  7  8 -1 -1</clus>
<clus scale="  103.095">  2  7  1 -1</clus>
<clus scale="  140.898">  1  5  2 -1</clus>
</clustering>
</event>
<event>
 9    1  0.2728138E-005  0.2370576E+03  0.7546771E-02  0.1156319E+00
         21   -1    0    0  501  502  0.00000000000E+00  0.00000000000E+00  0.14018225503E+03  0.14018225503E+03  0.00000000000E+00 0. -1.
          1   -1    0    0  502    0 -0.00000000000E+00 -0.00000000000E+00 -0.52175417165E+03  0.52175417165E+03  0.00000000000E+00 0. -1.
         23    2    1    2    0    0  0.11240410007E+02  0.51948624514E+02 -0.41043726685E+03  0.42312793751E+03  0.88053932786E+02 0.  0.
        -24    2    1    2    0    0 -0.57464382195E+01 -0.10188827736E+03  0.90636985630E+02  0.15918507809E+03  0.81918150049E+02 0.  0.
         13    1    4    4    0    0 -0.18539151831E+02 -0.62199774540E+02  0.97296084326E+02  0.11695742870E+03  0.00000000000E+00 0. -1.
        -14    1    4    4    0    0  0.12792713612E+02 -0.39688502818E+02 -0.66590986955E+01  0.42227649389E+02  0.00000000000E+00 0.  1.
        -11    1    3    3    0    0 -0.28869533794E+02  0.55393132457E+02 -0.23911018322E+03  0.24713463704E+03  0.00000000000E+00 0.  1.
         11    1    3    3    0    0  0.40109943802E+02 -0.34445079437E+01 -0.17132708363E+03  0.17599330047E+03  0.00000000000E+00 0. -1.
          2    1    1    2  501    0 -0.54939717879E+01  0.49939652845E+02 -0.61771635401E+02  0.79623411083E+02  0.00000000000E+00 0. -1.
<scales pt_clust_5="13000.00000" pt_clust_6="13000.00000" pt_clust_7="13000.00000" pt_clust_8="13000.00000" pt_clust_9="13000.00000"></scales>
<clustering>
<clus scale="   81.918">  5  6 -1 -1</clus>
<clus scale="   50.241">  5  9 -1 -1</clus>
<clus scale="   88.054">  7  8 -1 -1</clus>
<clus scale="  102.852">  2  7  1 -1</clus>
<clus scale="  237.058">  1  5  2 -1</clus>
</clustering>
</event>
<event>
 9    1  0.2728138E-005  0.1631246E+03  0.7546771E-02  0.1195303E+00
         21   -1    0    0  501  502  0.00000000000E+00  0.00000000000E+00  0.33216625103E+03  0.33216625103E+03  0.00000000000E+00 0. -1.
          1   -1    0    0  502    0 -0.00000000000E+00 -0.00000000000E+00 -0.15720773526E+03  0.15720773526E+03  0.00000000000E+00 0. -1.
         23    2    1    2    0    0 -0.60313860214E+02  0.70842889769E+02 -0.10353983863E+03  0.16661871055E+03  0.91568661439E+02 0.  0.
        -24    2    1    2    0    0  0.27446544627E+02 -0.69396798654E+01  0.10790075656E+03  0.13764065973E+03  0.80628195916E+02 0.  0.
         11    1    4    4    0    0  0.23068558847E+02  0.22028161655E+02  0.10314005644E+03  0.10795957371E+03  0.00000000000E+00 0. -1.
        -12    1    4    4    0    0  0.43779857798E+01 -0.28967841521E+02  0.47607001199E+01  0.29681086023E+02  0.00000000000E+00 0.  1.
        -11    1    3    3    0    0 -0.25690352843E+02 -0.13641638477E+02 -0.69982656764E+00  0.29096018400E+02  0.00000000000E+00 0.  1.
         11    1    3    3    0    0 -0.34623507371E+02  0.84484528246E+02 -0.10284001207E+03  0.13752269215E+03  0.00000000000E+00 0. -1.
          2    1    1    2  501    0  0.32867315587E+02 -0.63903209904E+02  0.17059759784E+03  0.18511461600E+03  0.00000000000E+00 0. -1.
<scales pt_clust_5="13000.00000" pt_clust_6="13000.00000" pt_clust_7="13000.00000" pt_clust_8="13000.00000" pt_clust_9="13000.00000"></scales>
<clustering>
<clus scale="   80.628">  5  6 -1 -1</clus>
<clus scale="   71.860">  5  9 -1 -1</clus>
<clus scale="   91.569">  7  8 -1 -1</clus>
<clus scale="  130.542">  2  7  1 -1</clus>
<clus scale="  163.125">  1  5  2 -1</clus>
</clustering>
</event>
<event>
 9    1  0.2728138E-005  0.5531678E+03  0.7546771E-02  0.1053181E+00
         21   -1    0    0  501  502  0.00000000000E+00  0.00000000000E+00  0.35447504685E+03  0.35447504685E+03  0.00000000000E+00 0. -1.
          1   -1    0    0  502    0 -0.00000000000E+00 -0.00000000000E+00 -0.37697762690E+03  0.37697762690E+03  0.00000000000E+00 0. -1.
         23    2    1    2    0    0  0.50635756450E+02 -0.50400467883E+02 -0.12350182743E+03  0.16914003382E+03  0.90837561981E+02 0.  0.
        -24    2    1    2    0    0  0.12194080780E+03 -0.47162810540E+02 -0.16846274719E+03  0.22778157958E+03  0.80067843098E+02 0.  0.
         11    1    4    4    0    0  0.10007978396E+03 -0.69308787238E+02 -0.12677145285E+03  0.17575742489E+03  0.00000000000E+00 0. -1.
        -12    1    4    4    0    0  0.21861023846E+02  0.22145976698E+02 -0.41691294340E+02  0.52024154690E+02  0.00000000000E+00 0.  1.
        -11    1    3    3    0    0  0.44075933575E+02 -0.23076319537E+02 -0.13093879833E+03  0.14007202915E+03  0.00000000000E+00 0. -1.
         11    1    3    3    0    0  0.65598228752E+01 -0.27324148346E+02  0.74369708964E+01  0.29068004663E+02  0.00000000000E+00 0.  1.
          2    1    1    2  501    0 -0.17257656425E+03  0.97563278424E+02  0.26946199457E+03  0.33453106036E+03  0.00000000000E+00 0. -1.
<scales pt_clust_5="13000.00000" pt_clust_6="13000.00000" pt_clust_7="13000.00000" pt_clust_8="13000.00000" pt_clust_9="13000.00000"></scales>
<clustering>
<clus scale="   80.068">  5  6 -1 -1</clus>
<clus scale="   90.838">  7  8 -1 -1</clus>
<clus scale="  115.567">  2  7  1 -1</clus>
<clus scale="  188.548">  5  9 -1 -1</clus>
<clus scale="  553.168">  1  5  2 -1</clus>
</clustering>
</event>
<event>
 9    1  0.2728138E-005  0.2481269E+03  0.7546771E-02  0.1146861E+00
         21   -1    0    0  501  502  0.00000000000E+00  0.00000000000E+00  0.46867832494E+02  0.46867832494E+02  0.00000000000E+00 0. -1.
          1   -1    0    0  502    0 -0.00000000000E+00 -0.00000000000E+00 -0.94819528288E+03  0.94819528288E+03  0.00000000000E+00 0. -1.
         23    2    1    2    0    0 -0.59230862632E+02 -0.20592753777E+02 -0.81845111222E+02  0.13883986693E+03  0.92981341261E+02 0.  0.
        -24    2    1    2    0    0  0.10919558100E+03 -0.62594524952E+02 -0.45607500135E+03  0.48008299588E+03  0.81446464682E+02 0.  0.
         11    1    4    4    0    0  0.35915249172E+02 -0.67312322997E+02 -0.24449693679E+03  0.25612420044E+03  0.00000000000E+00 0. -1.
        -12    1    4    4    0    0  0.73280331825E+02  0.47177980455E+01 -0.21157806456E+03  0.22395879544E+03  0.00000000000E+00 0.  1.
        -11    1    3    3    0    0 -0.41617635661E+02  0.21173767235E+02 -0.16531530539E+01  0.46723537237E+02  0.00000000000E+00 0. -1.
         11    1    3    3    0    0 -0.17613226971E+02 -0.41766521012E+02 -0.80191958168E+02  0.92116329696E+02  0.00000000000E+00 0.  1.
          2    1    1    2  501    0 -0.49964718365E+02  0.83187278728E+02 -0.36340733781E+03  0.37614025256E+03  0.00000000000E+00 0. -1.
<scales pt_clust_5="13000.00000" pt_clust_6="13000.00000" pt_clust_7="13000.00000" pt_clust_8="13000.00000" pt_clust_9="13000.00000"></scales>
<clustering>
<clus scale="   81.446">  5  6 -1 -1</clus>
<clus scale="   92.981">  7  8 -1 -1</clus>
<clus scale="   97.039">  5  9 -1 -1</clus>
<clus scale="  112.151">  2  7  1 -1</clus>
<clus scale="  248.127">  1  5  2 -1</clus>
</clustering>
</event>
<event>
 9    1  0.2728138E-005  0.1466899E+03  0.7546771E-02  0.1229508E+00
         21   -1    0    0  501  502  0.00000000000E+00  0.00000000000E+00  0.13017375668E+03  0.13017375668E+03  0.00000000000E+00 0. -1.
          1   -1    0    0  502    0 -0.00000000000E+00 -0.00000000000E+00 -0.33603417403E+03  0.33603417403E+03  0.00000000000E+00 0. -1.
         23    2    1    2    0    0  0.18387798011E+02 -0.11526251134E+02 -0.28613651682E+03  0.29898900052E+03  0.83960410872E+02 0.  0.
        -24    2    1    2    0    0 -0.18836912837E+02  0.38832944720E+02  0.61600752605E+01  0.88231321901E+02  0.76707188426E+02 0.  0.
         11    1    4    4    0    0 -0.18038725847E+02  0.58118184807E+02  0.20469676467E+02  0.64203790310E+02  0.00000000000E+00 0. -1.
        -12    1    4    4    0    0 -0.79818698965E+00 -0.19285240087E+02 -0.14309601206E+02  0.24027531591E+02  0.00000000000E+00 0.  1.
        -13    1    3    3    0    0  0.47572607114E+02 -0.24104249478E+02 -0.15019659841E+03  0.15938376945E+03  0.00000000000E+00 0.  1.
         13    1    3    3    0    0 -0.29184809103E+02  0.12577998344E+02 -0.13593991841E+03  0.13960523107E+03  0.00000000000E+00 0. -1.
          2    1    1    2  501    0  0.44911482610E+00 -0.27306693586E+02  0.74116024208E+02  0.78987608289E+02  0.00000000000E+00 0. -1.
<scales pt_clust_5="13000.00000" pt_clust_6="13000.00000" pt_clust_7="13000.00000" pt_clust_8="13000.00000" pt_clust_9="13000.00000"></scales>
<clustering>
<clus scale="   76.707">  5  6 -1 -1</clus>
<clus scale="   27.310">  5  9 -1 -1</clus>
<clus scale="   83.960">  7  8 -1 -1</clus>
<clus scale="   86.720">  2  7  1 -1</clus>
<clus scale="  146.690">  1  5  2 -1</clus>
</clustering>
</event>
<event>
 9    1  0.4787009E-005  0.4296912E+03  0.7546771E-02  0.1054742E+00
         -2   -1    0    0    0  501 -0.00000000000E+00  0.00000000000E+00  0.22961225235E+03  0.22961225235E+03  0.00000000000E+00 0.  1.
         21   -1    0    0  501  502  0.00000000000E+00 -0.00000000000E+00 -0.49051692295E+03  0.49051692295E+03  0.00000000000E+00 0.  1.
         23    2    1    2    0    0 -0.20505100461E+03 -0.71652382620E+02 -0.48631772836E+02  0.24086482386E+03  0.92037142602E+02 0.  0.
        -24    2    1    2    0    0 -0.80675945021E+02  0.61528543329E+02 -0.11255318346E+02  0.12976406661E+03  0.80110305467E+02 0.  0.
         13    1    4    4    0    0 -0.26906167553E+02  0.11061422818E+02  0.32816520681E+02  0.43854543171E+02  0.00000000000E+00 0. -1.
        -14    1    4    4    0    0 -0.53769777469E+02  0.50467120511E+02 -0.44071839027E+02  0.85909523436E+02  0.00000000000E+00 0.  1.
        -13    1    3    3    0    0 -0.20073070208E+03 -0.40907266236E+02 -0.42397038750E+02  0.20919782046E+03  0.00000000000E+00 0.  1.
         13    1    3    3    0    0 -0.43203025250E+01 -0.30745116384E+02 -0.62347340866E+01  0.31667003403E+02  0.00000000000E+00 0. -1.
         -1    1    1    2    0  502  0.28572694963E+03  0.10123839291E+02 -0.20101757942E+03  0.34950028483E+03  0.00000000000E+00 0.  1.
<scales pt_clust_5="13000.00000" pt_clust_6="13000.00000" pt_clust_7="13000.00000" pt_clust_8="13000.00000" pt_clust_9="13000.00000"></scales>
<clustering>
<clus scale="   80.110">  5  6 -1 -1</clus>
<clus scale="   92.037">  7  8 -1 -1</clus>
<clus scale="  235.904">  1  7  2 -1</clus>
<clus scale="  174.245">  5  9 -1 -1</clus>
<clus scale="  429.691">  2  5  1 -1</clus>
</clustering>
</event>
<event>
 9    1  0.2728138E-005  0.1482743E+03  0.7546771E-02  0.1205873E+00
         21   -1    0    0  501  502  0.00000000000E+00  0.00000000000E+00  0.14567394218E+03  0.14567394218E+03  0.00000000000E+00 0. -1.
          1   -1    0    0  502    0 -0.00000000000E+00 -0.00000000000E+00 -0.14620596848E+03  0.14620596848E+03  0.00000000000E+00 0. -1.
         23    2    1    2    0    0  0.84669643293E+02  0.59632874312E+02 -0.28196277363E+02  0.14104693463E+03  0.91510543208E+02 0.  0.
        -24    2    1    2    0    0 -0.51751803292E+02 -0.40719232037E+02  0.40440355521E+02  0.11077627997E+03  0.79370377644E+02 0.  0.
         13    1    4    4    0    0 -0.39264505571E+02 -0.13281087949E+02  0.61384676752E+02  0.74068665674E+02  0.00000000000E+00 0. -1.
        -14    1    4    4    0    0 -0.12487297722E+02 -0.27438144088E+02 -0.20944321231E+02  0.36707614295E+02  0.00000000000E+00 0.  1.
        -13    1    3    3    0    0  0.80092599701E+02  0.24378270205E+01 -0.23361406735E+02  0.83465698656E+02  0.00000000000E+00 0.  1.
         13    1    3    3    0    0  0.45770435924E+01  0.57195047292E+02 -0.48348706280E+01  0.57581235978E+02  0.00000000000E+00 0. -1.
          2    1    1    2  501    0 -0.32917840001E+02 -0.18913642275E+02 -0.12776104457E+02  0.40056696064E+02  0.00000000000E+00 0. -1.
<scales pt_clust_5="13000.00000" pt_clust_6="13000.00000" pt_clust_7="13000.00000" pt_clust_8="13000.00000" pt_clust_9="13000.00000"></scales>
<clustering>
<clus scale="   79.370">  5  6 -1 -1</clus>
<clus scale="   37.965">  5  9 -1 -1</clus>
<clus scale="   91.511">  7  8 -1 -1</clus>
<clus scale="  138.200">  2  7  1 -1</clus>
<clus scale="  148.274">  1  5  2 -1</clus>
</clustering>
</event>
<event>
 9    1  0.2728138E-005  0.2839552E+03  0.7546771E-02  0.1129865E+00
         -4   -1    0    0    0  501 -0.00000000000E+00  0.00000000000E+00  0.19370974920E+03  0.19370974920E+03  0.00000000000E+00 0.  1.
         21   -1    0    0  501  502  0.00000000000E+00 -0.00000000000E+00 -0.20371577399E+03  0.20371577399E+03  0.00000000000E+00 0.  1.
         23    2    1    2    0    0 -0.56295347207E+02  0.38805739395E+02  0.57368779509E+01  0.11303427683E+03  0.89826412832E+02 0.  0.
        -24    2    1    2    0    0 -0.80946172210E+02 -0.72260081008E+02 -0.40514224052E+02  0.14097560571E+03  0.80367387357E+02 0.  0.
         11    1    4    4    0    0 -0.66412185184E+02 -0.72748121261E+01 -0.93754221008E+01  0.67464062819E+02  0.00000000000E+00 0. -1.
        -12    1    4    4    0    0 -0.14533987026E+02 -0.64985268882E+02 -0.31138801951E+02  0.73511542886E+02  0.00000000000E+00 0.  1.
        -13    1    3    3    0    0 -0.36872416698E+02  0.61921012232E+02  0.26064862621E+02  0.76636570464E+02  0.00000000000E+00 0.  1.
         13    1    3    3    0    0 -0.19422930508E+02 -0.23115272837E+02 -0.20327984670E+02  0.36397706364E+02  0.00000000000E+00 0. -1.
         -3    1    1    2    0  502  0.13724151942E+03  0.33454341613E+02  0.24771321314E+02  0.14341564065E+03  0.00000000000E+00 0.  1.
<scales pt_clust_5="13000.00000" pt_clust_6="13000.00000" pt_clust_7="13000.00000" pt_clust_8="13000.00000" pt_clust_9="13000.00000"></scales>
<clustering>
<clus scale="   80.367">  5  6 -1 -1</clus>
<clus scale="   89.826">  7  8 -1 -1</clus>
<clus scale="  112.889">  1  7  2 -1</clus>
<clus scale="  117.211">  5  9 -1 -1</clus>
<clus scale="  283.955">  2  5  1 -1</clus>
</clustering>
</event>
<event>
 9    1  0.2728138E-005  0.1945753E+03  0.7546771E-02  0.1187565E+00
          1   -1    0    0  502    0 -0.00000000000E+00  0.00000000000E+00  0.22336295299E+03  0.22336295299E+03  0.00000000000E+00 0. -1.
         21   -1    0    0  501  502  0.00000000000E+00 -0.00000000000E+00 -0.27867005185E+03  0.27867005185E+03  0.00000000000E+00 0. -1.
         23    2    1    2    0    0 -0.29936129710E+01 -0.44096479456E+01  0.17692719061E+03  0.19906052757E+03  0.91068414636E+02 0.  0.
        -24    2    1    2    0    0  0.20803504381E+02  0.81942517308E+02 -0.11933676660E+03  0.16486241705E+03  0.76098559477E+02 0.  0.
         13    1    4    4    0    0  0.18900831989E+01  0.78819372712E+02 -0.51027062313E+02  0.93913934096E+02  0.00000000000E+00 0. -1.
        -14    1    4    4    0    0  0.18913421183E+02  0.31231445959E+01 -0.68309704288E+02  0.70948482950E+02  0.00000000000E+00 0.  1.
        -11    1    3    3    0    0  0.43146356431E+02 -0.93557822647E+01  0.74247783875E+02  0.86382128623E+02  0.00000000000E+00 0.  1.
         11    1    3    3    0    0 -0.46139969402E+02  0.49461343191E+01  0.10267940674E+03  0.11267839895E+03  0.00000000000E+00 0. -1.
          2    1    1    2  501    0 -0.17809891410E+02 -0.77532869362E+02 -0.11289752288E+03  0.13811006023E+03  0.00000000000E+00 0. -1.
<scales pt_clust_5="13000.00000" pt_clust_6="13000.00000" pt_clust_7="13000.00000" pt_clust_8="13000.00000" pt_clust_9="13000.00000"></scales>
<clustering>
<clus scale="   76.099">  5  6 -1 -1</clus>
<clus scale="   79.552">  5  9 -1 -1</clus>
<clus scale="   91.068">  7  8 -1 -1</clus>
<clus scale="   91.224">  1  7  2 -1</clus>
<clus scale="  194.575">  2  5  1 -1</clus>
</clustering>
</event>
<event>
 9    1  0.2728138E-005  0.6552873E+03  0.7546771E-02  0.1000457E+00
         21   -1    0    0  501  502  0.00000000000E+00  0.00000000000E+00  0.14163341541E+04  0.14163341541E+04  0.00000000000E+00 0.  1.
          1   -1    0    0  502    0 -0.00000000000E+00 -0.00000000000E+00 -0.17396171870E+03  0.17396171870E+03  0.00000000000E+00 0. -1.
         23    2    1    2    0    0  0.21691122189E+03  0.24034302033E+03  0.38067677310E+03  0.50774296604E+03  0.89849142408E+02 0.  0.
        -24    2    1    2    0    0  0.92985298704E+02  0.12077055934E+03  0.16335010826E+03  0.23749351016E+03  0.80548840597E+02 0.  0.
         11    1    4    4    0    0  0.20502696026E+02  0.18657935395E+02  0.85882318554E+02  0.90245508130E+02  0.00000000000E+00 0. -1.
        -12    1    4    4    0    0  0.72482602677E+02  0.10211262394E+03  0.77467789702E+02  0.14724800203E+03  0.00000000000E+00 0.  1.
        -11    1    3    3    0    0 -0.46278672127E+01  0.27130599768E+02  0.43003425926E+02  0.51056647364E+02  0.00000000000E+00 0. -1.
         11    1    3    3    0    0  0.22153908910E+03  0.21321242056E+03  0.33767334717E+03  0.45668631868E+03  0.00000000000E+00 0.  1.
          2    1    1    2  501    0 -0.30989652059E+03 -0.36111357967E+03  0.69834555402E+03  0.84505939656E+03  0.00000000000E+00 0. -1.
<scales pt_clust_5="13000.00000" pt_clust_6="13000.00000" pt_clust_7="13000.00000" pt_clust_8="13000.00000" pt_clust_9="13000.00000"></scales>
<clustering>
<clus scale="   80.549">  5  6 -1 -1</clus>
<clus scale="   89.849">  7  8 -1 -1</clus>
<clus scale="  335.988">  2  7  1 -1</clus>
<clus scale="  260.913">  5  9 -1 -1</clus>
<clus scale="  655.287">  1  5  2 -1</clus>
</clustering>
</event>
<event>
 9    1  0.2728138E-005  0.2335942E+03  0.7546771E-02  0.1149553E+00
         21   -1    0    0  501  502  0.00000000000E+00  0.00000000000E+00  0.14436320729E+03  0.14436320729E+03  0.00000000000E+00 0. -1.
          1   -1    0    0  502    0 -0.00000000000E+00 -0.00000000000E+00 -0.30084366667E+03  0.30084366667E+03  0.00000000000E+00 0. -1.
         23    2    1    2    0    0 -0.28638831796E+02 -0.80610818019E+02 -0.16950071752E+03  0.21125007144E+03  0.92616482202E+02 0.  0.
        -24    2    1    2    0    0  0.59868391489E+02 -0.39823547699E+02  0.12370583917E+02  0.10953757604E+03  0.81702570134E+02 0.  0.
         11    1    4    4    0    0  0.78343056179E+02 -0.19073784536E+02  0.13393174454E+02  0.81736288330E+02  0.00000000000E+00 0. -1.
        -12    1    4    4    0    0 -0.18474664689E+02 -0.20749763163E+02 -0.10225905377E+01  0.27801287706E+02  0.00000000000E+00 0.  1.
        -13    1    3    3    0    0 -0.62780050820E+02 -0.52278376113E+02 -0.11149070199E+03  0.13821917385E+03  0.00000000000E+00 0. -1.
         13    1    3    3    0    0  0.34141219024E+02 -0.28332441906E+02 -0.58010015524E+02  0.73030897584E+02  0.00000000000E+00 0.  1.
          2    1    1    2  501    0 -0.31229559694E+02  0.12043436572E+03  0.64967421996E+00  0.12441922649E+03  0.00000000000E+00 0. -1.
<scales pt_clust_5="13000.00000" pt_clust_6="13000.00000" pt_clust_7="13000.00000" pt_clust_8="13000.00000" pt_clust_9="13000.00000"></scales>
<clustering>
<clus scale="   81.703">  5  6 -1 -1</clus>
<clus scale="   92.616">  7  8 -1 -1</clus>
<clus scale="  124.418">  5  9 -1 -1</clus>
<clus scale="  126.080">  2  7  1 -1</clus>
<clus scale="  233.594">  1  5  2 -1</clus>
</clustering>
</event>
<event>
 9    1  0.2728138E-005  0.3096545E+03  0.7546771E-02  0.1111853E+00
          1   -1    0    0  502    0 -0.00000000000E+00  0.00000000000E+00  0.16063283525E+03  0.16063283525E+03  0.00000000000E+00 0. -1.
         21   -1    0    0  501  502  0.00000000000E+00 -0.00000000000E+00 -0.10501956678E+04  0.10501956678E+04  0.00000000000E+00 0. -1.
         23    2    1    2    0    0  0.43747634636E+02 -0.90089888465E+02  0.10305798230E+03  0.17102948312E+03  0.92736685510E+02 0.  0.
        -24    2    1    2    0    0 -0.51268481172E+02 -0.89104294415E+02 -0.42853517158E+03  0.44788709130E+03  0.79952616153E+02 0.  0.
         11    1    4    4    0    0  0.16997343510E+02 -0.30011204807E+02 -0.18424231013E+03  0.18744282046E+03  0.00000000000E+00 0. -1.
        -12    1    4    4    0    0 -0.68265824682E+02 -0.59093089608E+02 -0.24429286145E+03  0.26044427085E+03  0.00000000000E+00 0.  1.
        -11    1    3    3    0    0 -0.58123767049E+01 -0.47455208018E+02  0.93426041175E+02  0.10494858580E+03  0.00000000000E+00 0. -1.
         11    1    3    3    0    0  0.49560011341E+02 -0.42634680446E+02  0.96319411275E+01  0.66080897321E+02  0.00000000000E+00 0.  1.
          2    1    1    2  501    0  0.75208465355E+01  0.17919418288E+03 -0.56408564328E+03  0.59191192864E+03  0.00000000000E+00 0. -1.
<scales pt_clust_5="13000.00000" pt_clust_6="13000.00000" pt_clust_7="13000.00000" pt_clust_8="13000.00000" pt_clust_9="13000.00000"></scales>
<clustering>
<clus scale="   79.953">  5  6 -1 -1</clus>
<clus scale="   92.737">  7  8 -1 -1</clus>
<clus scale="  136.492">  1  7  2 -1</clus>
<clus scale="  130.388">  5  9 -1 -1</clus>
<clus scale="  309.655">  2  5  1 -1</clus>
</clustering>
</event>
<event>
 9    1  0.2728138E-005  0.1428412E+03  0.7546771E-02  0.1216965E+00
         21   -1    0    0  501  502  0.00000000000E+00  0.00000000000E+00  0.28003773423E+03  0.28003773423E+03  0.00000000000E+00 0.  1.
          3   -1    0    0  502    0 -0.00000000000E+00 -0.00000000000E+00 -0.65473263962E+02  0.65473263962E+02  0.00000000000E+00 0. -1.
         23    2    1    2    0    0  0.51924949308E+02 -0.62446127776E+02  0.63390927046E+02  0.13752767708E+03  0.91102870963E+02 0.  0.
        -24    2    1    2    0    0 -0.14644538487E+02  0.28553676110E+02  0.66369807637E+02  0.10934154051E+03  0.80751756560E+02 0.  0.
         13    1    4    4    0    0 -0.36674177465E+02 -0.11560971290E+02  0.43892440917E+02  0.58354072004E+02  0.00000000000E+00 0. -1.
        -14    1    4    4    0    0  0.22029638977E+02  0.40114647400E+02  0.22477366721E+02  0.50987468502E+02  0.00000000000E+00 0.  1.
        -13    1    3    3    0    0  0.50336630316E+02  0.77610350599E+01  0.34908165321E+02  0.61746174155E+02  0.00000000000E+00 0.  1.
         13    1    3    3    0    0  0.15883189922E+01 -0.70207162836E+02  0.28482761725E+02  0.75781502929E+02  0.00000000000E+00 0. -1.
          4    1    1    2  501    0 -0.37280410821E+02  0.33892451666E+02  0.84803735582E+02  0.98641780598E+02  0.00000000000E+00 0. -1.
<scales pt_clust_5="13000.00000" pt_clust_6="13000.00000" pt_clust_7="13000.00000" pt_clust_8="13000.00000" pt_clust_9="13000.00000"></scales>
<clustering>
<clus scale="   80.752">  5  6 -1 -1</clus>
<clus scale="   50.384">  5  9 -1 -1</clus>
<clus scale="   91.103">  7  8 -1 -1</clus>
<clus scale="  122.047">  2  7  1 -1</clus>
<clus scale="  142.841">  1  5  2 -1</clus>
</clustering>
</event>
<event>
 9    1  0.2728138E-005  0.1711706E+03  0.7546771E-02  0.1216824E+00
         21   -1    0    0  501  502  0.00000000000E+00  0.00000000000E+00  0.11412773130E+03  0.11412773130E+03  0.00000000000E+00 0. -1.
          1   -1    0    0  502    0 -0.00000000000E+00 -0.00000000000E+00 -0.14154816864E+03  0.14154816864E+03  0.00000000000E+00 0. -1.
         23    2    1    2    0    0  0.33242485562E+02 -0.82184562547E+01 -0.44096398063E+02  0.83694942878E+02  0.62351786436E+02 0.  0.
        -24    2    1    2    0    0 -0.23991459325E+02  0.43344826288E+02  0.62147398088E+02  0.11378220300E+03  0.81423132729E+02 0.  0.
         13    1    4    4    0    0 -0.24778271246E+02  0.65269433822E+02  0.59414114201E+02  0.91673871325E+02  0.00000000000E+00 0. -1.
        -14    1    4    4    0    0  0.78681192148E+00 -0.21924607534E+02  0.27332838865E+01  0.22108331672E+02  0.00000000000E+00 0.  1.
        -13    1    3    3    0    0  0.69369421112E+01 -0.20219393379E+02  0.90337736115E+01  0.23206768412E+02  0.00000000000E+00 0. -1.
         13    1    3    3    0    0  0.26305543451E+02  0.12000937125E+02 -0.53130171674E+02  0.60488174466E+02  0.00000000000E+00 0.  1.
          2    1    1    2  501    0 -0.92510262372E+01 -0.35126370034E+02 -0.45471437366E+02  0.58198754061E+02  0.00000000000E+00 0. -1.
<scales pt_clust_5="13000.00000" pt_clust_6="13000.00000" pt_clust_7="13000.00000" pt_clust_8="13000.00000" pt_clust_9="13000.00000"></scales>
<clustering>
<clus scale="   62.352">  7  8 -1 -1</clus>
<clus scale="   71.136">  2  7  1 -1</clus>
<clus scale="   81.423">  5  6 -1 -1</clus>
<clus scale="   42.624">  5  9 -1 -1</clus>
<clus scale="  171.171">  1  5  2 -1</clus>
</clustering>
</event>
<event>
 9    1  0.2728138E-005  0.3493845E+03  0.7546771E-02  0.1088554E+00
         21   -1    0    0  501  502  0.00000000000E+00  0.00000000000E+00  0.55613197947E+02  0.55613197947E+02  0.00000000000E+00 0. -1.
          1   -1    0    0  502    0 -0.00000000000E+00 -0.00000000000E+00 -0.16605730237E+04  0.16605730237E+04  0.00000000000E+00 0. -1.
         23    2    1    2    0    0  0.64992940752E+02  0.13612743323E+03 -0.18512267478E+03  0.25399367681E+03  0.86531050584E+02 0.  0.
        -24    2    1    2    0    0 -0.90329710113E+02  0.70670045013E+02 -0.52704070286E+03  0.54540868447E+03  0.80901290626E+02 0.  0.
         11    1    4    4    0    0 -0.95901795532E+02  0.39242017250E+02 -0.45440024231E+03  0.46606509258E+03  0.00000000000E+00 0. -1.
        -12    1    4    4    0    0  0.55720854189E+01  0.31428027763E+02 -0.72640460552E+02  0.79343591892E+02  0.00000000000E+00 0.  1.
        -11    1    3    3    0    0  0.84686352586E+02  0.10317100890E+03 -0.12636123733E+03  0.18380206117E+03  0.00000000000E+00 0. -1.
         11    1    3    3    0    0 -0.19693411833E+02  0.32956424325E+02 -0.58761437450E+02  0.70191615633E+02  0.00000000000E+00 0.  1.
          2    1    1    2  501    0  0.25336769361E+02 -0.20679747824E+03 -0.89279644807E+03  0.91678386033E+03  0.00000000000E+00 0. -1.
<scales pt_clust_5="13000.00000" pt_clust_6="13000.00000" pt_clust_7="13000.00000" pt_clust_8="13000.00000" pt_clust_9="13000.00000"></scales>
<clustering>
<clus scale="   80.901">  5  6 -1 -1</clus>
<clus scale="   86.531">  7  8 -1 -1</clus>
<clus scale="  173.903">  2  7  1 -1</clus>
<clus scale="  138.185">  5  9 -1 -1</clus>
<clus scale="  349.384">  1  5  2 -1</clus>
</clustering>
</event>
<event>
 9    1  0.2728138E-005  0.3769587E+03  0.7546771E-02  0.1098839E+00
          1   -1    0    0  502    0 -0.00000000000E+00  0.00000000000E+00  0.22178320560E+03  0.22178320560E+03  0.00000000000E+00 0. -1.
         21   -1    0    0  501  502  0.00000000000E+00 -0.00000000000E+00 -0.29458478692E+03  0.29458478692E+03  0.00000000000E+00 0. -1.
         23    2    1    2    0    0  0.20901722354E+02 -0.52511963699E+02  0.53947799055E+02  0.11867056584E+03  0.89319369935E+02 0.  0.
        -24    2    1    2    0    0  0.76801703264E+02  0.18214163976E+03 -0.59388522871E+02  0.22194960331E+03  0.81612200068E+02 0.  0.
         13    1    4    4    0    0  0.45493213530E+02  0.21852157204E+02 -0.11639943112E+02  0.51794184301E+02  0.00000000000E+00 0. -1.
        -14    1    4    4    0    0  0.31308489734E+02  0.16028948256E+03 -0.47748579759E+02  0.17015541901E+03  0.00000000000E+00 0.  1.
        -13    1    3    3    0    0 -0.23760938787E+02 -0.97870912951E+01 -0.11934952630E+02  0.28333945407E+02  0.00000000000E+00 0.  1.
         13    1    3    3    0    0  0.44662661141E+02 -0.42724872403E+02  0.65882751685E+02  0.90336620435E+02  0.00000000000E+00 0. -1.
          2    1    1    2  501    0 -0.97703425618E+02 -0.12962967606E+03 -0.67360857508E+02  0.17574782337E+03  0.00000000000E+00 0. -1.
<scales pt_clust_5="13000.00000" pt_clust_6="13000.00000" pt_clust_7="13000.00000" pt_clust_8="13000.00000" pt_clust_9="13000.00000"></scales>
<clustering>
<clus scale="   81.612">  5  6 -1 -1</clus>
<clus scale="   89.319">  7  8 -1 -1</clus>
<clus scale="  105.699">  1  7  2 -1</clus>
<clus scale="  175.138">  5  9 -1 -1</clus>
<clus scale="  376.959">  2  5  1 -1</clus>
</clustering>
</event>
<event>
 9    1  0.2728138E-005  0.2842655E+03  0.7546771E-02  0.1132301E+00
          3   -1    0    0  502    0 -0.00000000000E+00  0.00000000000E+00  0.12931980381E+04  0.12931980381E+04  0.00000000000E+00 0. -1.
         21   -1    0    0  501  502  0.00000000000E+00 -0.00000000000E+00 -0.30522560385E+02  0.30522560385E+02  0.00000000000E+00 0. -1.
         23    2    1    2    0    0  0.52828915989E+02 -0.18206194056E+02  0.24192797451E+03  0.26412993904E+03  0.90072859274E+02 0.  0.
        -24    2    1    2    0    0  0.32306679097E+02 -0.10337422444E+03  0.46173317247E+03  0.48120766378E+03  0.81445327236E+02 0.  0.
         13    1    4    4    0    0 -0.32836373174E+01 -0.89167186433E+02  0.38780693331E+03  0.39793942621E+03  0.00000000000E+00 0. -1.
        -14    1    4    4    0    0  0.35590316414E+02 -0.14207038004E+02  0.73926239162E+02  0.83268237570E+02  0.00000000000E+00 0.  1.
        -11    1    3    3    0    0 -0.65323411970E+01 -0.41147634866E+02  0.81283164566E+02  0.91338667488E+02  0.00000000000E+00 0.  1.
         11    1    3    3    0    0  0.59361257186E+02  0.22941440810E+02  0.16064480995E+03  0.17279127155E+03  0.00000000000E+00 0. -1.
          4    1    1    2  501    0 -0.85135595086E+02  0.12158041849E+03  0.55901433069E+03  0.57838299563E+03  0.00000000000E+00 0. -1.
<scales pt_clust_5="13000.00000" pt_clust_6="13000.00000" pt_clust_7="13000.00000" pt_clust_8="13000.00000" pt_clust_9="13000.00000"></scales>
<clustering>
<clus scale="   81.445">  5  6 -1 -1</clus>
<clus scale="   90.073">  7  8 -1 -1</clus>
<clus scale="  105.998">  1  7  2 -1</clus>
<clus scale="  124.999">  5  9 -1 -1</clus>
<clus scale="  284.266">  2  5  1 -1</clus>
</clustering>
</event>
<event>
 9    1  0.2728138E-005  0.2158381E+03  0.7546771E-02  0.1149437E+00
          1   -1    0    0  502    0 -0.00000000000E+00  0.00000000000E+00  0.48549245717E+03  0.48549245717E+03  0.00000000000E+00 0. -1.
         21   -1    0    0  501  502  0.00000000000E+00 -0.00000000000E+00 -0.13609087336E+03  0.13609087336E+03  0.00000000000E+00 0. -1.
         23    2    1    2    0    0  0.64448873214E+01 -0.13042940480E+03  0.37152006513E+03  0.40461487124E+03  0.92912157590E+02 0.  0.
        -24    2    1    2    0    0  0.24057291641E+02  0.13934850340E+03 -0.52831406530E+02  0.17277324444E+03  0.84039739384E+02 0.  0.
         11    1    4    4    0    0  0.28808983198E+02  0.12912836689E+03 -0.71933564387E+02  0.15059392529E+03  0.00000000000E+00 0. -1.
        -12    1    4    4    0    0 -0.47516915573E+01  0.10220136508E+02  0.19102157857E+02  0.22179319144E+02  0.00000000000E+00 0.  1.
        -13    1    3    3    0    0 -0.53560921202E+01 -0.44247706458E+02  0.25683234245E+03  0.26067105589E+03  0.00000000000E+00 0.  1.
         13    1    3    3    0    0  0.11800979442E+02 -0.86181698346E+02  0.11468772267E+03  0.14394381535E+03  0.00000000000E+00 0. -1.
          2    1    1    2  501    0 -0.30502178962E+02 -0.89190985984E+01  0.30712925207E+02  0.44195214854E+02  0.00000000000E+00 0. -1.
<scales pt_clust_5="13000.00000" pt_clust_6="13000.00000" pt_clust_7="13000.00000" pt_clust_8="13000.00000" pt_clust_9="13000.00000"></scales>
<clustering>
<clus scale="   84.040">  5  6 -1 -1</clus>
<clus scale="   31.779">  5  9 -1 -1</clus>
<clus scale="   92.912">  7  8 -1 -1</clus>
<clus scale="  160.269">  1  7  2 -1</clus>
<clus scale="  215.838">  2  5  1 -1</clus>
</clustering>
</event>
<event>
 9    1  0.2728138E-005  0.1858600E+03  0.7546771E-02  0.1193404E+00
         -2   -1    0    0    0  501 -0.00000000000E+00  0.00000000000E+00  0.88679959645E+02  0.88679959645E+02  0.00000000000E+00 0.  1.
         21   -1    0    0  501  502  0.00000000000E+00 -0.00000000000E+00 -0.38143406844E+03  0.38143406844E+03  0.00000000000E+00 0.  1.
         23    2    1    2    0    0  0.54225562476E+01 -0.73198246176E+01  0.30756454202E+02  0.97014806081E+02  0.91558337552E+02 0.  0.
        -24    2    1    2    0    0  0.19386340470E+02 -0.59384227453E+02 -0.11678431689E+03  0.15446561812E+03  0.79490463844E+02 0.  0.
         11    1    4    4    0    0 -0.13958241281E+02  0.14442453217E+02 -0.23896148309E+02  0.31216067315E+02  0.00000000000E+00 0. -1.
        -12    1    4    4    0    0  0.33344581751E+02 -0.73826680670E+02 -0.92888168583E+02  0.12324955080E+03  0.00000000000E+00 0.  1.
        -11    1    3    3    0    0 -0.22621866029E+01  0.41982218098E+02  0.12182794068E+02  0.43772646664E+02  0.00000000000E+00 0. -1.
         11    1    3    3    0    0  0.76847428504E+01 -0.49302042716E+02  0.18573660134E+02  0.53242159417E+02  0.00000000000E+00 0.  1.
         -1    1    1    2    0  502 -0.24808896718E+02  0.66704052070E+02 -0.20672624610E+03  0.21863360388E+03  0.00000000000E+00 0.  1.
<scales pt_clust_5="13000.00000" pt_clust_6="13000.00000" pt_clust_7="13000.00000" pt_clust_8="13000.00000" pt_clust_9="13000.00000"></scales>
<clustering>
<clus scale="   79.490">  5  6 -1 -1</clus>
<clus scale="   71.168">  5  9 -1 -1</clus>
<clus scale="   91.558">  7  8 -1 -1</clus>
<clus scale="   92.010">  1  7  2 -1</clus>
<clus scale="  185.860">  2  5  1 -1</clus>
</clustering>
</event>
<event>
 9    1  0.2728138E-005  0.4378613E+03  0.7546771E-02  0.1048273E+00
         21   -1    0    0  501  502  0.00000000000E+00  0.00000000000E+00  0.94038026955E+02  0.94038026955E+02  0.00000000000E+00 0. -1.
          1   -1    0    0  502    0 -0.00000000000E+00 -0.00000000000E+00 -0.15023936670E+04  0.15023936670E+04  0.00000000000E+00 0. -1.
         23    2    1    2    0    0  0.15542730083E+03 -0.19824161381E+03 -0.82231145687E+03  0.86487831942E+03  0.91438460257E+02 0.  0.
        -24    2    1    2    0    0 -0.67531575768E+01 -0.75165063991E+02 -0.25285329635E+03  0.27562423597E+03  0.79614935771E+02 0.  0.
         13    1    4    4    0    0  0.56305382099E+01 -0.78271898734E+02 -0.12814591295E+03  0.15026499292E+03  0.00000000000E+00 0. -1.
        -14    1    4    4    0    0 -0.12383695787E+02  0.31068347428E+01 -0.12470738340E+03  0.12535924305E+03  0.00000000000E+00 0.  1.
        -11    1    3    3    0    0  0.59953530456E+02 -0.97952562586E+02 -0.23629359345E+03  0.26272379534E+03  0.00000000000E+00 0.  1.
         11    1    3    3    0    0  0.95473770371E+02 -0.10028905122E+03 -0.58601786342E+03  0.60215452408E+03  0.00000000000E+00 0. -1.
          2    1    1    2  501    0 -0.14867414325E+03  0.27340667780E+03 -0.33319088685E+03  0.45592913859E+03  0.00000000000E+00 0. -1.
<scales pt_clust_5="13000.00000" pt_clust_6="13000.00000" pt_clust_7="13000.00000" pt_clust_8="13000.00000" pt_clust_9="13000.00000"></scales>
<clustering>
<clus scale="   79.615">  5  6 -1 -1</clus>
<clus scale="   91.438">  7  8 -1 -1</clus>
<clus scale="  267.990">  2  7  1 -1</clus>
<clus scale="  164.363">  5  9 -1 -1</clus>
<clus scale="  437.861">  1  5  2 -1</clus>
</clustering>
</event>
<event>
 9    1  0.2728138E-005  0.1918786E+03  0.7546771E-02  0.1179446E+00
          1   -1    0    0  502    0 -0.00000000000E+00  0.00000000000E+00  0.38042471800E+03  0.38042471800E+03  0.00000000000E+00 0. -1.
         21   -1    0    0  501  502  0.00000000000E+00 -0.00000000000E+00 -0.13921143390E+03  0.13921143390E+03  0.00000000000E+00 0. -1.
         23    2    1    2    0    0  0.14015122133E+02  0.58093522899E+02 -0.84271633942E+02  0.14180307247E+03  0.97134556284E+02 0.  0.
        -24    2    1    2    0    0 -0.55345144877E+02 -0.88371359388E+02  0.17443644316E+03  0.21833210788E+03  0.79801343378E+02 0.  0.
         13    1    4    4    0    0 -0.29119650017E+02  0.24769642498E+01  0.14717657391E+02  0.32721534318E+02  0.00000000000E+00 0. -1.
        -14    1    4    4    0    0 -0.26225494860E+02 -0.90848323638E+02  0.15971878577E+03  0.18561057356E+03  0.00000000000E+00 0.  1.
        -13    1    3    3    0    0 -0.31185674961E+02 -0.83557545433E+01 -0.34612292428E+02  0.47332607617E+02  0.00000000000E+00 0. -1.
         13    1    3    3    0    0  0.45200797094E+02  0.66449277442E+02 -0.49659341514E+02  0.94470464856E+02  0.00000000000E+00 0.  1.
          2    1    1    2  501    0  0.41330022745E+02  0.30277836490E+02  0.15104847488E+03  0.15950097155E+03  0.00000000000E+00 0. -1.
<scales pt_clust_5="13000.00000" pt_clust_6="13000.00000" pt_clust_7="13000.00000" pt_clust_8="13000.00000" pt_clust_9="13000.00000"></scales>
<clustering>
<clus scale="   79.801">  5  6 -1 -1</clus>
<clus scale="   51.234">  5  9 -1 -1</clus>
<clus scale="   97.135">  7  8 -1 -1</clus>
<clus scale="  114.046">  1  7  2 -1</clus>
<clus scale="  191.879">  2  5  1 -1</clus>
</clustering>
</event>
<event>
 9    1  0.2728138E-005  0.3945343E+03  0.7546771E-02  0.1094405E+00
          1   -1    0    0  502    0 -0.00000000000E+00  0.00000000000E+00  0.14231224043E+03  0.14231224043E+03  0.00000000000E+00 0. -1.
         21   -1    0    0  501  502  0.00000000000E+00 -0.00000000000E+00 -0.52072675636E+03  0.52072675636E+03  0.00000000000E+00 0. -1.
         23    2    1    2    0    0 -0.39221215284E+02 -0.27059567074E+02  0.16496219786E+02  0.10481696147E+03  0.91890947578E+02 0.  0.
        -24    2    1    2    0    0  0.18426864599E+03  0.10637267699E+03 -0.25379655399E+03  0.34086854709E+03  0.80675865512E+02 0.  0.
         13    1    4    4    0    0  0.14890965243E+03  0.10162892610E+03 -0.24489535122E+03  0.30409908954E+03  0.00000000000E+00 0. -1.
        -14    1    4    4    0    0  0.35358993565E+02  0.47437508847E+01 -0.89012027671E+01  0.36769457558E+02  0.00000000000E+00 0.  1.
        -11    1    3    3    0    0 -0.30397476213E+02  0.11881486983E+02 -0.29439934601E+02  0.43953225619E+02  0.00000000000E+00 0.  1.
         11    1    3    3    0    0 -0.88237390712E+01 -0.38941054057E+02  0.45936154387E+02  0.60863735854E+02  0.00000000000E+00 0. -1.
          2    1    1    2  501    0 -0.14504743071E+03 -0.79313109914E+02 -0.14111418172E+03  0.21735348822E+03  0.00000000000E+00 0. -1.
<scales pt_clust_5="13000.00000" pt_clust_6="13000.00000" pt_clust_7="13000.00000" pt_clust_8="13000.00000" pt_clust_9="13000.00000"></scales>
<clustering>
<clus scale="   80.676">  5  6 -1 -1</clus>
<clus scale="   91.891">  7  8 -1 -1</clus>
<clus scale="  103.511">  1  7  2 -1</clus>
<clus scale="  187.456">  5  9 -1 -1</clus>
<clus scale="  394.534">  2  5  1 -1</clus>
</clustering>
</event>
<event>
 9    1  0.2728138E-005  0.6217872E+03  0.7546771E-02  0.1014122E+00
         21   -1    0    0  501  502  0.00000000000E+00  0.00000000000E+00  0.49153858180E+03  0.49153858180E+03  0.00000000000E+00 0. -1.
          3   -1    0    0  502    0 -0.00000000000E+00 -0.00000000000E+00 -0.40360629200E+03  0.40360629200E+03  0.00000000000E+00 0. -1.
         23    2    1    2    0    0 -0.67050528860E+02 -0.23091877122E+03 -0.39913233655E+02  0.26035057414E+03  0.91488266518E+02 0.  0.
        -24    2    1    2    0    0 -0.14015959280E+03 -0.71999885594E+00 -0.14893883639E+03  0.21861869228E+03  0.77240700267E+02 0.  0.
         11    1    4    4    0    0 -0.75241882652E+02  0.37737083068E+02 -0.70739777878E+02  0.10995246481E+03  0.00000000000E+00 0. -1.
        -12    1    4    4    0    0 -0.64917710149E+02 -0.38457081924E+02 -0.78199058514E+02  0.10866622747E+03  0.00000000000E+00 0.  1.
        -11    1    3    3    0    0 -0.69427084749E+02 -0.17839662458E+03  0.45649842302E+01  0.19148450287E+03  0.00000000000E+00 0. -1.
         11    1    3    3    0    0  0.23765558887E+01 -0.52522146642E+02 -0.44478217885E+02  0.68866071269E+02  0.00000000000E+00 0.  1.
          4    1    1    2  501    0  0.20721012166E+03  0.23163877008E+03  0.27678435985E+03  0.41617560738E+03  0.00000000000E+00 0. -1.
<scales pt_clust_5="13000.00000" pt_clust_6="13000.00000" pt_clust_7="13000.00000" pt_clust_8="13000.00000" pt_clust_9="13000.00000"></scales>
<clustering>
<clus scale="   77.241">  5  6 -1 -1</clus>
<clus scale="   91.488">  7  8 -1 -1</clus>
<clus scale="  257.273">  2  7  1 -1</clus>
<clus scale="  252.801">  5  9 -1 -1</clus>
<clus scale="  621.787">  1  5  2 -1</clus>
</clustering>
</event>
<event>
 9    1  0.2728138E-005  0.3435232E+03  0.7546771E-02  0.1111752E+00
          1   -1    0    0  502    0 -0.00000000000E+00  0.00000000000E+00  0.12912107278E+04  0.12912107278E+04  0.00000000000E+00 0. -1.
         21   -1    0    0  501  502  0.00000000000E+00 -0.00000000000E+00 -0.46573607263E+02  0.46573607263E+02  0.00000000000E+00 0.  1.
         23    2    1    2    0    0 -0.41954162555E+02 -0.98694486666E+01  0.95654307257E+02  0.13854719864E+03  0.90487689663E+02 0.  0.
        -24    2    1    2    0    0 -0.13050640274E+03 -0.26781167498E+02  0.40083928173E+03  0.43059895233E+03  0.83631189666E+02 0.  0.
         11    1    4    4    0    0 -0.22709553913E+02 -0.99499361506E+01  0.13590015041E+02  0.28273902757E+02  0.00000000000E+00 0. -1.
        -12    1    4    4    0    0 -0.10779684883E+03 -0.16831231347E+02  0.38724926669E+03  0.40232504958E+03  0.00000000000E+00 0.  1.
        -13    1    3    3    0    0 -0.63867277371E+02  0.71989874171E+01  0.38292554074E+02  0.74814264924E+02  0.00000000000E+00 0.  1.
         13    1    3    3    0    0  0.21913114816E+02 -0.17068436084E+02  0.57361753183E+02  0.63732933712E+02  0.00000000000E+00 0. -1.
          2    1    1    2  501    0  0.17246056529E+03  0.36650616164E+02  0.74814353159E+03  0.76863818413E+03  0.00000000000E+00 0. -1.
<scales pt_clust_5="13000.00000" pt_clust_6="13000.00000" pt_clust_7="13000.00000" pt_clust_8="13000.00000" pt_clust_9="13000.00000"></scales>
<clustering>
<clus scale="   83.631">  5  6 -1 -1</clus>
<clus scale="   90.488">  7  8 -1 -1</clus>
<clus scale="  100.228">  1  7  2 -1</clus>
<clus scale="  148.481">  5  9 -1 -1</clus>
<clus scale="  343.523">  2  5  1 -1</clus>
</clustering>
</event>
<event>
 9    1  0.2728138E-005  0.1530648E+03  0.7546771E-02  0.1220951E+00
          3   -1    0    0  502    0 -0.00000000000E+00  0.00000000000E+00  0.18665150162E+03  0.18665150162E+03  0.00000000000E+00 0. -1.
         21   -1    0    0  501  502  0.00000000000E+00 -0.00000000000E+00 -0.79923437230E+02  0.79923437230E+02  0.00000000000E+00 0. -1.
         23    2    1    2    0    0  0.13472829463E+02 -0.10545777116E+02  0.40099051126E+02  0.99637013858E+02  0.89592801500E+02 0.  0.
        -24    2    1    2    0    0  0.40828869027E+02  0.29706757311E+01  0.12359720396E+02  0.89793821081E+02  0.78957875832E+02 0.  0.
         13    1    4    4    0    0  0.14003208750E+02  0.28250102020E+02 -0.22755951473E+02  0.38884334209E+02  0.00000000000E+00 0. -1.
        -14    1    4    4    0    0  0.26825660277E+02 -0.25279426289E+02  0.35115671869E+02  0.50909486872E+02  0.00000000000E+00 0.  1.
        -11    1    3    3    0    0  0.44240145909E+02 -0.28905322244E+02  0.12222907623E+02  0.54241198685E+02  0.00000000000E+00 0. -1.
         11    1    3    3    0    0 -0.30767316445E+02  0.18359545129E+02  0.27876143503E+02  0.45395815173E+02  0.00000000000E+00 0.  1.
          4    1    1    2  501    0 -0.54301698490E+02  0.75751013844E+01  0.54269292870E+02  0.77144103912E+02  0.00000000000E+00 0. -1.
<scales pt_clust_5="13000.00000" pt_clust_6="13000.00000" pt_clust_7="13000.00000" pt_clust_8="13000.00000" pt_clust_9="13000.00000"></scales>
<clustering>
<clus scale="   78.958">  5  6 -1 -1</clus>
<clus scale="   54.828">  5  9 -1 -1</clus>
<clus scale="   89.593">  7  8 -1 -1</clus>
<clus scale="   91.212">  1  7  2 -1</clus>
<clus scale="  153.065">  2  5  1 -1</clus>
</clustering>
</event>
<event>
 9    1  0.4797350E-005  0.1823785E+03  0.7546771E-02  0.1186400E+00
         21   -1    0    0  501  502  0.00000000000E+00  0.00000000000E+00  0.69947631052E+02  0.69947631052E+02  0.00000000000E+00 0.  1.
         -2   -1    0    0    0  501 -0.00000000000E+00 -0.00000000000E+00 -0.33873264328E+03  0.33873264328E+03  0.00000000000E+00 0.  1.
         23    2    1    2    0    0 -0.68327764552E+02  0.88718601184E+01 -0.50947346272E+02  0.12457613267E+03  0.90422272854E+02 0.  0.
        -24    2    1    2    0    0 -0.18167880679E+01  0.14468738776E+01 -0.36420598396E+02  0.89325069544E+02  0.81529834409E+02 0.  0.
         11    1    4    4    0    0  0.32776181356E+01  0.22361700294E+02 -0.55898504917E+02  0.60294537668E+02  0.00000000000E+00 0. -1.
        -12    1    4    4    0    0 -0.50944062036E+01 -0.20914826416E+02  0.19477906521E+02  0.29030531876E+02  0.00000000000E+00 0.  1.
        -13    1    3    3    0    0 -0.30283614796E+02  0.49393314856E+02 -0.29326046307E+02  0.64936999235E+02  0.00000000000E+00 0. -1.
         13    1    3    3    0    0 -0.38044149755E+02 -0.40521454738E+02 -0.21621299965E+02  0.59639133435E+02  0.00000000000E+00 0.  1.
         -1    1    1    2    0  502  0.70144552620E+02 -0.10318733996E+02 -0.18141706756E+03  0.19477907211E+03  0.00000000000E+00 0.  1.
<scales pt_clust_5="13000.00000" pt_clust_6="13000.00000" pt_clust_7="13000.00000" pt_clust_8="13000.00000" pt_clust_9="13000.00000"></scales>
<clustering>
<clus scale="   81.530">  5  6 -1 -1</clus>
<clus scale="   70.900">  5  9 -1 -1</clus>
<clus scale="   90.422">  7  8 -1 -1</clus>
<clus scale="  113.682">  2  7  1 -1</clus>
<clus scale="  182.378">  1  5  2 -1</clus>
</clustering>
</event>
<event>
 9    1  0.2728138E-005  0.2551298E+03  0.7546771E-02  0.1133634E+00
         21   -1    0    0  501  502  0.00000000000E+00  0.00000000000E+00  0.85523638108E+02  0.85523638108E+02  0.00000000000E+00 0. -1.
          1   -1    0    0  502    0 -0.00000000000E+00 -0.00000000000E+00 -0.61191043826E+03  0.61191043826E+03  0.00000000000E+00 0. -1.
         23    2    1    2    0    0  0.76461698748E+02  0.75601857889E+02 -0.38792677328E+02  0.14712576435E+03  0.92623357911E+02 0.  0.
        -24    2    1    2    0    0 -0.53664196396E+02  0.61526828847E+02 -0.20645247249E+03  0.23667695135E+03  0.82024138280E+02 0.  0.
         13    1    4    4    0    0 -0.71477530976E+02  0.30122665309E+02 -0.11879852206E+03  0.14187847350E+03  0.00000000000E+00 0. -1.
        -14    1    4    4    0    0  0.17813334580E+02  0.31404163538E+02 -0.87653950432E+02  0.94798477850E+02  0.00000000000E+00 0.  1.
        -13    1    3    3    0    0  0.54714510009E+02  0.99223380380E+01 -0.52636018473E+02  0.76568145063E+02  0.00000000000E+00 0.  1.
         13    1    3    3    0    0  0.21747188739E+02  0.65679519851E+02  0.13843341145E+02  0.70557619290E+02  0.00000000000E+00 0. -1.
          2    1    1    2  501    0 -0.22797502352E+02 -0.13712868674E+03 -0.28114165033E+03  0.31363136066E+03  0.00000000000E+00 0. -1.
<scales pt_clust_5="13000.00000" pt_clust_6="13000.00000" pt_clust_7="13000.00000" pt_clust_8="13000.00000" pt_clust_9="13000.00000"></scales>
<clustering>
<clus scale="   82.024">  5  6 -1 -1</clus>
<clus scale="   92.623">  7  8 -1 -1</clus>
<clus scale="  139.011">  5  9 -1 -1</clus>
<clus scale="  141.919">  2  7  1 -1</clus>
<clus scale="  255.130">  1  5  2 -1</clus>
</clustering>
</event>
<event>
 9    1  0.2728138E-005  0.1684608E+03  0.7546771E-02  0.1196392E+00
          1   -1    0    0  502    0 -0.00000000000E+00  0.00000000000E+00  0.64079267225E+03  0.64079267225E+03  0.00000000000E+00 0. -1.
         21   -1    0    0  501  502  0.00000000000E+00 -0.00000000000E+00 -0.35052853861E+02  0.35052853861E+02  0.00000000000E+00 0.  1.
         23    2    1    2    0    0  0.68232205537E+02 -0.15161266493E+02  0.35810427977E+03  0.37634196288E+03  0.92244782820E+02 0.  0.
        -24    2    1    2    0    0 -0.75228301446E+02 -0.85920323138E+01  0.25137497025E+03  0.27446064186E+03  0.80038415173E+02 0.  0.
         13    1    4    4    0    0 -0.54478642961E+02  0.27805745991E+02  0.98472998669E+02  0.11592244613E+03  0.00000000000E+00 0. -1.
        -14    1    4    4    0    0 -0.20749658485E+02 -0.36397778305E+02  0.15290197158E+03  0.15853819573E+03  0.00000000000E+00 0.  1.
        -11    1    3    3    0    0  0.51665301242E+02  0.31016207542E+02  0.13393140704E+03  0.14686364517E+03  0.00000000000E+00 0.  1.
         11    1    3    3    0    0  0.16566904296E+02 -0.46177474035E+02  0.22417287274E+03  0.22947831770E+03  0.00000000000E+00 0. -1.
          2    1    1    2  501    0  0.69960959084E+01  0.23753298807E+02 -0.37394316305E+01  0.25042921377E+02  0.00000000000E+00 0. -1.
<scales pt_clust_5="13000.00000" pt_clust_6="13000.00000" pt_clust_7="13000.00000" pt_clust_8="13000.00000" pt_clust_9="13000.00000"></scales>
<clustering>
<clus scale="   80.038">  5  6 -1 -1</clus>
<clus scale="   24.762">  5  9 -1 -1</clus>
<clus scale="   92.245">  7  8 -1 -1</clus>
<clus scale="  115.735">  1  7  2 -1</clus>
<clus scale="  168.461">  2  5  1 -1</clus>
</clustering>
</event>
<event>
 9    1  0.2728138E-005  0.3175783E+03  0.7546771E-02  0.1104390E+00
          1   -1    0    0  502    0 -0.00000000000E+00  0.00000000000E+00  0.52208391686E+03  0.52208391686E+03  0.00000000000E+00 0. -1.
         21   -1    0    0  501  502  0.00000000000E+00 -0.00000000000E+00 -0.10609385721E+03  0.10609385721E+03  0.00000000000E+00 0. -1.
         23    2    1    2    0    0 -0.12053589299E+03 -0.97018159817E+01  0.13459749152E+03  0.20386922757E+03  0.93931626696E+02 0.  0.
        -24    2    1    2    0    0  0.11212023323E+03  0.13354850094E+03  0.14666125714E+03  0.24111097319E+03  0.78859547578E+02 0.  0.
         13    1    4    4    0    0  0.33016368303E+02  0.31083096309E+02 -0.19671695553E+00  0.45346203254E+02  0.00000000000E+00 0. -1.
        -14    1    4    4    0    0  0.79103864927E+02  0.10246540463E+03  0.14685797410E+03  0.19576476994E+03  0.00000000000E+00 0.  1.
        -11    1    3    3    0    0 -0.27695199747E+02 -0.15767184472E+02 -0.86839120810E+01  0.33030872290E+02  0.00000000000E+00 0.  1.
         11    1    3    3    0    0 -0.92840693246E+02  0.60653684902E+01  0.14328140360E+03  0.17083835528E+03  0.00000000000E+00 0. -1.
          2    1    1    2  501    0  0.84156597627E+01 -0.12384668496E+03  0.13473131099E+03  0.18319757331E+03  0.00000000000E+00 0. -1.
<scales pt_clust_5="13000.00000" pt_clust_6="13000.00000" pt_clust_7="13000.00000" pt_clust_8="13000.00000" pt_clust_9="13000.00000"></scales>
<clustering>
<clus scale="   78.860">  5  6 -1 -1</clus>
<clus scale="   93.932">  7  8 -1 -1</clus>
<clus scale="  124.132">  5  9 -1 -1</clus>
<clus scale="  153.122">  1  7  2 -1</clus>
<clus scale="  317.578">  2  5  1 -1</clus>
</clustering>
</event>
<event>
 9    1  0.2728138E-005  0.3370683E+03  0.7546771E-02  0.1080116E+00
         21   -1    0    0  501  502  0.00000000000E+00  0.00000000000E+00  0.12208995762E+03  0.12208995762E+03  0.00000000000E+00 0. -1.
          1   -1    0    0  502    0 -0.00000000000E+00 -0.00000000000E+00 -0.69053649679E+03  0.69053649679E+03  0.00000000000E+00 0. -1.
         23    2    1    2    0    0  0.20865463745E+03  0.84440607499E+02 -0.21457670586E+03  0.32391500301E+03  0.90613423695E+02 0.  0.
        -24    2    1    2    0    0  0.26877083108E+02  0.49366714849E+01 -0.83666838998E+02  0.11928872941E+03  0.80516536785E+02 0.  0.
         11    1    4    4    0    0  0.30382292404E+02  0.19741900163E+02 -0.94103962035E+02  0.10083839539E+03  0.00000000000E+00 0. -1.
        -12    1    4    4    0    0 -0.35052092960E+01 -0.14805228678E+02  0.10437123037E+02  0.18450334027E+02  0.00000000000E+00 0.  1.
        -11    1    3    3    0    0  0.13989459633E+03  0.16555958223E+02 -0.15907783897E+03  0.21248613292E+03  0.00000000000E+00 0. -1.
         11    1    3    3    0    0  0.68760041119E+02  0.67884649276E+02 -0.55498866890E+02  0.11142887008E+03  0.00000000000E+00 0.  1.
          2    1    1    2  501    0 -0.23553172056E+03 -0.89377278984E+02 -0.27020299432E+03  0.36942272199E+03  0.00000000000E+00 0. -1.
<scales pt_clust_5="13000.00000" pt_clust_6="13000.00000" pt_clust_7="13000.00000" pt_clust_8="13000.00000" pt_clust_9="13000.00000"></scales>
<clustering>
<clus scale="   80.517">  5  6 -1 -1</clus>
<clus scale="   90.613">  7  8 -1 -1</clus>
<clus scale="  242.648">  2  7  1 -1</clus>
<clus scale="   81.172">  5  9 -1 -1</clus>
<clus scale="  337.068">  1  5  2 -1</clus>
</clustering>
</event>
<event>
 9    1  0.2728138E-005  0.2319901E+03  0.7546771E-02  0.1163974E+00
         -4   -1    0    0    0  501 -0.00000000000E+00  0.00000000000E+00  0.33492132785E+02  0.33492132785E+02  0.00000000000E+00 0.  1.
         21   -1    0    0  501  502  0.00000000000E+00 -0.00000000000E+00 -0.98625325326E+03  0.98625325326E+03  0.00000000000E+00 0.  1.
         23    2    1    2    0    0  0.29183231887E+02  0.33795485766E+01 -0.99029918871E+02  0.13505539301E+03  0.87005470970E+02 0.  0.
        -24    2    1    2    0    0 -0.33982714516E+02  0.66319339043E+02 -0.75910597254E+03  0.76706812455E+03  0.81231462761E+02 0.  0.
         13    1    4    4    0    0 -0.32559378760E+02  0.11166997083E+02 -0.10202468293E+03  0.10767474586E+03  0.00000000000E+00 0. -1.
        -14    1    4    4    0    0 -0.14233357566E+01  0.55152341961E+02 -0.65708128961E+03  0.65939337870E+03  0.00000000000E+00 0.  1.
        -13    1    3    3    0    0  0.89869069099E+00 -0.38509386613E+02 -0.59538935581E+02  0.70913083084E+02  0.00000000000E+00 0. -1.
         13    1    3    3    0    0  0.28284541196E+02  0.41888935190E+02 -0.39490983290E+02  0.64142309930E+02  0.00000000000E+00 0.  1.
         -3    1    1    2    0  502  0.47994826293E+01 -0.69698887620E+02 -0.94625229064E+02  0.11762186848E+03  0.00000000000E+00 0.  1.
<scales pt_clust_5="13000.00000" pt_clust_6="13000.00000" pt_clust_7="13000.00000" pt_clust_8="13000.00000" pt_clust_9="13000.00000"></scales>
<clustering>
<clus scale="   81.231">  5  6 -1 -1</clus>
<clus scale="   69.864">  5  9 -1 -1</clus>
<clus scale="   87.005">  7  8 -1 -1</clus>
<clus scale="   91.832">  1  7  2 -1</clus>
<clus scale="  231.990">  2  5  1 -1</clus>
</clustering>
</event>
<event>
 9    1  0.2728138E-005  0.2029127E+03  0.7546771E-02  0.1175490E+00
          1   -1    0    0  502    0 -0.00000000000E+00  0.00000000000E+00  0.88816876572E+02  0.88816876572E+02  0.00000000000E+00 0. -1.
         21   -1    0    0  501  502  0.00000000000E+00 -0.00000000000E+00 -0.30448711343E+03  0.30448711343E+03  0.00000000000E+00 0. -1.
         23    2    1    2    0    0  0.42697682751E+02  0.27517028606E+02 -0.12535982065E+02  0.10618538356E+03  0.92400789286E+02 0.  0.
        -24    2    1    2    0    0 -0.13031605544E+02 -0.77285400649E+02 -0.48513641376E+02  0.12199894956E+03  0.79920675664E+02 0.  0.
         11    1    4    4    0    0 -0.18812953709E+02 -0.89731242059E+02 -0.54899930538E+02  0.10686264736E+03  0.00000000000E+00 0. -1.
        -12    1    4    4    0    0  0.57813481649E+01  0.12445841410E+02  0.63862891622E+01  0.15136302199E+02  0.00000000000E+00 0.  1.
        -13    1    3    3    0    0 -0.28600589436E+02  0.11188543669E+02  0.46186066454E+01  0.31056541225E+02  0.00000000000E+00 0.  1.
         13    1    3    3    0    0  0.71298272188E+02  0.16328484937E+02 -0.17154588711E+02  0.75128842338E+02  0.00000000000E+00 0. -1.
          2    1    1    2  501    0 -0.29666077207E+02  0.49768372043E+02 -0.15462061342E+03  0.16511965687E+03  0.00000000000E+00 0. -1.
<scales pt_clust_5="13000.00000" pt_clust_6="13000.00000" pt_clust_7="13000.00000" pt_clust_8="13000.00000" pt_clust_9="13000.00000"></scales>
<clustering>
<clus scale="   79.921">  5  6 -1 -1</clus>
<clus scale="   57.939">  5  9 -1 -1</clus>
<clus scale="   92.401">  7  8 -1 -1</clus>
<clus scale="  105.443">  1  7  2 -1</clus>
<clus scale="  202.913">  2  5  1 -1</clus>
</clustering>
</event>
<event>
 9    1  0.2728138E-005  0.2137292E+03  0.7546771E-02  0.1143918E+00
         21   -1    0    0  501  502  0.00000000000E+00  0.00000000000E+00  0.73909064052E+02  0.73909064052E+02  0.00000000000E+00 0.  1.
         -2   -1    0    0    0  501 -0.00000000000E+00 -0.00000000000E+00 -0.63028245131E+03  0.63028245131E+03  0.00000000000E+00 0.  1.
         23    2    1    2    0    0  0.68026999860E+02 -0.14816654899E+03 -0.13483788870E+03  0.23156867264E+03  0.94137107301E+02 0.  0.
        -24    2    1    2    0    0 -0.18542274807E+02  0.15804603267E+02 -0.16144850889E+03  0.17662678720E+03  0.67363190951E+02 0.  0.
         13    1    4    4    0    0  0.17675536281E+02 -0.15251466077E+02 -0.42959452749E+02  0.48893214057E+02  0.00000000000E+00 0. -1.
        -14    1    4    4    0    0 -0.36217811088E+02  0.31056069345E+02 -0.11848905614E+03  0.12773357314E+03  0.00000000000E+00 0.  1.
        -11    1    3    3    0    0  0.61687145629E+01 -0.93225503064E+02 -0.11177476920E+03  0.14567994539E+03  0.00000000000E+00 0.  1.
         11    1    3    3    0    0  0.61858285297E+02 -0.54941045923E+02 -0.23063119503E+02  0.85888727247E+02  0.00000000000E+00 0. -1.
         -1    1    1    2    0  502 -0.49484725053E+02  0.13236194572E+03 -0.26008698967E+03  0.29599605552E+03  0.00000000000E+00 0.  1.
<scales pt_clust_5="13000.00000" pt_clust_6="13000.00000" pt_clust_7="13000.00000" pt_clust_8="13000.00000" pt_clust_9="13000.00000"></scales>
<clustering>
<clus scale="   67.363">  5  6 -1 -1</clus>
<clus scale="   94.137">  7  8 -1 -1</clus>
<clus scale="  141.310">  5  9 -1 -1</clus>
<clus scale="  188.263">  2  7  1 -1</clus>
<clus scale="  213.729">  1  5  2 -1</clus>
</clustering>
</event>
<event>
 9    1  0.2728138E-005  0.1985339E+03  0.7546771E-02  0.1181132E+00
         21   -1    0    0  501  502  0.00000000000E+00  0.00000000000E+00  0.73693408715E+03  0.73693408715E+03  0.00000000000E+00 0.  1.
          1   -1    0    0  502    0 -0.00000000000E+00 -0.00000000000E+00 -0.57463553900E+02  0.57463553900E+02  0.00000000000E+00 0. -1.
         23    2    1    2    0    0 -0.27984151998E+02 -0.28362444460E+02  0.14208454970E+02  0.10014312014E+03  0.90770167456E+02 0.  0.
        -24    2    1    2    0    0  0.11352410698E+01 -0.63686421563E+02  0.30483297745E+03  0.32128938249E+03  0.79034638572E+02 0.  0.
         11    1    4    4    0    0  0.28197816256E+02 -0.12243202917E+02  0.41664035262E+02  0.51777453525E+02  0.00000000000E+00 0. -1.
        -12    1    4    4    0    0 -0.27062575186E+02 -0.51443218646E+02  0.26316894219E+03  0.26951192896E+03  0.00000000000E+00 0.  1.
        -13    1    3    3    0    0  0.13703902489E+02  0.24242462359E+02  0.17589277490E+02  0.32937465101E+02  0.00000000000E+00 0.  1.
         13    1    3    3    0    0 -0.41688054487E+02 -0.52604906819E+02 -0.33808225202E+01  0.67205655039E+02  0.00000000000E+00 0. -1.
          2    1    1    2  501    0  0.26848910928E+02  0.92048866023E+02  0.36042910083E+03  0.37296513842E+03  0.00000000000E+00 0. -1.
<scales pt_clust_5="13000.00000" pt_clust_6="13000.00000" pt_clust_7="13000.00000" pt_clust_8="13000.00000" pt_clust_9="13000.00000"></scales>
<clustering>
<clus scale="   79.035">  5  6 -1 -1</clus>
<clus scale="   90.770">  7  8 -1 -1</clus>
<clus scale="   95.885">  5  9 -1 -1</clus>
<clus scale="   99.130">  2  7  1 -1</clus>
<clus scale="  198.534">  1  5  2 -1</clus>
</clustering>
</event>
<event>
 9    1  0.2728138E-005  0.5285510E+03  0.7546771E-02  0.1060390E+00
         21   -1    0    0  501  502  0.00000000000E+00  0.00000000000E+00  0.30341963495E+03  0.30341963495E+03  0.00000000000E+00 0. -1.
          3   -1    0    0  502    0 -0.00000000000E+00 -0.00000000000E+00 -0.53465818441E+03  0.53465818441E+03  0.00000000000E+00 0. -1.
         23    2    1    2    0    0  0.13953290741E+02  0.56372427565E+02 -0.28690101099E+03  0.30660398500E+03  0.91220987694E+02 0.  0.
        -24    2    1    2    0    0 -0.19175714817E+03  0.67523397056E+02 -0.12213844673E+03  0.25115695999E+03  0.82654735833E+02 0.  0.
         11    1    4    4    0    0 -0.16264259180E+03  0.34741751029E+02 -0.63685693970E+02  0.17808837567E+03  0.00000000000E+00 0. -1.
        -12    1    4    4    0    0 -0.29114556373E+02  0.32781646027E+02 -0.58452752764E+02  0.73068584322E+02  0.00000000000E+00 0.  1.
        -13    1    3    3    0    0  0.47530743293E+02  0.20497225016E+02 -0.20182834077E+03  0.20836023356E+03  0.00000000000E+00 0.  1.
         13    1    3    3    0    0 -0.33577452552E+02  0.35875202548E+02 -0.85072670228E+02  0.98243751442E+02  0.00000000000E+00 0. -1.
          4    1    1    2  501    0  0.17780385743E+03 -0.12389582462E+03  0.17780090826E+03  0.28031687437E+03  0.00000000000E+00 0. -1.
<scales pt_clust_5="13000.00000" pt_clust_6="13000.00000" pt_clust_7="13000.00000" pt_clust_8="13000.00000" pt_clust_9="13000.00000"></scales>
<clustering>
<clus scale="   82.655">  5  6 -1 -1</clus>
<clus scale="   91.221">  7  8 -1 -1</clus>
<clus scale="  108.138">  2  7  1 -1</clus>
<clus scale="  212.557">  5  9 -1 -1</clus>
<clus scale="  528.551">  1  5  2 -1</clus>
</clustering>
</event>
<event>
 9    1  0.2728138E-005  0.5686550E+03  0.7546771E-02  0.1048138E+00
         21   -1    0    0  501  502  0.00000000000E+00  0.00000000000E+00  0.29418075304E+03  0.29418075304E+03  0.00000000000E+00 0.  1.
         -2   -1    0    0    0  501 -0.00000000000E+00 -0.00000000000E+00 -0.40649384886E+03  0.40649384886E+03  0.00000000000E+00 0.  1.
         23    2    1    2    0    0 -0.31782074372E+01  0.78764871042E+02 -0.14537391888E+02  0.12367493741E+03  0.94181465627E+02 0.  0.
        -24    2    1    2    0    0  0.11796004853E+03 -0.20795628144E+03  0.13538067177E+03  0.28678045924E+03  0.82187088253E+02 0.  0.
         11    1    4    4    0    0  0.16654124735E+02 -0.11142890407E+03  0.54482132991E+02  0.12514816558E+03  0.00000000000E+00 0. -1.
        -12    1    4    4    0    0  0.10130592380E+03 -0.96527377367E+02  0.80898538776E+02  0.16163229366E+03  0.00000000000E+00 0.  1.
        -11    1    3    3    0    0 -0.33154730805E+02 -0.46322667759E+01  0.19492532428E+01  0.33533470719E+02  0.00000000000E+00 0.  1.
         11    1    3    3    0    0  0.29976523368E+02  0.83397137818E+02 -0.16486645130E+02  0.90141466691E+02  0.00000000000E+00 0. -1.
         -1    1    1    2    0  502 -0.11478184109E+03  0.12919141040E+03 -0.23315637570E+03  0.29021920525E+03  0.00000000000E+00 0.  1.
<scales pt_clust_5="13000.00000" pt_clust_6="13000.00000" pt_clust_7="13000.00000" pt_clust_8="13000.00000" pt_clust_9="13000.00000"></scales>
<clustering>
<clus scale="   82.187">  5  6 -1 -1</clus>
<clus scale="   94.181">  7  8 -1 -1</clus>
<clus scale="  122.818">  2  7  1 -1</clus>
<clus scale="  223.506">  5  9 -1 -1</clus>
<clus scale="  568.655">  1  5  2 -1</clus>
</clustering>
</event>
<event>
 9    1  0.2728138E-005  0.1707669E+03  0.7546771E-02  0.1195009E+00
         21   -1    0    0  501  502  0.00000000000E+00  0.00000000000E+00  0.87270322532E+02  0.87270322532E+02  0.00000000000E+00 0. -1.
          1   -1    0    0  502    0 -0.00000000000E+00 -0.00000000000E+00 -0.23443197581E+03  0.23443197581E+03  0.00000000000E+00 0. -1.
         23    2    1    2    0    0 -0.27950687025E+02  0.70761819661E+02 -0.47513818739E+02  0.12398779954E+03  0.85597520035E+02 0.  0.
        -24    2    1    2    0    0  0.66327641178E+02 -0.76875308248E+02 -0.66358683127E+02  0.14654485004E+03  0.82235936459E+02 0.  0.
         11    1    4    4    0    0  0.40745964791E+02 -0.76354511349E+02 -0.13197717867E+02  0.87546700720E+02  0.00000000000E+00 0. -1.
        -12    1    4    4    0    0  0.25581676387E+02 -0.52079689907E+00 -0.53160965260E+02  0.58998149323E+02  0.00000000000E+00 0.  1.
        -13    1    3    3    0    0  0.12619280813E+02  0.18055007119E+02  0.19609643274E+02  0.29491823267E+02  0.00000000000E+00 0.  1.
         13    1    3    3    0    0 -0.40569967838E+02  0.52706812542E+02 -0.67123462013E+02  0.94495976270E+02  0.00000000000E+00 0. -1.
          2    1    1    2  501    0 -0.38376954153E+02  0.61134885870E+01 -0.33289151414E+02  0.51169648764E+02  0.00000000000E+00 0. -1.
<scales pt_clust_5="13000.00000" pt_clust_6="13000.00000" pt_clust_7="13000.00000" pt_clust_8="13000.00000" pt_clust_9="13000.00000"></scales>
<clustering>
<clus scale="   82.236">  5  6 -1 -1</clus>
<clus scale="   38.861">  5  9 -1 -1</clus>
<clus scale="   85.598">  7  8 -1 -1</clus>
<clus scale="  114.523">  2  7  1 -1</clus>
<clus scale="  170.767">  1  5  2 -1</clus>
</clustering>
</event>
<event>
 9    1  0.2728138E-005  0.2239519E+03  0.7546771E-02  0.1167574E+00
          3   -1    0    0  502    0 -0.00000000000E+00  0.00000000000E+00  0.28596919368E+03  0.28596919368E+03  0.00000000000E+00 0. -1.
         21   -1    0    0  501  502  0.00000000000E+00 -0.00000000000E+00 -0.97019958881E+02  0.97019958881E+02  0.00000000000E+00 0. -1.
         23    2    1    2    0    0  0.22869595006E+02 -0.81735640717E+01  0.11199481543E+03  0.14618455077E+03  0.90759344839E+02 0.  0.
        -24    2    1    2    0    0  0.82369042900E+02  0.10663259785E+02  0.20098942129E+02  0.11716382786E+03  0.80156289508E+02 0.  0.
         11    1    4    4    0    0  0.87328531562E+02  0.24789017048E+02 -0.16102581467E+01  0.90792955246E+02  0.00000000000E+00 0. -1.
        -12    1    4    4    0    0 -0.49594886622E+01 -0.14125757263E+02  0.21709200276E+02  0.26370872618E+02  0.00000000000E+00 0.  1.
        -13    1    3    3    0    0  0.18803467490E+02  0.40023814496E+02  0.65955003802E+02  0.79407421838E+02  0.00000000000E+00 0. -1.
         13    1    3    3    0    0  0.40661275162E+01 -0.48197378568E+02  0.46039811629E+02  0.66777128934E+02  0.00000000000E+00 0.  1.
          4    1    1    2  501    0 -0.10523863791E+03 -0.24896957135E+01  0.56855477236E+02  0.11964077392E+03  0.00000000000E+00 0. -1.
<scales pt_clust_5="13000.00000" pt_clust_6="13000.00000" pt_clust_7="13000.00000" pt_clust_8="13000.00000" pt_clust_9="13000.00000"></scales>
<clustering>
<clus scale="   80.156">  5  6 -1 -1</clus>
<clus scale="   90.759">  7  8 -1 -1</clus>
<clus scale="   93.953">  1  7  2 -1</clus>
<clus scale="   92.646">  5  9 -1 -1</clus>
<clus scale="  223.952">  2  5  1 -1</clus>
</clustering>
</event>
<event>
 9    1  0.2728138E-005  0.3677201E+03  0.7546771E-02  0.1083923E+00
          1   -1    0    0  502    0 -0.00000000000E+00  0.00000000000E+00  0.15157513747E+03  0.15157513747E+03  0.00000000000E+00 0. -1.
         21   -1    0    0  501  502  0.00000000000E+00 -0.00000000000E+00 -0.57799199306E+03  0.57799199306E+03  0.00000000000E+00 0. -1.
         23    2    1    2    0    0 -0.68938477703E+02 -0.12472305675E+03 -0.29988626702E+01  0.16876335786E+03  0.90353324145E+02 0.  0.
        -24    2    1    2    0    0 -0.35343183705E+02 -0.65511464395E+02 -0.20513354134E+02  0.10320571115E+03  0.68481592530E+02 0.  0.
         11    1    4    4    0    0  0.17876430946E+02 -0.34671345306E+02 -0.23903672450E+01  0.39081745410E+02  0.00000000000E+00 0. -1.
        -12    1    4    4    0    0 -0.53219614651E+02 -0.30840119089E+02 -0.18122986889E+02  0.64123965744E+02  0.00000000000E+00 0.  1.
        -11    1    3    3    0    0 -0.81409709842E+02 -0.90699071846E+02 -0.27602004047E+02  0.12496292697E+03  0.00000000000E+00 0. -1.
         11    1    3    3    0    0  0.12471232139E+02 -0.34023984908E+02  0.24603141377E+02  0.43800430885E+02  0.00000000000E+00 0.  1.
          2    1    1    2  501    0  0.10428166141E+03  0.19023452115E+03 -0.40290463879E+03  0.45759806152E+03  0.00000000000E+00 0. -1.
<scales pt_clust_5="13000.00000" pt_clust_6="13000.00000" pt_clust_7="13000.00000" pt_clust_8="13000.00000" pt_clust_9="13000.00000"></scales>
<clustering>
<clus scale="   68.482">  5  6 -1 -1</clus>
<clus scale="   90.353">  7  8 -1 -1</clus>
<clus scale="  168.737">  1  7  2 -1</clus>
<clus scale="  160.210">  5  9 -1 -1</clus>
<clus scale="  367.720">  2  5  1 -1</clus>
</clustering>
</event>
<event>
 9    1  0.2728138E-005  0.2849770E+03  0.7546771E-02  0.1111546E+00
          1   -1    0    0  502    0 -0.00000000000E+00  0.00000000000E+00  0.83685709902E+03  0.83685709902E+03  0.00000000000E+00 0. -1.
         21   -1    0    0  501  502  0.00000000000E+00 -0.00000000000E+00 -0.65301856922E+02  0.65301856922E+02  0.00000000000E+00 0. -1.
         23    2    1    2    0    0 -0.16400903114E+03  0.74151159263E+01  0.36795716260E+03  0.40809083992E+03  0.64743446629E+02 0.  0.
        -24    2    1    2    0    0 -0.17105884706E+02 -0.21506964083E+02  0.21799927188E+03  0.23436037583E+03  0.81522649764E+02 0.  0.
         11    1    4    4    0    0 -0.37144524325E+02 -0.42680613650E+02  0.13441560369E+03  0.14583862652E+03  0.00000000000E+00 0. -1.
        -12    1    4    4    0    0  0.20038639620E+02  0.21173649567E+02  0.83583668191E+02  0.88521749317E+02  0.00000000000E+00 0.  1.
        -11    1    3    3    0    0 -0.38026794823E+02 -0.20335120275E+02  0.57298120222E+02  0.71712124652E+02  0.00000000000E+00 0.  1.
         11    1    3    3    0    0 -0.12598223631E+03  0.27750236202E+02  0.31065904238E+03  0.33637871527E+03  0.00000000000E+00 0. -1.
          2    1    1    2  501    0  0.18111491584E+03  0.14091848157E+02  0.18559880762E+03  0.25970774019E+03  0.00000000000E+00 0. -1.
<scales pt_clust_5="13000.00000" pt_clust_6="13000.00000" pt_clust_7="13000.00000" pt_clust_8="13000.00000" pt_clust_9="13000.00000"></scales>
<clustering>
<clus scale="   64.743">  7  8 -1 -1</clus>
<clus scale="   81.523">  5  6 -1 -1</clus>
<clus scale="  176.481">  1  7  2 -1</clus>
<clus scale="  101.325">  5  9 -1 -1</clus>
<clus scale="  284.977">  2  5  1 -1</clus>
</clustering>
</event>
<event>
 9    1  0.2728138E-005  0.2391655E+03  0.7546771E-02  0.1159267E+00
         21   -1    0    0  501  502  0.00000000000E+00  0.00000000000E+00  0.10149669414E+03  0.10149669414E+03  0.00000000000E+00 0.  1.
         -2   -1    0    0    0  501 -0.00000000000E+00 -0.00000000000E+00 -0.27898624561E+03  0.27898624561E+03  0.00000000000E+00 0.  1.
         23    2    1    2    0    0  0.19047446819E+02 -0.13847971490E+02 -0.24761573681E+02  0.96711926742E+02  0.90473696168E+02 0.  0.
        -24    2    1    2    0    0  0.49073764140E+02 -0.14340772813E+02 -0.18145155279E+03  0.20464991311E+03  0.79643134254E+02 0.  0.
         13    1    4    4    0    0 -0.13304129414E+02  0.16909328050E+02 -0.69348695742E+02  0.72609688305E+02  0.00000000000E+00 0. -1.
        -14    1    4    4    0    0  0.62377893553E+02 -0.31250100863E+02 -0.11210285705E+03  0.13204022481E+03  0.00000000000E+00 0.  1.
        -11    1    3    3    0    0  0.31791971294E+02  0.48297373650E+01  0.25863190362E+02  0.41266940976E+02  0.00000000000E+00 0.  1.
         11    1    3    3    0    0 -0.12744524475E+02 -0.18677708855E+02 -0.50624764044E+02  0.55444985766E+02  0.00000000000E+00 0. -1.
         -1    1    1    2    0  502 -0.68121210959E+02  0.28188744303E+02  0.28723574998E+02  0.79121099894E+02  0.00000000000E+00 0.  1.
<scales pt_clust_5="13000.00000" pt_clust_6="13000.00000" pt_clust_7="13000.00000" pt_clust_8="13000.00000" pt_clust_9="13000.00000"></scales>
<clustering>
<clus scale="   79.643">  5  6 -1 -1</clus>
<clus scale="   73.723">  5  9 -1 -1</clus>
<clus scale="   90.474">  7  8 -1 -1</clus>
<clus scale="   93.488">  2  7  1 -1</clus>
<clus scale="  239.166">  1  5  2 -1</clus>
</clustering>
</event>
<event>
 9    1  0.2728138E-005  0.2694543E+03  0.7546771E-02  0.1104588E+00
         21   -1    0    0  501  502  0.00000000000E+00  0.00000000000E+00  0.63539155882E+03  0.63539155882E+03  0.00000000000E+00 0. -1.
          1   -1    0    0  502    0 -0.00000000000E+00 -0.00000000000E+00 -0.11476514854E+03  0.11476514854E+03  0.00000000000E+00 0. -1.
         23    2    1    2    0    0 -0.20118230564E+03 -0.11587650184E+03  0.35503719052E+03  0.43388876466E+03  0.91139287171E+02 0.  0.
        -24    2    1    2    0    0  0.11015913063E+03  0.25692808743E+02  0.80225727100E+02  0.16230287274E+03  0.84326156839E+02 0.  0.
         11    1    4    4    0    0  0.63402956642E+02 -0.25644374897E+02  0.22484245283E+02  0.71993820296E+02  0.00000000000E+00 0. -1.
        -12    1    4    4    0    0  0.46756173987E+02  0.51337183641E+02  0.57741481817E+02  0.90309052439E+02  0.00000000000E+00 0.  1.
        -13    1    3    3    0    0 -0.56656862223E+02  0.83169088948E+01  0.10396258800E+03  0.11869031432E+03  0.00000000000E+00 0. -1.
         13    1    3    3    0    0 -0.14452544342E+03 -0.12419341074E+03  0.25107460252E+03  0.31519845034E+03  0.00000000000E+00 0.  1.
          2    1    1    2  501    0  0.91023175013E+02  0.90183693100E+02  0.85363492659E+02  0.15396506997E+03  0.00000000000E+00 0. -1.
<scales pt_clust_5="13000.00000" pt_clust_6="13000.00000" pt_clust_7="13000.00000" pt_clust_8="13000.00000" pt_clust_9="13000.00000"></scales>
<clustering>
<clus scale="   84.326">  5  6 -1 -1</clus>
<clus scale="   91.139">  7  8 -1 -1</clus>
<clus scale="  128.134">  5  9 -1 -1</clus>
<clus scale="  249.416">  2  7  1 -1</clus>
<clus scale="  269.454">  1  5  2 -1</clus>
</clustering>
</event>
<event>
 9    1  0.2728138E-005  0.7665003E+03  0.7546771E-02  0.9935940E-01
         21   -1    0    0  501  502  0.00000000000E+00  0.00000000000E+00  0.21988314103E+03  0.21988314103E+03  0.00000000000E+00 0. -1.
          1   -1    0    0  502    0 -0.00000000000E+00 -0.00000000000E+00 -0.12067555998E+04  0.12067555998E+04  0.00000000000E+00 0. -1.
         23    2    1    2    0    0  0.20659079497E+03 -0.13278598122E+03 -0.29745301150E+03  0.39570617830E+03  0.88279171489E+02 0.  0.
        -24    2    1    2    0    0  0.16491703221E+03  0.22510112297E+03 -0.55285416419E+03  0.62449655576E+03  0.80498933026E+02 0.  0.
         11    1    4    4    0    0  0.13078682853E+03  0.11851457730E+03 -0.37325459522E+03  0.41287999757E+03  0.00000000000E+00 0. -1.
        -12    1    4    4    0    0  0.34130203680E+02  0.10658654567E+03 -0.17959956897E+03  0.21161655818E+03  0.00000000000E+00 0.  1.
        -13    1    3    3    0    0  0.59159101140E+02 -0.25310913649E+02 -0.14243552897E+03  0.15629562217E+03  0.00000000000E+00 0.  1.
         13    1    3    3    0    0  0.14743169383E+03 -0.10747506757E+03 -0.15501748253E+03  0.23941055613E+03  0.00000000000E+00 0. -1.
          2    1    1    2  501    0 -0.37150782718E+03 -0.92315141750E+02 -0.13656528307E+03  0.40643600676E+03  0.00000000000E+00 0. -1.
<scales pt_clust_5="13000.00000" pt_clust_6="13000.00000" pt_clust_7="13000.00000" pt_clust_8="13000.00000" pt_clust_9="13000.00000"></scales>
<clustering>
<clus scale="   80.499">  5  6 -1 -1</clus>
<clus scale="   88.279">  7  8 -1 -1</clus>
<clus scale="  260.970">  2  7  1 -1</clus>
<clus scale="  334.421">  5  9 -1 -1</clus>
<clus scale="  766.500">  1  5  2 -1</clus>
</clustering>
</event>
<event>
 9    1  0.2728138E-005  0.1398767E+03  0.7546771E-02  0.1232409E+00
         21   -1    0    0  501  502  0.00000000000E+00  0.00000000000E+00  0.59890109428E+02  0.59890109428E+02  0.00000000000E+00 0.  1.
         -2   -1    0    0    0  501 -0.00000000000E+00 -0.00000000000E+00 -0.33938972828E+03  0.33938972828E+03  0.00000000000E+00 0.  1.
         23    2    1    2    0    0  0.26573935566E+02 -0.13445054243E+02 -0.23389513166E+03  0.25215651839E+03  0.89381394125E+02 0.  0.
        -24    2    1    2    0    0  0.18059293654E+02  0.23326540128E+02 -0.51815865381E+02  0.10098927405E+03  0.81508797115E+02 0.  0.
         11    1    4    4    0    0  0.11277100471E+02  0.35268589509E+02 -0.69410472186E+02  0.78669308184E+02  0.00000000000E+00 0. -1.
        -12    1    4    4    0    0  0.67821931825E+01 -0.11942049382E+02  0.17594606805E+02  0.22319965870E+02  0.00000000000E+00 0.  1.
        -13    1    3    3    0    0  0.47639908303E+00 -0.45689388839E+02 -0.74015044035E+02  0.86982607182E+02  0.00000000000E+00 0. -1.
         13    1    3    3    0    0  0.26097536483E+02  0.32244334596E+02 -0.15988008762E+03  0.16517391120E+03  0.00000000000E+00 0.  1.
         -1    1    1    2    0  502 -0.44633229219E+02 -0.98814858844E+01  0.62113781886E+01  0.46134045269E+02  0.00000000000E+00 0.  1.
<scales pt_clust_5="13000.00000" pt_clust_6="13000.00000" pt_clust_7="13000.00000" pt_clust_8="13000.00000" pt_clust_9="13000.00000"></scales>
<clustering>
<clus scale="   81.509">  5  6 -1 -1</clus>
<clus scale="   45.714">  5  9 -1 -1</clus>
<clus scale="   89.381">  7  8 -1 -1</clus>
<clus scale="   94.212">  2  7  1 -1</clus>
<clus scale="  139.877">  1  5  2 -1</clus>
</clustering>
</event>
<event>
 9    1  0.2728138E-005  0.1898589E+03  0.7546771E-02  0.1180281E+00
         21   -1    0    0  501  502  0.00000000000E+00  0.00000000000E+00  0.66083175550E+03  0.66083175550E+03  0.00000000000E+00 0. -1.
          1   -1    0    0  502    0 -0.00000000000E+00 -0.00000000000E+00 -0.35559589246E+02  0.35559589246E+02  0.00000000000E+00 0. -1.
         23    2    1    2    0    0 -0.57274462627E+02 -0.43019021296E+02  0.26692256194E+03  0.29085363649E+03  0.90648681858E+02 0.  0.
        -24    2    1    2    0    0 -0.13728529114E+01  0.67607709803E+02  0.10370708726E+03  0.14307452472E+03  0.71711034897E+02 0.  0.
         11    1    4    4    0    0 -0.12263345725E+02  0.68622115907E+02  0.11016876225E+03  0.13037078129E+03  0.00000000000E+00 0. -1.
        -12    1    4    4    0    0  0.10890492813E+02 -0.10144061039E+01 -0.64616749858E+01  0.12703743428E+02  0.00000000000E+00 0.  1.
        -11    1    3    3    0    0 -0.20925461088E+01 -0.31941417016E+02  0.20331472669E+02  0.37920992222E+02  0.00000000000E+00 0.  1.
         11    1    3    3    0    0 -0.55181916518E+02 -0.11077604280E+02  0.24659108927E+03  0.25293264426E+03  0.00000000000E+00 0. -1.
          2    1    1    2  501    0  0.58647315539E+02 -0.24588688507E+02  0.25464251705E+03  0.26246318354E+03  0.00000000000E+00 0. -1.
<scales pt_clust_5="13000.00000" pt_clust_6="13000.00000" pt_clust_7="13000.00000" pt_clust_8="13000.00000" pt_clust_9="13000.00000"></scales>
<clustering>
<clus scale="   71.711">  5  6 -1 -1</clus>
<clus scale="   63.593">  5  9 -1 -1</clus>
<clus scale="   90.649">  7  8 -1 -1</clus>
<clus scale="  115.534">  2  7  1 -1</clus>
<clus scale="  189.859">  1  5  2 -1</clus>
</clustering>
</event>
<event>
 9    1  0.2728138E-005  0.3698044E+03  0.7546771E-02  0.1077235E+00
          1   -1    0    0  502    0 -0.00000000000E+00  0.00000000000E+00  0.16894111200E+04  0.16894111200E+04  0.00000000000E+00 0. -1.
         21   -1    0    0  501  502  0.00000000000E+00 -0.00000000000E+00 -0.48734394834E+02  0.48734394834E+02  0.00000000000E+00 0. -1.
         23    2    1    2    0    0 -0.16003529584E+03  0.77749951153E+02  0.46385863501E+03  0.50459124021E+03  0.88267409624E+02 0.  0.
        -24    2    1    2    0    0  0.91869138718E+02  0.87563647121E+02  0.26997385442E+03  0.30924822216E+03  0.81493864127E+02 0.  0.
         13    1    4    4    0    0  0.88469219621E+02  0.59151292038E+02  0.25633553115E+03  0.27754924374E+03  0.00000000000E+00 0. -1.
        -14    1    4    4    0    0  0.33999190974E+01  0.28412355082E+02  0.13638323274E+02  0.31698978421E+02  0.00000000000E+00 0.  1.
        -11    1    3    3    0    0 -0.25141638188E+02  0.37422725330E+02  0.20522746612E+03  0.21012109650E+03  0.00000000000E+00 0.  1.
         11    1    3    3    0    0 -0.13489365765E+03  0.40327225824E+02  0.25863116889E+03  0.29447014371E+03  0.00000000000E+00 0. -1.
          2    1    1    2  501    0  0.68166157117E+02 -0.16531359827E+03  0.90684423574E+03  0.92430605247E+03  0.00000000000E+00 0. -1.
<scales pt_clust_5="13000.00000" pt_clust_6="13000.00000" pt_clust_7="13000.00000" pt_clust_8="13000.00000" pt_clust_9="13000.00000"></scales>
<clustering>
<clus scale="   81.494">  5  6 -1 -1</clus>
<clus scale="   88.267">  7  8 -1 -1</clus>
<clus scale="  178.816">  5  9 -1 -1</clus>
<clus scale="  198.614">  1  7  2 -1</clus>
<clus scale="  369.804">  2  5  1 -1</clus>
</clustering>
</event>
<event>
 9    1  0.2728138E-005  0.3028374E+03  0.7546771E-02  0.1105980E+00
         21   -1    0    0  501  502  0.00000000000E+00  0.00000000000E+00  0.16287133712E+03  0.16287133712E+03  0.00000000000E+00 0. -1.
          3   -1    0    0  502    0 -0.00000000000E+00 -0.00000000000E+00 -0.56546095770E+03  0.56546095770E+03  0.00000000000E+00 0. -1.
         23    2    1    2    0    0  0.10244401323E+03  0.51917120586E+02 -0.38998373764E+03  0.42523264138E+03  0.12468087428E+03 0.  0.
        -24    2    1    2    0    0  0.67448762191E+02  0.37086828939E+02 -0.65084191508E+01  0.11120792034E+03  0.80000460150E+02 0.  0.
         13    1    4    4    0    0  0.19596766130E+02  0.56177062617E+02 -0.37068695948E+01  0.59612385368E+02  0.00000000000E+00 0. -1.
        -14    1    4    4    0    0  0.47851996061E+02 -0.19090233678E+02 -0.28015495560E+01  0.51595534970E+02  0.00000000000E+00 0.  1.
        -13    1    3    3    0    0  0.10118202098E+02 -0.23306915404E+02 -0.10485589090E+02  0.27487049640E+02  0.00000000000E+00 0.  1.
         13    1    3    3    0    0  0.92325811132E+02  0.75224035990E+02 -0.37949814855E+03  0.39774559174E+03  0.00000000000E+00 0. -1.
          4    1    1    2  501    0 -0.16989277542E+03 -0.89003949525E+02 -0.60974637893E+01  0.19189173311E+03  0.00000000000E+00 0. -1.
<scales pt_clust_5="13000.00000" pt_clust_6="13000.00000" pt_clust_7="13000.00000" pt_clust_8="13000.00000" pt_clust_9="13000.00000"></scales>
<clustering>
<clus scale="   80.000">  5  6 -1 -1</clus>
<clus scale="  124.681">  7  8 -1 -1</clus>
<clus scale="  169.515">  2  7  1 -1</clus>
<clus scale="  119.780">  5  9 -1 -1</clus>
<clus scale="  302.837">  1  5  2 -1</clus>
</clustering>
</event>
<event>
 9    1  0.2728138E-005  0.2494109E+03  0.7546771E-02  0.1151018E+00
          1   -1    0    0  502    0 -0.00000000000E+00  0.00000000000E+00  0.72151834670E+03  0.72151834670E+03  0.00000000000E+00 0. -1.
         21   -1    0    0  501  502  0.00000000000E+00 -0.00000000000E+00 -0.53159763512E+02  0.53159763512E+02  0.00000000000E+00 0. -1.
         23    2    1    2    0    0  0.29425059406E+02  0.28054877625E+02  0.58758356027E+02  0.11602932224E+03  0.91418537158E+02 0.  0.
        -24    2    1    2    0    0  0.55274623543E+02  0.16775412837E+02  0.51362368440E+03  0.52301955810E+03  0.80021687690E+02 0.  0.
         11    1    4    4    0    0  0.58831199234E+02  0.31643874134E+02  0.24448305079E+03  0.25344507669E+03  0.00000000000E+00 0. -1.
        -12    1    4    4    0    0 -0.35565756914E+01 -0.14868461296E+02  0.26914063361E+03  0.26957448142E+03  0.00000000000E+00 0.  1.
        -13    1    3    3    0    0  0.48989595268E+02 -0.44421860745E+01  0.60601200300E+02  0.78052667728E+02  0.00000000000E+00 0.  1.
         13    1    3    3    0    0 -0.19564535863E+02  0.32497063700E+02 -0.18428442736E+01  0.37976654508E+02  0.00000000000E+00 0. -1.
          2    1    1    2  501    0 -0.84699682949E+02 -0.44830290463E+02  0.95976542760E+02  0.13562922987E+03  0.00000000000E+00 0. -1.
<scales pt_clust_5="13000.00000" pt_clust_6="13000.00000" pt_clust_7="13000.00000" pt_clust_8="13000.00000" pt_clust_9="13000.00000"></scales>
<clustering>
<clus scale="   80.022">  5  6 -1 -1</clus>
<clus scale="   91.419">  7  8 -1 -1</clus>
<clus scale="   95.832">  5  9 -1 -1</clus>
<clus scale="  100.051">  1  7  2 -1</clus>
<clus scale="  249.411">  2  5  1 -1</clus>
</clustering>
</event>
<event>
 9    1  0.2728138E-005  0.1935725E+03  0.7546771E-02  0.1164816E+00
          1   -1    0    0  502    0 -0.00000000000E+00  0.00000000000E+00  0.10654254566E+04  0.10654254566E+04  0.00000000000E+00 0. -1.
         21   -1    0    0  501  502  0.00000000000E+00 -0.00000000000E+00 -0.29585953486E+02  0.29585953486E+02  0.00000000000E+00 0. -1.
         23    2    1    2    0    0  0.10958916251E+03  0.60319490910E+02  0.35920411950E+03  0.39123179832E+03  0.91577808627E+02 0.  0.
        -24    2    1    2    0    0 -0.30063675274E+02  0.68542890450E+01  0.25179286667E+03  0.26636929634E+03  0.81253605937E+02 0.  0.
         13    1    4    4    0    0 -0.39336644191E+02 -0.13995039633E+02  0.59273040494E+02  0.72501903699E+02  0.00000000000E+00 0. -1.
        -14    1    4    4    0    0  0.92729689172E+01  0.20849328678E+02  0.19251982618E+03  0.19386739264E+03  0.00000000000E+00 0.  1.
        -13    1    3    3    0    0  0.52943700402E+02  0.29022150768E+02  0.60039377378E+02  0.85147210661E+02  0.00000000000E+00 0. -1.
         13    1    3    3    0    0  0.56645462105E+02  0.31297340141E+02  0.29916474212E+03  0.30608458766E+03  0.00000000000E+00 0.  1.
          2    1    1    2  501    0 -0.79525487233E+02 -0.67173779955E+02  0.42484251697E+03  0.43741031544E+03  0.00000000000E+00 0. -1.
<scales pt_clust_5="13000.00000" pt_clust_6="13000.00000" pt_clust_7="13000.00000" pt_clust_8="13000.00000" pt_clust_9="13000.00000"></scales>
<clustering>
<clus scale="   81.254">  5  6 -1 -1</clus>
<clus scale="   91.578">  7  8 -1 -1</clus>
<clus scale="  104.099">  5  9 -1 -1</clus>
<clus scale="  155.031">  1  7  2 -1</clus>
<clus scale="  193.572">  2  5  1 -1</clus>
</clustering>
</event>
<event>
 9    1  0.2728138E-005  0.3346003E+03  0.7546771E-02  0.1106774E+00
         21   -1    0    0  501  502  0.00000000000E+00  0.00000000000E+00  0.48329769911E+03  0.48329769911E+03  0.00000000000E+00 0.  1.
         -2   -1    0    0    0  501 -0.00000000000E+00 -0.00000000000E+00 -0.10884682966E+03  0.10884682966E+03  0.00000000000E+00 0.  1.
         23    2    1    2    0    0  0.22470072560E+02  0.16422859582E+02  0.11817690281E+03  0.17067841334E+03  0.11996135188E+03 0.  0.
        -24    2    1    2    0    0  0.78753085496E+02  0.11701586663E+03  0.16330929569E+03  0.22990815704E+03  0.79328891914E+02 0.  0.
         13    1    4    4    0    0  0.34560117832E+02 -0.22397269185E+01  0.33751441128E+02  0.48358845101E+02  0.00000000000E+00 0. -1.
        -14    1    4    4    0    0  0.44192967664E+02  0.11925559355E+03  0.12955785457E+03  0.18154931193E+03  0.00000000000E+00 0.  1.
        -13    1    3    3    0    0  0.62195062857E+02  0.24640279385E+02  0.29402127085E+02  0.73074306627E+02  0.00000000000E+00 0.  1.
         13    1    3    3    0    0 -0.39724990296E+02 -0.82174198025E+01  0.88774775724E+02  0.97604106712E+02  0.00000000000E+00 0. -1.
         -1    1    1    2    0  502 -0.10122315806E+03 -0.13343872622E+03  0.92964670942E+02  0.19155795839E+03  0.00000000000E+00 0.  1.
<scales pt_clust_5="13000.00000" pt_clust_6="13000.00000" pt_clust_7="13000.00000" pt_clust_8="13000.00000" pt_clust_9="13000.00000"></scales>
<clustering>
<clus scale="   79.329">  5  6 -1 -1</clus>
<clus scale="  119.961">  7  8 -1 -1</clus>
<clus scale="  123.148">  2  7  1 -1</clus>
<clus scale="  151.648">  5  9 -1 -1</clus>
<clus scale="  334.600">  1  5  2 -1</clus>
</clustering>
</event>
<event>
 9    1  0.2728138E-005  0.1441844E+03  0.7546771E-02  0.1224307E+00
         21   -1    0    0  501  502  0.00000000000E+00  0.00000000000E+00  0.16909175172E+02  0.16909175172E+02  0.00000000000E+00 0.  1.
          1   -1    0    0  502    0 -0.00000000000E+00 -0.00000000000E+00 -0.89424772293E+03  0.89424772293E+03  0.00000000000E+00 0. -1.
         23    2    1    2    0    0  0.49508410025E+01  0.43424120438E+02 -0.36866922466E+03  0.38244751435E+03  0.91863697695E+02 0.  0.
        -24    2    1    2    0    0  0.41052562019E+02 -0.18667751390E+02 -0.25475290455E+03  0.26947447387E+03  0.75389998666E+02 0.  0.
         13    1    4    4    0    0  0.56705179924E+02 -0.27022673137E+02 -0.14117266052E+03  0.15451673816E+03  0.00000000000E+00 0. -1.
        -14    1    4    4    0    0 -0.15652617905E+02  0.83549217467E+01 -0.11358024403E+03  0.11495773571E+03  0.00000000000E+00 0.  1.
        -13    1    3    3    0    0  0.45267565891E+02  0.22100316641E+02 -0.12918647904E+03  0.13866045898E+03  0.00000000000E+00 0.  1.
         13    1    3    3    0    0 -0.40316724889E+02  0.21323803798E+02 -0.23948274562E+03  0.24378705537E+03  0.00000000000E+00 0. -1.
          2    1    1    2  501    0 -0.46003403022E+02 -0.24756369048E+02 -0.25391641855E+03  0.25923490989E+03  0.00000000000E+00 0. -1.
<scales pt_clust_5="13000.00000" pt_clust_6="13000.00000" pt_clust_7="13000.00000" pt_clust_8="13000.00000" pt_clust_9="13000.00000"></scales>
<clustering>
<clus scale="   75.390">  5  6 -1 -1</clus>
<clus scale="   52.242">  5  9 -1 -1</clus>
<clus scale="   91.864">  7  8 -1 -1</clus>
<clus scale="  101.731">  2  7  1 -1</clus>
<clus scale="  144.184">  1  5  2 -1</clus>
</clustering>
</event>
<event>
 9    1  0.2728138E-005  0.4601753E+03  0.7546771E-02  0.1042837E+00
          3   -1    0    0  502    0 -0.00000000000E+00  0.00000000000E+00  0.51077786366E+03  0.51077786366E+03  0.00000000000E+00 0. -1.
         21   -1    0    0  501  502  0.00000000000E+00 -0.00000000000E+00 -0.26236087205E+03  0.26236087205E+03  0.00000000000E+00 0. -1.
         23    2    1    2    0    0 -0.27793389092E+02  0.25313691277E+03  0.64429204910E+02  0.27754532268E+03  0.89607558926E+02 0.  0.
        -24    2    1    2    0    0  0.19115566596E+03 -0.17697892050E+03  0.15104982426E+03  0.31236627896E+03  0.83033823782E+02 0.  0.
         11    1    4    4    0    0  0.18027538111E+03 -0.17990108722E+03  0.12441716309E+03  0.28344883963E+03  0.00000000000E+00 0. -1.
        -12    1    4    4    0    0  0.10880284854E+02  0.29221667117E+01  0.26632661166E+02  0.28917439333E+02  0.00000000000E+00 0.  1.
        -13    1    3    3    0    0  0.26151702973E+02  0.31897317116E+02  0.18650845893E+02  0.45268139569E+02  0.00000000000E+00 0.  1.
         13    1    3    3    0    0 -0.53945092065E+02  0.22123959565E+03  0.45778359017E+02  0.23227718311E+03  0.00000000000E+00 0. -1.
          4    1    1    2  501    0 -0.16336227687E+03 -0.76157992262E+02  0.32937962439E+02  0.18322713407E+03  0.00000000000E+00 0. -1.
<scales pt_clust_5="13000.00000" pt_clust_6="13000.00000" pt_clust_7="13000.00000" pt_clust_8="13000.00000" pt_clust_9="13000.00000"></scales>
<clustering>
<clus scale="   83.034">  5  6 -1 -1</clus>
<clus scale="   89.608">  7  8 -1 -1</clus>
<clus scale="  180.242">  5  9 -1 -1</clus>
<clus scale="  269.964">  1  7  2 -1</clus>
<clus scale="  460.175">  2  5  1 -1</clus>
</clustering>
</event>
<event>
 9    1  0.2728138E-005  0.1691667E+03  0.7546771E-02  0.1191478E+00
          3   -1    0    0  502    0 -0.00000000000E+00  0.00000000000E+00  0.36300460282E+02  0.36300460282E+02  0.00000000000E+00 0. -1.
         21   -1    0    0  501  502  0.00000000000E+00 -0.00000000000E+00 -0.72630771136E+03  0.72630771136E+03  0.00000000000E+00 0. -1.
         23    2    1    2    0    0 -0.39651749524E+02  0.77534491831E+02 -0.45871783775E+03  0.47605594907E+03  0.92862012216E+02 0.  0.
        -24    2    1    2    0    0  0.83185432982E+01 -0.57856469382E+02 -0.22910566111E+03  0.24948791152E+03  0.79613094586E+02 0.  0.
         11    1    4    4    0    0  0.87320745832E+01 -0.60454336497E+02 -0.23511935632E+03  0.24292403678E+03  0.00000000000E+00 0. -1.
        -12    1    4    4    0    0 -0.41353128504E+00  0.25978671158E+01  0.60136952047E+01  0.65638747467E+01  0.00000000000E+00 0.  1.
        -11    1    3    3    0    0 -0.48788414226E+02  0.28343681247E+01 -0.13128738950E+03  0.14008826377E+03  0.00000000000E+00 0.  1.
         11    1    3    3    0    0  0.91366647014E+01  0.74700123707E+02 -0.32743044825E+03  0.33596768530E+03  0.00000000000E+00 0. -1.
          4    1    1    2  501    0  0.31333206226E+02 -0.19678022450E+02 -0.21837522170E+01  0.37064311051E+02  0.00000000000E+00 0. -1.
<scales pt_clust_5="13000.00000" pt_clust_6="13000.00000" pt_clust_7="13000.00000" pt_clust_8="13000.00000" pt_clust_9="13000.00000"></scales>
<clustering>
<clus scale="   79.613">  5  6 -1 -1</clus>
<clus scale="   37.000">  5  9 -1 -1</clus>
<clus scale="   92.862">  7  8 -1 -1</clus>
<clus scale="  127.308">  1  7  2 -1</clus>
<clus scale="  169.167">  2  5  1 -1</clus>
</clustering>
</event>
<event>
 9    1  0.2728138E-005  0.8183341E+03  0.7546771E-02  0.1018538E+00
         21   -1    0    0  501  502  0.00000000000E+00  0.00000000000E+00  0.38794818155E+03  0.38794818155E+03  0.00000000000E+00 0. -1.
          1   -1    0    0  502    0 -0.00000000000E+00 -0.00000000000E+00 -0.54224359409E+03  0.54224359409E+03  0.00000000000E+00 0. -1.
         23    2    1    2    0    0  0.22410889587E+01  0.34460418854E+02 -0.88521860602E+01  0.99033309872E+02  0.92394222324E+02 0.  0.
        -24    2    1    2    0    0 -0.20480204687E+02  0.21364383985E+03 -0.40897230322E+03  0.46875542657E+03  0.80063575047E+02 0.  0.
         11    1    4    4    0    0 -0.49006536643E+02  0.16991360000E+03 -0.31825661883E+03  0.36408728009E+03  0.00000000000E+00 0. -1.
        -12    1    4    4    0    0  0.28526331957E+02  0.43730239852E+02 -0.90715684393E+02  0.10466814648E+03  0.00000000000E+00 0.  1.
        -11    1    3    3    0    0 -0.28698654592E+02 -0.20451983998E+02  0.91339345858E+00  0.35252385911E+02  0.00000000000E+00 0.  1.
         11    1    3    3    0    0  0.30939743550E+02  0.54912402852E+02 -0.97655795188E+01  0.63780923961E+02  0.00000000000E+00 0. -1.
          2    1    1    2  501    0  0.18239115728E+02 -0.24810425870E+03  0.26352907675E+03  0.36240303920E+03  0.00000000000E+00 0. -1.
<scales pt_clust_5="13000.00000" pt_clust_6="13000.00000" pt_clust_7="13000.00000" pt_clust_8="13000.00000" pt_clust_9="13000.00000"></scales>
<clustering>
<clus scale="   80.064">  5  6 -1 -1</clus>
<clus scale="   92.394">  7  8 -1 -1</clus>
<clus scale="   98.637">  2  7  1 -1</clus>
<clus scale="  245.312">  5  9 -1 -1</clus>
<clus scale="  818.334">  1  5  2 -1</clus>
</clustering>
</event>
<event>
 9    1  0.2728138E-005  0.4303048E+03  0.7546771E-02  0.1077580E+00
         21   -1    0    0  501  502  0.00000000000E+00  0.00000000000E+00  0.32720573027E+03  0.32720573027E+03  0.00000000000E+00 0. -1.
          1   -1    0    0  502    0 -0.00000000000E+00 -0.00000000000E+00 -0.23584375888E+03  0.23584375888E+03  0.00000000000E+00 0. -1.
         23    2    1    2    0    0  0.73550338309E+02 -0.39308847806E+02  0.11783196318E+02  0.12544808051E+03  0.92970637335E+02 0.  0.
        -24    2    1    2    0    0  0.28421217310E+02  0.16437654369E+03  0.17174765752E+03  0.25176484173E+03  0.77851550796E+02 0.  0.
         11    1    4    4    0    0  0.44060068468E+02  0.16138000490E+03  0.16313380062E+03  0.23366093495E+03  0.00000000000E+00 0. -1.
        -12    1    4    4    0    0 -0.15638851158E+02  0.29965387883E+01  0.86138568955E+01  0.18103906785E+02  0.00000000000E+00 0.  1.
        -13    1    3    3    0    0  0.43060204696E+02  0.27295247516E+02  0.11181855388E+02  0.52194306733E+02  0.00000000000E+00 0.  1.
         13    1    3    3    0    0  0.30490133613E+02 -0.66604095322E+02  0.60134092952E+00  0.73253773775E+02  0.00000000000E+00 0. -1.
          2    1    1    2  501    0 -0.10197155562E+03 -0.12506769588E+03 -0.92168882449E+02  0.18583656691E+03  0.00000000000E+00 0. -1.
<scales pt_clust_5="13000.00000" pt_clust_6="13000.00000" pt_clust_7="13000.00000" pt_clust_8="13000.00000" pt_clust_9="13000.00000"></scales>
<clustering>
<clus scale="   77.852">  5  6 -1 -1</clus>
<clus scale="   92.971">  7  8 -1 -1</clus>
<clus scale="  124.893">  2  7  1 -1</clus>
<clus scale="  161.929">  5  9 -1 -1</clus>
<clus scale="  430.305">  1  5  2 -1</clus>
</clustering>
</event>
<event>
 9    1  0.2728138E-005  0.1994753E+03  0.7546771E-02  0.1174669E+00
         21   -1    0    0  501  502  0.00000000000E+00  0.00000000000E+00  0.60336840626E+02  0.60336840626E+02  0.00000000000E+00 0. -1.
          1   -1    0    0  502    0 -0.00000000000E+00 -0.00000000000E+00 -0.43588723519E+03  0.43588723519E+03  0.00000000000E+00 0. -1.
         23    2    1    2    0    0  0.25568725369E+02  0.62027320863E+02 -0.75665728750E+02  0.13605574569E+03  0.91020410778E+02 0.  0.
        -24    2    1    2    0    0  0.40371874822E+02  0.48419861001E+01 -0.21763649343E+03  0.23533072030E+03  0.79759460474E+02 0.  0.
         11    1    4    4    0    0  0.29407254966E+02  0.26229824861E+02 -0.20384804084E+03  0.20762180548E+03  0.00000000000E+00 0. -1.
        -12    1    4    4    0    0  0.10964619856E+02 -0.21387838761E+02 -0.13788452599E+02  0.27708914821E+02  0.00000000000E+00 0.  1.
        -13    1    3    3    0    0  0.10123425779E+02  0.42435025312E+02  0.11724711455E+02  0.45173930330E+02  0.00000000000E+00 0. -1.
         13    1    3    3    0    0  0.15445299589E+02  0.19592295551E+02 -0.87390440205E+02  0.90881815363E+02  0.00000000000E+00 0.  1.
          2    1    1    2  501    0 -0.65940600191E+02 -0.66869306963E+02 -0.82248172376E+02  0.12483760982E+03  0.00000000000E+00 0. -1.
<scales pt_clust_5="13000.00000" pt_clust_6="13000.00000" pt_clust_7="13000.00000" pt_clust_8="13000.00000" pt_clust_9="13000.00000"></scales>
<clustering>
<clus scale="   79.759">  5  6 -1 -1</clus>
<clus scale="   91.020">  7  8 -1 -1</clus>
<clus scale="   93.913">  5  9 -1 -1</clus>
<clus scale="  113.075">  2  7  1 -1</clus>
<clus scale="  199.475">  1  5  2 -1</clus>
</clustering>
</event>
<event>
 9    1  0.2728138E-005  0.4980543E+03  0.7546771E-02  0.1033558E+00
          1   -1    0    0  502    0 -0.00000000000E+00  0.00000000000E+00  0.10031538856E+04  0.10031538856E+04  0.00000000000E+00 0. -1.
         21   -1    0    0  501  502  0.00000000000E+00 -0.00000000000E+00 -0.15231975572E+03  0.15231975572E+03  0.00000000000E+00 0. -1.
         23    2    1    2    0    0 -0.15358930565E+03 -0.21400337407E+03  0.36674936464E+03  0.46092622999E+03  0.92524451385E+02 0.  0.
        -24    2    1    2    0    0 -0.69988760239E+02  0.20789539757E+03  0.38757362287E+03  0.45095172272E+03  0.70888787427E+02 0.  0.
         11    1    4    4    0    0 -0.24255143242E+02  0.16593972932E+03  0.26599343825E+03  0.31444683960E+03  0.00000000000E+00 0. -1.
        -12    1    4    4    0    0 -0.45733616997E+02  0.41955668244E+02  0.12158018463E+03  0.13650488312E+03  0.00000000000E+00 0.  1.
        -13    1    3    3    0    0 -0.14206382357E+03 -0.12573002589E+03  0.23708926154E+03  0.30364697811E+03  0.00000000000E+00 0. -1.
         13    1    3    3    0    0 -0.11525482085E+02 -0.88273348179E+02  0.12966010310E+03  0.15727925188E+03  0.00000000000E+00 0.  1.
          2    1    1    2  501    0  0.22357806589E+03  0.61079765006E+01  0.96511142408E+02  0.24359568866E+03  0.00000000000E+00 0. -1.
<scales pt_clust_5="13000.00000" pt_clust_6="13000.00000" pt_clust_7="13000.00000" pt_clust_8="13000.00000" pt_clust_9="13000.00000"></scales>
<clustering>
<clus scale="   70.889">  5  6 -1 -1</clus>
<clus scale="   92.524">  7  8 -1 -1</clus>
<clus scale="  223.662">  5  9 -1 -1</clus>
<clus scale="  279.191">  1  7  2 -1</clus>
<clus scale="  498.054">  2  5  1 -1</clus>
</clustering>
</event>
<event>
 9    1  0.2728138E-005  0.2142221E+03  0.7546771E-02  0.1154687E+00
          1   -1    0    0  502    0 -0.00000000000E+00  0.00000000000E+00  0.24954856795E+03  0.24954856795E+03  0.00000000000E+00 0. -1.
         21   -1    0    0  501  502  0.00000000000E+00 -0.00000000000E+00 -0.17103716683E+03  0.17103716683E+03  0.00000000000E+00 0. -1.
         23    2    1    2    0    0 -0.21987546187E+02  0.77291005606E+02  0.13612891988E+03  0.19875045879E+03  0.12047120114E+03 0.  0.
        -24    2    1    2    0    0 -0.39721928849E+02 -0.62491311317E+02 -0.98596114211E+02  0.14629498512E+03  0.78727589272E+02 0.  0.
         13    1    4    4    0    0 -0.38511510385E+02 -0.70583151801E+02 -0.10747335690E+03  0.13422235355E+03  0.00000000000E+00 0. -1.
        -14    1    4    4    0    0 -0.12104184639E+01  0.80918404846E+01  0.88772426864E+01  0.12072631569E+02  0.00000000000E+00 0.  1.
        -13    1    3    3    0    0  0.10550592148E+02  0.80849570777E+02  0.28688934335E+02  0.86435079932E+02  0.00000000000E+00 0.  1.
         13    1    3    3    0    0 -0.32538138335E+02 -0.35585651712E+01  0.10743998555E+03  0.11231537885E+03  0.00000000000E+00 0. -1.
          2    1    1    2  501    0  0.61709475036E+02 -0.14799694289E+02  0.40978595444E+02  0.75540290871E+02  0.00000000000E+00 0. -1.
<scales pt_clust_5="13000.00000" pt_clust_6="13000.00000" pt_clust_7="13000.00000" pt_clust_8="13000.00000" pt_clust_9="13000.00000"></scales>
<clustering>
<clus scale="   78.728">  5  6 -1 -1</clus>
<clus scale="   63.459">  5  9 -1 -1</clus>
<clus scale="  120.471">  7  8 -1 -1</clus>
<clus scale="  144.813">  1  7  2 -1</clus>
<clus scale="  214.222">  2  5  1 -1</clus>
</clustering>
</event>
<event>
 9    1  0.2728138E-005  0.2771646E+03  0.7546771E-02  0.1137513E+00
         21   -1    0    0  501  502  0.00000000000E+00  0.00000000000E+00  0.94761245411E+03  0.94761245411E+03  0.00000000000E+00 0. -1.
          1   -1    0    0  502    0 -0.00000000000E+00 -0.00000000000E+00 -0.37682813989E+02  0.37682813989E+02  0.00000000000E+00 0. -1.
         23    2    1    2    0    0  0.22333673605E+02 -0.34049995833E+02  0.23612684668E+03  0.25671415278E+03  0.92130740365E+02 0.  0.
        -24    2    1    2    0    0  0.86838898530E+02 -0.67450752528E+01  0.14480344883E+03  0.18689560238E+03  0.79846334031E+02 0.  0.
         11    1    4    4    0    0  0.78066851336E+02 -0.17040214821E+02  0.15189030552E+03  0.17162595116E+03  0.00000000000E+00 0. -1.
        -12    1    4    4    0    0  0.87720471935E+01  0.10295139568E+02 -0.70868566938E+01  0.15269651223E+02  0.00000000000E+00 0.  1.
        -13    1    3    3    0    0  0.43733683724E+02  0.80303358816E+01  0.61968445767E+02  0.76270634304E+02  0.00000000000E+00 0. -1.
         13    1    3    3    0    0 -0.21400010119E+02 -0.42080331714E+02  0.17415840092E+03  0.18044351848E+03  0.00000000000E+00 0.  1.
          2    1    1    2  501    0 -0.10917257213E+03  0.40795071085E+02  0.52899934461E+03  0.54168551294E+03  0.00000000000E+00 0. -1.
<scales pt_clust_5="13000.00000" pt_clust_6="13000.00000" pt_clust_7="13000.00000" pt_clust_8="13000.00000" pt_clust_9="13000.00000"></scales>
<clustering>
<clus scale="   79.846">  5  6 -1 -1</clus>
<clus scale="   92.131">  7  8 -1 -1</clus>
<clus scale="  100.729">  2  7  1 -1</clus>
<clus scale="  109.083">  5  9 -1 -1</clus>
<clus scale="  277.165">  1  5  2 -1</clus>
</clustering>
</event>
<event>
 9    1  0.2728138E-005  0.3336836E+03  0.7546771E-02  0.1110066E+00
         21   -1    0    0  501  502  0.00000000000E+00  0.00000000000E+00  0.76245898320E+03  0.76245898320E+03  0.00000000000E+00 0. -1.
          1   -1    0    0  502    0 -0.00000000000E+00 -0.00000000000E+00 -0.65775619836E+02  0.65775619836E+02  0.00000000000E+00 0. -1.
         23    2    1    2    0    0  0.59600030137E+02 -0.34913473332E+02  0.17196550895E+03  0.20640377532E+03  0.90880514878E+02 0.  0.
        -24    2    1    2    0    0  0.40319215781E+02  0.54611671675E+02  0.10641902528E+02  0.97764077169E+02  0.69544883716E+02 0.  0.
         11    1    4    4    0    0  0.37222332077E+02  0.25820804056E+01 -0.14330111505E+02  0.39969003494E+02  0.00000000000E+00 0. -1.
        -12    1    4    4    0    0  0.30968837036E+01  0.52029591269E+02  0.24972014034E+02  0.57795073676E+02  0.00000000000E+00 0.  1.
        -11    1    3    3    0    0  0.52112650970E+02 -0.55238797698E+02  0.73860314245E+02  0.10593582578E+03  0.00000000000E+00 0.  1.
         11    1    3    3    0    0  0.74873791665E+01  0.20325324365E+02  0.98105194702E+02  0.10046794954E+03  0.00000000000E+00 0. -1.
          2    1    1    2  501    0 -0.99919245918E+02 -0.19698198342E+02  0.51407595189E+03  0.52406675055E+03  0.00000000000E+00 0. -1.
<scales pt_clust_5="13000.00000" pt_clust_6="13000.00000" pt_clust_7="13000.00000" pt_clust_8="13000.00000" pt_clust_9="13000.00000"></scales>
<clustering>
<clus scale="   69.545">  5  6 -1 -1</clus>
<clus scale="   90.881">  7  8 -1 -1</clus>
<clus scale="  101.842">  5  9 -1 -1</clus>
<clus scale="  114.151">  2  7  1 -1</clus>
<clus scale="  333.684">  1  5  2 -1</clus>
</clustering>
</event>
<event>
 9    1  0.2728138E-005  0.4888834E+03  0.7546771E-02  0.1071614E+00
         21   -1    0    0  501  502  0.00000000000E+00  0.00000000000E+00  0.52073379887E+03  0.52073379887E+03  0.00000000000E+00 0.  1.
          1   -1    0    0  502    0 -0.00000000000E+00 -0.00000000000E+00 -0.16740163883E+03  0.16740163883E+03  0.00000000000E+00 0. -1.
         23    2    1    2    0    0  0.19340986984E+02 -0.11535103173E+02  0.78718093414E+02  0.12740386803E+03  0.97611858784E+02 0.  0.
        -24    2    1    2    0    0 -0.14993764709E+03 -0.18331346106E+03  0.17572280680E+03  0.30617129806E+03  0.82323969201E+02 0.  0.
         13    1    4    4    0    0 -0.10420904561E+03 -0.64104083336E+02  0.97403821371E+02  0.15638530335E+03  0.00000000000E+00 0. -1.
        -14    1    4    4    0    0 -0.45728601475E+02 -0.11920937773E+03  0.78318985427E+02  0.14978599470E+03  0.00000000000E+00 0.  1.
        -13    1    3    3    0    0 -0.11274104787E+02 -0.46860438361E+02  0.60216313069E+02  0.77129828741E+02  0.00000000000E+00 0. -1.
         13    1    3    3    0    0  0.30615091771E+02  0.35325335188E+02  0.18501780345E+02  0.50274039287E+02  0.00000000000E+00 0.  1.
          2    1    1    2  501    0  0.13059666010E+03  0.19484856424E+03  0.98891259824E+02  0.25456027162E+03  0.00000000000E+00 0. -1.
<scales pt_clust_5="13000.00000" pt_clust_6="13000.00000" pt_clust_7="13000.00000" pt_clust_8="13000.00000" pt_clust_9="13000.00000"></scales>
<clustering>
<clus scale="   82.324">  5  6 -1 -1</clus>
<clus scale="   97.612">  7  8 -1 -1</clus>
<clus scale="  100.176">  2  7  1 -1</clus>
<clus scale="  235.530">  5  9 -1 -1</clus>
<clus scale="  488.883">  1  5  2 -1</clus>
</clustering>
</event>
<event>
 9    1  0.2728138E-005  0.4365452E+03  0.7546771E-02  0.1086114E+00
          1   -1    0    0  502    0 -0.00000000000E+00  0.00000000000E+00  0.38360160224E+03  0.38360160224E+03  0.00000000000E+00 0. -1.
         21   -1    0    0  501  502  0.00000000000E+00 -0.00000000000E+00 -0.62826784518E+03  0.62826784518E+03  0.00000000000E+00 0. -1.
         23    2    1    2    0    0  0.13171674878E+02 -0.22189609634E+02  0.29949729098E+03  0.31424084600E+03  0.91557687789E+02 0.  0.
        -24    2    1    2    0    0 -0.25004096372E+02 -0.17011527132E+03 -0.43852068486E+03  0.47789789123E+03  0.80756380710E+02 0.  0.
         13    1    4    4    0    0 -0.90582575431E+01 -0.12840927005E+03 -0.39539160373E+03  0.41581908682E+03  0.00000000000E+00 0. -1.
        -14    1    4    4    0    0 -0.15945838829E+02 -0.41706001276E+02 -0.43129081121E+02  0.62078804408E+02  0.00000000000E+00 0.  1.
        -11    1    3    3    0    0  0.32680448932E+02  0.22299609257E+02  0.19541809832E+03  0.19938284145E+03  0.00000000000E+00 0.  1.
         11    1    3    3    0    0 -0.19508774054E+02 -0.44489218891E+02  0.10407919266E+03  0.11485800454E+03  0.00000000000E+00 0. -1.
          2    1    1    2  501    0  0.11832421494E+02  0.19230488096E+03 -0.10564284907E+03  0.21973071019E+03  0.00000000000E+00 0. -1.
<scales pt_clust_5="13000.00000" pt_clust_6="13000.00000" pt_clust_7="13000.00000" pt_clust_8="13000.00000" pt_clust_9="13000.00000"></scales>
<clustering>
<clus scale="   80.756">  5  6 -1 -1</clus>
<clus scale="   91.558">  7  8 -1 -1</clus>
<clus scale="   95.125">  1  7  2 -1</clus>
<clus scale="  177.134">  5  9 -1 -1</clus>
<clus scale="  436.545">  2  5  1 -1</clus>
</clustering>
</event>
<event>
 9    1  0.2728138E-005  0.1285697E+03  0.7546771E-02  0.1248081E+00
         21   -1    0    0  501  502  0.00000000000E+00  0.00000000000E+00  0.43965654301E+03  0.43965654301E+03  0.00000000000E+00 0.  1.
          3   -1    0    0  502    0 -0.00000000000E+00 -0.00000000000E+00 -0.26736900136E+02  0.26736900136E+02  0.00000000000E+00 0. -1.
         23    2    1    2    0    0  0.40440749826E+01 -0.99762515491E+01  0.17076054107E+03  0.19221977608E+03  0.87597944003E+02 0.  0.
        -24    2    1    2    0    0 -0.13585287455E+02 -0.33038536661E+02  0.17783579287E+03  0.19620704079E+03  0.74803266572E+02 0.  0.
         11    1    4    4    0    0  0.39132781675E+01  0.19931134812E+02  0.89154018459E+02  0.91438519718E+02  0.00000000000E+00 0. -1.
        -12    1    4    4    0    0 -0.17498565622E+02 -0.52969671473E+02  0.88681774408E+02  0.10476852107E+03  0.00000000000E+00 0.  1.
        -11    1    3    3    0    0  0.34142526055E+02  0.13682846606E+02  0.13468191453E+03  0.13961429181E+03  0.00000000000E+00 0.  1.
         11    1    3    3    0    0 -0.30098451073E+02 -0.23659098156E+02  0.36078626543E+02  0.52605484274E+02  0.00000000000E+00 0. -1.
          4    1    1    2  501    0  0.95412124720E+01  0.43014788210E+02  0.64323308936E+02  0.77966626275E+02  0.00000000000E+00 0. -1.
<scales pt_clust_5="13000.00000" pt_clust_6="13000.00000" pt_clust_7="13000.00000" pt_clust_8="13000.00000" pt_clust_9="13000.00000"></scales>
<clustering>
<clus scale="   74.803">  5  6 -1 -1</clus>
<clus scale="   44.060">  5  9 -1 -1</clus>
<clus scale="   87.598">  7  8 -1 -1</clus>
<clus scale="   88.257">  2  7  1 -1</clus>
<clus scale="  128.570">  1  5  2 -1</clus>
</clustering>
</event>
<event>
 9    1  0.2728138E-005  0.2403249E+03  0.7546771E-02  0.1152636E+00
         21   -1    0    0  501  502  0.00000000000E+00  0.00000000000E+00  0.36886710572E+02  0.36886710572E+02  0.00000000000E+00 0. -1.
          3   -1    0    0  502    0 -0.00000000000E+00 -0.00000000000E+00 -0.90297433957E+03  0.90297433957E+03  0.00000000000E+00 0. -1.
         23    2    1    2    0    0  0.41908512382E+02 -0.44553709078E+02 -0.41518426442E+03  0.42891106188E+03  0.88574088608E+02 0.  0.
        -24    2    1    2    0    0 -0.12921844154E+02  0.11604314008E+03 -0.17873915900E+03  0.22806428613E+03  0.80203785625E+02 0.  0.
         11    1    4    4    0    0  0.51367670401E+01  0.10688437952E+03 -0.98948506107E+02  0.14574451558E+03  0.00000000000E+00 0. -1.
        -12    1    4    4    0    0 -0.18058611195E+02  0.91587605652E+01 -0.79790652898E+02  0.82319770549E+02  0.00000000000E+00 0.  1.
        -11    1    3    3    0    0  0.65299984588E+02 -0.43351950592E+02 -0.36773891999E+03  0.37599919266E+03  0.00000000000E+00 0. -1.
         11    1    3    3    0    0 -0.23391472205E+02 -0.12017584863E+01 -0.47445344435E+02  0.52911869216E+02  0.00000000000E+00 0.  1.
          4    1    1    2  501    0 -0.28986668228E+02 -0.71489431004E+02 -0.27216420556E+03  0.28288570213E+03  0.00000000000E+00 0. -1.
<scales pt_clust_5="13000.00000" pt_clust_6="13000.00000" pt_clust_7="13000.00000" pt_clust_8="13000.00000" pt_clust_9="13000.00000"></scales>
<clustering>
<clus scale="   80.204">  5  6 -1 -1</clus>
<clus scale="   77.143">  5  9 -1 -1</clus>
<clus scale="   88.574">  7  8 -1 -1</clus>
<clus scale="  107.642">  2  7  1 -1</clus>
<clus scale="  240.325">  1  5  2 -1</clus>
</clustering>
</event>
<event>
 9    1  0.2728138E-005  0.1339657E+03  0.7546771E-02  0.1232940E+00
         21   -1    0    0  501  502  0.00000000000E+00  0.00000000000E+00  0.19768738897E+03  0.19768738897E+03  0.00000000000E+00 0.  1.
          1   -1    0    0  502    0 -0.00000000000E+00 -0.00000000000E+00 -0.73693299776E+02  0.73693299776E+02  0.00000000000E+00 0. -1.
         23    2    1    2    0    0  0.22285383956E+02 -0.49670631036E+02  0.69133493836E+02  0.12661708751E+03  0.91041951622E+02 0.  0.
        -24    2    1    2    0    0  0.57509399026E+01  0.46993429562E+02  0.14006644550E+02  0.95142555697E+02  0.81329355593E+02 0.  0.
         13    1    4    4    0    0  0.42519124217E+02  0.35494864868E+02  0.11261519279E+02  0.56520643774E+02  0.00000000000E+00 0. -1.
        -14    1    4    4    0    0 -0.36768184314E+02  0.11498564693E+02  0.27451252707E+01  0.38621911922E+02  0.00000000000E+00 0.  1.
        -13    1    3    3    0    0  0.53683930405E+02 -0.17824406141E+02  0.56943610072E+02  0.80263619194E+02  0.00000000000E+00 0.  1.
         13    1    3    3    0    0 -0.31398546449E+02 -0.31846224895E+02  0.12189883763E+02  0.46353468321E+02  0.00000000000E+00 0. -1.
          2    1    1    2  501    0 -0.28036323858E+02  0.26772014746E+01  0.40853950805E+02  0.49621045531E+02  0.00000000000E+00 0. -1.
<scales pt_clust_5="13000.00000" pt_clust_6="13000.00000" pt_clust_7="13000.00000" pt_clust_8="13000.00000" pt_clust_9="13000.00000"></scales>
<clustering>
<clus scale="   81.329">  5  6 -1 -1</clus>
<clus scale="   28.164">  5  9 -1 -1</clus>
<clus scale="   91.042">  7  8 -1 -1</clus>
<clus scale="  106.078">  2  7  1 -1</clus>
<clus scale="  133.966">  1  5  2 -1</clus>
</clustering>
</event>
<event>
 9    1  0.2728138E-005  0.3205266E+03  0.7546771E-02  0.1101730E+00
         21   -1    0    0  501  502  0.00000000000E+00  0.00000000000E+00  0.97302610407E+02  0.97302610407E+02  0.00000000000E+00 0. -1.
          1   -1    0    0  502    0 -0.00000000000E+00 -0.00000000000E+00 -0.63170628031E+03  0.63170628031E+03  0.00000000000E+00 0. -1.
         23    2    1    2    0    0  0.97242654392E+02 -0.88508464872E+02 -0.26956003876E+03  0.31322110820E+03  0.90304850032E+02 0.  0.
        -24    2    1    2    0    0 -0.19708918508E+02  0.13592392110E+03 -0.27512184718E+02  0.16165017973E+03  0.80685231008E+02 0.  0.
         13    1    4    4    0    0 -0.27130756937E+02  0.80658977712E+02  0.21097527336E+02  0.87675847970E+02  0.00000000000E+00 0. -1.
        -14    1    4    4    0    0  0.74218384294E+01  0.55264943384E+02 -0.48609712054E+02  0.73974331757E+02  0.00000000000E+00 0.  1.
        -11    1    3    3    0    0 -0.84702087318E+01 -0.21798481480E+02 -0.10613488523E+02  0.25681985309E+02  0.00000000000E+00 0.  1.
         11    1    3    3    0    0  0.10571286312E+03 -0.66709983393E+02 -0.25894655023E+03  0.28753912289E+03  0.00000000000E+00 0. -1.
          2    1    1    2  501    0 -0.77533735884E+02 -0.47415456224E+02 -0.23733144643E+03  0.25413760279E+03  0.00000000000E+00 0. -1.
<scales pt_clust_5="13000.00000" pt_clust_6="13000.00000" pt_clust_7="13000.00000" pt_clust_8="13000.00000" pt_clust_9="13000.00000"></scales>
<clustering>
<clus scale="   80.685">  5  6 -1 -1</clus>
<clus scale="   90.305">  7  8 -1 -1</clus>
<clus scale="   90.883">  5  9 -1 -1</clus>
<clus scale="  159.514">  2  7  1 -1</clus>
<clus scale="  320.527">  1  5  2 -1</clus>
</clustering>
</event>
<event>
 9    1  0.2728138E-005  0.1698788E+03  0.7546771E-02  0.1201885E+00
          1   -1    0    0  502    0 -0.00000000000E+00  0.00000000000E+00  0.38224853173E+03  0.38224853173E+03  0.00000000000E+00 0. -1.
         21   -1    0    0  501  502  0.00000000000E+00 -0.00000000000E+00 -0.60541530058E+02  0.60541530058E+02  0.00000000000E+00 0. -1.
         23    2    1    2    0    0 -0.33373054787E+02  0.72826498071E+01  0.22742791940E+03  0.24850324578E+03  0.94146730521E+02 0.  0.
        -24    2    1    2    0    0  0.10283352757E+02  0.42262805347E+02  0.10435102222E+03  0.13870507044E+03  0.80362109647E+02 0.  0.
         13    1    4    4    0    0 -0.27235485939E+02  0.41527019546E+01  0.83067050541E+01  0.28775301505E+02  0.00000000000E+00 0. -1.
        -14    1    4    4    0    0  0.37518838695E+02  0.38110103393E+02  0.96044317166E+02  0.10992976893E+03  0.00000000000E+00 0.  1.
        -13    1    3    3    0    0 -0.52405406295E+01 -0.41773545350E+02  0.11875719298E+03  0.12599906048E+03  0.00000000000E+00 0.  1.
         13    1    3    3    0    0 -0.28132514158E+02  0.49056195157E+02  0.10867072642E+03  0.12250418530E+03  0.00000000000E+00 0. -1.
          2    1    1    2  501    0  0.23089702030E+02 -0.49545455155E+02 -0.10071939946E+02  0.55581745570E+02  0.00000000000E+00 0. -1.
<scales pt_clust_5="13000.00000" pt_clust_6="13000.00000" pt_clust_7="13000.00000" pt_clust_8="13000.00000" pt_clust_9="13000.00000"></scales>
<clustering>
<clus scale="   80.362">  5  6 -1 -1</clus>
<clus scale="   54.662">  5  9 -1 -1</clus>
<clus scale="   94.147">  7  8 -1 -1</clus>
<clus scale="  100.152">  1  7  2 -1</clus>
<clus scale="  169.879">  2  5  1 -1</clus>
</clustering>
</event>
<event>
 9    1  0.2728138E-005  0.4587256E+03  0.7546771E-02  0.1035896E+00
         21   -1    0    0  501  502  0.00000000000E+00  0.00000000000E+00  0.19297837852E+03  0.19297837852E+03  0.00000000000E+00 0.  1.
          1   -1    0    0  502    0 -0.00000000000E+00 -0.00000000000E+00 -0.81591841057E+03  0.81591841057E+03  0.00000000000E+00 0. -1.
         23    2    1    2    0    0  0.25540432441E+03  0.19465160228E+03 -0.23413631025E+03  0.40756703018E+03  0.90390580907E+02 0.  0.
        -24    2    1    2    0    0  0.42237625404E+01 -0.10789283584E+02 -0.23290337482E+03  0.24704595465E+03  0.81568823056E+02 0.  0.
         11    1    4    4    0    0 -0.24701636833E+02  0.20005563033E+02 -0.49410539273E+02  0.58751977037E+02  0.00000000000E+00 0. -1.
        -12    1    4    4    0    0  0.28925399374E+02 -0.30794846617E+02 -0.18349283555E+03  0.18829397761E+03  0.00000000000E+00 0.  1.
        -13    1    3    3    0    0  0.19811622038E+02  0.55814131003E+02 -0.53678905867E+02  0.79932111961E+02  0.00000000000E+00 0.  1.
         13    1    3    3    0    0  0.23559270237E+03  0.13883747127E+03 -0.18045740439E+03  0.32763491822E+03  0.00000000000E+00 0. -1.
          2    1    1    2  501    0 -0.25962808695E+03 -0.18386231869E+03 -0.15590034697E+03  0.35428380425E+03  0.00000000000E+00 0. -1.
<scales pt_clust_5="13000.00000" pt_clust_6="13000.00000" pt_clust_7="13000.00000" pt_clust_8="13000.00000" pt_clust_9="13000.00000"></scales>
<clustering>
<clus scale="   81.569">  5  6 -1 -1</clus>
<clus scale="   90.391">  7  8 -1 -1</clus>
<clus scale="  318.139">  5  9 -1 -1</clus>
<clus scale="  333.603">  2  7  1 -1</clus>
<clus scale="  458.726">  1  5  2 -1</clus>
</clustering>
</event>
<event>
 9    1  0.2728138E-005  0.2860560E+03  0.7546771E-02  0.1094977E+00
          3   -1    0    0  502    0 -0.00000000000E+00  0.00000000000E+00  0.25431972171E+03  0.25431972171E+03  0.00000000000E+00 0. -1.
         21   -1    0    0  501  502  0.00000000000E+00 -0.00000000000E+00 -0.44833998656E+03  0.44833998656E+03  0.00000000000E+00 0. -1.
         23    2    1    2    0    0  0.13340303032E+03 -0.20202409347E+03 -0.29598633858E+03  0.39897387143E+03  0.11385137074E+03 0.  0.
        -24    2    1    2    0    0 -0.11381234749E+03  0.75229236274E+02  0.46898297022E+02  0.16406781975E+03  0.78141607241E+02 0.  0.
         11    1    4    4    0    0 -0.12535434821E+03  0.68274710446E+02  0.47877574742E+02  0.15055700205E+03  0.00000000000E+00 0. -1.
        -12    1    4    4    0    0  0.11542000722E+02  0.69545258284E+01 -0.97927771929E+00  0.13510817703E+02  0.00000000000E+00 0.  1.
        -11    1    3    3    0    0  0.12692922025E+03 -0.14205883911E+03 -0.27614295206E+03  0.33547976197E+03  0.00000000000E+00 0. -1.
         11    1    3    3    0    0  0.64738100701E+01 -0.59965254361E+02 -0.19843386521E+02  0.63494109459E+02  0.00000000000E+00 0.  1.
          4    1    1    2  501    0 -0.19590682823E+02  0.12679485720E+03  0.55067776703E+02  0.13961801709E+03  0.00000000000E+00 0. -1.
<scales pt_clust_5="13000.00000" pt_clust_6="13000.00000" pt_clust_7="13000.00000" pt_clust_8="13000.00000" pt_clust_9="13000.00000"></scales>
<clustering>
<clus scale="   78.142">  5  6 -1 -1</clus>
<clus scale="  113.851">  7  8 -1 -1</clus>
<clus scale="  128.299">  5  9 -1 -1</clus>
<clus scale="  267.530">  1  7  2 -1</clus>
<clus scale="  286.056">  2  5  1 -1</clus>
</clustering>
</event>
<event>
 9    1  0.2728138E-005  0.2999675E+03  0.7546771E-02  0.1116585E+00
          1   -1    0    0  502    0 -0.00000000000E+00  0.00000000000E+00  0.45625833026E+03  0.45625833026E+03  0.00000000000E+00 0. -1.
         21   -1    0    0  501  502  0.00000000000E+00 -0.00000000000E+00 -0.23998210138E+03  0.23998210138E+03  0.00000000000E+00 0. -1.
         23    2    1    2    0    0 -0.88425695403E+02 -0.44623304644E+02  0.34499309932E+03  0.36982270810E+03  0.89096879419E+02 0.  0.
        -24    2    1    2    0    0  0.42555775819E+02 -0.73630227086E+02  0.28934819363E+02  0.12407642131E+03  0.85588142622E+02 0.  0.
         11    1    4    4    0    0  0.57893485189E+02 -0.35295234579E+02  0.43194632212E+02  0.80393939220E+02  0.00000000000E+00 0. -1.
        -12    1    4    4    0    0 -0.15337709370E+02 -0.38334992506E+02 -0.14259812849E+02  0.43682482091E+02  0.00000000000E+00 0.  1.
        -13    1    3    3    0    0  0.12287296690E+02 -0.23384420553E+02  0.40049404474E+02  0.47976698336E+02  0.00000000000E+00 0.  1.
         13    1    3    3    0    0 -0.10071299209E+03 -0.21238884091E+02  0.30494369484E+03  0.32184600976E+03  0.00000000000E+00 0. -1.
          2    1    1    2  501    0  0.45869919584E+02  0.11825353173E+03 -0.15765168981E+03  0.20234130223E+03  0.00000000000E+00 0. -1.
<scales pt_clust_5="13000.00000" pt_clust_6="13000.00000" pt_clust_7="13000.00000" pt_clust_8="13000.00000" pt_clust_9="13000.00000"></scales>
<clustering>
<clus scale="   85.588">  5  6 -1 -1</clus>
<clus scale="   89.097">  7  8 -1 -1</clus>
<clus scale="  126.838">  5  9 -1 -1</clus>
<clus scale="  133.224">  1  7  2 -1</clus>
<clus scale="  299.967">  2  5  1 -1</clus>
</clustering>
</event>
<event>
 9    1  0.2728138E-005  0.8367561E+03  0.7546771E-02  0.9808642E-01
         21   -1    0    0  501  502  0.00000000000E+00  0.00000000000E+00  0.15995844229E+03  0.15995844229E+03  0.00000000000E+00 0. -1.
          3   -1    0    0  502    0 -0.00000000000E+00 -0.00000000000E+00 -0.20298940339E+04  0.20298940339E+04  0.00000000000E+00 0. -1.
         23    2    1    2    0    0 -0.25794903675E+03 -0.12991565452E+03 -0.48725579324E+03  0.57369525622E+03  0.91061825773E+02 0.  0.
        -24    2    1    2    0    0 -0.20447910757E+03 -0.26614476279E+02 -0.97310286882E+02  0.24119676543E+03  0.78654637126E+02 0.  0.
         13    1    4    4    0    0 -0.14499144583E+03 -0.13913401468E+02 -0.26848971040E+02  0.14811134105E+03  0.00000000000E+00 0. -1.
        -14    1    4    4    0    0 -0.59487661742E+02 -0.12701074811E+02 -0.70461315843E+02  0.93085424375E+02  0.00000000000E+00 0.  1.
        -11    1    3    3    0    0 -0.58471985484E+02 -0.56567578653E+01 -0.49397702064E+02  0.76753533894E+02  0.00000000000E+00 0.  1.
         11    1    3    3    0    0 -0.19947705127E+03 -0.12425889665E+03 -0.43785809118E+03  0.49694172233E+03  0.00000000000E+00 0. -1.
          4    1    1    2  501    0  0.46242814432E+03  0.15653013080E+03 -0.12853695115E+04  0.13749604545E+04  0.00000000000E+00 0. -1.
<scales pt_clust_5="13000.00000" pt_clust_6="13000.00000" pt_clust_7="13000.00000" pt_clust_8="13000.00000" pt_clust_9="13000.00000"></scales>
<clustering>
<clus scale="   78.655">  5  6 -1 -1</clus>
<clus scale="   91.062">  7  8 -1 -1</clus>
<clus scale="  302.834">  2  7  1 -1</clus>
<clus scale="  237.216">  5  9 -1 -1</clus>
<clus scale="  836.756">  1  5  2 -1</clus>
</clustering>
</event>
<event>
 9    1  0.2728138E-005  0.4945790E+03  0.7546771E-02  0.1035735E+00
          1   -1    0    0  502    0 -0.00000000000E+00  0.00000000000E+00  0.58589361132E+03  0.58589361132E+03  0.00000000000E+00 0. -1.
         21   -1    0    0  501  502  0.00000000000E+00 -0.00000000000E+00 -0.34092549242E+03  0.34092549242E+03  0.00000000000E+00 0. -1.
         23    2    1    2    0    0 -0.22700230109E+03 -0.11253059756E+03  0.33023282712E+03  0.42494419406E+03  0.85619319454E+02 0.  0.
        -24    2    1    2    0    0 -0.67466895349E+02  0.13653602558E+03  0.39263681252E+02  0.18125724327E+03  0.90103736461E+02 0.  0.
         13    1    4    4    0    0 -0.84486744554E+02  0.13386445527E+03  0.28216627002E+02  0.16079141902E+03  0.00000000000E+00 0. -1.
        -14    1    4    4    0    0  0.17019849205E+02  0.26715703105E+01  0.11047054250E+02  0.20465824257E+02  0.00000000000E+00 0.  1.
        -13    1    3    3    0    0 -0.15775662226E+03 -0.10304656099E+03  0.28511406051E+03  0.34175396575E+03  0.00000000000E+00 0. -1.
         13    1    3    3    0    0 -0.69245678830E+02 -0.94840365703E+01  0.45118766612E+02  0.83190228314E+02  0.00000000000E+00 0.  1.
          2    1    1    2  501    0  0.29446919644E+03 -0.24005428017E+02 -0.12452838947E+03  0.32061766641E+03  0.00000000000E+00 0. -1.
<scales pt_clust_5="13000.00000" pt_clust_6="13000.00000" pt_clust_7="13000.00000" pt_clust_8="13000.00000" pt_clust_9="13000.00000"></scales>
<clustering>
<clus scale="   85.619">  7  8 -1 -1</clus>
<clus scale="   90.104">  5  6 -1 -1</clus>
<clus scale="  267.439">  1  7  2 -1</clus>
<clus scale="  202.799">  5  9 -1 -1</clus>
<clus scale="  494.579">  2  5  1 -1</clus>
</clustering>
</event>
<event>
 9    1  0.2728138E-005  0.2609297E+03  0.7546771E-02  0.1139050E+00
         21   -1    0    0  501  502  0.00000000000E+00  0.00000000000E+00  0.17199451755E+03  0.17199451755E+03  0.00000000000E+00 0. -1.
          1   -1    0    0  502    0 -0.00000000000E+00 -0.00000000000E+00 -0.23167115433E+03  0.23167115433E+03  0.00000000000E+00 0. -1.
         23    2    1    2    0    0 -0.28530543242E+02  0.65412053472E+02 -0.81187441244E+02  0.14185076666E+03  0.91855923861E+02 0.  0.
        -24    2    1    2    0    0  0.10135702457E+03  0.36146341407E+02  0.26725399967E+02  0.13673494696E+03  0.80014962919E+02 0.  0.
         11    1    4    4    0    0  0.71352765100E+02  0.54622052810E+02  0.40930995957E+02  0.98742757560E+02  0.00000000000E+00 0. -1.
        -12    1    4    4    0    0  0.30004259465E+02 -0.18475711403E+02 -0.14205595990E+02  0.37992189399E+02  0.00000000000E+00 0.  1.
        -11    1    3    3    0    0  0.26017902303E+02 -0.41309872268E+01 -0.29129402362E+02  0.39274907736E+02  0.00000000000E+00 0.  1.
         11    1    3    3    0    0 -0.54548445545E+02  0.69543040699E+02 -0.52058038882E+02  0.10257585892E+03  0.00000000000E+00 0. -1.
          2    1    1    2  501    0 -0.72826481324E+02 -0.10155839488E+03 -0.52145955107E+01  0.12507995826E+03  0.00000000000E+00 0. -1.
<scales pt_clust_5="13000.00000" pt_clust_6="13000.00000" pt_clust_7="13000.00000" pt_clust_8="13000.00000" pt_clust_9="13000.00000"></scales>
<clustering>
<clus scale="   80.015">  5  6 -1 -1</clus>
<clus scale="   91.856">  7  8 -1 -1</clus>
<clus scale="  116.320">  2  7  1 -1</clus>
<clus scale="  110.292">  5  9 -1 -1</clus>
<clus scale="  260.930">  1  5  2 -1</clus>
</clustering>
</event>
<event>
 9    1  0.2728138E-005  0.2477684E+03  0.7546771E-02  0.1138441E+00
          1   -1    0    0  502    0 -0.00000000000E+00  0.00000000000E+00  0.17586389270E+03  0.17586389270E+03  0.00000000000E+00 0. -1.
         21   -1    0    0  501  502  0.00000000000E+00 -0.00000000000E+00 -0.42682601860E+03  0.42682601860E+03  0.00000000000E+00 0. -1.
         23    2    1    2    0    0 -0.64353503552E+02 -0.79727165098E+02  0.10196015299E+03  0.17147843810E+03  0.92256098227E+02 0.  0.
        -24    2    1    2    0    0 -0.34364335117E+02 -0.35689523185E+02 -0.10538732141E+03  0.14079835577E+03  0.79139369970E+02 0.  0.
         13    1    4    4    0    0 -0.14765971810E+02 -0.46558525530E+02 -0.10771041059E+03  0.11826775880E+03  0.00000000000E+00 0. -1.
        -14    1    4    4    0    0 -0.19598363307E+02  0.10869002344E+02  0.23230891767E+01  0.22530596965E+02  0.00000000000E+00 0.  1.
        -11    1    3    3    0    0 -0.60628996494E+02 -0.28757139815E+01  0.40022568841E+02  0.72704545686E+02  0.00000000000E+00 0.  1.
         11    1    3    3    0    0 -0.37245070579E+01 -0.76851451117E+02  0.61937584149E+02  0.98773892410E+02  0.00000000000E+00 0. -1.
          2    1    1    2  501    0  0.98717838669E+02  0.11541668828E+03 -0.24753495748E+03  0.29041311744E+03  0.00000000000E+00 0. -1.
<scales pt_clust_5="13000.00000" pt_clust_6="13000.00000" pt_clust_7="13000.00000" pt_clust_8="13000.00000" pt_clust_9="13000.00000"></scales>
<clustering>
<clus scale="   79.139">  5  6 -1 -1</clus>
<clus scale="   92.256">  7  8 -1 -1</clus>
<clus scale="  137.873">  1  7  2 -1</clus>
<clus scale="   95.796">  5  9 -1 -1</clus>
<clus scale="  247.768">  2  5  1 -1</clus>
</clustering>
</event>
<event>
 9    1  0.2728138E-005  0.1753071E+03  0.7546771E-02  0.1193499E+00
         21   -1    0    0  501  502  0.00000000000E+00  0.00000000000E+00  0.35536294856E+03  0.35536294856E+03  0.00000000000E+00 0.  1.
         -4   -1    0    0    0  501 -0.00000000000E+00 -0.00000000000E+00 -0.12703065925E+03  0.12703065925E+03  0.00000000000E+00 0.  1.
         23    2    1    2    0    0 -0.32517346837E+02 -0.50393511741E+02 -0.74574349221E+02  0.13241500400E+03  0.91517844447E+02 0.  0.
        -24    2    1    2    0    0 -0.85182219964E+01 -0.22909908126E+02  0.19087135211E+03  0.20994569812E+03  0.83951766533E+02 0.  0.
         11    1    4    4    0    0  0.36317823503E+02 -0.39445333855E+01  0.59214260198E+02  0.69576377158E+02  0.00000000000E+00 0. -1.
        -12    1    4    4    0    0 -0.44836045499E+02 -0.18965374741E+02  0.13165709191E+03  0.14036932096E+03  0.00000000000E+00 0.  1.
        -13    1    3    3    0    0 -0.28678955443E+02 -0.71014031087E+02 -0.28368927448E+02  0.81671727918E+02  0.00000000000E+00 0.  1.
         13    1    3    3    0    0 -0.38383913937E+01  0.20620519345E+02 -0.46205421773E+02  0.50743276085E+02  0.00000000000E+00 0. -1.
         -3    1    1    2    0  502  0.41035568833E+02  0.73303419868E+02  0.11203528641E+03  0.14003290569E+03  0.00000000000E+00 0.  1.
<scales pt_clust_5="13000.00000" pt_clust_6="13000.00000" pt_clust_7="13000.00000" pt_clust_8="13000.00000" pt_clust_9="13000.00000"></scales>
<clustering>
<clus scale="   83.952">  5  6 -1 -1</clus>
<clus scale="   84.008">  5  9 -1 -1</clus>
<clus scale="   91.518">  7  8 -1 -1</clus>
<clus scale="  109.418">  2  7  1 -1</clus>
<clus scale="  175.307">  1  5  2 -1</clus>
</clustering>
</event>
<event>
 9    1  0.2728138E-005  0.1780085E+03  0.7546771E-02  0.1199186E+00
          1   -1    0    0  502    0 -0.00000000000E+00  0.00000000000E+00  0.78937875538E+02  0.78937875538E+02  0.00000000000E+00 0. -1.
         21   -1    0    0  501  502  0.00000000000E+00 -0.00000000000E+00 -0.25711192547E+03  0.25711192547E+03  0.00000000000E+00 0. -1.
         23    2    1    2    0    0  0.23816901634E+01  0.13961812739E+02 -0.12988679690E+02  0.93205722172E+02  0.91203049195E+02 0.  0.
        -24    2    1    2    0    0 -0.10767587823E+01  0.53341703194E+02 -0.14083944584E+03  0.17126063007E+03  0.81535005964E+02 0.  0.
         11    1    4    4    0    0 -0.23970885344E+02  0.64771755777E+02 -0.11913479022E+03  0.13770650649E+03  0.00000000000E+00 0. -1.
        -12    1    4    4    0    0  0.22894126562E+02 -0.11430052583E+02 -0.21704655622E+02  0.33554123573E+02  0.00000000000E+00 0.  1.
        -11    1    3    3    0    0  0.37774857323E+02 -0.11099081842E+02  0.14390136394E+02  0.41919034924E+02  0.00000000000E+00 0.  1.
         11    1    3    3    0    0 -0.35393167159E+02  0.25060894581E+02 -0.27378816084E+02  0.51286687249E+02  0.00000000000E+00 0. -1.
          2    1    1    2  501    0 -0.13049313810E+01 -0.67303515933E+02 -0.24345924405E+02  0.71583448771E+02  0.00000000000E+00 0. -1.
<scales pt_clust_5="13000.00000" pt_clust_6="13000.00000" pt_clust_7="13000.00000" pt_clust_8="13000.00000" pt_clust_9="13000.00000"></scales>
<clustering>
<clus scale="   81.535">  5  6 -1 -1</clus>
<clus scale="   67.316">  5  9 -1 -1</clus>
<clus scale="   91.203">  7  8 -1 -1</clus>
<clus scale="   92.296">  1  7  2 -1</clus>
<clus scale="  178.009">  2  5  1 -1</clus>
</clustering>
</event>
<event>
 9    1  0.2728138E-005  0.2853530E+03  0.7546771E-02  0.1119828E+00
         21   -1    0    0  501  502  0.00000000000E+00  0.00000000000E+00  0.73281855214E+02  0.73281855214E+02  0.00000000000E+00 0. -1.
          1   -1    0    0  502    0 -0.00000000000E+00 -0.00000000000E+00 -0.64620769888E+03  0.64620769888E+03  0.00000000000E+00 0. -1.
         23    2    1    2    0    0  0.32442797944E+02 -0.10309860848E+03 -0.13250468931E+03  0.19470662855E+03  0.93119924312E+02 0.  0.
        -24    2    1    2    0    0 -0.96033038145E+02 -0.10052871696E+01 -0.35426866409E+03  0.37543905617E+03  0.78897677581E+02 0.  0.
         13    1    4    4    0    0 -0.51720248147E+02 -0.39885785923E+02 -0.18240789942E+03  0.19374855292E+03  0.00000000000E+00 0. -1.
        -14    1    4    4    0    0 -0.44312789998E+02  0.38880498753E+02 -0.17186076467E+03  0.18169050325E+03  0.00000000000E+00 0.  1.
        -11    1    3    3    0    0  0.38132828098E+01 -0.62173403891E+02 -0.10889319853E+02  0.63234884076E+02  0.00000000000E+00 0. -1.
         11    1    3    3    0    0  0.28629515134E+02 -0.40925204591E+02 -0.12161536946E+03  0.13147174448E+03  0.00000000000E+00 0.  1.
          2    1    1    2  501    0  0.63590240202E+02  0.10410389565E+03 -0.86152490271E+02  0.14934386937E+03  0.00000000000E+00 0. -1.
<scales pt_clust_5="13000.00000" pt_clust_6="13000.00000" pt_clust_7="13000.00000" pt_clust_8="13000.00000" pt_clust_9="13000.00000"></scales>
<clustering>
<clus scale="   78.898">  5  6 -1 -1</clus>
<clus scale="   93.120">  7  8 -1 -1</clus>
<clus scale="  121.989">  5  9 -1 -1</clus>
<clus scale="  142.665">  2  7  1 -1</clus>
<clus scale="  285.353">  1  5  2 -1</clus>
</clustering>
</event>
<event>
 9    1  0.2728138E-005  0.4355037E+03  0.7546771E-02  0.1072505E+00
          1   -1    0    0  502    0 -0.00000000000E+00  0.00000000000E+00  0.33826211061E+03  0.33826211061E+03  0.00000000000E+00 0. -1.
         21   -1    0    0  501  502  0.00000000000E+00 -0.00000000000E+00 -0.25270201530E+03  0.25270201530E+03  0.00000000000E+00 0. -1.
         23    2    1    2    0    0  0.99701412807E+02  0.33703285740E+02  0.70424059817E+02  0.15519748159E+03  0.89724171243E+02 0.  0.
        -24    2    1    2    0    0  0.11525143719E+03  0.56520828876E+02  0.10660526586E+03  0.18534352502E+03  0.80684829347E+02 0.  0.
         11    1    4    4    0    0  0.60471740989E+02  0.51612238001E+02  0.10315430316E+03  0.13023618863E+03  0.00000000000E+00 0. -1.
        -12    1    4    4    0    0  0.54779696197E+02  0.49085908754E+01  0.34509627004E+01  0.55107336384E+02  0.00000000000E+00 0.  1.
        -11    1    3    3    0    0  0.88891364137E+01  0.40639628007E+02  0.26761609483E+01  0.41686424027E+02  0.00000000000E+00 0.  1.
         11    1    3    3    0    0  0.90812276394E+02 -0.69363422674E+01  0.67747898869E+02  0.11351105756E+03  0.00000000000E+00 0. -1.
          2    1    1    2  501    0 -0.21495284999E+03 -0.90224114616E+02 -0.91469230368E+02  0.25042311931E+03  0.00000000000E+00 0. -1.
<scales pt_clust_5="13000.00000" pt_clust_6="13000.00000" pt_clust_7="13000.00000" pt_clust_8="13000.00000" pt_clust_9="13000.00000"></scales>
<clustering>
<clus scale="   80.685">  5  6 -1 -1</clus>
<clus scale="   89.724">  7  8 -1 -1</clus>
<clus scale="  138.299">  1  7  2 -1</clus>
<clus scale="  196.132">  5  9 -1 -1</clus>
<clus scale="  435.504">  2  5  1 -1</clus>
</clustering>
</event>
<event>
 9    1  0.2728138E-005  0.1237606E+03  0.7546771E-02  0.1238008E+00
         21   -1    0    0  501  502  0.00000000000E+00  0.00000000000E+00  0.78928427105E+03  0.78928427105E+03  0.00000000000E+00 0.  1.
          1   -1    0    0  502    0 -0.00000000000E+00 -0.00000000000E+00 -0.20389156468E+02  0.20389156468E+02  0.00000000000E+00 0. -1.
         23    2    1    2    0    0  0.32546693950E+00  0.70870143662E+02  0.27594064197E+03  0.30142073338E+03  0.98430368439E+02 0.  0.
        -24    2    1    2    0    0  0.57410799521E+01 -0.47737132301E+02  0.44722424137E+03  0.45664655831E+03  0.78770320184E+02 0.  0.
         13    1    4    4    0    0 -0.36374448367E+02 -0.27154276014E+02  0.21565795794E+03  0.22038332520E+03  0.00000000000E+00 0. -1.
        -14    1    4    4    0    0  0.42115528319E+02 -0.20582856287E+02  0.23156628343E+03  0.23626323311E+03  0.00000000000E+00 0.  1.
        -11    1    3    3    0    0 -0.46877824095E+02  0.24142521227E+02  0.15067962526E+03  0.15963940989E+03  0.00000000000E+00 0. -1.
         11    1    3    3    0    0  0.47203291035E+02  0.46727622435E+02  0.12526101671E+03  0.14178132349E+03  0.00000000000E+00 0.  1.
          2    1    1    2  501    0 -0.60665468916E+01 -0.23133011362E+02  0.45730231239E+02  0.51606135827E+02  0.00000000000E+00 0. -1.
<scales pt_clust_5="13000.00000" pt_clust_6="13000.00000" pt_clust_7="13000.00000" pt_clust_8="13000.00000" pt_clust_9="13000.00000"></scales>
<clustering>
<clus scale="   78.770">  5  6 -1 -1</clus>
<clus scale="   23.915">  5  9 -1 -1</clus>
<clus scale="   98.430">  7  8 -1 -1</clus>
<clus scale="  121.290">  2  7  1 -1</clus>
<clus scale="  123.761">  1  5  2 -1</clus>
</clustering>
</event>
<event>
 9    1  0.2728138E-005  0.2812932E+03  0.7546771E-02  0.1128200E+00
         21   -1    0    0  501  502  0.00000000000E+00  0.00000000000E+00  0.55008773158E+03  0.55008773158E+03  0.00000000000E+00 0.  1.
         -2   -1    0    0    0  501 -0.00000000000E+00 -0.00000000000E+00 -0.97579125093E+02  0.97579125093E+02  0.00000000000E+00 0.  1.
         23    2    1    2    0    0  0.19604399782E+01 -0.77550481427E+02  0.30908806060E+03  0.33192118380E+03  0.92834921008E+02 0.  0.
        -24    2    1    2    0    0  0.24207186844E+02 -0.31706239368E+01 -0.58658942152E+02  0.96572770731E+02  0.72728177492E+02 0.  0.
         11    1    4    4    0    0 -0.62958964890E+01  0.21927031111E+02  0.33433457356E+01  0.23056690279E+02  0.00000000000E+00 0. -1.
        -12    1    4    4    0    0  0.30503083333E+02 -0.25097655047E+02 -0.62002287888E+02  0.73516080452E+02  0.00000000000E+00 0.  1.
        -11    1    3    3    0    0 -0.15584921152E+02 -0.89046068290E+02  0.28926070984E+03  0.30305750329E+03  0.00000000000E+00 0.  1.
         11    1    3    3    0    0  0.17545361130E+02  0.11495586863E+02  0.19827350759E+02  0.28863680511E+02  0.00000000000E+00 0. -1.
         -1    1    1    2    0  502 -0.26167626822E+02  0.80721105363E+02  0.20207948804E+03  0.21917290214E+03  0.00000000000E+00 0.  1.
<scales pt_clust_5="13000.00000" pt_clust_6="13000.00000" pt_clust_7="13000.00000" pt_clust_8="13000.00000" pt_clust_9="13000.00000"></scales>
<clustering>
<clus scale="   72.728">  5  6 -1 -1</clus>
<clus scale="   84.857">  5  9 -1 -1</clus>
<clus scale="   92.835">  7  8 -1 -1</clus>
<clus scale="  120.980">  2  7  1 -1</clus>
<clus scale="  281.293">  1  5  2 -1</clus>
</clustering>
</event>
<event>
 9    1  0.2728138E-005  0.4678073E+03  0.7546771E-02  0.1076605E+00
          3   -1    0    0  502    0 -0.00000000000E+00  0.00000000000E+00  0.46610572327E+03  0.46610572327E+03  0.00000000000E+00 0. -1.
         21   -1    0    0  501  502  0.00000000000E+00 -0.00000000000E+00 -0.25029765149E+03  0.25029765149E+03  0.00000000000E+00 0. -1.
         23    2    1    2    0    0  0.29140600919E+02  0.29533577817E+02 -0.10831432800E+03  0.14728210316E+03  0.90766829963E+02 0.  0.
        -24    2    1    2    0    0  0.45540076748E+02 -0.44825676257E+02  0.42799721270E+03  0.44027629246E+03  0.81107088368E+02 0.  0.
         13    1    4    4    0    0 -0.19217602310E+02 -0.29468689115E+02  0.18579081282E+03  0.18909242715E+03  0.00000000000E+00 0. -1.
        -14    1    4    4    0    0  0.64757679058E+02 -0.15356987141E+02  0.24220639988E+03  0.25118386531E+03  0.00000000000E+00 0.  1.
        -11    1    3    3    0    0 -0.22341251552E+02 -0.13499372841E+02 -0.57389598692E+02  0.63047050891E+02  0.00000000000E+00 0.  1.
         11    1    3    3    0    0  0.51481852471E+02  0.43032950658E+02 -0.50924729307E+02  0.84235052271E+02  0.00000000000E+00 0. -1.
          4    1    1    2  501    0 -0.74680677667E+02  0.15292098439E+02 -0.10387481292E+03  0.12884497914E+03  0.00000000000E+00 0. -1.
<scales pt_clust_5="13000.00000" pt_clust_6="13000.00000" pt_clust_7="13000.00000" pt_clust_8="13000.00000" pt_clust_9="13000.00000"></scales>
<clustering>
<clus scale="   81.107">  5  6 -1 -1</clus>
<clus scale="   76.230">  5  9 -1 -1</clus>
<clus scale="   90.767">  7  8 -1 -1</clus>
<clus scale="   99.800">  1  7  2 -1</clus>
<clus scale="  467.807">  2  5  1 -1</clus>
</clustering>
</event>
<event>
 9    1  0.2728138E-005  0.9688434E+03  0.7546771E-02  0.9842040E-01
          1   -1    0    0  502    0 -0.00000000000E+00  0.00000000000E+00  0.79198777857E+03  0.79198777857E+03  0.00000000000E+00 0. -1.
         21   -1    0    0  501  502  0.00000000000E+00 -0.00000000000E+00 -0.43017267637E+03  0.43017267637E+03  0.00000000000E+00 0. -1.
         23    2    1    2    0    0 -0.12718864664E+03  0.72931990256E+02  0.15000110425E+03  0.23043329660E+03  0.95410407547E+02 0.  0.
        -24    2    1    2    0    0  0.29371372871E+02  0.14652118461E+03  0.55072753207E+03  0.57628727266E+03  0.80467825709E+02 0.  0.
         11    1    4    4    0    0  0.10214293241E+02  0.12876801591E+03  0.33595329161E+03  0.35993075425E+03  0.00000000000E+00 0. -1.
        -12    1    4    4    0    0  0.19157079630E+02  0.17753168699E+02  0.21477424045E+03  0.21635651842E+03  0.00000000000E+00 0.  1.
        -13    1    3    3    0    0 -0.11395700168E+03  0.14470322625E+02  0.10248280692E+03  0.15394256780E+03  0.00000000000E+00 0. -1.
         13    1    3    3    0    0 -0.13231644968E+02  0.58461667631E+02  0.47518297333E+02  0.76490728799E+02  0.00000000000E+00 0.  1.
          2    1    1    2  501    0  0.97817273773E+02 -0.21945317486E+03 -0.33891353412E+03  0.41543988568E+03  0.00000000000E+00 0. -1.
<scales pt_clust_5="13000.00000" pt_clust_6="13000.00000" pt_clust_7="13000.00000" pt_clust_8="13000.00000" pt_clust_9="13000.00000"></scales>
<clustering>
<clus scale="   80.468">  5  6 -1 -1</clus>
<clus scale="   95.410">  7  8 -1 -1</clus>
<clus scale="  174.926">  1  7  2 -1</clus>
<clus scale="  232.803">  5  9 -1 -1</clus>
<clus scale="  968.843">  2  5  1 -1</clus>
</clustering>
</event>
<event>
 9    1  0.2728138E-005  0.2290648E+03  0.7546771E-02  0.1140961E+00
          1   -1    0    0  502    0 -0.00000000000E+00  0.00000000000E+00  0.71740141329E+02  0.71740141329E+02  0.00000000000E+00 0. -1.
         21   -1    0    0  501  502  0.00000000000E+00 -0.00000000000E+00 -0.54698995829E+03  0.54698995829E+03  0.00000000000E+00 0. -1.
         23    2    1    2    0    0  0.61700880045E+01  0.13787493855E+03 -0.23610544189E+03  0.28757949678E+03  0.88930414405E+02 0.  0.
        -24    2    1    2    0    0  0.51564605514E+02 -0.46699397468E+02 -0.17788177475E+03  0.20705636315E+03  0.79941662896E+02 0.  0.
         11    1    4    4    0    0  0.35440778083E+01 -0.33127635227E+02 -0.14132011455E+03  0.14519426807E+03  0.00000000000E+00 0. -1.
        -12    1    4    4    0    0  0.48020527705E+02 -0.13571762241E+02 -0.36561660204E+02  0.61862095085E+02  0.00000000000E+00 0.  1.
        -11    1    3    3    0    0 -0.40996162481E+02  0.53063745349E+02 -0.91991113633E+02  0.11383677524E+03  0.00000000000E+00 0.  1.
         11    1    3    3    0    0  0.47166250486E+02  0.84811193205E+02 -0.14411432826E+03  0.17374272154E+03  0.00000000000E+00 0. -1.
          2    1    1    2  501    0 -0.57734693518E+02 -0.91175541086E+02 -0.61262600314E+02  0.12409423969E+03  0.00000000000E+00 0. -1.
<scales pt_clust_5="13000.00000" pt_clust_6="13000.00000" pt_clust_7="13000.00000" pt_clust_8="13000.00000" pt_clust_9="13000.00000"></scales>
<clustering>
<clus scale="   79.942">  5  6 -1 -1</clus>
<clus scale="   88.930">  7  8 -1 -1</clus>
<clus scale="  107.918">  5  9 -1 -1</clus>
<clus scale="  164.183">  1  7  2 -1</clus>
<clus scale="  229.065">  2  5  1 -1</clus>
</clustering>
</event>
<event>
 9    1  0.2728138E-005  0.1221203E+03  0.7546771E-02  0.1251139E+00
         -4   -1    0    0    0  501 -0.00000000000E+00  0.00000000000E+00  0.14558554214E+03  0.14558554214E+03  0.00000000000E+00 0.  1.
         21   -1    0    0  501  502  0.00000000000E+00 -0.00000000000E+00 -0.12235300537E+03  0.12235300537E+03  0.00000000000E+00 0.  1.
         23    2    1    2    0    0 -0.40856237751E+01 -0.10918959125E+02 -0.65532411286E+02  0.11696643381E+03  0.96180734663E+02 0.  0.
        -24    2    1    2    0    0  0.14380417947E+02  0.37802907935E+02  0.70823881144E+02  0.11705145079E+03  0.83959298009E+02 0.  0.
         13    1    4    4    0    0  0.27056508871E+02 -0.93684797162E+01  0.60777240074E+02  0.67184045692E+02  0.00000000000E+00 0. -1.
        -14    1    4    4    0    0 -0.12676090924E+02  0.47171387652E+02  0.10046641070E+02  0.49867405095E+02  0.00000000000E+00 0.  1.
        -13    1    3    3    0    0  0.43012998182E+02 -0.21644116304E+02 -0.27219296221E+02  0.55312529050E+02  0.00000000000E+00 0.  1.
         13    1    3    3    0    0 -0.47098621957E+02  0.10725157180E+02 -0.38313115065E+02  0.61653904764E+02  0.00000000000E+00 0. -1.
         -3    1    1    2    0  502 -0.10294794172E+02 -0.26883948811E+02  0.17941066905E+02  0.33920662912E+02  0.00000000000E+00 0.  1.
<scales pt_clust_5="13000.00000" pt_clust_6="13000.00000" pt_clust_7="13000.00000" pt_clust_8="13000.00000" pt_clust_9="13000.00000"></scales>
<clustering>
<clus scale="   83.959">  5  6 -1 -1</clus>
<clus scale="   28.788">  5  9 -1 -1</clus>
<clus scale="   96.181">  7  8 -1 -1</clus>
<clus scale="   96.885">  1  7  2 -1</clus>
<clus scale="  122.120">  2  5  1 -1</clus>
</clustering>
</event>
<event>
 9    1  0.2728138E-005  0.3817793E+03  0.7546771E-02  0.1057297E+00
         21   -1    0    0  501  502  0.00000000000E+00  0.00000000000E+00  0.10278141530E+03  0.10278141530E+03  0.00000000000E+00 0. -1.
          1   -1    0    0  502    0 -0.00000000000E+00 -0.00000000000E+00 -0.11768446582E+04  0.11768446582E+04  0.00000000000E+00 0. -1.
         23    2    1    2    0    0 -0.21125683881E+03  0.20779283330E+03 -0.45242439566E+03  0.55011231704E+03  0.10064002211E+03 0.  0.
        -24    2    1    2    0    0 -0.13421007322E+02 -0.10880698756E+03 -0.19010724905E+03  0.23302825574E+03  0.78372940810E+02 0.  0.
         13    1    4    4    0    0  0.14065074769E+02 -0.10482460212E+03 -0.13676831413E+03  0.17289186010E+03  0.00000000000E+00 0. -1.
        -14    1    4    4    0    0 -0.27486082091E+02 -0.39823854438E+01 -0.53338934919E+02  0.60136395642E+02  0.00000000000E+00 0.  1.
        -11    1    3    3    0    0 -0.20291808658E+03  0.17653616050E+03 -0.34225847032E+03  0.43529487285E+03  0.00000000000E+00 0. -1.
         11    1    3    3    0    0 -0.83387522333E+01  0.31256672806E+02 -0.11016592534E+03  0.11481744419E+03  0.00000000000E+00 0.  1.
          2    1    1    2  501    0  0.22467784613E+03 -0.98985845745E+02 -0.43153159823E+03  0.49648550077E+03  0.00000000000E+00 0. -1.
<scales pt_clust_5="13000.00000" pt_clust_6="13000.00000" pt_clust_7="13000.00000" pt_clust_8="13000.00000" pt_clust_9="13000.00000"></scales>
<clustering>
<clus scale="   78.373">  5  6 -1 -1</clus>
<clus scale="  100.640">  7  8 -1 -1</clus>
<clus scale="  245.517">  5  9 -1 -1</clus>
<clus scale="  312.947">  2  7  1 -1</clus>
<clus scale="  381.779">  1  5  2 -1</clus>
</clustering>
</event>
<event>
 9    1  0.2728138E-005  0.1790964E+03  0.7546771E-02  0.1197729E+00
          3   -1    0    0  502    0 -0.00000000000E+00  0.00000000000E+00  0.10838589340E+03  0.10838589340E+03  0.00000000000E+00 0. -1.
         21   -1    0    0  501  502  0.00000000000E+00 -0.00000000000E+00 -0.17167181900E+03  0.17167181900E+03  0.00000000000E+00 0. -1.
         23    2    1    2    0    0 -0.19733989068E+02 -0.64313348600E+00 -0.17037433268E+02  0.95086279178E+02  0.91440048175E+02 0.  0.
        -24    2    1    2    0    0 -0.55674076237E+02 -0.19320922128E+02 -0.34088944638E+02  0.10602338429E+03  0.81277309709E+02 0.  0.
         13    1    4    4    0    0 -0.37549182111E+02 -0.40877946221E+02 -0.49102011133E+02  0.74107726060E+02  0.00000000000E+00 0. -1.
        -14    1    4    4    0    0 -0.18124894126E+02  0.21557024093E+02  0.15013066495E+02  0.31915658232E+02  0.00000000000E+00 0.  1.
        -11    1    3    3    0    0  0.22653505463E+02 -0.24507191230E+02 -0.29859315396E+02  0.44781273404E+02  0.00000000000E+00 0.  1.
         11    1    3    3    0    0 -0.42387494531E+02  0.23864057744E+02  0.12821882128E+02  0.50305005774E+02  0.00000000000E+00 0. -1.
          4    1    1    2  501    0  0.75408065305E+02  0.19964055614E+02 -0.12159547700E+02  0.78948048930E+02  0.00000000000E+00 0. -1.
<scales pt_clust_5="13000.00000" pt_clust_6="13000.00000" pt_clust_7="13000.00000" pt_clust_8="13000.00000" pt_clust_9="13000.00000"></scales>
<clustering>
<clus scale="   81.277">  5  6 -1 -1</clus>
<clus scale="   78.006">  5  9 -1 -1</clus>
<clus scale="   91.440">  7  8 -1 -1</clus>
<clus scale="   93.547">  1  7  2 -1</clus>
<clus scale="  179.096">  2  5  1 -1</clus>
</clustering>
</event>
<event>
 9    1  0.2728138E-005  0.1809468E+03  0.7546771E-02  0.1189873E+00
          1   -1    0    0  502    0 -0.00000000000E+00  0.00000000000E+00  0.13414216816E+03  0.13414216816E+03  0.00000000000E+00 0. -1.
         21   -1    0    0  501  502  0.00000000000E+00 -0.00000000000E+00 -0.17779036689E+03  0.17779036689E+03  0.00000000000E+00 0. -1.
         23    2    1    2    0    0 -0.22576228272E+01 -0.59396089798E+02 -0.70811142974E+02  0.12895831052E+03  0.89905703591E+02 0.  0.
        -24    2    1    2    0    0 -0.15922932004E+02 -0.16352512653E+00  0.69795933201E+02  0.10750600572E+03  0.80202883175E+02 0.  0.
         11    1    4    4    0    0 -0.79652379722E+01  0.38240417843E+02  0.50364180510E+02  0.63736373063E+02  0.00000000000E+00 0. -1.
        -12    1    4    4    0    0 -0.79576940314E+01 -0.38403942970E+02  0.19431752690E+02  0.43769632653E+02  0.00000000000E+00 0.  1.
        -13    1    3    3    0    0  0.18677750924E+02  0.13454632966E+02 -0.41949570454E+02  0.47850308140E+02  0.00000000000E+00 0.  1.
         13    1    3    3    0    0 -0.20935373751E+02 -0.72850722764E+02 -0.28861572520E+02  0.81108002378E+02  0.00000000000E+00 0. -1.
          2    1    1    2  501    0  0.18180554831E+02  0.59559614924E+02 -0.42632988962E+02  0.75468218819E+02  0.00000000000E+00 0. -1.
<scales pt_clust_5="13000.00000" pt_clust_6="13000.00000" pt_clust_7="13000.00000" pt_clust_8="13000.00000" pt_clust_9="13000.00000"></scales>
<clustering>
<clus scale="   80.203">  5  6 -1 -1</clus>
<clus scale="   62.273">  5  9 -1 -1</clus>
<clus scale="   89.906">  7  8 -1 -1</clus>
<clus scale="  107.778">  1  7  2 -1</clus>
<clus scale="  180.947">  2  5  1 -1</clus>
</clustering>
</event>
<event>
 9    1  0.2728138E-005  0.1769875E+03  0.7546771E-02  0.1194572E+00
          1   -1    0    0  502    0 -0.00000000000E+00  0.00000000000E+00  0.55687625641E+03  0.55687625641E+03  0.00000000000E+00 0. -1.
         21   -1    0    0  501  502  0.00000000000E+00 -0.00000000000E+00 -0.39600400780E+02  0.39600400780E+02  0.00000000000E+00 0.  1.
         23    2    1    2    0    0  0.40457088750E+02 -0.28047356820E+02  0.10437871652E+03  0.14724551555E+03  0.91448866221E+02 0.  0.
        -24    2    1    2    0    0  0.13060944234E+02  0.96493949506E+01  0.89206012309E+02  0.12063015195E+03  0.79562691255E+02 0.  0.
         13    1    4    4    0    0  0.28710732960E+02 -0.20231395285E+02  0.77220818651E+02  0.84833191472E+02  0.00000000000E+00 0. -1.
        -14    1    4    4    0    0 -0.15649788726E+02  0.29880790236E+02  0.11985193658E+02  0.35796960476E+02  0.00000000000E+00 0.  1.
        -11    1    3    3    0    0 -0.11852008865E+02  0.20335962296E+02  0.35850866484E+01  0.23809122682E+02  0.00000000000E+00 0. -1.
         11    1    3    3    0    0  0.52309097615E+02 -0.48383319116E+02  0.10079362987E+03  0.12343639287E+03  0.00000000000E+00 0.  1.
          2    1    1    2  501    0 -0.53518032984E+02  0.18397961870E+02  0.32369112680E+03  0.32860098969E+03  0.00000000000E+00 0. -1.
<scales pt_clust_5="13000.00000" pt_clust_6="13000.00000" pt_clust_7="13000.00000" pt_clust_8="13000.00000" pt_clust_9="13000.00000"></scales>
<clustering>
<clus scale="   79.563">  5  6 -1 -1</clus>
<clus scale="   56.592">  5  9 -1 -1</clus>
<clus scale="   91.449">  7  8 -1 -1</clus>
<clus scale="  103.857">  1  7  2 -1</clus>
<clus scale="  176.987">  2  5  1 -1</clus>
</clustering>
</event>
<event>
 9    1  0.2728138E-005  0.5893499E+03  0.7546771E-02  0.1039686E+00
         21   -1    0    0  501  502  0.00000000000E+00  0.00000000000E+00  0.15713057299E+03  0.15713057299E+03  0.00000000000E+00 0. -1.
          1   -1    0    0  502    0 -0.00000000000E+00 -0.00000000000E+00 -0.88074940674E+03  0.88074940674E+03  0.00000000000E+00 0. -1.
         23    2    1    2    0    0 -0.90911541711E+02 -0.54892228618E+02 -0.22727219405E+03  0.26736500217E+03  0.92484209539E+02 0.  0.
        -24    2    1    2    0    0  0.31013754718E+03  0.12467306981E+03 -0.20873045319E+03  0.40220467631E+03  0.80445801984E+02 0.  0.
         11    1    4    4    0    0  0.25094239660E+03  0.12717860391E+03 -0.15017207387E+03  0.31890145104E+03  0.00000000000E+00 0. -1.
        -12    1    4    4    0    0  0.59195150576E+02 -0.25055341006E+01 -0.58558379322E+02  0.83303225277E+02  0.00000000000E+00 0.  1.
        -13    1    3    3    0    0 -0.39044364503E+02  0.60710260837E+01 -0.15352563958E+03  0.15852899346E+03  0.00000000000E+00 0.  1.
         13    1    3    3    0    0 -0.51867177208E+02 -0.60963254701E+02 -0.73746554471E+02  0.10883600871E+03  0.00000000000E+00 0. -1.
          2    1    1    2  501    0 -0.21922600547E+03 -0.69780841194E+02 -0.28761618651E+03  0.36831030126E+03  0.00000000000E+00 0. -1.
<scales pt_clust_5="13000.00000" pt_clust_6="13000.00000" pt_clust_7="13000.00000" pt_clust_8="13000.00000" pt_clust_9="13000.00000"></scales>
<clustering>
<clus scale="   80.446">  5  6 -1 -1</clus>
<clus scale="   92.484">  7  8 -1 -1</clus>
<clus scale="  140.824">  2  7  1 -1</clus>
<clus scale="  283.826">  5  9 -1 -1</clus>
<clus scale="  589.350">  1  5  2 -1</clus>
</clustering>
</event>
<event>
 9    1  0.2728138E-005  0.2575593E+03  0.7546771E-02  0.1111856E+00
         21   -1    0    0  501  502  0.00000000000E+00  0.00000000000E+00  0.51713420059E+02  0.51713420059E+02  0.00000000000E+00 0.  1.
          1   -1    0    0  502    0 -0.00000000000E+00 -0.00000000000E+00 -0.14699922327E+04  0.14699922327E+04  0.00000000000E+00 0. -1.
         23    2    1    2    0    0 -0.18774276521E+03 -0.11304363781E+03 -0.34984396047E+03  0.42266523741E+03  0.90713264184E+02 0.  0.
        -24    2    1    2    0    0  0.53931506399E+02  0.56420065032E+02 -0.42942488930E+03  0.44371956673E+03  0.79934268221E+02 0.  0.
         11    1    4    4    0    0  0.25988102603E+02  0.70243842993E+02 -0.23040444564E+03  0.24227213527E+03  0.00000000000E+00 0. -1.
        -12    1    4    4    0    0  0.27943403796E+02 -0.13823777961E+02 -0.19902044365E+03  0.20144743147E+03  0.00000000000E+00 0.  1.
        -13    1    3    3    0    0 -0.50289528990E+02  0.10130578665E+02 -0.95557273334E+02  0.10845670951E+03  0.00000000000E+00 0. -1.
         13    1    3    3    0    0 -0.13745323622E+03 -0.12317421648E+03 -0.25428668714E+03  0.31420852790E+03  0.00000000000E+00 0.  1.
          2    1    1    2  501    0  0.13381125881E+03  0.56623572778E+02 -0.63900996290E+03  0.65532084864E+03  0.00000000000E+00 0. -1.
<scales pt_clust_5="13000.00000" pt_clust_6="13000.00000" pt_clust_7="13000.00000" pt_clust_8="13000.00000" pt_clust_9="13000.00000"></scales>
<clustering>
<clus scale="   79.934">  5  6 -1 -1</clus>
<clus scale="   90.713">  7  8 -1 -1</clus>
<clus scale="  145.299">  5  9 -1 -1</clus>
<clus scale="  237.182">  2  7  1 -1</clus>
<clus scale="  257.559">  1  5  2 -1</clus>
</clustering>
</event>
<event>
 9    1  0.2728138E-005  0.5085799E+03  0.7546771E-02  0.1018620E+00
          1   -1    0    0  502    0 -0.00000000000E+00  0.00000000000E+00  0.15399935562E+04  0.15399935562E+04  0.00000000000E+00 0. -1.
         21   -1    0    0  501  502  0.00000000000E+00 -0.00000000000E+00 -0.23941883383E+03  0.23941883383E+03  0.00000000000E+00 0. -1.
         23    2    1    2    0    0 -0.36044861129E+03  0.17237166703E+03  0.11904534591E+04  0.12590469112E+04  0.91566879141E+02 0.  0.
        -24    2    1    2    0    0  0.13720579988E+03  0.66820884749E+02  0.82134205239E+02  0.19198505138E+03  0.82594007802E+02 0.  0.
         13    1    4    4    0    0  0.40591886650E+02  0.27163765456E+01 -0.12241498126E+02  0.42484517647E+02  0.00000000000E+00 0. -1.
        -14    1    4    4    0    0  0.96613913230E+02  0.64104508204E+02  0.94375703365E+02  0.14950053374E+03  0.00000000000E+00 0.  1.
        -11    1    3    3    0    0 -0.21405088135E+03  0.15043033427E+03  0.78099943218E+03  0.82365476890E+03  0.00000000000E+00 0. -1.
         11    1    3    3    0    0 -0.14639772994E+03  0.21941332759E+02  0.40945402697E+03  0.43539214234E+03  0.00000000000E+00 0.  1.
          2    1    1    2  501    0  0.22324281141E+03 -0.23919255178E+03  0.27987057968E+02  0.32838042738E+03  0.00000000000E+00 0. -1.
<scales pt_clust_5="13000.00000" pt_clust_6="13000.00000" pt_clust_7="13000.00000" pt_clust_8="13000.00000" pt_clust_9="13000.00000"></scales>
<clustering>
<clus scale="   82.594">  5  6 -1 -1</clus>
<clus scale="   91.567">  7  8 -1 -1</clus>
<clus scale="  327.186">  5  9 -1 -1</clus>
<clus scale="  409.902">  1  7  2 -1</clus>
<clus scale="  508.580">  2  5  1 -1</clus>
</clustering>
</event>
<event>
 9    1  0.2728138E-005  0.2868980E+03  0.7546771E-02  0.1111866E+00
         21   -1    0    0  501  502  0.00000000000E+00  0.00000000000E+00  0.28750784138E+03  0.28750784138E+03  0.00000000000E+00 0. -1.
          3   -1    0    0  502    0 -0.00000000000E+00 -0.00000000000E+00 -0.20760703914E+03  0.20760703914E+03  0.00000000000E+00 0. -1.
         23    2    1    2    0    0  0.13361820897E+03 -0.56784909047E+02 -0.52112362964E+02  0.17930170951E+03  0.91405979002E+02 0.  0.
        -24    2    1    2    0    0 -0.41157353670E+01  0.11572654357E+03  0.67980850416E+02  0.15978386516E+03  0.86602051806E+02 0.  0.
         11    1    4    4    0    0  0.16117128206E+02  0.36187293868E+02  0.66847517244E+02  0.77703749078E+02  0.00000000000E+00 0. -1.
        -12    1    4    4    0    0 -0.20232863573E+02  0.79539249700E+02  0.11333331719E+01  0.82080116078E+02  0.00000000000E+00 0.  1.
        -11    1    3    3    0    0  0.45489312671E+02 -0.11566148876E+02 -0.64185184006E+02  0.79515980865E+02  0.00000000000E+00 0.  1.
         11    1    3    3    0    0  0.88128896297E+02 -0.45218760170E+02  0.12072821041E+02  0.99785728648E+02  0.00000000000E+00 0. -1.
          4    1    1    2  501    0 -0.12950247360E+03 -0.58941634522E+02  0.64032314782E+02  0.15602930585E+03  0.00000000000E+00 0. -1.
<scales pt_clust_5="13000.00000" pt_clust_6="13000.00000" pt_clust_7="13000.00000" pt_clust_8="13000.00000" pt_clust_9="13000.00000"></scales>
<clustering>
<clus scale="   86.602">  5  6 -1 -1</clus>
<clus scale="   91.406">  7  8 -1 -1</clus>
<clus scale="  142.285">  5  9 -1 -1</clus>
<clus scale="  171.562">  2  7  1 -1</clus>
<clus scale="  286.898">  1  5  2 -1</clus>
</clustering>
</event>
<event>
 9    1  0.2728138E-005  0.2134414E+03  0.7546771E-02  0.1158599E+00
         21   -1    0    0  501  502  0.00000000000E+00  0.00000000000E+00  0.81462113900E+03  0.81462113900E+03  0.00000000000E+00 0.  1.
         -2   -1    0    0    0  501 -0.00000000000E+00 -0.00000000000E+00 -0.95475487790E+02  0.95475487790E+02  0.00000000000E+00 0.  1.
         23    2    1    2    0    0  0.73791498122E+02  0.66065171370E+02 -0.25029109329E+02  0.13591749967E+03  0.89651092243E+02 0.  0.
        -24    2    1    2    0    0  0.15719474119E+02 -0.53316675617E+02  0.55519031261E+03  0.56468005825E+03  0.86818864360E+02 0.  0.
         13    1    4    4    0    0  0.20407443041E+02 -0.11148369980E+02  0.30883138841E+02  0.38658998297E+02  0.00000000000E+00 0. -1.
        -14    1    4    4    0    0 -0.46879689215E+01 -0.42168305637E+02  0.52430717377E+03  0.52602105996E+03  0.00000000000E+00 0.  1.
        -11    1    3    3    0    0  0.37261936410E+02  0.71964387104E+02  0.13884068821E+02  0.82219780365E+02  0.00000000000E+00 0. -1.
         11    1    3    3    0    0  0.36529561712E+02 -0.58992157346E+01 -0.38913178149E+02  0.53697719307E+02  0.00000000000E+00 0.  1.
         -1    1    1    2    0  502 -0.89510972241E+02 -0.12748495753E+02  0.18898444793E+03  0.20949906886E+03  0.00000000000E+00 0.  1.
<scales pt_clust_5="13000.00000" pt_clust_6="13000.00000" pt_clust_7="13000.00000" pt_clust_8="13000.00000" pt_clust_9="13000.00000"></scales>
<clustering>
<clus scale="   86.819">  5  6 -1 -1</clus>
<clus scale="   89.651">  7  8 -1 -1</clus>
<clus scale="   90.414">  5  9 -1 -1</clus>
<clus scale="  133.593">  2  7  1 -1</clus>
<clus scale="  213.441">  1  5  2 -1</clus>
</clustering>
</event>
<event>
 9    1  0.2728138E-005  0.3026704E+03  0.7546771E-02  0.1121588E+00
          1   -1    0    0  502    0 -0.00000000000E+00  0.00000000000E+00  0.39409803832E+03  0.39409803832E+03  0.00000000000E+00 0. -1.
         21   -1    0    0  501  502  0.00000000000E+00 -0.00000000000E+00 -0.16055047138E+03  0.16055047138E+03  0.00000000000E+00 0. -1.
         23    2    1    2    0    0 -0.69985765806E+02  0.15347322030E+02  0.22435090386E+03  0.25183845266E+03  0.89194901574E+02 0.  0.
        -24    2    1    2    0    0 -0.90846159747E+02 -0.44096195320E+02 -0.32295180352E+02  0.13424262524E+03  0.82344426489E+02 0.  0.
         13    1    4    4    0    0 -0.82618102273E+02 -0.12663068620E+02 -0.49841598956E+02  0.97315410478E+02  0.00000000000E+00 0. -1.
        -14    1    4    4    0    0 -0.82280574733E+01 -0.31433126700E+02  0.17546418604E+02  0.36927214757E+02  0.00000000000E+00 0.  1.
        -11    1    3    3    0    0 -0.36292735005E+02 -0.30961656511E+02  0.53675744936E+02  0.71811366666E+02  0.00000000000E+00 0.  1.
         11    1    3    3    0    0 -0.33693030801E+02  0.46308978540E+02  0.17067515892E+03  0.18002708599E+03  0.00000000000E+00 0. -1.
          2    1    1    2  501    0  0.16083192555E+03  0.28748873290E+02  0.41491843442E+02  0.16856743180E+03  0.00000000000E+00 0. -1.
<scales pt_clust_5="13000.00000" pt_clust_6="13000.00000" pt_clust_7="13000.00000" pt_clust_8="13000.00000" pt_clust_9="13000.00000"></scales>
<clustering>
<clus scale="   82.344">  5  6 -1 -1</clus>
<clus scale="   89.195">  7  8 -1 -1</clus>
<clus scale="  114.408">  1  7  2 -1</clus>
<clus scale="  120.242">  5  9 -1 -1</clus>
<clus scale="  302.670">  2  5  1 -1</clus>
</clustering>
</event>
<event>
 9    1  0.2728138E-005  0.2349405E+03  0.7546771E-02  0.1150828E+00
          3   -1    0    0  502    0 -0.00000000000E+00  0.00000000000E+00  0.88549602106E+02  0.88549602106E+02  0.00000000000E+00 0. -1.
         21   -1    0    0  501  502  0.00000000000E+00 -0.00000000000E+00 -0.43394256318E+03  0.43394256318E+03  0.00000000000E+00 0. -1.
         23    2    1    2    0    0 -0.27890198529E+02 -0.38838812529E+02 -0.21158761817E+02  0.12208630911E+03  0.11032251420E+03 0.  0.
        -24    2    1    2    0    0 -0.83166367113E+02  0.78141454653E+01 -0.12678953904E+03  0.17175659510E+03  0.80293432261E+02 0.  0.
         13    1    4    4    0    0 -0.80551159816E+02  0.17626172607E+02 -0.13534069444E+03  0.15848114992E+03  0.00000000000E+00 0. -1.
        -14    1    4    4    0    0 -0.26152072970E+01 -0.98120271415E+01  0.85511554098E+01  0.13275445178E+02  0.00000000000E+00 0.  1.
        -11    1    3    3    0    0  0.13730677563E+02  0.31510755932E+02  0.80186428997E+01  0.35295295433E+02  0.00000000000E+00 0.  1.
         11    1    3    3    0    0 -0.41620876093E+02 -0.70349568462E+02 -0.29177404716E+02  0.86791013679E+02  0.00000000000E+00 0. -1.
          4    1    1    2  501    0  0.11105656564E+03  0.31024667064E+02 -0.19744466022E+03  0.22864926107E+03  0.00000000000E+00 0. -1.
<scales pt_clust_5="13000.00000" pt_clust_6="13000.00000" pt_clust_7="13000.00000" pt_clust_8="13000.00000" pt_clust_9="13000.00000"></scales>
<clustering>
<clus scale="   80.293">  5  6 -1 -1</clus>
<clus scale="  110.323">  7  8 -1 -1</clus>
<clus scale="  115.309">  5  9 -1 -1</clus>
<clus scale="  120.239">  1  7  2 -1</clus>
<clus scale="  234.940">  2  5  1 -1</clus>
</clustering>
</event>
<event>
 9    1  0.2728138E-005  0.1773564E+03  0.7546771E-02  0.1197879E+00
          3   -1    0    0  502    0 -0.00000000000E+00  0.00000000000E+00  0.12240243939E+03  0.12240243939E+03  0.00000000000E+00 0. -1.
         21   -1    0    0  501  502  0.00000000000E+00 -0.00000000000E+00 -0.15966252666E+03  0.15966252666E+03  0.00000000000E+00 0. -1.
         23    2    1    2    0    0 -0.10974626905E+02  0.36604420934E+02  0.14981920948E+02  0.97174419646E+02  0.88079985301E+02 0.  0.
        -24    2    1    2    0    0  0.74054833049E+02 -0.16952671126E+02 -0.38639094448E+02  0.11743431659E+03  0.80785690174E+02 0.  0.
         11    1    4    4    0    0  0.44199454827E+02 -0.39716775044E+01 -0.62796896959E+02  0.76894839209E+02  0.00000000000E+00 0. -1.
        -12    1    4    4    0    0  0.29855378221E+02 -0.12980993621E+02  0.24157802511E+02  0.40539477381E+02  0.00000000000E+00 0.  1.
        -13    1    3    3    0    0 -0.37054864036E+02  0.21852515075E+02 -0.23012250926E+02  0.48786873813E+02  0.00000000000E+00 0.  1.
         13    1    3    3    0    0  0.26080237131E+02  0.14751905860E+02  0.37994171874E+02  0.48387545832E+02  0.00000000000E+00 0. -1.
          4    1    1    2  501    0 -0.63080206144E+02 -0.19651749808E+02 -0.13602913773E+02  0.67456229815E+02  0.00000000000E+00 0. -1.
<scales pt_clust_5="13000.00000" pt_clust_6="13000.00000" pt_clust_7="13000.00000" pt_clust_8="13000.00000" pt_clust_9="13000.00000"></scales>
<clustering>
<clus scale="   80.786">  5  6 -1 -1</clus>
<clus scale="   66.070">  5  9 -1 -1</clus>
<clus scale="   88.080">  7  8 -1 -1</clus>
<clus scale="   96.013">  1  7  2 -1</clus>
<clus scale="  177.356">  2  5  1 -1</clus>
</clustering>
</event>
<event>
 9    1  0.2728138E-005  0.1676082E+03  0.7546771E-02  0.1190703E+00
          1   -1    0    0  502    0 -0.00000000000E+00  0.00000000000E+00  0.56746344654E+03  0.56746344654E+03  0.00000000000E+00 0. -1.
         21   -1    0    0  501  502  0.00000000000E+00 -0.00000000000E+00 -0.10755055343E+03  0.10755055343E+03  0.00000000000E+00 0. -1.
         23    2    1    2    0    0 -0.91898878811E+02  0.22948355397E+02  0.48731788050E+03  0.50518016548E+03  0.93574847023E+02 0.  0.
        -24    2    1    2    0    0  0.19183742951E+02  0.12784763548E+02  0.34479589235E+01  0.83137519289E+02  0.79802835289E+02 0.  0.
         11    1    4    4    0    0 -0.16842967424E+02  0.31971067392E+02 -0.13992094104E+02  0.38750656759E+02  0.00000000000E+00 0. -1.
        -12    1    4    4    0    0  0.36026710375E+02 -0.19186303844E+02  0.17440053028E+02  0.44386862530E+02  0.00000000000E+00 0.  1.
        -11    1    3    3    0    0 -0.82093282004E+02 -0.23549872283E+02  0.32685826428E+03  0.33783165684E+03  0.00000000000E+00 0. -1.
         11    1    3    3    0    0 -0.98055968071E+01  0.46498227680E+02  0.16045961622E+03  0.16734850864E+03  0.00000000000E+00 0.  1.
          2    1    1    2  501    0  0.72715135860E+02 -0.35733118945E+02 -0.30852946313E+02  0.86696315198E+02  0.00000000000E+00 0. -1.
<scales pt_clust_5="13000.00000" pt_clust_6="13000.00000" pt_clust_7="13000.00000" pt_clust_8="13000.00000" pt_clust_9="13000.00000"></scales>
<clustering>
<clus scale="   79.803">  5  6 -1 -1</clus>
<clus scale="   81.021">  5  9 -1 -1</clus>
<clus scale="   93.575">  7  8 -1 -1</clus>
<clus scale="  133.148">  1  7  2 -1</clus>
<clus scale="  167.608">  2  5  1 -1</clus>
</clustering>
</event>
<event>
 9    1  0.2728138E-005  0.4043722E+03  0.7546771E-02  0.1088777E+00
          1   -1    0    0  502    0 -0.00000000000E+00  0.00000000000E+00  0.15575229802E+03  0.15575229802E+03  0.00000000000E+00 0. -1.
         21   -1    0    0  501  502  0.00000000000E+00 -0.00000000000E+00 -0.51078649890E+03  0.51078649890E+03  0.00000000000E+00 0. -1.
         23    2    1    2    0    0 -0.29578202865E+02 -0.56854062176E+02 -0.20847952236E+03  0.23642818483E+03  0.91254155346E+02 0.  0.
        -24    2    1    2    0    0 -0.52969842289E+02  0.12180519530E+02 -0.26241032010E+03  0.28100516329E+03  0.84560962942E+02 0.  0.
         11    1    4    4    0    0 -0.48685935628E+02  0.39511975196E+01 -0.26644709015E+03  0.27088740122E+03  0.00000000000E+00 0. -1.
        -12    1    4    4    0    0 -0.42839066611E+01  0.82293220101E+01  0.40367700465E+01  0.10117762076E+02  0.00000000000E+00 0.  1.
        -11    1    3    3    0    0 -0.45778037292E+02 -0.11674262944E+02 -0.42152952900E+02  0.63314994684E+02  0.00000000000E+00 0.  1.
         11    1    3    3    0    0  0.16199834427E+02 -0.45179799233E+02 -0.16632656947E+03  0.17311319015E+03  0.00000000000E+00 0. -1.
          2    1    1    2  501    0  0.82548045155E+02  0.44673542647E+02  0.11585564158E+03  0.14910544879E+03  0.00000000000E+00 0. -1.
<scales pt_clust_5="13000.00000" pt_clust_6="13000.00000" pt_clust_7="13000.00000" pt_clust_8="13000.00000" pt_clust_9="13000.00000"></scales>
<clustering>
<clus scale="   84.561">  5  6 -1 -1</clus>
<clus scale="   91.254">  7  8 -1 -1</clus>
<clus scale="   93.861">  5  9 -1 -1</clus>
<clus scale="  111.510">  1  7  2 -1</clus>
<clus scale="  404.372">  2  5  1 -1</clus>
</clustering>
</event>
<event>
 9    1  0.2728138E-005  0.6926890E+03  0.7546771E-02  0.1028477E+00
         21   -1    0    0  501  502  0.00000000000E+00  0.00000000000E+00  0.82326618075E+03  0.82326618075E+03  0.00000000000E+00 0. -1.
          1   -1    0    0  502    0 -0.00000000000E+00 -0.00000000000E+00 -0.53177703606E+03  0.53177703606E+03  0.00000000000E+00 0. -1.
         23    2    1    2    0    0  0.50243012070E+02  0.20956552146E+02 -0.37491175578E+03  0.39384180710E+03  0.10765225060E+03 0.  0.
        -24    2    1    2    0    0  0.19827466587E+03  0.11604072823E+03  0.69830814688E+01  0.24331482319E+03  0.79843885330E+02 0.  0.
         13    1    4    4    0    0  0.17329078143E+03  0.11431456532E+03  0.29440928693E+02  0.20967661542E+03  0.00000000000E+00 0. -1.
        -14    1    4    4    0    0  0.24983884443E+02  0.17261629117E+01 -0.22457847224E+02  0.33638207774E+02  0.00000000000E+00 0.  1.
        -11    1    3    3    0    0  0.36543992273E+01  0.47463518513E+02 -0.28667162865E+03  0.29059725205E+03  0.00000000000E+00 0. -1.
         11    1    3    3    0    0  0.46588612843E+02 -0.26506966368E+02 -0.88240127133E+02  0.10324455506E+03  0.00000000000E+00 0.  1.
          2    1    1    2  501    0 -0.24851767794E+03 -0.13699728037E+03  0.65941781901E+03  0.71788658652E+03  0.00000000000E+00 0. -1.
<scales pt_clust_5="13000.00000" pt_clust_6="13000.00000" pt_clust_7="13000.00000" pt_clust_8="13000.00000" pt_clust_9="13000.00000"></scales>
<clustering>
<clus scale="   79.844">  5  6 -1 -1</clus>
<clus scale="  107.652">  7  8 -1 -1</clus>
<clus scale="  120.634">  2  7  1 -1</clus>
<clus scale="  273.046">  5  9 -1 -1</clus>
<clus scale="  692.689">  1  5  2 -1</clus>
</clustering>
</event>
<event>
 9    1  0.2728138E-005  0.1650162E+03  0.7546771E-02  0.1203474E+00
          1   -1    0    0  502    0 -0.00000000000E+00  0.00000000000E+00  0.12177635435E+03  0.12177635435E+03  0.00000000000E+00 0. -1.
         21   -1    0    0  501  502  0.00000000000E+00 -0.00000000000E+00 -0.24868449344E+03  0.24868449344E+03  0.00000000000E+00 0. -1.
         23    2    1    2    0    0 -0.41683576241E+02  0.27303433997E+02  0.59755796211E+02  0.12131479194E+03  0.93078061470E+02 0.  0.
        -24    2    1    2    0    0 -0.19252791179E+02 -0.18040240491E+01 -0.14632281157E+03  0.17174536434E+03  0.87819021374E+02 0.  0.
         13    1    4    4    0    0 -0.22598630999E+02  0.38338425088E+02 -0.10497946784E+03  0.11402289958E+03  0.00000000000E+00 0. -1.
        -14    1    4    4    0    0  0.33458398201E+01 -0.40142449137E+02 -0.41343343734E+02  0.57722464759E+02  0.00000000000E+00 0.  1.
        -11    1    3    3    0    0  0.26234738045E+02  0.28414977377E+01 -0.17928339237E+01  0.26449004577E+02  0.00000000000E+00 0.  1.
         11    1    3    3    0    0 -0.67918314286E+02  0.24461936259E+02  0.61548630135E+02  0.94865787365E+02  0.00000000000E+00 0. -1.
          2    1    1    2  501    0  0.60936367420E+02 -0.25499409948E+02 -0.40341123730E+02  0.77400691507E+02  0.00000000000E+00 0. -1.
<scales pt_clust_5="13000.00000" pt_clust_6="13000.00000" pt_clust_7="13000.00000" pt_clust_8="13000.00000" pt_clust_9="13000.00000"></scales>
<clustering>
<clus scale="   87.819">  5  6 -1 -1</clus>
<clus scale="   66.057">  5  9 -1 -1</clus>
<clus scale="   93.078">  7  8 -1 -1</clus>
<clus scale="  105.577">  1  7  2 -1</clus>
<clus scale="  165.016">  2  5  1 -1</clus>
</clustering>
</event>
<event>
 9    1  0.2728138E-005  0.1947534E+03  0.7546771E-02  0.1187571E+00
          1   -1    0    0  502    0 -0.00000000000E+00  0.00000000000E+00  0.15675572921E+03  0.15675572921E+03  0.00000000000E+00 0. -1.
         21   -1    0    0  501  502  0.00000000000E+00 -0.00000000000E+00 -0.16995882809E+03  0.16995882809E+03  0.00000000000E+00 0. -1.
         23    2    1    2    0    0  0.19932863536E-01  0.14048285879E+01  0.70153152202E+02  0.11487225029E+03  0.90951609010E+02 0.  0.
        -24    2    1    2    0    0 -0.76209033304E+02 -0.15214467285E+01 -0.80103648859E+02  0.13558372030E+03  0.78461577182E+02 0.  0.
         13    1    4    4    0    0 -0.82663463672E+02  0.16647865358E+02 -0.80098454542E+02  0.11630202951E+03  0.00000000000E+00 0. -1.
        -14    1    4    4    0    0  0.64544303681E+01 -0.18169312087E+02 -0.51943171274E-02  0.19281690799E+02  0.00000000000E+00 0.  1.
        -11    1    3    3    0    0 -0.43129339061E+02  0.54746617118E+00  0.53237844122E+02  0.68517936730E+02  0.00000000000E+00 0. -1.
         11    1    3    3    0    0  0.43149271924E+02  0.85736241674E+00  0.16915308080E+02  0.46354313557E+02  0.00000000000E+00 0.  1.
          2    1    1    2  501    0  0.76189100440E+02  0.11661814056E+00 -0.32526022176E+01  0.76258586709E+02  0.00000000000E+00 0. -1.
<scales pt_clust_5="13000.00000" pt_clust_6="13000.00000" pt_clust_7="13000.00000" pt_clust_8="13000.00000" pt_clust_9="13000.00000"></scales>
<clustering>
<clus scale="   78.462">  5  6 -1 -1</clus>
<clus scale="   76.189">  5  9 -1 -1</clus>
<clus scale="   90.952">  7  8 -1 -1</clus>
<clus scale="   90.962">  1  7  2 -1</clus>
<clus scale="  194.753">  2  5  1 -1</clus>
</clustering>
</event>
<event>
 9    1  0.2728138E-005  0.4454413E+03  0.7546771E-02  0.1043682E+00
          1   -1    0    0  502    0 -0.00000000000E+00  0.00000000000E+00  0.14043194175E+04  0.14043194175E+04  0.00000000000E+00 0. -1.
         21   -1    0    0  501  502  0.00000000000E+00 -0.00000000000E+00 -0.10454483399E+03  0.10454483399E+03  0.00000000000E+00 0. -1.
         23    2    1    2    0    0  0.21799425387E+03 -0.16876497165E+03  0.31756144086E+03  0.43036502524E+03  0.91464068666E+02 0.  0.
        -24    2    1    2    0    0  0.81700933728E+01  0.46912330865E+02  0.38513095034E+02  0.10045620167E+03  0.79628341390E+02 0.  0.
         13    1    4    4    0    0 -0.15068273215E+02  0.61266190183E+02  0.16075077418E+02  0.65107657240E+02  0.00000000000E+00 0. -1.
        -14    1    4    4    0    0  0.23238366588E+02 -0.14353859319E+02  0.22438017615E+02  0.35348544433E+02  0.00000000000E+00 0.  1.
        -13    1    3    3    0    0  0.29534803570E+02 -0.72159043516E+02  0.72411378307E+02  0.10640789393E+03  0.00000000000E+00 0.  1.
         13    1    3    3    0    0  0.18845945030E+03 -0.96605928132E+02  0.24515006255E+03  0.32395713131E+03  0.00000000000E+00 0. -1.
          2    1    1    2  501    0 -0.22616434724E+03  0.12185264078E+03  0.94370004759E+03  0.97804302454E+03  0.00000000000E+00 0. -1.
<scales pt_clust_5="13000.00000" pt_clust_6="13000.00000" pt_clust_7="13000.00000" pt_clust_8="13000.00000" pt_clust_9="13000.00000"></scales>
<clustering>
<clus scale="   79.628">  5  6 -1 -1</clus>
<clus scale="   91.464">  7  8 -1 -1</clus>
<clus scale="  256.902">  5  9 -1 -1</clus>
<clus scale="  290.463">  1  7  2 -1</clus>
<clus scale="  445.441">  2  5  1 -1</clus>
</clustering>
</event>
<event>
 9    1  0.2728138E-005  0.3178968E+03  0.7546771E-02  0.1109040E+00
          1   -1    0    0  502    0 -0.00000000000E+00  0.00000000000E+00  0.10859908037E+03  0.10859908037E+03  0.00000000000E+00 0. -1.
         21   -1    0    0  501  502  0.00000000000E+00 -0.00000000000E+00 -0.49168819195E+03  0.49168819195E+03  0.00000000000E+00 0. -1.
         23    2    1    2    0    0 -0.52573184389E+02  0.90108283967E+02 -0.63988244460E+02  0.14986110558E+03  0.86489380728E+02 0.  0.
        -24    2    1    2    0    0 -0.94622517712E+02  0.25251944877E+02 -0.16368110279E+03  0.20725984453E+03  0.81080565897E+02 0.  0.
         11    1    4    4    0    0 -0.10068514537E+03 -0.45137727145E+00 -0.12733808488E+03  0.16233511666E+03  0.00000000000E+00 0. -1.
        -12    1    4    4    0    0  0.60626276582E+01  0.25703322149E+02 -0.36343017910E+02  0.44924727873E+02  0.00000000000E+00 0.  1.
        -13    1    3    3    0    0 -0.30928279052E+02 -0.10378621440E+02 -0.17882789816E+02  0.37203069762E+02  0.00000000000E+00 0.  1.
         13    1    3    3    0    0 -0.21644905338E+02  0.10048690541E+03 -0.46105454644E+02  0.11265803581E+03  0.00000000000E+00 0. -1.
          2    1    1    2  501    0  0.14719570210E+03 -0.11536022884E+03 -0.15541976433E+03  0.24316632222E+03  0.00000000000E+00 0. -1.
<scales pt_clust_5="13000.00000" pt_clust_6="13000.00000" pt_clust_7="13000.00000" pt_clust_8="13000.00000" pt_clust_9="13000.00000"></scales>
<clustering>
<clus scale="   81.081">  5  6 -1 -1</clus>
<clus scale="   86.489">  7  8 -1 -1</clus>
<clus scale="  135.513">  1  7  2 -1</clus>
<clus scale="  124.905">  5  9 -1 -1</clus>
<clus scale="  317.897">  2  5  1 -1</clus>
</clustering>
</event>
<event>
 9    1  0.2728138E-005  0.2158357E+03  0.7546771E-02  0.1168014E+00
          3   -1    0    0  502    0 -0.00000000000E+00  0.00000000000E+00  0.13139485313E+03  0.13139485313E+03  0.00000000000E+00 0. -1.
         21   -1    0    0  501  502  0.00000000000E+00 -0.00000000000E+00 -0.20457133125E+03  0.20457133125E+03  0.00000000000E+00 0. -1.
         23    2    1    2    0    0  0.31368259669E+02 -0.38437154626E+02  0.10607078230E+02  0.10443926340E+03  0.91288920797E+02 0.  0.
        -24    2    1    2    0    0 -0.63269645774E+02 -0.46457038247E+02 -0.58981801003E+01  0.11198255995E+03  0.79649235560E+02 0.  0.
         11    1    4    4    0    0 -0.60271762077E+01 -0.30576710514E+02 -0.34123714013E+02  0.46213525476E+02  0.00000000000E+00 0. -1.
        -12    1    4    4    0    0 -0.57242469567E+02 -0.15880327733E+02  0.28225533912E+02  0.65769034474E+02  0.00000000000E+00 0.  1.
        -13    1    3    3    0    0  0.34787394400E+02 -0.65240092487E+02  0.18642863472E+02  0.76249516951E+02  0.00000000000E+00 0. -1.
         13    1    3    3    0    0 -0.34191347308E+01  0.26802937862E+02 -0.80357852423E+01  0.28189746448E+02  0.00000000000E+00 0.  1.
          4    1    1    2  501    0  0.31901386105E+02  0.84894192873E+02 -0.77885376255E+02  0.11954436103E+03  0.00000000000E+00 0. -1.
<scales pt_clust_5="13000.00000" pt_clust_6="13000.00000" pt_clust_7="13000.00000" pt_clust_8="13000.00000" pt_clust_9="13000.00000"></scales>
<clustering>
<clus scale="   79.649">  5  6 -1 -1</clus>
<clus scale="   90.690">  5  9 -1 -1</clus>
<clus scale="   91.289">  7  8 -1 -1</clus>
<clus scale="  103.899">  1  7  2 -1</clus>
<clus scale="  215.836">  2  5  1 -1</clus>
</clustering>
</event>
<event>
 9    1  0.2728138E-005  0.2649510E+03  0.7546771E-02  0.1140015E+00
         21   -1    0    0  501  502  0.00000000000E+00  0.00000000000E+00  0.27017613762E+03  0.27017613762E+03  0.00000000000E+00 0.  1.
         -4   -1    0    0    0  501 -0.00000000000E+00 -0.00000000000E+00 -0.29989463848E+03  0.29989463848E+03  0.00000000000E+00 0.  1.
         23    2    1    2    0    0  0.50608988935E+02  0.22488402579E+02 -0.21902034351E+03  0.24444183479E+03  0.93353637929E+02 0.  0.
        -24    2    1    2    0    0 -0.70881041389E+02  0.96451527007E+02  0.11051930746E+03  0.18153053462E+03  0.80073707221E+02 0.  0.
         11    1    4    4    0    0 -0.10203454434E+02  0.67148818166E+02  0.24370655350E+02  0.72159566973E+02  0.00000000000E+00 0. -1.
        -12    1    4    4    0    0 -0.60677586955E+02  0.29302708841E+02  0.86148652109E+02  0.10937096765E+03  0.00000000000E+00 0.  1.
        -13    1    3    3    0    0  0.66994118304E+02  0.43372235202E+02 -0.18345534299E+03  0.20006305393E+03  0.00000000000E+00 0.  1.
         13    1    3    3    0    0 -0.16385129369E+02 -0.20883832623E+02 -0.35565000514E+02  0.44378780864E+02  0.00000000000E+00 0. -1.
         -3    1    1    2    0  502  0.20272052455E+02 -0.11893992959E+03  0.78782535191E+02  0.14409840669E+03  0.00000000000E+00 0.  1.
<scales pt_clust_5="13000.00000" pt_clust_6="13000.00000" pt_clust_7="13000.00000" pt_clust_8="13000.00000" pt_clust_9="13000.00000"></scales>
<clustering>
<clus scale="   80.074">  5  6 -1 -1</clus>
<clus scale="   93.354">  7  8 -1 -1</clus>
<clus scale="  108.544">  2  7  1 -1</clus>
<clus scale="  116.969">  5  9 -1 -1</clus>
<clus scale="  264.951">  1  5  2 -1</clus>
</clustering>
</event>
<event>
 9    1  0.2728138E-005  0.1344165E+03  0.7546771E-02  0.1233502E+00
          1   -1    0    0  502    0 -0.00000000000E+00  0.00000000000E+00  0.35131260563E+03  0.35131260563E+03  0.00000000000E+00 0. -1.
         21   -1    0    0  501  502  0.00000000000E+00 -0.00000000000E+00 -0.40495170737E+02  0.40495170737E+02  0.00000000000E+00 0. -1.
         23    2    1    2    0    0 -0.28671463791E+02 -0.40091712138E+02  0.12539268628E+03  0.16278784885E+03  0.91362791899E+02 0.  0.
        -24    2    1    2    0    0  0.17864398826E+02  0.62617439200E+02  0.11853296016E+03  0.15761465883E+03  0.80945893024E+02 0.  0.
         11    1    4    4    0    0  0.23498272561E+02  0.70642630871E+02  0.12526661836E+03  0.14571985378E+03  0.00000000000E+00 0. -1.
        -12    1    4    4    0    0 -0.56338737352E+01 -0.80251916716E+01 -0.67336581976E+01  0.11894805057E+02  0.00000000000E+00 0.  1.
        -13    1    3    3    0    0 -0.46108445279E+02 -0.59215840250E+02  0.10833700302E+03  0.13179306008E+03  0.00000000000E+00 0. -1.
         13    1    3    3    0    0  0.17436981488E+02  0.19124128112E+02  0.17055683261E+02  0.30994788771E+02  0.00000000000E+00 0.  1.
          2    1    1    2  501    0  0.10807064965E+02 -0.22525727062E+02  0.66891788458E+02  0.71405268685E+02  0.00000000000E+00 0. -1.
<scales pt_clust_5="13000.00000" pt_clust_6="13000.00000" pt_clust_7="13000.00000" pt_clust_8="13000.00000" pt_clust_9="13000.00000"></scales>
<clustering>
<clus scale="   80.946">  5  6 -1 -1</clus>
<clus scale="   24.984">  5  9 -1 -1</clus>
<clus scale="   91.363">  7  8 -1 -1</clus>
<clus scale="  103.810">  1  7  2 -1</clus>
<clus scale="  134.416">  2  5  1 -1</clus>
</clustering>
</event>
<event>
 9    1  0.2728138E-005  0.2636312E+03  0.7546771E-02  0.1123662E+00
          1   -1    0    0  502    0 -0.00000000000E+00  0.00000000000E+00  0.43272244262E+03  0.43272244262E+03  0.00000000000E+00 0. -1.
         21   -1    0    0  501  502  0.00000000000E+00 -0.00000000000E+00 -0.10764149325E+03  0.10764149325E+03  0.00000000000E+00 0. -1.
         23    2    1    2    0    0  0.11084637837E+03 -0.75305000815E+02  0.15933071244E+03  0.22895657896E+03  0.95273691954E+02 0.  0.
        -24    2    1    2    0    0  0.33044012884E+02  0.73208773587E+02  0.10016685078E+03  0.15326179295E+03  0.83691982071E+02 0.  0.
         13    1    4    4    0    0  0.22664141566E+02  0.80567844214E+02  0.41853612439E+02  0.93576523276E+02  0.00000000000E+00 0. -1.
        -14    1    4    4    0    0  0.10379871318E+02 -0.73590706269E+01  0.58313238346E+02  0.59685269669E+02  0.00000000000E+00 0.  1.
        -13    1    3    3    0    0  0.84260766058E+02 -0.61732465813E+02  0.50339764353E+02  0.11595199829E+03  0.00000000000E+00 0. -1.
         13    1    3    3    0    0  0.26585612308E+02 -0.13572535002E+02  0.10899094809E+03  0.11300458067E+03  0.00000000000E+00 0.  1.
          2    1    1    2  501    0 -0.14389039125E+03  0.20962272280E+01  0.65583386145E+02  0.15814556396E+03  0.00000000000E+00 0. -1.
<scales pt_clust_5="13000.00000" pt_clust_6="13000.00000" pt_clust_7="13000.00000" pt_clust_8="13000.00000" pt_clust_9="13000.00000"></scales>
<clustering>
<clus scale="   83.692">  5  6 -1 -1</clus>
<clus scale="   95.274">  7  8 -1 -1</clus>
<clus scale="  143.906">  5  9 -1 -1</clus>
<clus scale="  164.423">  1  7  2 -1</clus>
<clus scale="  263.631">  2  5  1 -1</clus>
</clustering>
</event>
<event>
 9    1  0.2728138E-005  0.2454782E+03  0.7546771E-02  0.1141509E+00
         21   -1    0    0  501  502  0.00000000000E+00  0.00000000000E+00  0.25138515219E+03  0.25138515219E+03  0.00000000000E+00 0. -1.
          3   -1    0    0  502    0 -0.00000000000E+00 -0.00000000000E+00 -0.17020598020E+03  0.17020598020E+03  0.00000000000E+00 0. -1.
         23    2    1    2    0    0  0.25529588265E+02  0.91292608209E+02  0.11371628413E+03  0.17396597412E+03  0.91360093505E+02 0.  0.
        -24    2    1    2    0    0 -0.23997467125E+01 -0.31855189486E+02  0.78781046761E+02  0.11933046308E+03  0.83742427763E+02 0.  0.
         13    1    4    4    0    0  0.50194806456E+01 -0.59699042572E+02  0.60844570538E+02  0.85388714910E+02  0.00000000000E+00 0. -1.
        -14    1    4    4    0    0 -0.74192273581E+01  0.27843853086E+02  0.17936476223E+02  0.33941748166E+02  0.00000000000E+00 0.  1.
        -13    1    3    3    0    0  0.10081295619E+02  0.23120511056E+02  0.99483476068E+02  0.10263114812E+03  0.00000000000E+00 0.  1.
         13    1    3    3    0    0  0.15448292646E+02  0.68172097153E+02  0.14232808059E+02  0.71334826005E+02  0.00000000000E+00 0. -1.
          4    1    1    2  501    0 -0.23129841552E+02 -0.59437418724E+02 -0.11131815890E+03  0.12829469520E+03  0.00000000000E+00 0. -1.
<scales pt_clust_5="13000.00000" pt_clust_6="13000.00000" pt_clust_7="13000.00000" pt_clust_8="13000.00000" pt_clust_9="13000.00000"></scales>
<clustering>
<clus scale="   83.742">  5  6 -1 -1</clus>
<clus scale="   63.779">  5  9 -1 -1</clus>
<clus scale="   91.360">  7  8 -1 -1</clus>
<clus scale="  131.654">  2  7  1 -1</clus>
<clus scale="  245.478">  1  5  2 -1</clus>
</clustering>
</event>
<event>
 9    1  0.2728138E-005  0.7010211E+03  0.7546771E-02  0.1007322E+00
          1   -1    0    0  502    0 -0.00000000000E+00  0.00000000000E+00  0.11098511053E+04  0.11098511053E+04  0.00000000000E+00 0. -1.
         21   -1    0    0  501  502  0.00000000000E+00 -0.00000000000E+00 -0.19712682969E+03  0.19712682969E+03  0.00000000000E+00 0. -1.
         23    2    1    2    0    0  0.19245007394E+03 -0.55797272908E+02  0.31905638802E+03  0.38835278705E+03  0.94183554012E+02 0.  0.
        -24    2    1    2    0    0  0.18060329374E+03 -0.16344232546E+03  0.13639559416E+03  0.28907549384E+03  0.75032923244E+02 0.  0.
         11    1    4    4    0    0  0.14626540891E+03 -0.11192546762E+03  0.66772944726E+02  0.19590688168E+03  0.00000000000E+00 0. -1.
        -12    1    4    4    0    0  0.34337884835E+02 -0.51516857849E+02  0.69622649431E+02  0.93168612158E+02  0.00000000000E+00 0.  1.
        -13    1    3    3    0    0  0.13493792875E+03 -0.13805714247E+02  0.13665922100E+03  0.19254761760E+03  0.00000000000E+00 0. -1.
         13    1    3    3    0    0  0.57512145196E+02 -0.41991558660E+02  0.18239716702E+03  0.19580516945E+03  0.00000000000E+00 0.  1.
          2    1    1    2  501    0 -0.37305336769E+03  0.21923959837E+03  0.45727229346E+03  0.62954965412E+03  0.00000000000E+00 0. -1.
<scales pt_clust_5="13000.00000" pt_clust_6="13000.00000" pt_clust_7="13000.00000" pt_clust_8="13000.00000" pt_clust_9="13000.00000"></scales>
<clustering>
<clus scale="   75.033">  5  6 -1 -1</clus>
<clus scale="   94.184">  7  8 -1 -1</clus>
<clus scale="  221.407">  1  7  2 -1</clus>
<clus scale="  295.293">  5  9 -1 -1</clus>
<clus scale="  701.021">  2  5  1 -1</clus>
</clustering>
</event>
<event>
 9    1  0.2728138E-005  0.1478838E+03  0.7546771E-02  0.1217152E+00
          3   -1    0    0  502    0 -0.00000000000E+00  0.00000000000E+00  0.43941950021E+03  0.43941950021E+03  0.00000000000E+00 0. -1.
         21   -1    0    0  501  502  0.00000000000E+00 -0.00000000000E+00 -0.37804672408E+02  0.37804672408E+02  0.00000000000E+00 0. -1.
         23    2    1    2    0    0  0.50777751734E+02 -0.34147933910E+02  0.18315454777E+03  0.21341645558E+03  0.90865470242E+02 0.  0.
        -24    2    1    2    0    0  0.77783238755E+01  0.43467137324E+01  0.13894734362E+03  0.16066105557E+03  0.80163671548E+02 0.  0.
         13    1    4    4    0    0  0.15210257286E+02 -0.27350268788E+02  0.19538833634E+02  0.36893836196E+02  0.00000000000E+00 0. -1.
        -14    1    4    4    0    0 -0.74319334101E+01  0.31696982520E+02  0.11940850998E+03  0.12376721938E+03  0.00000000000E+00 0.  1.
        -13    1    3    3    0    0 -0.68397996272E+01 -0.38788788184E+02  0.29384512430E+02  0.49140640192E+02  0.00000000000E+00 0.  1.
         13    1    3    3    0    0  0.57617551362E+02  0.46408542738E+01  0.15377003534E+03  0.16427581539E+03  0.00000000000E+00 0. -1.
          4    1    1    2  501    0 -0.58556075610E+02  0.29801220178E+02  0.79512936419E+02  0.10314666147E+03  0.00000000000E+00 0. -1.
<scales pt_clust_5="13000.00000" pt_clust_6="13000.00000" pt_clust_7="13000.00000" pt_clust_8="13000.00000" pt_clust_9="13000.00000"></scales>
<clustering>
<clus scale="   80.164">  5  6 -1 -1</clus>
<clus scale="   65.703">  5  9 -1 -1</clus>
<clus scale="   90.865">  7  8 -1 -1</clus>
<clus scale="  109.549">  1  7  2 -1</clus>
<clus scale="  147.884">  2  5  1 -1</clus>
</clustering>
</event>
<event>
 9    1  0.2728138E-005  0.1920062E+03  0.7546771E-02  0.1180766E+00
         -2   -1    0    0    0  501 -0.00000000000E+00  0.00000000000E+00  0.27760893342E+03  0.27760893342E+03  0.00000000000E+00 0.  1.
         21   -1    0    0  501  502  0.00000000000E+00 -0.00000000000E+00 -0.82557315695E+02  0.82557315695E+02  0.00000000000E+00 0. -1.
         23    2    1    2    0    0  0.89440750914E+01  0.25432756837E+02  0.63836066744E+02  0.12760676936E+03  0.10715233348E+03 0.  0.
        -24    2    1    2    0    0  0.67178673419E+02  0.12500791177E+01  0.45066953614E+02  0.11454156838E+03  0.81081463477E+02 0.  0.
         13    1    4    4    0    0  0.66177855672E+02 -0.30954166270E+02  0.32396266633E+02  0.79919879145E+02  0.00000000000E+00 0. -1.
        -14    1    4    4    0    0  0.10008177463E+01  0.32204245387E+02  0.12670686981E+02  0.34621689238E+02  0.00000000000E+00 0.  1.
        -11    1    3    3    0    0 -0.97732363060E+01 -0.33091198748E+02  0.55845757265E+02  0.65645199268E+02  0.00000000000E+00 0.  1.
         11    1    3    3    0    0  0.18717311397E+02  0.58523955584E+02  0.79903094788E+01  0.61961570096E+02  0.00000000000E+00 0. -1.
         -1    1    1    2    0  502 -0.76122748510E+02 -0.26682835955E+02  0.86148597372E+02  0.11801791137E+03  0.00000000000E+00 0.  1.
<scales pt_clust_5="13000.00000" pt_clust_6="13000.00000" pt_clust_7="13000.00000" pt_clust_8="13000.00000" pt_clust_9="13000.00000"></scales>
<clustering>
<clus scale="   81.081">  5  6 -1 -1</clus>
<clus scale="   80.664">  5  9 -1 -1</clus>
<clus scale="  107.152">  7  8 -1 -1</clus>
<clus scale="  110.492">  1  7  2 -1</clus>
<clus scale="  192.006">  2  5  1 -1</clus>
</clustering>
</event>
<event>
 9    1  0.2728138E-005  0.1827311E+03  0.7546771E-02  0.1182440E+00
          1   -1    0    0  502    0 -0.00000000000E+00  0.00000000000E+00  0.65997814765E+03  0.65997814765E+03  0.00000000000E+00 0. -1.
         21   -1    0    0  501  502  0.00000000000E+00 -0.00000000000E+00 -0.48815553613E+02  0.48815553613E+02  0.00000000000E+00 0. -1.
         23    2    1    2    0    0 -0.14611367322E+02  0.84280997374E+02  0.44500234406E+03  0.46181215620E+03  0.89031470996E+02 0.  0.
        -24    2    1    2    0    0  0.40970426802E+02 -0.42101725719E+01  0.50848334553E+02  0.10414256284E+03  0.81017398400E+02 0.  0.
         13    1    4    4    0    0  0.35402411817E+02  0.31299532072E+02  0.75249164764E+01  0.47849930390E+02  0.00000000000E+00 0. -1.
        -14    1    4    4    0    0  0.55680149846E+01 -0.35509704644E+02  0.43323418077E+02  0.56292632454E+02  0.00000000000E+00 0.  1.
        -13    1    3    3    0    0 -0.30965116954E+02  0.81191177110E+01  0.51233773591E+02  0.60412400190E+02  0.00000000000E+00 0.  1.
         13    1    3    3    0    0  0.16353749632E+02  0.76161879663E+02  0.39376857046E+03  0.40139975601E+03  0.00000000000E+00 0. -1.
          2    1    1    2  501    0 -0.26359059480E+02 -0.80070824802E+02  0.11531191543E+03  0.14283898222E+03  0.00000000000E+00 0. -1.
<scales pt_clust_5="13000.00000" pt_clust_6="13000.00000" pt_clust_7="13000.00000" pt_clust_8="13000.00000" pt_clust_9="13000.00000"></scales>
<clustering>
<clus scale="   81.017">  5  6 -1 -1</clus>
<clus scale="   84.298">  5  9 -1 -1</clus>
<clus scale="   89.031">  7  8 -1 -1</clus>
<clus scale="  123.464">  1  7  2 -1</clus>
<clus scale="  182.731">  2  5  1 -1</clus>
</clustering>
</event>
<event>
 9    1  0.2728138E-005  0.2101166E+03  0.7546771E-02  0.1151309E+00
         21   -1    0    0  501  502  0.00000000000E+00  0.00000000000E+00  0.18759917267E+03  0.18759917267E+03  0.00000000000E+00 0. -1.
          1   -1    0    0  502    0 -0.00000000000E+00 -0.00000000000E+00 -0.33689584111E+03  0.33689584111E+03  0.00000000000E+00 0. -1.
         23    2    1    2    0    0 -0.57460076811E+02  0.12651464198E+03 -0.24303061265E+03  0.29441889655E+03  0.91164647197E+02 0.  0.
        -24    2    1    2    0    0 -0.14789225143E+02 -0.95411456745E+02  0.83604504151E+02  0.15076675258E+03  0.80117621728E+02 0.  0.
         13    1    4    4    0    0 -0.41911168095E+02 -0.85191706891E+02  0.53505641440E+02  0.10898177187E+03  0.00000000000E+00 0. -1.
        -14    1    4    4    0    0  0.27121942952E+02 -0.10219749854E+02  0.30098862711E+02  0.41784980712E+02  0.00000000000E+00 0.  1.
        -13    1    3    3    0    0 -0.58397517349E+02  0.23167493177E+02 -0.90177004705E+02  0.10990402609E+03  0.00000000000E+00 0.  1.
         13    1    3    3    0    0  0.93744053725E+00  0.10334714880E+03 -0.15285360794E+03  0.18451487046E+03  0.00000000000E+00 0. -1.
          2    1    1    2  501    0  0.72249301954E+02 -0.31103185233E+02  0.10129440055E+02  0.79309364645E+02  0.00000000000E+00 0. -1.
<scales pt_clust_5="13000.00000" pt_clust_6="13000.00000" pt_clust_7="13000.00000" pt_clust_8="13000.00000" pt_clust_9="13000.00000"></scales>
<clustering>
<clus scale="   80.118">  5  6 -1 -1</clus>
<clus scale="   78.660">  5  9 -1 -1</clus>
<clus scale="   91.165">  7  8 -1 -1</clus>
<clus scale="  166.188">  2  7  1 -1</clus>
<clus scale="  210.117">  1  5  2 -1</clus>
</clustering>
</event>
<event>
 9    1  0.2728138E-005  0.1563987E+03  0.7546771E-02  0.1215557E+00
          1   -1    0    0  502    0 -0.00000000000E+00  0.00000000000E+00  0.83942723769E+03  0.83942723769E+03  0.00000000000E+00 0. -1.
         21   -1    0    0  501  502  0.00000000000E+00 -0.00000000000E+00 -0.22138150843E+02  0.22138150843E+02  0.00000000000E+00 0. -1.
         23    2    1    2    0    0 -0.20109533175E+02  0.23360972977E+02  0.48423233600E+03  0.49361519397E+03  0.90691102704E+02 0.  0.
        -24    2    1    2    0    0 -0.41788348204E+02  0.16277798190E+01  0.18695678337E+03  0.20732334132E+03  0.79254105855E+02 0.  0.
         11    1    4    4    0    0 -0.64635395418E+02 -0.71956993220E+01  0.13974794317E+03  0.15413954733E+03  0.00000000000E+00 0. -1.
        -12    1    4    4    0    0  0.22847047213E+02  0.88234791410E+01  0.47208840198E+02  0.53183793992E+02  0.00000000000E+00 0.  1.
        -13    1    3    3    0    0 -0.29005960919E+02  0.54860975641E+02  0.34928040251E+03  0.35475043622E+03  0.00000000000E+00 0. -1.
         13    1    3    3    0    0  0.88964277442E+01 -0.31500002664E+02  0.13495193349E+03  0.13886475776E+03  0.00000000000E+00 0.  1.
          2    1    1    2  501    0  0.61897881379E+02 -0.24988752796E+02  0.14609996748E+03  0.16062685324E+03  0.00000000000E+00 0. -1.
<scales pt_clust_5="13000.00000" pt_clust_6="13000.00000" pt_clust_7="13000.00000" pt_clust_8="13000.00000" pt_clust_9="13000.00000"></scales>
<clustering>
<clus scale="   79.254">  5  6 -1 -1</clus>
<clus scale="   66.752">  5  9 -1 -1</clus>
<clus scale="   90.691">  7  8 -1 -1</clus>
<clus scale="   95.786">  1  7  2 -1</clus>
<clus scale="  156.399">  2  5  1 -1</clus>
</clustering>
</event>
<event>
 9    1  0.2728138E-005  0.3145859E+03  0.7546771E-02  0.1124610E+00
          1   -1    0    0  502    0 -0.00000000000E+00  0.00000000000E+00  0.57378440633E+03  0.57378440633E+03  0.00000000000E+00 0. -1.
         21   -1    0    0  501  502  0.00000000000E+00 -0.00000000000E+00 -0.12364432184E+03  0.12364432184E+03  0.00000000000E+00 0. -1.
         23    2    1    2    0    0  0.10303637779E+02  0.17793948576E+02  0.35706499789E+03  0.36936280705E+03  0.92253352025E+02 0.  0.
        -24    2    1    2    0    0  0.13613483797E+03  0.15883985203E+02  0.16989147436E+02  0.15963937766E+03  0.80069374145E+02 0.  0.
         11    1    4    4    0    0  0.11535177184E+03  0.28573510771E+02 -0.14624717819E+02  0.11973453619E+03  0.00000000000E+00 0. -1.
        -12    1    4    4    0    0  0.20783066122E+02 -0.12689525568E+02  0.31613865255E+02  0.39904841473E+02  0.00000000000E+00 0.  1.
        -13    1    3    3    0    0  0.12812769962E+02 -0.34748355723E+02  0.92873826348E+02  0.99985813594E+02  0.00000000000E+00 0.  1.
         13    1    3    3    0    0 -0.25091321831E+01  0.52542304299E+02  0.26419117154E+03  0.26937699346E+03  0.00000000000E+00 0. -1.
          2    1    1    2  501    0 -0.14643847574E+03 -0.33677933779E+02  0.76085939165E+02  0.16842654346E+03  0.00000000000E+00 0. -1.
<scales pt_clust_5="13000.00000" pt_clust_6="13000.00000" pt_clust_7="13000.00000" pt_clust_8="13000.00000" pt_clust_9="13000.00000"></scales>
<clustering>
<clus scale="   80.069">  5  6 -1 -1</clus>
<clus scale="   92.253">  7  8 -1 -1</clus>
<clus scale="   94.517">  1  7  2 -1</clus>
<clus scale="  142.383">  5  9 -1 -1</clus>
<clus scale="  314.586">  2  5  1 -1</clus>
</clustering>
</event>
<event>
 9    1  0.2728138E-005  0.3173516E+03  0.7546771E-02  0.1077413E+00
         21   -1    0    0  501  502  0.00000000000E+00  0.00000000000E+00  0.26710111670E+03  0.26710111670E+03  0.00000000000E+00 0. -1.
          1   -1    0    0  502    0 -0.00000000000E+00 -0.00000000000E+00 -0.45945714647E+03  0.45945714647E+03  0.00000000000E+00 0. -1.
         23    2    1    2    0    0  0.15758715910E+03 -0.25468733403E+03  0.63231362993E+02  0.31908192073E+03  0.90087269039E+02 0.  0.
        -24    2    1    2    0    0 -0.12026571352E+03  0.16571664292E+03 -0.18729869039E+03  0.28927303856E+03  0.81683803937E+02 0.  0.
         13    1    4    4    0    0 -0.26249063374E+02  0.16513176440E+02  0.13370948227E+01  0.31040073239E+02  0.00000000000E+00 0. -1.
        -14    1    4    4    0    0 -0.94016650146E+02  0.14920346648E+03 -0.18863578521E+03  0.25823296532E+03  0.00000000000E+00 0.  1.
        -11    1    3    3    0    0  0.58803927382E+02 -0.17546873867E+03  0.50454806376E+02  0.19181466996E+03  0.00000000000E+00 0. -1.
         11    1    3    3    0    0  0.98783231719E+02 -0.79218595362E+02  0.12776556617E+02  0.12726725077E+03  0.00000000000E+00 0.  1.
          2    1    1    2  501    0 -0.37321445581E+02  0.88970691115E+02 -0.68288702374E+02  0.11820330389E+03  0.00000000000E+00 0. -1.
<scales pt_clust_5="13000.00000" pt_clust_6="13000.00000" pt_clust_7="13000.00000" pt_clust_8="13000.00000" pt_clust_9="13000.00000"></scales>
<clustering>
<clus scale="   81.684">  5  6 -1 -1</clus>
<clus scale="   90.087">  7  8 -1 -1</clus>
<clus scale="   96.482">  5  9 -1 -1</clus>
<clus scale="  312.754">  2  7  1 -1</clus>
<clus scale="  317.352">  1  5  2 -1</clus>
</clustering>
</event>
<event>
 9    1  0.2728138E-005  0.1448093E+03  0.7546771E-02  0.1228665E+00
         21   -1    0    0  501  502  0.00000000000E+00  0.00000000000E+00  0.16357563809E+03  0.16357563809E+03  0.00000000000E+00 0.  1.
         -4   -1    0    0    0  501 -0.00000000000E+00 -0.00000000000E+00 -0.92606247482E+02  0.92606247482E+02  0.00000000000E+00 0.  1.
         23    2    1    2    0    0  0.69237067461E+01  0.37182372455E+01  0.62751304949E+02  0.11113961854E+03  0.91392152474E+02 0.  0.
        -24    2    1    2    0    0  0.35747580869E+02 -0.98034595892E+01  0.32266402615E+02  0.95684488858E+02  0.82099959272E+02 0.  0.
         11    1    4    4    0    0 -0.24985185245E+01 -0.23972262914E+02 -0.18629402127E+02  0.30462544339E+02  0.00000000000E+00 0. -1.
        -12    1    4    4    0    0  0.38246099393E+02  0.14168803325E+02  0.50895804742E+02  0.65221944518E+02  0.00000000000E+00 0.  1.
        -11    1    3    3    0    0  0.41495845570E+02 -0.18388874061E+02  0.51381922812E+02  0.68557697458E+02  0.00000000000E+00 0.  1.
         11    1    3    3    0    0 -0.34572138824E+02  0.22107111306E+02  0.11369382137E+02  0.42581921086E+02  0.00000000000E+00 0. -1.
         -3    1    1    2    0  502 -0.42671287615E+02  0.60852223437E+01 -0.24048316955E+02  0.49357778172E+02  0.00000000000E+00 0.  1.
<scales pt_clust_5="13000.00000" pt_clust_6="13000.00000" pt_clust_7="13000.00000" pt_clust_8="13000.00000" pt_clust_9="13000.00000"></scales>
<clustering>
<clus scale="   82.100">  5  6 -1 -1</clus>
<clus scale="   43.103">  5  9 -1 -1</clus>
<clus scale="   91.392">  7  8 -1 -1</clus>
<clus scale="   91.729">  2  7  1 -1</clus>
<clus scale="  144.809">  1  5  2 -1</clus>
</clustering>
</event>
<event>
 9    1  0.2728138E-005  0.3568574E+03  0.7546771E-02  0.1084473E+00
         21   -1    0    0  501  502  0.00000000000E+00  0.00000000000E+00  0.94511513455E+02  0.94511513455E+02  0.00000000000E+00 0. -1.
          1   -1    0    0  502    0 -0.00000000000E+00 -0.00000000000E+00 -0.11822005259E+04  0.11822005259E+04  0.00000000000E+00 0. -1.
         23    2    1    2    0    0  0.50500840680E+02 -0.14967539515E+03 -0.64411456286E+02  0.19299430031E+03  0.90249129780E+02 0.  0.
        -24    2    1    2    0    0 -0.53988678234E+02  0.22700957680E+03 -0.53594524213E+03  0.59027521458E+03  0.82093855088E+02 0.  0.
         13    1    4    4    0    0 -0.40290249012E+02  0.17228070472E+03 -0.30560570050E+03  0.35312715779E+03  0.00000000000E+00 0. -1.
        -14    1    4    4    0    0 -0.13698429221E+02  0.54728872075E+02 -0.23033954163E+03  0.23714805679E+03  0.00000000000E+00 0.  1.
        -13    1    3    3    0    0  0.35917177760E+02 -0.10856477303E+03 -0.87175240863E+02  0.14379108533E+03  0.00000000000E+00 0. -1.
         13    1    3    3    0    0  0.14583662920E+02 -0.41110622128E+02  0.22763784577E+02  0.49203214978E+02  0.00000000000E+00 0.  1.
          2    1    1    2  501    0  0.34878375541E+01 -0.77334181645E+02 -0.48733231400E+03  0.49344252444E+03  0.00000000000E+00 0. -1.
<scales pt_clust_5="13000.00000" pt_clust_6="13000.00000" pt_clust_7="13000.00000" pt_clust_8="13000.00000" pt_clust_9="13000.00000"></scales>
<clustering>
<clus scale="   82.094">  5  6 -1 -1</clus>
<clus scale="   77.413">  5  9 -1 -1</clus>
<clus scale="   90.249">  7  8 -1 -1</clus>
<clus scale="  181.929">  2  7  1 -1</clus>
<clus scale="  356.857">  1  5  2 -1</clus>
</clustering>
</event>
<event>
 9    1  0.2728138E-005  0.4417768E+03  0.7546771E-02  0.1082439E+00
         21   -1    0    0  501  502  0.00000000000E+00  0.00000000000E+00  0.31884629198E+03  0.31884629198E+03  0.00000000000E+00 0. -1.
          1   -1    0    0  502    0 -0.00000000000E+00 -0.00000000000E+00 -0.25574845948E+03  0.25574845948E+03  0.00000000000E+00 0. -1.
         23    2    1    2    0    0 -0.20738653236E+01  0.41056913955E+02 -0.57777040781E+02  0.11658001971E+03  0.92535093090E+02 0.  0.
        -24    2    1    2    0    0 -0.20284740017E+03 -0.75625385002E+02  0.90360245490E+02  0.24796986332E+03  0.80360516028E+02 0.  0.
         13    1    4    4    0    0 -0.18211041775E+03 -0.35194113086E+02  0.72868085452E+02  0.19928017395E+03  0.00000000000E+00 0. -1.
        -14    1    4    4    0    0 -0.20736982420E+02 -0.40431271916E+02  0.17492160038E+02  0.48689689375E+02  0.00000000000E+00 0.  1.
        -13    1    3    3    0    0 -0.22087801824E+02  0.65682390289E+02 -0.35966597824E+02  0.78074602417E+02  0.00000000000E+00 0. -1.
         13    1    3    3    0    0  0.20013936501E+02 -0.24625476334E+02 -0.21810442957E+02  0.38505417293E+02  0.00000000000E+00 0.  1.
          2    1    1    2  501    0  0.20492126550E+03  0.34568471046E+02  0.30514627793E+02  0.21004486843E+03  0.00000000000E+00 0. -1.
<scales pt_clust_5="13000.00000" pt_clust_6="13000.00000" pt_clust_7="13000.00000" pt_clust_8="13000.00000" pt_clust_9="13000.00000"></scales>
<clustering>
<clus scale="   80.361">  5  6 -1 -1</clus>
<clus scale="   92.535">  7  8 -1 -1</clus>
<clus scale="  101.256">  2  7  1 -1</clus>
<clus scale="  211.485">  5  9 -1 -1</clus>
<clus scale="  441.777">  1  5  2 -1</clus>
</clustering>
</event>
<event>
 9    1  0.2728138E-005  0.3125200E+03  0.7546771E-02  0.1119391E+00
         21   -1    0    0  501  502  0.00000000000E+00  0.00000000000E+00  0.27948408387E+03  0.27948408387E+03  0.00000000000E+00 0. -1.
          1   -1    0    0  502    0 -0.00000000000E+00 -0.00000000000E+00 -0.15994939783E+03  0.15994939783E+03  0.00000000000E+00 0. -1.
         23    2    1    2    0    0 -0.42481223320E+02  0.38297673485E+02  0.40979514840E+02  0.11719181521E+03  0.93718913703E+02 0.  0.
        -24    2    1    2    0    0 -0.11633348301E+03 -0.46164487422E+02  0.73259328697E+02  0.16314407489E+03  0.74728982068E+02 0.  0.
         11    1    4    4    0    0 -0.89207849205E+02 -0.22062732475E+02  0.84823831073E+02  0.12505953319E+03  0.00000000000E+00 0. -1.
        -12    1    4    4    0    0 -0.27125633804E+02 -0.24101754947E+02 -0.11564502376E+02  0.38084541694E+02  0.00000000000E+00 0.  1.
        -11    1    3    3    0    0  0.16319145303E+02 -0.20692776811E+02  0.12489330710E+02  0.29163142786E+02  0.00000000000E+00 0.  1.
         11    1    3    3    0    0 -0.58800368622E+02  0.58990450296E+02  0.28490184130E+02  0.88028672420E+02  0.00000000000E+00 0. -1.
          2    1    1    2  501    0  0.15881470633E+03  0.78668139378E+01  0.52958425037E+01  0.15909759161E+03  0.00000000000E+00 0. -1.
<scales pt_clust_5="13000.00000" pt_clust_6="13000.00000" pt_clust_7="13000.00000" pt_clust_8="13000.00000" pt_clust_9="13000.00000"></scales>
<clustering>
<clus scale="   74.729">  5  6 -1 -1</clus>
<clus scale="   93.719">  7  8 -1 -1</clus>
<clus scale="  109.794">  2  7  1 -1</clus>
<clus scale="  135.835">  5  9 -1 -1</clus>
<clus scale="  312.520">  1  5  2 -1</clus>
</clustering>
</event>
<event>
 9    1  0.2728138E-005  0.5691567E+03  0.7546771E-02  0.1056484E+00
         -2   -1    0    0    0  501 -0.00000000000E+00  0.00000000000E+00  0.41637514373E+03  0.41637514373E+03  0.00000000000E+00 0.  1.
         21   -1    0    0  501  502  0.00000000000E+00 -0.00000000000E+00 -0.31858200951E+03  0.31858200951E+03  0.00000000000E+00 0.  1.
         23    2    1    2    0    0  0.25153027730E+02 -0.25373140632E+02 -0.93545502207E+02  0.13449910072E+03  0.89792962089E+02 0.  0.
        -24    2    1    2    0    0 -0.21420147289E+03 -0.56390403031E+02 -0.89931048127E+02  0.25183615542E+03  0.79194111021E+02 0.  0.
         13    1    4    4    0    0 -0.58485818270E+02  0.48040150566E+01  0.59794122476E+01  0.58986632979E+02  0.00000000000E+00 0. -1.
        -14    1    4    4    0    0 -0.15571565462E+03 -0.61194418087E+02 -0.95910460375E+02  0.19284952245E+03  0.00000000000E+00 0.  1.
        -13    1    3    3    0    0 -0.33579428168E+02 -0.40250660045E+01 -0.27655751586E+02  0.43687752840E+02  0.00000000000E+00 0. -1.
         13    1    3    3    0    0  0.58732455898E+02 -0.21348074627E+02 -0.65889750621E+02  0.90811347876E+02  0.00000000000E+00 0.  1.
         -1    1    1    2    0  502  0.18904844516E+03  0.81763543663E+02  0.28126968456E+03  0.34862189710E+03  0.00000000000E+00 0.  1.
<scales pt_clust_5="13000.00000" pt_clust_6="13000.00000" pt_clust_7="13000.00000" pt_clust_8="13000.00000" pt_clust_9="13000.00000"></scales>
<clustering>
<clus scale="   79.194">  5  6 -1 -1</clus>
<clus scale="   89.793">  7  8 -1 -1</clus>
<clus scale="   96.640">  1  7  2 -1</clus>
<clus scale="  217.939">  5  9 -1 -1</clus>
<clus scale="  569.157">  2  5  1 -1</clus>
</clustering>
</event>
<event>
 9    1  0.2728138E-005  0.1792366E+03  0.7546771E-02  0.1187926E+00
         21   -1    0    0  501  502  0.00000000000E+00  0.00000000000E+00  0.23872593294E+03  0.23872593294E+03  0.00000000000E+00 0. -1.
          1   -1    0    0  502    0 -0.00000000000E+00 -0.00000000000E+00 -0.11424854853E+03  0.11424854853E+03  0.00000000000E+00 0. -1.
         23    2    1    2    0    0 -0.73611077452E+02  0.34379373685E+01 -0.26331185569E+02  0.11873319779E+03  0.89296308917E+02 0.  0.
        -24    2    1    2    0    0  0.83056237457E+01  0.48958773338E+02  0.99515019003E+02  0.13605143723E+03  0.78363318538E+02 0.  0.
         13    1    4    4    0    0 -0.11027841128E+02  0.49710458348E+02  0.10434809019E+03  0.11610885787E+03  0.00000000000E+00 0. -1.
        -14    1    4    4    0    0  0.19333464874E+02 -0.75168500940E+00 -0.48330711887E+01  0.19942579359E+02  0.00000000000E+00 0.  1.
        -11    1    3    3    0    0 -0.17618784981E+02 -0.27108347515E+02 -0.42049995208E+02  0.53042305626E+02  0.00000000000E+00 0. -1.
         11    1    3    3    0    0 -0.55992292471E+02  0.30546284883E+02  0.15718809639E+02  0.65690892160E+02  0.00000000000E+00 0.  1.
          2    1    1    2  501    0  0.65305453706E+02 -0.52396710707E+02  0.51293550977E+02  0.98189846463E+02  0.00000000000E+00 0. -1.
<scales pt_clust_5="13000.00000" pt_clust_6="13000.00000" pt_clust_7="13000.00000" pt_clust_8="13000.00000" pt_clust_9="13000.00000"></scales>
<clustering>
<clus scale="   78.363">  5  6 -1 -1</clus>
<clus scale="   83.727">  5  9 -1 -1</clus>
<clus scale="   89.296">  7  8 -1 -1</clus>
<clus scale="  115.777">  2  7  1 -1</clus>
<clus scale="  179.237">  1  5  2 -1</clus>
</clustering>
</event>
<event>
 9    1  0.2728138E-005  0.4330448E+03  0.7546771E-02  0.1078943E+00
          1   -1    0    0  502    0 -0.00000000000E+00  0.00000000000E+00  0.34097159571E+03  0.34097159571E+03  0.00000000000E+00 0. -1.
         21   -1    0    0  501  502  0.00000000000E+00 -0.00000000000E+00 -0.23728625179E+03  0.23728625179E+03  0.00000000000E+00 0. -1.
         23    2    1    2    0    0 -0.52653661166E+02 -0.62645367047E+02 -0.35617298949E+02  0.12335890829E+03  0.85158547562E+02 0.  0.
        -24    2    1    2    0    0  0.20950350337E+02 -0.17449614834E+03  0.60541922913E+02  0.20301712318E+03  0.81626006340E+02 0.  0.
         11    1    4    4    0    0  0.49526195830E+02 -0.13843784605E+03  0.53560480721E+02  0.15648196825E+03  0.00000000000E+00 0. -1.
        -12    1    4    4    0    0 -0.28575845492E+02 -0.36058302292E+02  0.69814421921E+01  0.46535154935E+02  0.00000000000E+00 0.  1.
        -11    1    3    3    0    0 -0.66489748648E+02 -0.27482714341E+02 -0.75966914960E+00  0.71949728005E+02  0.00000000000E+00 0. -1.
         11    1    3    3    0    0  0.13836087482E+02 -0.35162652706E+02 -0.34857629799E+02  0.51409180283E+02  0.00000000000E+00 0.  1.
          2    1    1    2  501    0  0.31703310828E+02  0.23714151539E+03  0.78760719960E+02  0.25188181603E+03  0.00000000000E+00 0. -1.
<scales pt_clust_5="13000.00000" pt_clust_6="13000.00000" pt_clust_7="13000.00000" pt_clust_8="13000.00000" pt_clust_9="13000.00000"></scales>
<clustering>
<clus scale="   81.626">  5  6 -1 -1</clus>
<clus scale="   85.159">  7  8 -1 -1</clus>
<clus scale="  118.105">  1  7  2 -1</clus>
<clus scale="  202.297">  5  9 -1 -1</clus>
<clus scale="  433.045">  2  5  1 -1</clus>
</clustering>
</event>
<event>
 9    1  0.2728138E-005  0.1804239E+03  0.7546771E-02  0.1186408E+00
         21   -1    0    0  501  502  0.00000000000E+00  0.00000000000E+00  0.40798610508E+02  0.40798610508E+02  0.00000000000E+00 0. -1.
          1   -1    0    0  502    0 -0.00000000000E+00 -0.00000000000E+00 -0.54896463616E+03  0.54896463616E+03  0.00000000000E+00 0. -1.
         23    2    1    2    0    0  0.60123483525E+02 -0.42872484204E+02 -0.22960081528E+03  0.25787267392E+03  0.91262798578E+02 0.  0.
        -24    2    1    2    0    0  0.95974157313E+01  0.61318615810E+02 -0.11637312483E+03  0.15438694975E+03  0.80252993947E+02 0.  0.
         11    1    4    4    0    0  0.30411406388E+02  0.63221424775E+02 -0.53782544500E+02  0.88398892991E+02  0.00000000000E+00 0. -1.
        -12    1    4    4    0    0 -0.20813990657E+02 -0.19028089647E+01 -0.62590580333E+02  0.65988056764E+02  0.00000000000E+00 0.  1.
        -13    1    3    3    0    0  0.56923561714E+01 -0.24880124525E+02 -0.49191799784E+01  0.25992726806E+02  0.00000000000E+00 0. -1.
         13    1    3    3    0    0  0.54431127354E+02 -0.17992359679E+02 -0.22468163530E+03  0.23187994711E+03  0.00000000000E+00 0.  1.
          2    1    1    2  501    0 -0.69720899257E+02 -0.18446131606E+02 -0.16219208554E+03  0.17750362299E+03  0.00000000000E+00 0. -1.
<scales pt_clust_5="13000.00000" pt_clust_6="13000.00000" pt_clust_7="13000.00000" pt_clust_8="13000.00000" pt_clust_9="13000.00000"></scales>
<clustering>
<clus scale="   80.253">  5  6 -1 -1</clus>
<clus scale="   72.120">  5  9 -1 -1</clus>
<clus scale="   91.263">  7  8 -1 -1</clus>
<clus scale="  117.396">  2  7  1 -1</clus>
<clus scale="  180.424">  1  5  2 -1</clus>
</clustering>
</event>
<event>
 9    1  0.2728138E-005  0.3189307E+03  0.7546771E-02  0.1118687E+00
         21   -1    0    0  501  502  0.00000000000E+00  0.00000000000E+00  0.56820944315E+02  0.56820944315E+02  0.00000000000E+00 0. -1.
          1   -1    0    0  502    0 -0.00000000000E+00 -0.00000000000E+00 -0.81500371399E+03  0.81500371399E+03  0.00000000000E+00 0. -1.
         23    2    1    2    0    0 -0.21358411068E+02  0.43453876942E+02 -0.25813988843E+03  0.27873135846E+03  0.93330311523E+02 0.  0.
        -24    2    1    2    0    0 -0.10515775096E+03 -0.10536631779E+03 -0.19787074585E+03  0.25970540415E+03  0.78318908116E+02 0.  0.
         11    1    4    4    0    0 -0.88132728411E+02 -0.11346410083E+03 -0.14743162441E+03  0.20585811587E+03  0.00000000000E+00 0. -1.
        -12    1    4    4    0    0 -0.17025022550E+02  0.80977830409E+01 -0.50439121440E+02  0.53847288275E+02  0.00000000000E+00 0.  1.
        -13    1    3    3    0    0  0.34091732902E+02  0.30583586187E+00 -0.68999655026E+02  0.76962927319E+02  0.00000000000E+00 0.  1.
         13    1    3    3    0    0 -0.55450143970E+02  0.43148041080E+02 -0.18914023340E+03  0.20176843115E+03  0.00000000000E+00 0. -1.
          2    1    1    2  501    0  0.12651616203E+03  0.61912440843E+02 -0.30217213539E+03  0.33338789569E+03  0.00000000000E+00 0. -1.
<scales pt_clust_5="13000.00000" pt_clust_6="13000.00000" pt_clust_7="13000.00000" pt_clust_8="13000.00000" pt_clust_9="13000.00000"></scales>
<clustering>
<clus scale="   78.319">  5  6 -1 -1</clus>
<clus scale="   93.330">  7  8 -1 -1</clus>
<clus scale="  105.143">  2  7  1 -1</clus>
<clus scale="  143.591">  5  9 -1 -1</clus>
<clus scale="  318.931">  1  5  2 -1</clus>
</clustering>
</event>
<event>
 9    1  0.2728138E-005  0.1152811E+03  0.7546771E-02  0.1270835E+00
         21   -1    0    0  501  502  0.00000000000E+00  0.00000000000E+00  0.49944853466E+02  0.49944853466E+02  0.00000000000E+00 0.  1.
          1   -1    0    0  502    0 -0.00000000000E+00 -0.00000000000E+00 -0.26388457549E+03  0.26388457549E+03  0.00000000000E+00 0. -1.
         23    2    1    2    0    0 -0.44821456396E+01  0.30853095621E+02 -0.17575859208E+03  0.19239002727E+03  0.71769330251E+02 0.  0.
        -24    2    1    2    0    0  0.26048696677E+02 -0.20269796964E+02 -0.17637108078E+02  0.89829606233E+02  0.81663280041E+02 0.  0.
         13    1    4    4    0    0  0.44058835446E+02 -0.28288985810E+02  0.12487458223E+02  0.53827356538E+02  0.00000000000E+00 0. -1.
        -14    1    4    4    0    0 -0.18010138769E+02  0.80191888458E+01 -0.30124566302E+02  0.36002249695E+02  0.00000000000E+00 0.  1.
        -11    1    3    3    0    0 -0.30792611029E+02  0.38718662514E+02 -0.95315298929E+02  0.10738866761E+03  0.00000000000E+00 0.  1.
         11    1    3    3    0    0  0.26310465390E+02 -0.78655668930E+01 -0.80443293149E+02  0.85001359661E+02  0.00000000000E+00 0. -1.
          2    1    1    2  501    0 -0.21566551038E+02 -0.10583298657E+02 -0.20544021872E+02  0.31609795456E+02  0.00000000000E+00 0. -1.
<scales pt_clust_5="13000.00000" pt_clust_6="13000.00000" pt_clust_7="13000.00000" pt_clust_8="13000.00000" pt_clust_9="13000.00000"></scales>
<clustering>
<clus scale="   71.769">  7  8 -1 -1</clus>
<clus scale="   78.249">  2  7  1 -1</clus>
<clus scale="   81.663">  5  6 -1 -1</clus>
<clus scale="   23.037">  5  9 -1 -1</clus>
<clus scale="  115.281">  1  5  2 -1</clus>
</clustering>
</event>
<event>
 9    1  0.2728138E-005  0.2471339E+03  0.7546771E-02  0.1151809E+00
          1   -1    0    0  502    0 -0.00000000000E+00  0.00000000000E+00  0.56814561003E+03  0.56814561003E+03  0.00000000000E+00 0. -1.
         21   -1    0    0  501  502  0.00000000000E+00 -0.00000000000E+00 -0.58245772376E+02  0.58245772376E+02  0.00000000000E+00 0.  1.
         23    2    1    2    0    0 -0.41812718946E+02  0.79366076726E+01  0.24041692107E+03  0.26074644456E+03  0.91526603834E+02 0.  0.
        -24    2    1    2    0    0 -0.78816795429E+02  0.22567728773E+01  0.16123431842E+03  0.20324683517E+03  0.95370804263E+02 0.  0.
         13    1    4    4    0    0  0.10134508136E+01  0.27133102517E+02  0.73773782215E+01  0.28136418467E+02  0.00000000000E+00 0. -1.
        -14    1    4    4    0    0 -0.79830246243E+02 -0.24876329640E+02  0.15385694020E+03  0.17511041671E+03  0.00000000000E+00 0.  1.
        -11    1    3    3    0    0 -0.21350481631E+02 -0.41002547710E+02  0.88698361843E+02  0.10002225441E+03  0.00000000000E+00 0.  1.
         11    1    3    3    0    0 -0.20462237315E+02  0.48939155382E+02  0.15171855923E+03  0.16072419015E+03  0.00000000000E+00 0. -1.
          2    1    1    2  501    0  0.12062951438E+03 -0.10193380550E+02  0.10824859816E+03  0.16239810267E+03  0.00000000000E+00 0. -1.
<scales pt_clust_5="13000.00000" pt_clust_6="13000.00000" pt_clust_7="13000.00000" pt_clust_8="13000.00000" pt_clust_9="13000.00000"></scales>
<clustering>
<clus scale="   91.527">  7  8 -1 -1</clus>
<clus scale="   95.371">  5  6 -1 -1</clus>
<clus scale="  100.938">  1  7  2 -1</clus>
<clus scale="  103.037">  5  9 -1 -1</clus>
<clus scale="  247.134">  2  5  1 -1</clus>
</clustering>
</event>
<event>
 9    1  0.2728138E-005  0.3726444E+03  0.7546771E-02  0.1104217E+00
          1   -1    0    0  502    0 -0.00000000000E+00  0.00000000000E+00  0.39834112440E+03  0.39834112440E+03  0.00000000000E+00 0. -1.
         21   -1    0    0  501  502  0.00000000000E+00 -0.00000000000E+00 -0.15571942501E+03  0.15571942501E+03  0.00000000000E+00 0. -1.
         23    2    1    2    0    0  0.27352585983E+02  0.10976038219E+02  0.13683026030E+03  0.16669035476E+03  0.90523570745E+02 0.  0.
        -24    2    1    2    0    0  0.11147664672E+03  0.10691773498E+03 -0.35081880414E+01  0.17495808082E+03  0.82094931903E+02 0.  0.
         11    1    4    4    0    0  0.81149496359E+02  0.24749056946E+02 -0.16452219761E+02  0.86420090917E+02  0.00000000000E+00 0. -1.
        -12    1    4    4    0    0  0.30327150357E+02  0.82168678033E+02  0.12944031720E+02  0.88537989901E+02  0.00000000000E+00 0.  1.
        -13    1    3    3    0    0 -0.22217090540E+02 -0.24580868461E+02  0.36730792790E+02  0.49466850975E+02  0.00000000000E+00 0.  1.
         13    1    3    3    0    0  0.49569676523E+02  0.35556906681E+02  0.10009946751E+03  0.11722350378E+03  0.00000000000E+00 0. -1.
          2    1    1    2  501    0 -0.13882923270E+03 -0.11789377320E+03  0.10929962714E+03  0.21241211383E+03  0.00000000000E+00 0. -1.
<scales pt_clust_5="13000.00000" pt_clust_6="13000.00000" pt_clust_7="13000.00000" pt_clust_8="13000.00000" pt_clust_9="13000.00000"></scales>
<clustering>
<clus scale="   82.095">  5  6 -1 -1</clus>
<clus scale="   90.524">  7  8 -1 -1</clus>
<clus scale="   95.201">  1  7  2 -1</clus>
<clus scale="  164.011">  5  9 -1 -1</clus>
<clus scale="  372.644">  2  5  1 -1</clus>
</clustering>
</event>
<event>
 9    1  0.2728138E-005  0.2182137E+03  0.7546771E-02  0.1166331E+00
          1   -1    0    0  502    0 -0.00000000000E+00  0.00000000000E+00  0.33948381032E+03  0.33948381032E+03  0.00000000000E+00 0. -1.
         21   -1    0    0  501  502  0.00000000000E+00 -0.00000000000E+00 -0.83690054474E+02  0.83690054474E+02  0.00000000000E+00 0. -1.
         23    2    1    2    0    0  0.48452906566E+02 -0.20450165786E+01  0.29019398209E+02  0.10846155117E+03  0.92573842757E+02 0.  0.
        -24    2    1    2    0    0  0.60149669430E+02  0.25964802937E+02  0.12072833943E+03  0.16104893585E+03  0.84078975204E+02 0.  0.
         11    1    4    4    0    0  0.54902817946E+02  0.46026420206E+02  0.12064331882E+03  0.14031236992E+03  0.00000000000E+00 0. -1.
        -12    1    4    4    0    0  0.52468514840E+01 -0.20061617268E+02  0.85020605423E-01  0.20736565926E+02  0.00000000000E+00 0.  1.
        -13    1    3    3    0    0 -0.19258436728E+02 -0.91533165074E+01  0.34068438440E+02  0.40191156814E+02  0.00000000000E+00 0.  1.
         13    1    3    3    0    0  0.67711343294E+02  0.71082999288E+01 -0.50490402311E+01  0.68270394358E+02  0.00000000000E+00 0. -1.
          2    1    1    2  501    0 -0.10860257600E+03 -0.23919786359E+02  0.10604601821E+03  0.15366337778E+03  0.00000000000E+00 0. -1.
<scales pt_clust_5="13000.00000" pt_clust_6="13000.00000" pt_clust_7="13000.00000" pt_clust_8="13000.00000" pt_clust_9="13000.00000"></scales>
<clustering>
<clus scale="   84.079">  5  6 -1 -1</clus>
<clus scale="   92.574">  7  8 -1 -1</clus>
<clus scale="  104.507">  1  7  2 -1</clus>
<clus scale="   88.921">  5  9 -1 -1</clus>
<clus scale="  218.214">  2  5  1 -1</clus>
</clustering>
</event>
<event>
 9    1  0.2728138E-005  0.3621624E+03  0.7546771E-02  0.1104761E+00
         21   -1    0    0  501  502  0.00000000000E+00  0.00000000000E+00  0.55172180074E+03  0.55172180074E+03  0.00000000000E+00 0.  1.
          1   -1    0    0  502    0 -0.00000000000E+00 -0.00000000000E+00 -0.41742608980E+03  0.41742608980E+03  0.00000000000E+00 0. -1.
         23    2    1    2    0    0  0.39565959615E+02 -0.23838381267E+02  0.46657380035E+03  0.47764987420E+03  0.91239013444E+02 0.  0.
        -24    2    1    2    0    0 -0.19926489989E+02  0.18297331066E+03 -0.17332369571E+03  0.26571906736E+03  0.81787663174E+02 0.  0.
         13    1    4    4    0    0  0.26544649149E+02  0.10563720682E+03 -0.74840799728E+02  0.13215514809E+03  0.00000000000E+00 0. -1.
        -14    1    4    4    0    0 -0.46471139138E+02  0.77336103847E+02 -0.98482895982E+02  0.13356391927E+03  0.00000000000E+00 0.  1.
        -11    1    3    3    0    0  0.62768512357E+02 -0.33213925309E+02  0.40510309853E+03  0.41128040485E+03  0.00000000000E+00 0.  1.
         11    1    3    3    0    0 -0.23202552743E+02  0.93755440420E+01  0.61470701818E+02  0.66369469350E+02  0.00000000000E+00 0. -1.
          2    1    1    2  501    0 -0.19639469626E+02 -0.15913492940E+03 -0.15895439370E+03  0.22577894897E+03  0.00000000000E+00 0. -1.
<scales pt_clust_5="13000.00000" pt_clust_6="13000.00000" pt_clust_7="13000.00000" pt_clust_8="13000.00000" pt_clust_9="13000.00000"></scales>
<clustering>
<clus scale="   81.788">  5  6 -1 -1</clus>
<clus scale="   91.239">  7  8 -1 -1</clus>
<clus scale="  102.266">  2  7  1 -1</clus>
<clus scale="  170.272">  5  9 -1 -1</clus>
<clus scale="  362.162">  1  5  2 -1</clus>
</clustering>
</event>
<event>
 9    1  0.2728138E-005  0.2841752E+03  0.7546771E-02  0.1120526E+00
         21   -1    0    0  501  502  0.00000000000E+00  0.00000000000E+00  0.36450528593E+03  0.36450528593E+03  0.00000000000E+00 0.  1.
          3   -1    0    0  502    0 -0.00000000000E+00 -0.00000000000E+00 -0.12634676730E+03  0.12634676730E+03  0.00000000000E+00 0. -1.
         23    2    1    2    0    0 -0.10598709955E+03 -0.43013588613E+02  0.52205082151E+02  0.15124313258E+03  0.84057602113E+02 0.  0.
        -24    2    1    2    0    0 -0.54899445433E+02 -0.22520549192E+02  0.11463009761E+03  0.15181589031E+03  0.79917964376E+02 0.  0.
         11    1    4    4    0    0 -0.58990506698E+02  0.15007749183E+02  0.80512206507E+02  0.10093229321E+03  0.00000000000E+00 0. -1.
        -12    1    4    4    0    0  0.40910612649E+01 -0.37528298376E+02  0.34117891099E+02  0.50883597104E+02  0.00000000000E+00 0.  1.
        -13    1    3    3    0    0 -0.88601724653E+02 -0.61722113556E+02  0.61257907571E+02  0.12414675249E+03  0.00000000000E+00 0.  1.
         13    1    3    3    0    0 -0.17385374900E+02  0.18708524943E+02 -0.90528254207E+01  0.27096380091E+02  0.00000000000E+00 0. -1.
          4    1    1    2  501    0  0.16088654499E+03  0.65534137805E+02  0.71323338876E+02  0.18779303034E+03  0.00000000000E+00 0. -1.
<scales pt_clust_5="13000.00000" pt_clust_6="13000.00000" pt_clust_7="13000.00000" pt_clust_8="13000.00000" pt_clust_9="13000.00000"></scales>
<clustering>
<clus scale="   79.918">  5  6 -1 -1</clus>
<clus scale="   84.058">  7  8 -1 -1</clus>
<clus scale="  141.948">  2  7  1 -1</clus>
<clus scale="   87.020">  5  9 -1 -1</clus>
<clus scale="  284.175">  1  5  2 -1</clus>
</clustering>
</event>
<event>
 9    1  0.2728138E-005  0.4678528E+03  0.7546771E-02  0.1031422E+00
          1   -1    0    0  502    0 -0.00000000000E+00  0.00000000000E+00  0.10610681627E+04  0.10610681627E+04  0.00000000000E+00 0. -1.
         21   -1    0    0  501  502  0.00000000000E+00 -0.00000000000E+00 -0.24483374272E+03  0.24483374272E+03  0.00000000000E+00 0. -1.
         23    2    1    2    0    0  0.33101300497E+03  0.10492809265E+03  0.75260654738E+03  0.83374225239E+03  0.90166591233E+02 0.  0.
        -24    2    1    2    0    0 -0.24270142790E+02  0.12251359779E+02 -0.76543919547E+02  0.11512976789E+03  0.81588946475E+02 0.  0.
         11    1    4    4    0    0  0.18768324095E+02 -0.14609967739E+02 -0.59143951658E+00  0.23791825221E+02  0.00000000000E+00 0. -1.
        -12    1    4    4    0    0 -0.43038466885E+02  0.26861327518E+02 -0.75952480031E+02  0.91337942667E+02  0.00000000000E+00 0.  1.
        -11    1    3    3    0    0  0.23487065711E+03  0.70465932885E+02  0.61727185247E+03  0.66419440913E+03  0.00000000000E+00 0.  1.
         11    1    3    3    0    0  0.96142347860E+02  0.34462159762E+02  0.13533469491E+03  0.16954784326E+03  0.00000000000E+00 0. -1.
          2    1    1    2  501    0 -0.30674286218E+03 -0.11717945242E+03  0.14017179216E+03  0.35702988514E+03  0.00000000000E+00 0. -1.
<scales pt_clust_5="13000.00000" pt_clust_6="13000.00000" pt_clust_7="13000.00000" pt_clust_8="13000.00000" pt_clust_9="13000.00000"></scales>
<clustering>
<clus scale="   81.589">  5  6 -1 -1</clus>
<clus scale="   90.167">  7  8 -1 -1</clus>
<clus scale="  328.363">  5  9 -1 -1</clus>
<clus scale="  358.761">  1  7  2 -1</clus>
<clus scale="  467.853">  2  5  1 -1</clus>
</clustering>
</event>
<event>
 9    1  0.2728138E-005  0.3564169E+03  0.7546771E-02  0.1107321E+00
          3   -1    0    0  502    0 -0.00000000000E+00  0.00000000000E+00  0.10107456562E+03  0.10107456562E+03  0.00000000000E+00 0. -1.
         21   -1    0    0  501  502  0.00000000000E+00 -0.00000000000E+00 -0.64709863897E+03  0.64709863897E+03  0.00000000000E+00 0. -1.
         23    2    1    2    0    0  0.99306213430E+01 -0.43125061561E+02 -0.53766549982E+01  0.10061422840E+03  0.90199370083E+02 0.  0.
        -24    2    1    2    0    0  0.13618391964E+03  0.42684199272E+02 -0.12261723829E+03  0.20472843876E+03  0.80689191797E+02 0.  0.
         13    1    4    4    0    0  0.84015725317E+02 -0.15484005654E+01 -0.10426802393E+03  0.13391363059E+03  0.00000000000E+00 0. -1.
        -14    1    4    4    0    0  0.52168194324E+02  0.44232599837E+02 -0.18349214366E+02  0.70814808164E+02  0.00000000000E+00 0.  1.
        -11    1    3    3    0    0 -0.38751539758E+01 -0.19717952489E+02 -0.46880102921E+02  0.51005475378E+02  0.00000000000E+00 0.  1.
         11    1    3    3    0    0  0.13805775319E+02 -0.23407109072E+02  0.41503447923E+02  0.49608753026E+02  0.00000000000E+00 0. -1.
          4    1    1    2  501    0 -0.14611454098E+03  0.44086228929E+00 -0.41803018006E+03  0.44283053744E+03  0.00000000000E+00 0. -1.
<scales pt_clust_5="13000.00000" pt_clust_6="13000.00000" pt_clust_7="13000.00000" pt_clust_8="13000.00000" pt_clust_9="13000.00000"></scales>
<clustering>
<clus scale="   80.689">  5  6 -1 -1</clus>
<clus scale="   90.199">  7  8 -1 -1</clus>
<clus scale="  100.470">  1  7  2 -1</clus>
<clus scale="  144.129">  5  9 -1 -1</clus>
<clus scale="  356.417">  2  5  1 -1</clus>
</clustering>
</event>
<event>
 9    1  0.2728138E-005  0.1788930E+03  0.7546771E-02  0.1194050E+00
          1   -1    0    0  502    0 -0.00000000000E+00  0.00000000000E+00  0.47526860002E+03  0.47526860002E+03  0.00000000000E+00 0. -1.
         21   -1    0    0  501  502  0.00000000000E+00 -0.00000000000E+00 -0.58728494854E+02  0.58728494854E+02  0.00000000000E+00 0. -1.
         23    2    1    2    0    0 -0.41184428610E+02 -0.10369132328E+02  0.30889161223E+03  0.32521275529E+03  0.92442587754E+02 0.  0.
        -24    2    1    2    0    0 -0.31994234632E+02 -0.32202949753E+02  0.37504476283E+02  0.98840344756E+02  0.79386188898E+02 0.  0.
         13    1    4    4    0    0 -0.84387942670E+01 -0.30214495826E+02 -0.19631604183E+02  0.37007146466E+02  0.00000000000E+00 0. -1.
        -14    1    4    4    0    0 -0.23555440365E+02 -0.19884539270E+01  0.57136080466E+02  0.61833198290E+02  0.00000000000E+00 0.  1.
        -13    1    3    3    0    0  0.28436305140E+02 -0.13395873333E+02  0.11321506844E+03  0.11749776421E+03  0.00000000000E+00 0.  1.
         13    1    3    3    0    0 -0.69620733750E+02  0.30267410056E+01  0.19567654379E+03  0.20771499108E+03  0.00000000000E+00 0. -1.
          2    1    1    2  501    0  0.73178663242E+02  0.42572082081E+02  0.70144016649E+02  0.10994399483E+03  0.00000000000E+00 0. -1.
<scales pt_clust_5="13000.00000" pt_clust_6="13000.00000" pt_clust_7="13000.00000" pt_clust_8="13000.00000" pt_clust_9="13000.00000"></scales>
<clustering>
<clus scale="   79.386">  5  6 -1 -1</clus>
<clus scale="   84.661">  5  9 -1 -1</clus>
<clus scale="   92.443">  7  8 -1 -1</clus>
<clus scale="  101.732">  1  7  2 -1</clus>
<clus scale="  178.893">  2  5  1 -1</clus>
</clustering>
</event>
<event>
 9    1  0.2728138E-005  0.4497158E+03  0.7546771E-02  0.1070775E+00
         21   -1    0    0  501  502  0.00000000000E+00  0.00000000000E+00  0.70708600375E+02  0.70708600375E+02  0.00000000000E+00 0. -1.
          1   -1    0    0  502    0 -0.00000000000E+00 -0.00000000000E+00 -0.11962524219E+04  0.11962524219E+04  0.00000000000E+00 0. -1.
         23    2    1    2    0    0  0.67077604331E+02  0.67591026031E+02 -0.27131577096E+03  0.30158553422E+03  0.90959524385E+02 0.  0.
        -24    2    1    2    0    0  0.48379585301E+02  0.11701988299E+03 -0.64725570752E+03  0.66496060633E+03  0.84843501613E+02 0.  0.
         13    1    4    4    0    0  0.62206244733E+02  0.11100842457E+03 -0.46545661193E+03  0.48253740249E+03  0.00000000000E+00 0. -1.
        -14    1    4    4    0    0 -0.13826659432E+02  0.60114584179E+01 -0.18179909558E+03  0.18242320384E+03  0.00000000000E+00 0.  1.
        -11    1    3    3    0    0 -0.34356698300E+01  0.55215300089E+02 -0.15943297262E+03  0.16875842483E+03  0.00000000000E+00 0.  1.
         11    1    3    3    0    0  0.70513274161E+02  0.12375725941E+02 -0.11188279833E+03  0.13282710939E+03  0.00000000000E+00 0. -1.
          2    1    1    2  501    0 -0.11545718963E+03 -0.18461090902E+03 -0.20697234300E+03  0.30041488168E+03  0.00000000000E+00 0. -1.
<scales pt_clust_5="13000.00000" pt_clust_6="13000.00000" pt_clust_7="13000.00000" pt_clust_8="13000.00000" pt_clust_9="13000.00000"></scales>
<clustering>
<clus scale="   84.844">  5  6 -1 -1</clus>
<clus scale="   90.960">  7  8 -1 -1</clus>
<clus scale="  131.687">  2  7  1 -1</clus>
<clus scale="  191.934">  5  9 -1 -1</clus>
<clus scale="  449.716">  1  5  2 -1</clus>
</clustering>
</event>
<event>
 9    1  0.2728138E-005  0.2039160E+03  0.7546771E-02  0.1173028E+00
          1   -1    0    0  502    0 -0.00000000000E+00  0.00000000000E+00  0.15212043450E+04  0.15212043450E+04  0.00000000000E+00 0. -1.
         21   -1    0    0  501  502  0.00000000000E+00 -0.00000000000E+00 -0.16286073843E+02  0.16286073843E+02  0.00000000000E+00 0. -1.
         23    2    1    2    0    0 -0.13152975678E+02  0.60291472263E+02  0.46956602029E+03  0.48224826688E+03  0.90901491165E+02 0.  0.
        -24    2    1    2    0    0  0.46717367177E+02 -0.11007563780E+03  0.71402196211E+03  0.72835044820E+03  0.79798838318E+02 0.  0.
         13    1    4    4    0    0  0.33021185499E+02 -0.10726087217E+03  0.44391725627E+03  0.45788407245E+03  0.00000000000E+00 0. -1.
        -14    1    4    4    0    0  0.13696181678E+02 -0.28147656284E+01  0.27010470583E+03  0.27046637575E+03  0.00000000000E+00 0.  1.
        -13    1    3    3    0    0 -0.25902489638E+02  0.80518052124E+02  0.33107990278E+03  0.34171332680E+03  0.00000000000E+00 0. -1.
         13    1    3    3    0    0  0.12749513961E+02 -0.20226579861E+02  0.13848611751E+03  0.14053494008E+03  0.00000000000E+00 0.  1.
          2    1    1    2  501    0 -0.33564391499E+02  0.49784165535E+02  0.32133028878E+03  0.32689170379E+03  0.00000000000E+00 0. -1.
<scales pt_clust_5="13000.00000" pt_clust_6="13000.00000" pt_clust_7="13000.00000" pt_clust_8="13000.00000" pt_clust_9="13000.00000"></scales>
<clustering>
<clus scale="   79.799">  5  6 -1 -1</clus>
<clus scale="   60.042">  5  9 -1 -1</clus>
<clus scale="   90.901">  7  8 -1 -1</clus>
<clus scale="  109.869">  1  7  2 -1</clus>
<clus scale="  203.916">  2  5  1 -1</clus>
</clustering>
</event>
<event>
 9    1  0.2728138E-005  0.4841562E+03  0.7546771E-02  0.1034529E+00
         21   -1    0    0  501  502  0.00000000000E+00  0.00000000000E+00  0.48882071888E+03  0.48882071888E+03  0.00000000000E+00 0. -1.
          1   -1    0    0  502    0 -0.00000000000E+00 -0.00000000000E+00 -0.31198666046E+03  0.31198666046E+03  0.00000000000E+00 0. -1.
         23    2    1    2    0    0  0.27856606479E+03 -0.38414505651E+02  0.91284226377E+02  0.30915096928E+03  0.90370266824E+02 0.  0.
        -24    2    1    2    0    0  0.22446903526E+02 -0.11569597155E+03  0.51252006400E+02  0.15175173648E+03  0.80699442713E+02 0.  0.
         11    1    4    4    0    0  0.65400024428E+01 -0.82259454541E+02  0.71819268921E+02  0.10939559809E+03  0.00000000000E+00 0. -1.
        -12    1    4    4    0    0  0.15906901083E+02 -0.33436517005E+02 -0.20567262521E+02  0.42356138387E+02  0.00000000000E+00 0.  1.
        -11    1    3    3    0    0  0.18933966544E+02  0.21623821778E+02  0.11762189763E+02  0.31055335539E+02  0.00000000000E+00 0.  1.
         11    1    3    3    0    0  0.25963209824E+03 -0.60038327429E+02  0.79522036613E+02  0.27809563374E+03  0.00000000000E+00 0. -1.
          2    1    1    2  501    0 -0.30101296831E+03  0.15411047720E+03  0.34297825639E+02  0.33990467358E+03  0.00000000000E+00 0. -1.
<scales pt_clust_5="13000.00000" pt_clust_6="13000.00000" pt_clust_7="13000.00000" pt_clust_8="13000.00000" pt_clust_9="13000.00000"></scales>
<clustering>
<clus scale="   80.699">  5  6 -1 -1</clus>
<clus scale="   90.370">  7  8 -1 -1</clus>
<clus scale="  295.367">  2  7  1 -1</clus>
<clus scale="  155.006">  5  9 -1 -1</clus>
<clus scale="  484.156">  1  5  2 -1</clus>
</clustering>
</event>
<event>
 9    1  0.2728138E-005  0.6895406E+03  0.7546771E-02  0.1013041E+00
         21   -1    0    0  501  502  0.00000000000E+00  0.00000000000E+00  0.15449013070E+03  0.15449013070E+03  0.00000000000E+00 0. -1.
          1   -1    0    0  502    0 -0.00000000000E+00 -0.00000000000E+00 -0.12839391066E+04  0.12839391066E+04  0.00000000000E+00 0. -1.
         23    2    1    2    0    0 -0.69955727854E+02 -0.15758804945E+03 -0.32386906976E+03  0.37804006974E+03  0.91078662675E+02 0.  0.
        -24    2    1    2    0    0 -0.25715895672E+03 -0.75671942392E+02 -0.25728730490E+03  0.38065464789E+03  0.82729872524E+02 0.  0.
         13    1    4    4    0    0 -0.18475831085E+03 -0.81446773144E+02 -0.15193458184E+03  0.25269215944E+03  0.00000000000E+00 0. -1.
        -14    1    4    4    0    0 -0.72400645868E+02  0.57748307518E+01 -0.10535272307E+03  0.12796248845E+03  0.00000000000E+00 0.  1.
        -13    1    3    3    0    0 -0.32984368896E+02 -0.46141125396E+02 -0.36087037692E+02  0.67225339967E+02  0.00000000000E+00 0.  1.
         13    1    3    3    0    0 -0.36971358958E+02 -0.11144692405E+03 -0.28778203207E+03  0.31081472978E+03  0.00000000000E+00 0. -1.
          2    1    1    2  501    0  0.32711468457E+03  0.23325999184E+03 -0.54829260126E+03  0.67973451968E+03  0.00000000000E+00 0. -1.
<scales pt_clust_5="13000.00000" pt_clust_6="13000.00000" pt_clust_7="13000.00000" pt_clust_8="13000.00000" pt_clust_9="13000.00000"></scales>
<clustering>
<clus scale="   82.730">  5  6 -1 -1</clus>
<clus scale="   91.079">  7  8 -1 -1</clus>
<clus scale="  194.995">  2  7  1 -1</clus>
<clus scale="  309.494">  5  9 -1 -1</clus>
<clus scale="  689.541">  1  5  2 -1</clus>
</clustering>
</event>
<event>
 9    1  0.2728138E-005  0.2122657E+03  0.7546771E-02  0.1141871E+00
          1   -1    0    0  502    0 -0.00000000000E+00  0.00000000000E+00  0.19297668363E+03  0.19297668363E+03  0.00000000000E+00 0. -1.
         21   -1    0    0  501  502  0.00000000000E+00 -0.00000000000E+00 -0.36541196965E+03  0.36541196965E+03  0.00000000000E+00 0. -1.
         23    2    1    2    0    0 -0.15740175147E+03 -0.87887068310E+02  0.89865588811E+02  0.22095940978E+03  0.90817336322E+02 0.  0.
        -24    2    1    2    0    0  0.74506693931E+02  0.55481219604E+02 -0.15436544917E+03  0.19753004512E+03  0.80993911230E+02 0.  0.
         13    1    4    4    0    0  0.20784344009E+02  0.65375233422E+02 -0.87696487468E+02  0.11133994798E+03  0.00000000000E+00 0. -1.
        -14    1    4    4    0    0  0.53722349921E+02 -0.98940138180E+01 -0.66668961705E+02  0.86190097142E+02  0.00000000000E+00 0.  1.
        -13    1    3    3    0    0 -0.62758157909E+02 -0.18368817189E+02 -0.10811486940E+02  0.66278866005E+02  0.00000000000E+00 0.  1.
         13    1    3    3    0    0 -0.94643593562E+02 -0.69518251121E+02  0.10067707575E+03  0.15468054378E+03  0.00000000000E+00 0. -1.
          2    1    1    2  501    0  0.82895057541E+02  0.32405848706E+02 -0.10793542565E+03  0.13989919838E+03  0.00000000000E+00 0. -1.
<scales pt_clust_5="13000.00000" pt_clust_6="13000.00000" pt_clust_7="13000.00000" pt_clust_8="13000.00000" pt_clust_9="13000.00000"></scales>
<clustering>
<clus scale="   80.994">  5  6 -1 -1</clus>
<clus scale="   89.004">  5  9 -1 -1</clus>
<clus scale="   90.817">  7  8 -1 -1</clus>
<clus scale="  201.859">  1  7  2 -1</clus>
<clus scale="  212.266">  2  5  1 -1</clus>
</clustering>
</event>
<event>
 9    1  0.2728138E-005  0.2808124E+03  0.7546771E-02  0.1101104E+00
          1   -1    0    0  502    0 -0.00000000000E+00  0.00000000000E+00  0.20966683681E+03  0.20966683681E+03  0.00000000000E+00 0. -1.
         21   -1    0    0  501  502  0.00000000000E+00 -0.00000000000E+00 -0.61548216121E+03  0.61548216121E+03  0.00000000000E+00 0. -1.
         23    2    1    2    0    0  0.16776003355E+03 -0.14815398485E+03  0.88350536735E+02  0.25676930058E+03  0.89619329912E+02 0.  0.
        -24    2    1    2    0    0 -0.29637218370E+02  0.40568738044E+02 -0.24614711933E+03  0.26479149989E+03  0.83677636450E+02 0.  0.
         13    1    4    4    0    0 -0.51607684734E+02  0.57050251601E+01 -0.17533617007E+03  0.18286244276E+03  0.00000000000E+00 0. -1.
        -14    1    4    4    0    0  0.21970466364E+02  0.34863712884E+02 -0.70810949260E+02  0.81929057137E+02  0.00000000000E+00 0.  1.
        -13    1    3    3    0    0  0.88749655562E+02 -0.48885225944E+02 -0.14466998825E+01  0.10133291478E+03  0.00000000000E+00 0.  1.
         13    1    3    3    0    0  0.79010377991E+02 -0.99268758910E+02  0.89797236618E+02  0.15543638580E+03  0.00000000000E+00 0. -1.
          2    1    1    2  501    0 -0.13812281518E+03  0.10758524681E+03 -0.24801874180E+03  0.30358819754E+03  0.00000000000E+00 0. -1.
<scales pt_clust_5="13000.00000" pt_clust_6="13000.00000" pt_clust_7="13000.00000" pt_clust_8="13000.00000" pt_clust_9="13000.00000"></scales>
<clustering>
<clus scale="   83.678">  5  6 -1 -1</clus>
<clus scale="   89.619">  7  8 -1 -1</clus>
<clus scale="  175.079">  5  9 -1 -1</clus>
<clus scale="  241.091">  1  7  2 -1</clus>
<clus scale="  280.812">  2  5  1 -1</clus>
</clustering>
</event>
<event>
 9    1  0.2728138E-005  0.2030710E+03  0.7546771E-02  0.1174987E+00
          1   -1    0    0  502    0 -0.00000000000E+00  0.00000000000E+00  0.10805237690E+04  0.10805237690E+04  0.00000000000E+00 0. -1.
         21   -1    0    0  501  502  0.00000000000E+00 -0.00000000000E+00 -0.23189642543E+02  0.23189642543E+02  0.00000000000E+00 0. -1.
         23    2    1    2    0    0  0.38299330458E+02 -0.38572939838E+02  0.26010666291E+03  0.28102911932E+03  0.91472287664E+02 0.  0.
        -24    2    1    2    0    0  0.47873414494E+02  0.75705575907E+02  0.33743753916E+03  0.35341747132E+03  0.54923748632E+02 0.  0.
         13    1    4    4    0    0  0.27451920683E+02  0.53323819668E+02  0.12292385684E+03  0.13677467702E+03  0.00000000000E+00 0. -1.
        -14    1    4    4    0    0  0.20421493810E+02  0.22381756239E+02  0.21451368232E+03  0.21664279430E+03  0.00000000000E+00 0.  1.
        -11    1    3    3    0    0  0.53497267361E+02 -0.59795894262E+02  0.20045999143E+03  0.21592062141E+03  0.00000000000E+00 0. -1.
         11    1    3    3    0    0 -0.15197936903E+02  0.21222954424E+02  0.59646671488E+02  0.65108497911E+02  0.00000000000E+00 0.  1.
          2    1    1    2  501    0 -0.86172744951E+02 -0.37132636069E+02  0.45978992434E+03  0.46926682086E+03  0.00000000000E+00 0. -1.
<scales pt_clust_5="13000.00000" pt_clust_6="13000.00000" pt_clust_7="13000.00000" pt_clust_8="13000.00000" pt_clust_9="13000.00000"></scales>
<clustering>
<clus scale="   54.924">  5  6 -1 -1</clus>
<clus scale="   91.472">  7  8 -1 -1</clus>
<clus scale="   93.833">  5  9 -1 -1</clus>
<clus scale="  106.404">  1  7  2 -1</clus>
<clus scale="  203.071">  2  5  1 -1</clus>
</clustering>
</event>
<event>
 9    1  0.2728138E-005  0.4227250E+03  0.7546771E-02  0.1078378E+00
          1   -1    0    0  502    0 -0.00000000000E+00  0.00000000000E+00  0.76977729887E+03  0.76977729887E+03  0.00000000000E+00 0. -1.
         21   -1    0    0  501  502  0.00000000000E+00 -0.00000000000E+00 -0.10448673237E+03  0.10448673237E+03  0.00000000000E+00 0. -1.
         23    2    1    2    0    0  0.20793401720E+02 -0.92487927393E+02  0.78077450789E+02  0.15072017616E+03  0.87373342116E+02 0.  0.
        -24    2    1    2    0    0 -0.13265411843E+02  0.21010241273E+03  0.55901349261E+03  0.60236194002E+03  0.77619758321E+02 0.  0.
         13    1    4    4    0    0 -0.29077415594E+02  0.17152602397E+03  0.37077313475E+03  0.40955999615E+03  0.00000000000E+00 0. -1.
        -14    1    4    4    0    0  0.15812003750E+02  0.38576388756E+02  0.18824035786E+03  0.19280194387E+03  0.00000000000E+00 0.  1.
        -11    1    3    3    0    0 -0.13325735800E+01 -0.71849286658E+02  0.92555142195E+02  0.11717742996E+03  0.00000000000E+00 0. -1.
         11    1    3    3    0    0  0.22125975300E+02 -0.20638640734E+02 -0.14477691406E+02  0.33542746202E+02  0.00000000000E+00 0.  1.
          2    1    1    2  501    0 -0.75279898769E+01 -0.11761448534E+03  0.28199623107E+02  0.12118191505E+03  0.00000000000E+00 0. -1.
<scales pt_clust_5="13000.00000" pt_clust_6="13000.00000" pt_clust_7="13000.00000" pt_clust_8="13000.00000" pt_clust_9="13000.00000"></scales>
<clustering>
<clus scale="   77.620">  5  6 -1 -1</clus>
<clus scale="   87.373">  7  8 -1 -1</clus>
<clus scale="  117.855">  5  9 -1 -1</clus>
<clus scale="  128.921">  1  7  2 -1</clus>
<clus scale="  422.725">  2  5  1 -1</clus>
</clustering>
</event>
<event>
 9    1  0.2728138E-005  0.1971163E+03  0.7546771E-02  0.1179954E+00
          1   -1    0    0  502    0 -0.00000000000E+00  0.00000000000E+00  0.58852297074E+03  0.58852297074E+03  0.00000000000E+00 0. -1.
         21   -1    0    0  501  502  0.00000000000E+00 -0.00000000000E+00 -0.40425693841E+02  0.40425693841E+02  0.00000000000E+00 0. -1.
         23    2    1    2    0    0 -0.10722763535E+02  0.44960711184E+02  0.25846449319E+03  0.27860315988E+03  0.93163207574E+02 0.  0.
        -24    2    1    2    0    0 -0.17705116543E+01  0.52730252674E+02  0.10712940621E+03  0.14296399843E+03  0.78602677527E+02 0.  0.
         11    1    4    4    0    0  0.11080516180E+01  0.34027892179E+02 -0.13207713733E+00  0.34046184352E+02  0.00000000000E+00 0. -1.
        -12    1    4    4    0    0 -0.28785632723E+01  0.18702360495E+02  0.10726148334E+03  0.10891781408E+03  0.00000000000E+00 0.  1.
        -11    1    3    3    0    0 -0.41099806920E+02  0.19541787444E+02  0.21514307253E+03  0.21990365445E+03  0.00000000000E+00 0. -1.
         11    1    3    3    0    0  0.30377043385E+02  0.25418923741E+02  0.43321420669E+02  0.58699505430E+02  0.00000000000E+00 0.  1.
          2    1    1    2  501    0  0.12493275189E+02 -0.97690963858E+02  0.18250337750E+03  0.20738150627E+03  0.00000000000E+00 0. -1.
<scales pt_clust_5="13000.00000" pt_clust_6="13000.00000" pt_clust_7="13000.00000" pt_clust_8="13000.00000" pt_clust_9="13000.00000"></scales>
<clustering>
<clus scale="   78.603">  5  6 -1 -1</clus>
<clus scale="   93.163">  7  8 -1 -1</clus>
<clus scale="   98.487">  5  9 -1 -1</clus>
<clus scale="  103.999">  1  7  2 -1</clus>
<clus scale="  197.116">  2  5  1 -1</clus>
</clustering>
</event>
<event>
 9    1  0.2728138E-005  0.2106183E+03  0.7546771E-02  0.1152257E+00
          1   -1    0    0  502    0 -0.00000000000E+00  0.00000000000E+00  0.36832810774E+03  0.36832810774E+03  0.00000000000E+00 0. -1.
         21   -1    0    0  501  502  0.00000000000E+00 -0.00000000000E+00 -0.96522474686E+02  0.96522474686E+02  0.00000000000E+00 0. -1.
         23    2    1    2    0    0 -0.13383042841E+03 -0.11861958943E+02  0.15629239736E+03  0.22463533021E+03  0.89344437259E+02 0.  0.
        -24    2    1    2    0    0  0.43365892639E+01  0.24175909739E+01  0.47200784854E+02  0.93503148411E+02  0.80562236311E+02 0.  0.
         13    1    4    4    0    0 -0.83647264998E+01 -0.35393822786E+02  0.37937019048E+02  0.52553865272E+02  0.00000000000E+00 0. -1.
        -14    1    4    4    0    0  0.12701315764E+02  0.37811413760E+02  0.92637658062E+01  0.40949283139E+02  0.00000000000E+00 0.  1.
        -13    1    3    3    0    0 -0.39573794590E+02 -0.33557114505E+02  0.10017105508E+03  0.11281137100E+03  0.00000000000E+00 0.  1.
         13    1    3    3    0    0 -0.94256633818E+02  0.21695155562E+02  0.56121342282E+02  0.11182395921E+03  0.00000000000E+00 0. -1.
          2    1    1    2  501    0  0.12949383914E+03  0.94443679692E+01  0.68312450839E+02  0.14671210380E+03  0.00000000000E+00 0. -1.
<scales pt_clust_5="13000.00000" pt_clust_6="13000.00000" pt_clust_7="13000.00000" pt_clust_8="13000.00000" pt_clust_9="13000.00000"></scales>
<clustering>
<clus scale="   80.562">  5  6 -1 -1</clus>
<clus scale="   89.344">  7  8 -1 -1</clus>
<clus scale="  129.838">  5  9 -1 -1</clus>
<clus scale="  161.350">  1  7  2 -1</clus>
<clus scale="  210.618">  2  5  1 -1</clus>
</clustering>
</event>
<event>
 9    1  0.2728138E-005  0.1065964E+03  0.7546771E-02  0.1276292E+00
         21   -1    0    0  501  502  0.00000000000E+00  0.00000000000E+00  0.24167499638E+02  0.24167499638E+02  0.00000000000E+00 0.  1.
          1   -1    0    0  502    0 -0.00000000000E+00 -0.00000000000E+00 -0.39633579909E+03  0.39633579909E+03  0.00000000000E+00 0. -1.
         23    2    1    2    0    0  0.17075745860E+02 -0.11326160168E+01 -0.16603534010E+03  0.18843951955E+03  0.87457729507E+02 0.  0.
        -24    2    1    2    0    0 -0.11395083925E+02  0.25679947316E+02 -0.14832736363E+03  0.16900564497E+03  0.75977586143E+02 0.  0.
         13    1    4    4    0    0  0.18023750304E+02  0.17382518642E+02 -0.13199536974E+03  0.13434948888E+03  0.00000000000E+00 0. -1.
        -14    1    4    4    0    0 -0.29418834229E+02  0.82974286741E+01 -0.16331993888E+02  0.34656156082E+02  0.00000000000E+00 0.  1.
        -13    1    3    3    0    0  0.27246239040E+02 -0.26899466137E+02 -0.15319457852E+03  0.15790667404E+03  0.00000000000E+00 0. -1.
         13    1    3    3    0    0 -0.10170493180E+02  0.25766850120E+02 -0.12840761580E+02  0.30532845504E+02  0.00000000000E+00 0.  1.
          2    1    1    2  501    0 -0.56806619351E+01 -0.24547331299E+02 -0.57805595724E+02  0.63058134218E+02  0.00000000000E+00 0. -1.
<scales pt_clust_5="13000.00000" pt_clust_6="13000.00000" pt_clust_7="13000.00000" pt_clust_8="13000.00000" pt_clust_9="13000.00000"></scales>
<clustering>
<clus scale="   75.978">  5  6 -1 -1</clus>
<clus scale="   25.196">  5  9 -1 -1</clus>
<clus scale="   87.458">  7  8 -1 -1</clus>
<clus scale="   89.116">  2  7  1 -1</clus>
<clus scale="  106.596">  1  5  2 -1</clus>
</clustering>
</event>
<event>
 9    1  0.2728138E-005  0.2612647E+03  0.7546771E-02  0.1126612E+00
         21   -1    0    0  501  502  0.00000000000E+00  0.00000000000E+00  0.49806736221E+02  0.49806736221E+02  0.00000000000E+00 0.  1.
          1   -1    0    0  502    0 -0.00000000000E+00 -0.00000000000E+00 -0.98870297169E+03  0.98870297169E+03  0.00000000000E+00 0. -1.
         23    2    1    2    0    0 -0.99120803833E+02 -0.77539705563E+02 -0.19680833743E+03  0.25177360157E+03  0.93909983895E+02 0.  0.
        -24    2    1    2    0    0  0.92066950640E+02 -0.28589020733E+02 -0.57944105901E+03  0.59239862247E+03  0.76749798254E+02 0.  0.
         13    1    4    4    0    0  0.93867940922E+02 -0.31889004224E+01 -0.38467438043E+03  0.39597441632E+03  0.00000000000E+00 0. -1.
        -14    1    4    4    0    0 -0.18009902824E+01 -0.25400120310E+02 -0.19476667858E+03  0.19642420616E+03  0.00000000000E+00 0.  1.
        -11    1    3    3    0    0 -0.15362883243E+02 -0.25971139224E+02  0.17108052726E+01  0.30223254438E+02  0.00000000000E+00 0.  1.
         11    1    3    3    0    0 -0.83757920590E+02 -0.51568566339E+02 -0.19851914270E+03  0.22155034714E+03  0.00000000000E+00 0. -1.
          2    1    1    2  501    0  0.70538531929E+01  0.10612872630E+03 -0.16264683902E+03  0.19433748386E+03  0.00000000000E+00 0. -1.
<scales pt_clust_5="13000.00000" pt_clust_6="13000.00000" pt_clust_7="13000.00000" pt_clust_8="13000.00000" pt_clust_9="13000.00000"></scales>
<clustering>
<clus scale="   76.750">  5  6 -1 -1</clus>
<clus scale="   93.910">  7  8 -1 -1</clus>
<clus scale="  106.363">  5  9 -1 -1</clus>
<clus scale="  157.024">  2  7  1 -1</clus>
<clus scale="  261.265">  1  5  2 -1</clus>
</clustering>
</event>
<event>
 9    1  0.2728138E-005  0.8116239E+03  0.7546771E-02  0.1019989E+00
          1   -1    0    0  502    0 -0.00000000000E+00  0.00000000000E+00  0.68291263973E+03  0.68291263973E+03  0.00000000000E+00 0. -1.
         21   -1    0    0  501  502  0.00000000000E+00 -0.00000000000E+00 -0.32920035326E+03  0.32920035326E+03  0.00000000000E+00 0. -1.
         23    2    1    2    0    0 -0.13590797276E+02  0.28431407420E+02 -0.46310216169E+02  0.10726418347E+03  0.91476304234E+02 0.  0.
        -24    2    1    2    0    0  0.65331656913E+02 -0.27921004246E+03  0.53727523110E+03  0.61432281787E+03  0.80631119298E+02 0.  0.
         11    1    4    4    0    0  0.61000575698E+02 -0.13071775823E+03  0.20841698565E+03  0.25346763592E+03  0.00000000000E+00 0. -1.
        -12    1    4    4    0    0  0.43310812155E+01 -0.14849228423E+03  0.32885824545E+03  0.36085518195E+03  0.00000000000E+00 0.  1.
        -11    1    3    3    0    0 -0.49516388169E+02 -0.19485032879E+01 -0.20783412147E+02  0.53736575838E+02  0.00000000000E+00 0.  1.
         11    1    3    3    0    0  0.35925590893E+02  0.30379910708E+02 -0.25526804022E+02  0.53527607636E+02  0.00000000000E+00 0. -1.
          2    1    1    2  501    0 -0.51740859638E+02  0.25077863504E+03 -0.13725272847E+03  0.29052599164E+03  0.00000000000E+00 0. -1.
<scales pt_clust_5="13000.00000" pt_clust_6="13000.00000" pt_clust_7="13000.00000" pt_clust_8="13000.00000" pt_clust_9="13000.00000"></scales>
<clustering>
<clus scale="   80.631">  5  6 -1 -1</clus>
<clus scale="   91.476">  7  8 -1 -1</clus>
<clus scale="   96.752">  1  7  2 -1</clus>
<clus scale="  259.656">  5  9 -1 -1</clus>
<clus scale="  811.624">  2  5  1 -1</clus>
</clustering>
</event>
<event>
 9    1  0.2728138E-005  0.1743640E+03  0.7546771E-02  0.1177617E+00
         21   -1    0    0  501  502  0.00000000000E+00  0.00000000000E+00  0.44713927031E+02  0.44713927031E+02  0.00000000000E+00 0.  1.
          3   -1    0    0  502    0 -0.00000000000E+00 -0.00000000000E+00 -0.10819931549E+04  0.10819931549E+04  0.00000000000E+00 0. -1.
         23    2    1    2    0    0  0.11907189357E+03 -0.47950757359E+02 -0.13612053800E+03  0.20883466449E+03  0.92767048349E+02 0.  0.
        -24    2    1    2    0    0 -0.52420813842E+02  0.24313976502E+02 -0.41373443274E+03  0.42534478341E+03  0.80018077739E+02 0.  0.
         11    1    4    4    0    0 -0.41082325899E+02 -0.15479407880E+02 -0.10439834408E+03  0.11325362606E+03  0.00000000000E+00 0. -1.
        -12    1    4    4    0    0 -0.11338487943E+02  0.39793384382E+02 -0.30933608866E+03  0.31209115735E+03  0.00000000000E+00 0.  1.
        -11    1    3    3    0    0 -0.14538392079E+01 -0.28999900122E+02 -0.45318960031E+01  0.29387853561E+02  0.00000000000E+00 0. -1.
         11    1    3    3    0    0  0.12052573278E+03 -0.18950857237E+02 -0.13158864199E+03  0.17944681093E+03  0.00000000000E+00 0.  1.
          4    1    1    2  501    0 -0.66651079728E+02  0.23636780857E+02 -0.48742425708E+03  0.49252763398E+03  0.00000000000E+00 0. -1.
<scales pt_clust_5="13000.00000" pt_clust_6="13000.00000" pt_clust_7="13000.00000" pt_clust_8="13000.00000" pt_clust_9="13000.00000"></scales>
<clustering>
<clus scale="   80.018">  5  6 -1 -1</clus>
<clus scale="   70.718">  5  9 -1 -1</clus>
<clus scale="   92.767">  7  8 -1 -1</clus>
<clus scale="  158.377">  2  7  1 -1</clus>
<clus scale="  174.364">  1  5  2 -1</clus>
</clustering>
</event>
<event>
 9    1  0.2728138E-005  0.1636030E+03  0.7546771E-02  0.1197914E+00
         21   -1    0    0  501  502  0.00000000000E+00  0.00000000000E+00  0.18785940427E+03  0.18785940427E+03  0.00000000000E+00 0. -1.
          1   -1    0    0  502    0 -0.00000000000E+00 -0.00000000000E+00 -0.11287913495E+03  0.11287913495E+03  0.00000000000E+00 0. -1.
         23    2    1    2    0    0 -0.73144002648E+02 -0.27527225803E+02  0.36981901173E+01  0.12228100438E+03  0.93974327019E+02 0.  0.
        -24    2    1    2    0    0  0.27032942739E+02  0.34542586376E+02  0.92412562433E+02  0.12725262832E+03  0.75691343312E+02 0.  0.
         13    1    4    4    0    0  0.30302892491E+02  0.54472939931E+02  0.85695081596E+02  0.10596798331E+03  0.00000000000E+00 0. -1.
        -14    1    4    4    0    0 -0.32699497522E+01 -0.19930353555E+02  0.67174808374E+01  0.21284645006E+02  0.00000000000E+00 0.  1.
        -13    1    3    3    0    0  0.19983434315E+02  0.35103339568E+01  0.12324572649E+02  0.23739317229E+02  0.00000000000E+00 0.  1.
         13    1    3    3    0    0 -0.93127436963E+02 -0.31037559760E+02 -0.86263825318E+01  0.98541687152E+02  0.00000000000E+00 0. -1.
          2    1    1    2  501    0  0.46111059909E+02 -0.70153605730E+01 -0.21130483238E+02  0.51204906520E+02  0.00000000000E+00 0. -1.
<scales pt_clust_5="13000.00000" pt_clust_6="13000.00000" pt_clust_7="13000.00000" pt_clust_8="13000.00000" pt_clust_9="13000.00000"></scales>
<clustering>
<clus scale="   75.691">  5  6 -1 -1</clus>
<clus scale="   46.642">  5  9 -1 -1</clus>
<clus scale="   93.974">  7  8 -1 -1</clus>
<clus scale="  122.225">  2  7  1 -1</clus>
<clus scale="  163.603">  1  5  2 -1</clus>
</clustering>
</event>
<event>
 9    1  0.2728138E-005  0.2184013E+03  0.7546771E-02  0.1167716E+00
         21   -1    0    0  501  502  0.00000000000E+00  0.00000000000E+00  0.37673950356E+02  0.37673950356E+02  0.00000000000E+00 0.  1.
         -4   -1    0    0    0  501 -0.00000000000E+00 -0.00000000000E+00 -0.75216686684E+03  0.75216686684E+03  0.00000000000E+00 0.  1.
         23    2    1    2    0    0  0.43312159733E+02 -0.45065733983E+00 -0.35616506481E+03  0.37020050950E+03  0.91207003960E+02 0.  0.
        -24    2    1    2    0    0  0.57076957717E+02 -0.24915251476E+02 -0.12401181606E+03  0.16346574069E+03  0.86391949855E+02 0.  0.
         13    1    4    4    0    0  0.33176007552E+02  0.31165034982E+02 -0.54587181855E+02  0.71075082170E+02  0.00000000000E+00 0. -1.
        -14    1    4    4    0    0  0.23900950165E+02 -0.56080286458E+02 -0.69424634203E+02  0.92390658523E+02  0.00000000000E+00 0.  1.
        -11    1    3    3    0    0  0.65957864998E+02 -0.22162352429E+02 -0.24245401623E+03  0.25224107478E+03  0.00000000000E+00 0.  1.
         11    1    3    3    0    0 -0.22645705265E+02  0.21711695090E+02 -0.11371104859E+03  0.11795943473E+03  0.00000000000E+00 0. -1.
         -3    1    1    2    0  502 -0.10038911745E+03  0.25365908816E+02 -0.23431603561E+03  0.25617456700E+03  0.00000000000E+00 0.  1.
<scales pt_clust_5="13000.00000" pt_clust_6="13000.00000" pt_clust_7="13000.00000" pt_clust_8="13000.00000" pt_clust_9="13000.00000"></scales>
<clustering>
<clus scale="   86.392">  5  6 -1 -1</clus>
<clus scale="   91.207">  7  8 -1 -1</clus>
<clus scale="  100.970">  2  7  1 -1</clus>
<clus scale="   77.266">  5  9 -1 -1</clus>
<clus scale="  218.401">  1  5  2 -1</clus>
</clustering>
</event>
<event>
 9    1  0.2728138E-005  0.3555430E+03  0.7546771E-02  0.1074487E+00
         21   -1    0    0  501  502  0.00000000000E+00  0.00000000000E+00  0.91083761454E+02  0.91083761454E+02  0.00000000000E+00 0.  1.
          1   -1    0    0  502    0 -0.00000000000E+00 -0.00000000000E+00 -0.98477889464E+03  0.98477889464E+03  0.00000000000E+00 0. -1.
         23    2    1    2    0    0 -0.22304875406E+03 -0.85032146145E+01 -0.31199760436E+03  0.39411282126E+03  0.90329172552E+02 0.  0.
        -24    2    1    2    0    0 -0.39331673378E+02 -0.17637981870E+02 -0.15978604427E+03  0.18421978383E+03  0.80915201742E+02 0.  0.
         11    1    4    4    0    0 -0.16833704672E+02  0.11501118278E+02 -0.14390806061E+00  0.20387987742E+02  0.00000000000E+00 0. -1.
        -12    1    4    4    0    0 -0.22497968706E+02 -0.29139100149E+02 -0.15964213621E+03  0.16383179608E+03  0.00000000000E+00 0.  1.
        -13    1    3    3    0    0 -0.14811457779E+03  0.33312086831E+02 -0.22884104796E+03  0.27461946128E+03  0.00000000000E+00 0.  1.
         13    1    3    3    0    0 -0.74934176270E+02 -0.41815301446E+02 -0.83156556398E+02  0.11949335998E+03  0.00000000000E+00 0. -1.
          2    1    1    2  501    0  0.26238042743E+03  0.26141196485E+02 -0.42191148455E+03  0.49753005100E+03  0.00000000000E+00 0. -1.
<scales pt_clust_5="13000.00000" pt_clust_6="13000.00000" pt_clust_7="13000.00000" pt_clust_8="13000.00000" pt_clust_9="13000.00000"></scales>
<clustering>
<clus scale="   80.915">  5  6 -1 -1</clus>
<clus scale="   90.329">  7  8 -1 -1</clus>
<clus scale="  240.795">  2  7  1 -1</clus>
<clus scale="  102.032">  5  9 -1 -1</clus>
<clus scale="  355.543">  1  5  2 -1</clus>
</clustering>
</event>
<event>
 9    1  0.2728138E-005  0.1315928E+03  0.7546771E-02  0.1242285E+00
          1   -1    0    0  502    0 -0.00000000000E+00  0.00000000000E+00  0.48036002047E+03  0.48036002047E+03  0.00000000000E+00 0. -1.
         21   -1    0    0  501  502  0.00000000000E+00 -0.00000000000E+00 -0.26324987565E+02  0.26324987565E+02  0.00000000000E+00 0. -1.
         23    2    1    2    0    0  0.53910365344E+01 -0.17130070395E+02  0.20882952300E+03  0.22840024401E+03  0.90743590394E+02 0.  0.
        -24    2    1    2    0    0 -0.39527236437E+02  0.27686597742E+02  0.18168894283E+03  0.20540764344E+03  0.82779695097E+02 0.  0.
         13    1    4    4    0    0 -0.46099923784E+02 -0.53838361964E+01  0.45091403621E+02  0.64710303241E+02  0.00000000000E+00 0. -1.
        -14    1    4    4    0    0  0.65726873466E+01  0.33070433939E+02  0.13659753921E+03  0.14069734020E+03  0.00000000000E+00 0.  1.
        -11    1    3    3    0    0 -0.32254905042E+01 -0.50496086657E+02  0.76970331421E+02  0.92112379601E+02  0.00000000000E+00 0.  1.
         11    1    3    3    0    0  0.86165270386E+01  0.33366016262E+02  0.13185919158E+03  0.13628786441E+03  0.00000000000E+00 0. -1.
          2    1    1    2  501    0  0.34136199903E+02 -0.10556527347E+02  0.63516567066E+02  0.72877120589E+02  0.00000000000E+00 0. -1.
<scales pt_clust_5="13000.00000" pt_clust_6="13000.00000" pt_clust_7="13000.00000" pt_clust_8="13000.00000" pt_clust_9="13000.00000"></scales>
<clustering>
<clus scale="   82.780">  5  6 -1 -1</clus>
<clus scale="   35.731">  5  9 -1 -1</clus>
<clus scale="   90.744">  7  8 -1 -1</clus>
<clus scale="   92.504">  1  7  2 -1</clus>
<clus scale="  131.593">  2  5  1 -1</clus>
</clustering>
</event>
<event>
 9    1  0.2728138E-005  0.1276988E+03  0.7546771E-02  0.1235411E+00
          1   -1    0    0  502    0 -0.00000000000E+00  0.00000000000E+00  0.59199500630E+02  0.59199500630E+02  0.00000000000E+00 0. -1.
         21   -1    0    0  501  502  0.00000000000E+00 -0.00000000000E+00 -0.26491923089E+03  0.26491923089E+03  0.00000000000E+00 0.  1.
         23    2    1    2    0    0 -0.36988234019E+02  0.65133058211E+02 -0.62145094232E+02  0.13197121813E+03  0.89128810994E+02 0.  0.
        -24    2    1    2    0    0  0.33627563584E+02 -0.34961077605E+02 -0.12549645663E+03  0.15681391621E+03  0.80549076415E+02 0.  0.
         13    1    4    4    0    0 -0.63415698823E+01  0.20031670027E+02 -0.55004403323E+02  0.58880962098E+02  0.00000000000E+00 0. -1.
        -14    1    4    4    0    0  0.39969133466E+02 -0.54992747631E+02 -0.70492053303E+02  0.97932954111E+02  0.00000000000E+00 0.  1.
        -13    1    3    3    0    0  0.25377944157E+02  0.39357674315E+02 -0.37969192544E+02  0.60288690146E+02  0.00000000000E+00 0. -1.
         13    1    3    3    0    0 -0.62366178176E+02  0.25775383896E+02 -0.24175901688E+02  0.71682527981E+02  0.00000000000E+00 0.  1.
          2    1    1    2  501    0  0.33606704348E+01 -0.30171980606E+02 -0.18078179405E+02  0.35333597186E+02  0.00000000000E+00 0. -1.
<scales pt_clust_5="13000.00000" pt_clust_6="13000.00000" pt_clust_7="13000.00000" pt_clust_8="13000.00000" pt_clust_9="13000.00000"></scales>
<clustering>
<clus scale="   80.549">  5  6 -1 -1</clus>
<clus scale="   30.359">  5  9 -1 -1</clus>
<clus scale="   89.129">  7  8 -1 -1</clus>
<clus scale="  116.423">  1  7  2 -1</clus>
<clus scale="  127.699">  2  5  1 -1</clus>
</clustering>
</event>
<event>
 9    1  0.2728138E-005  0.4325229E+03  0.7546771E-02  0.1055472E+00
          1   -1    0    0  502    0 -0.00000000000E+00  0.00000000000E+00  0.15171838401E+04  0.15171838401E+04  0.00000000000E+00 0. -1.
         21   -1    0    0  501  502  0.00000000000E+00 -0.00000000000E+00 -0.92942817148E+02  0.92942817148E+02  0.00000000000E+00 0. -1.
         23    2    1    2    0    0  0.72442909431E+02  0.19451588292E+03  0.91189801904E+03  0.93962578713E+03  0.90852731779E+02 0.  0.
        -24    2    1    2    0    0  0.49652616211E+02  0.44265405936E+02  0.33024191977E+03  0.34633328054E+03  0.80387854652E+02 0.  0.
         11    1    4    4    0    0  0.57113665137E+02  0.55700583485E+02  0.19919142534E+03  0.21457341325E+03  0.00000000000E+00 0. -1.
        -12    1    4    4    0    0 -0.74610489258E+01 -0.11435177549E+02  0.13105049443E+03  0.13175986729E+03  0.00000000000E+00 0.  1.
        -13    1    3    3    0    0  0.48078020374E+02  0.19398428344E+03  0.84815079988E+03  0.87137889440E+03  0.00000000000E+00 0. -1.
         13    1    3    3    0    0  0.24364889056E+02  0.53159948100E+00  0.63747219163E+02  0.68246892733E+02  0.00000000000E+00 0.  1.
          2    1    1    2  501    0 -0.12209552564E+03 -0.23878128885E+03  0.18210108413E+03  0.32416758957E+03  0.00000000000E+00 0. -1.
<scales pt_clust_5="13000.00000" pt_clust_6="13000.00000" pt_clust_7="13000.00000" pt_clust_8="13000.00000" pt_clust_9="13000.00000"></scales>
<clustering>
<clus scale="   80.388">  5  6 -1 -1</clus>
<clus scale="   90.853">  7  8 -1 -1</clus>
<clus scale="  226.580">  1  7  2 -1</clus>
<clus scale="  180.238">  5  9 -1 -1</clus>
<clus scale="  432.523">  2  5  1 -1</clus>
</clustering>
</event>
<event>
 9    1  0.2728138E-005  0.3805992E+03  0.7546771E-02  0.1087867E+00
          1   -1    0    0  502    0 -0.00000000000E+00  0.00000000000E+00  0.87329370368E+03  0.87329370368E+03  0.00000000000E+00 0. -1.
         21   -1    0    0  501  502  0.00000000000E+00 -0.00000000000E+00 -0.99183163739E+02  0.99183163739E+02  0.00000000000E+00 0. -1.
         23    2    1    2    0    0  0.94536477348E+02 -0.39791307072E+02  0.35428256744E+02  0.14150919028E+03  0.90825084031E+02 0.  0.
        -24    2    1    2    0    0  0.11559188840E+03 -0.16017266780E+02  0.16605049328E+03  0.21845180484E+03  0.80810811261E+02 0.  0.
         13    1    4    4    0    0  0.76731833917E+02  0.28967343670E+02  0.10506691430E+03  0.13328892608E+03  0.00000000000E+00 0. -1.
        -14    1    4    4    0    0  0.38860054486E+02 -0.44984610451E+02  0.60983578987E+02  0.85162878757E+02  0.00000000000E+00 0.  1.
        -11    1    3    3    0    0  0.87649005638E+02 -0.57021436664E+01  0.52956845263E+02  0.10256359048E+03  0.00000000000E+00 0.  1.
         11    1    3    3    0    0  0.68874717101E+01 -0.34089163406E+02 -0.17528588518E+02  0.38945599799E+02  0.00000000000E+00 0. -1.
          2    1    1    2  501    0 -0.21012836575E+03  0.55808573852E+02  0.57263178991E+03  0.61251587231E+03  0.00000000000E+00 0. -1.
<scales pt_clust_5="13000.00000" pt_clust_6="13000.00000" pt_clust_7="13000.00000" pt_clust_8="13000.00000" pt_clust_9="13000.00000"></scales>
<clustering>
<clus scale="   80.811">  5  6 -1 -1</clus>
<clus scale="   90.825">  7  8 -1 -1</clus>
<clus scale="  137.003">  1  7  2 -1</clus>
<clus scale="  141.122">  5  9 -1 -1</clus>
<clus scale="  380.599">  2  5  1 -1</clus>
</clustering>
</event>
<event>
 9    1  0.2728138E-005  0.3532400E+03  0.7546771E-02  0.1098079E+00
         21   -1    0    0  501  502  0.00000000000E+00  0.00000000000E+00  0.11161123289E+03  0.11161123289E+03  0.00000000000E+00 0.  1.
          1   -1    0    0  502    0 -0.00000000000E+00 -0.00000000000E+00 -0.59908496994E+03  0.59908496994E+03  0.00000000000E+00 0. -1.
         23    2    1    2    0    0  0.92196542487E+02  0.25355356301E+02 -0.33039908447E+02  0.13511942877E+03  0.89568565582E+02 0.  0.
        -24    2    1    2    0    0  0.55650827031E+02  0.77351612109E+02 -0.54023845810E+02  0.13656000861E+03  0.81546143938E+02 0.  0.
         13    1    4    4    0    0  0.33181949365E+02  0.76673504338E+02 -0.69989495700E+02  0.10898806145E+03  0.00000000000E+00 0. -1.
        -14    1    4    4    0    0  0.22468877666E+02  0.67810777090E+00  0.15965649890E+02  0.27571947159E+02  0.00000000000E+00 0.  1.
        -11    1    3    3    0    0  0.62697025675E+02  0.58080132937E+02 -0.31335474701E+02  0.91028187092E+02  0.00000000000E+00 0.  1.
         11    1    3    3    0    0  0.29499516812E+02 -0.32724776636E+02 -0.17044337460E+01  0.44091241675E+02  0.00000000000E+00 0. -1.
          2    1    1    2  501    0 -0.14784736952E+03 -0.10270696841E+03 -0.40040998278E+03  0.43901676545E+03  0.00000000000E+00 0. -1.
<scales pt_clust_5="13000.00000" pt_clust_6="13000.00000" pt_clust_7="13000.00000" pt_clust_8="13000.00000" pt_clust_9="13000.00000"></scales>
<clustering>
<clus scale="   81.546">  5  6 -1 -1</clus>
<clus scale="   89.569">  7  8 -1 -1</clus>
<clus scale="  131.018">  2  7  1 -1</clus>
<clus scale="  109.626">  5  9 -1 -1</clus>
<clus scale="  353.240">  1  5  2 -1</clus>
</clustering>
</event>
<event>
 9    1  0.2728138E-005  0.1991705E+03  0.7546771E-02  0.1161170E+00
          1   -1    0    0  502    0 -0.00000000000E+00  0.00000000000E+00  0.96904393738E+03  0.96904393738E+03  0.00000000000E+00 0. -1.
         21   -1    0    0  501  502  0.00000000000E+00 -0.00000000000E+00 -0.34601054489E+02  0.34601054489E+02  0.00000000000E+00 0.  1.
         23    2    1    2    0    0 -0.10233296127E+03  0.72398491820E+02  0.28511209658E+03  0.32445475846E+03  0.90930776366E+02 0.  0.
        -24    2    1    2    0    0  0.50614968010E+02 -0.10167486659E+03  0.47354430274E+03  0.49362961056E+03  0.80785718303E+02 0.  0.
         11    1    4    4    0    0  0.64732975105E+02 -0.10363901816E+03  0.38444299437E+03  0.40339536446E+03  0.00000000000E+00 0. -1.
        -12    1    4    4    0    0 -0.14118007095E+02  0.19641515609E+01  0.89101308368E+02  0.90234246096E+02  0.00000000000E+00 0.  1.
        -13    1    3    3    0    0 -0.37738409955E+01  0.22415803863E+02  0.49201374982E+01  0.23257641576E+02  0.00000000000E+00 0. -1.
         13    1    3    3    0    0 -0.98559120271E+02  0.49982687958E+02  0.28019195908E+03  0.30119711688E+03  0.00000000000E+00 0.  1.
          2    1    1    2  501    0  0.51717993256E+02  0.29276374775E+02  0.17578648357E+03  0.18556062285E+03  0.00000000000E+00 0. -1.
<scales pt_clust_5="13000.00000" pt_clust_6="13000.00000" pt_clust_7="13000.00000" pt_clust_8="13000.00000" pt_clust_9="13000.00000"></scales>
<clustering>
<clus scale="   80.786">  5  6 -1 -1</clus>
<clus scale="   59.429">  5  9 -1 -1</clus>
<clus scale="   90.931">  7  8 -1 -1</clus>
<clus scale="  154.861">  1  7  2 -1</clus>
<clus scale="  199.171">  2  5  1 -1</clus>
</clustering>
</event>
<event>
 9    1  0.2728138E-005  0.3087924E+03  0.7546771E-02  0.1109951E+00
         21   -1    0    0  501  502  0.00000000000E+00  0.00000000000E+00  0.75967453673E+02  0.75967453673E+02  0.00000000000E+00 0. -1.
          1   -1    0    0  502    0 -0.00000000000E+00 -0.00000000000E+00 -0.68105541784E+03  0.68105541784E+03  0.00000000000E+00 0. -1.
         23    2    1    2    0    0 -0.94057412961E+02 -0.62786364131E+02 -0.16348579569E+03  0.21816739636E+03  0.89891506756E+02 0.  0.
        -24    2    1    2    0    0 -0.14164956732E+01 -0.33903507823E+02 -0.37788994193E+03  0.38877734090E+03  0.84826636664E+02 0.  0.
         13    1    4    4    0    0 -0.15489206197E+01 -0.54588324932E+02 -0.14454118328E+03  0.15451355293E+03  0.00000000000E+00 0. -1.
        -14    1    4    4    0    0  0.13242494645E+00  0.20684817109E+02 -0.23334875865E+03  0.23426378798E+03  0.00000000000E+00 0.  1.
        -13    1    3    3    0    0 -0.58788384963E+02 -0.32332504944E+02 -0.15748976504E+03  0.17118554604E+03  0.00000000000E+00 0.  1.
         13    1    3    3    0    0 -0.35269027998E+02 -0.30453859187E+02 -0.59960306533E+01  0.46981850314E+02  0.00000000000E+00 0. -1.
          2    1    1    2  501    0  0.95473908635E+02  0.96689871954E+02 -0.63712226547E+02  0.15007813425E+03  0.00000000000E+00 0. -1.
<scales pt_clust_5="13000.00000" pt_clust_6="13000.00000" pt_clust_7="13000.00000" pt_clust_8="13000.00000" pt_clust_9="13000.00000"></scales>
<clustering>
<clus scale="   84.827">  5  6 -1 -1</clus>
<clus scale="   89.892">  7  8 -1 -1</clus>
<clus scale="  135.883">  5  9 -1 -1</clus>
<clus scale="  144.463">  2  7  1 -1</clus>
<clus scale="  308.792">  1  5  2 -1</clus>
</clustering>
</event>
<event>
 9    1  0.2948638E-005  0.6277166E+03  0.7546771E-02  0.1000024E+00
         21   -1    0    0  501  502  0.00000000000E+00  0.00000000000E+00  0.29914210843E+03  0.29914210843E+03  0.00000000000E+00 0. -1.
          1   -1    0    0  502    0 -0.00000000000E+00 -0.00000000000E+00 -0.95894132212E+03  0.95894132212E+03  0.00000000000E+00 0. -1.
         23    2    1    2    0    0  0.15444020221E+03 -0.34369745800E+03 -0.64182824396E+02  0.39275862235E+03  0.90333724540E+02 0.  0.
        -24    2    1    2    0    0  0.10760580422E+01 -0.43133386710E+02 -0.38991053641E+03  0.40041803524E+03  0.80266615683E+02 0.  0.
         13    1    4    4    0    0 -0.33807781211E+02 -0.36089730454E+02 -0.15151305610E+03  0.15937892233E+03  0.00000000000E+00 0. -1.
        -14    1    4    4    0    0  0.34883839253E+02 -0.70436562563E+01 -0.23839748031E+03  0.24103911291E+03  0.00000000000E+00 0.  1.
        -13    1    3    3    0    0 -0.43630995603E+01 -0.46053997728E+02  0.10029231870E+02  0.47334900828E+02  0.00000000000E+00 0.  1.
         13    1    3    3    0    0  0.15880330177E+03 -0.29764346028E+03 -0.74212056266E+02  0.34542372153E+03  0.00000000000E+00 0. -1.
          2    1    1    2  501    0 -0.15551626025E+03  0.38683084471E+03 -0.20570585289E+03  0.46490677295E+03  0.00000000000E+00 0. -1.
<scales pt_clust_5="13000.00000" pt_clust_6="13000.00000" pt_clust_7="13000.00000" pt_clust_8="13000.00000" pt_clust_9="13000.00000"></scales>
<clustering>
<clus scale="   80.267">  5  6 -1 -1</clus>
<clus scale="   90.334">  7  8 -1 -1</clus>
<clus scale="  387.479">  2  7  1 -1</clus>
<clus scale="  244.196">  5  9 -1 -1</clus>
<clus scale="  627.717">  1  5  2 -1</clus>
</clustering>
</event>
<event>
 9    1  0.2728138E-005  0.3036330E+03  0.7546771E-02  0.1116667E+00
         21   -1    0    0  501  502  0.00000000000E+00  0.00000000000E+00  0.13527797814E+03  0.13527797814E+03  0.00000000000E+00 0.  1.
          1   -1    0    0  502    0 -0.00000000000E+00 -0.00000000000E+00 -0.35063369060E+03  0.35063369060E+03  0.00000000000E+00 0. -1.
         23    2    1    2    0    0  0.64391532100E+02 -0.63440094449E+02 -0.35528747351E+02  0.13302253021E+03  0.90894370928E+02 0.  0.
        -24    2    1    2    0    0  0.66649864038E+01 -0.87506765372E+02 -0.17063757879E+02  0.11981008554E+03  0.79758565272E+02 0.  0.
         13    1    4    4    0    0 -0.26132557710E+02 -0.16729899592E+02  0.16204465043E+02  0.35005496713E+02  0.00000000000E+00 0. -1.
        -14    1    4    4    0    0  0.32797544114E+02 -0.70776865780E+02 -0.33268222921E+02  0.84804588826E+02  0.00000000000E+00 0.  1.
        -11    1    3    3    0    0  0.21595939198E+02  0.69242123799E+01  0.22756511537E+02  0.32127684702E+02  0.00000000000E+00 0.  1.
         11    1    3    3    0    0  0.42795592901E+02 -0.70364306829E+02 -0.58285258888E+02  0.10089484551E+03  0.00000000000E+00 0. -1.
          2    1    1    2  501    0 -0.71056518503E+02  0.15094685982E+03 -0.16276320723E+03  0.23307905299E+03  0.00000000000E+00 0. -1.
<scales pt_clust_5="13000.00000" pt_clust_6="13000.00000" pt_clust_7="13000.00000" pt_clust_8="13000.00000" pt_clust_9="13000.00000"></scales>
<clustering>
<clus scale="   79.759">  5  6 -1 -1</clus>
<clus scale="   90.894">  7  8 -1 -1</clus>
<clus scale="  128.190">  2  7  1 -1</clus>
<clus scale="  106.370">  5  9 -1 -1</clus>
<clus scale="  303.633">  1  5  2 -1</clus>
</clustering>
</event>
<event>
 9    1  0.2728138E-005  0.2801313E+03  0.7546771E-02  0.1124208E+00
         21   -1    0    0  501  502  0.00000000000E+00  0.00000000000E+00  0.24060273059E+03  0.24060273059E+03  0.00000000000E+00 0. -1.
          1   -1    0    0  502    0 -0.00000000000E+00 -0.00000000000E+00 -0.19990698630E+03  0.19990698630E+03  0.00000000000E+00 0. -1.
         23    2    1    2    0    0  0.22103521253E+02  0.94629352170E+02  0.80826979683E+02  0.15751839783E+03  0.93998750352E+02 0.  0.
        -24    2    1    2    0    0  0.61354606152E+02 -0.74963745434E+02  0.69326266845E+02  0.14394837636E+03  0.80814930286E+02 0.  0.
         13    1    4    4    0    0 -0.37660086443E+01 -0.40162788300E+02  0.55846521726E+02  0.68891700328E+02  0.00000000000E+00 0. -1.
        -14    1    4    4    0    0  0.65120614796E+02 -0.34800957134E+02  0.13479745119E+02  0.75056676035E+02  0.00000000000E+00 0.  1.
        -13    1    3    3    0    0  0.19616608824E+02  0.17901875838E+02 -0.18218481712E+02  0.32205614047E+02  0.00000000000E+00 0.  1.
         13    1    3    3    0    0  0.24869124290E+01  0.76727476332E+02  0.99045461395E+02  0.12531278379E+03  0.00000000000E+00 0. -1.
          2    1    1    2  501    0 -0.83458127405E+02 -0.19665606735E+02 -0.10945750223E+03  0.13904294270E+03  0.00000000000E+00 0. -1.
<scales pt_clust_5="13000.00000" pt_clust_6="13000.00000" pt_clust_7="13000.00000" pt_clust_8="13000.00000" pt_clust_9="13000.00000"></scales>
<clustering>
<clus scale="   80.815">  5  6 -1 -1</clus>
<clus scale="   85.744">  5  9 -1 -1</clus>
<clus scale="   93.999">  7  8 -1 -1</clus>
<clus scale="  135.200">  2  7  1 -1</clus>
<clus scale="  280.131">  1  5  2 -1</clus>
</clustering>
</event>
<event>
 9    1  0.2728138E-005  0.2721282E+03  0.7546771E-02  0.1133280E+00
         21   -1    0    0  501  502  0.00000000000E+00  0.00000000000E+00  0.56244660074E+03  0.56244660074E+03  0.00000000000E+00 0.  1.
          3   -1    0    0  502    0 -0.00000000000E+00 -0.00000000000E+00 -0.17317977667E+03  0.17317977667E+03  0.00000000000E+00 0. -1.
         23    2    1    2    0    0 -0.45986476611E+01 -0.75178450328E+02 -0.11364896058E+03  0.16380642550E+03  0.90793787460E+02 0.  0.
        -24    2    1    2    0    0 -0.91315918254E+02 -0.33735336698E+02  0.24627735711E+03  0.27698932349E+03  0.81202702150E+02 0.  0.
         13    1    4    4    0    0 -0.37280024332E+02  0.20764583921E+02  0.47197760365E+02  0.63628584324E+02  0.00000000000E+00 0. -1.
        -14    1    4    4    0    0 -0.54035893922E+02 -0.54499920619E+02  0.19907959674E+03  0.21336073917E+03  0.00000000000E+00 0.  1.
        -13    1    3    3    0    0 -0.26268193387E+02  0.38152992927E+01 -0.60755961137E+02  0.66301291889E+02  0.00000000000E+00 0.  1.
         13    1    3    3    0    0  0.21669545726E+02 -0.78993749621E+02 -0.52892999444E+02  0.97505133615E+02  0.00000000000E+00 0. -1.
          4    1    1    2  501    0  0.95914565915E+02  0.10891378703E+03  0.25663842755E+03  0.29483062842E+03  0.00000000000E+00 0. -1.
<scales pt_clust_5="13000.00000" pt_clust_6="13000.00000" pt_clust_7="13000.00000" pt_clust_8="13000.00000" pt_clust_9="13000.00000"></scales>
<clustering>
<clus scale="   81.203">  5  6 -1 -1</clus>
<clus scale="   90.794">  7  8 -1 -1</clus>
<clus scale="  117.968">  2  7  1 -1</clus>
<clus scale="  115.060">  5  9 -1 -1</clus>
<clus scale="  272.128">  1  5  2 -1</clus>
</clustering>
</event>
<event>
 9    1  0.2728138E-005  0.1884909E+03  0.7546771E-02  0.1185271E+00
         21   -1    0    0  501  502  0.00000000000E+00  0.00000000000E+00  0.71583706229E+02  0.71583706229E+02  0.00000000000E+00 0. -1.
          1   -1    0    0  502    0 -0.00000000000E+00 -0.00000000000E+00 -0.30259653904E+03  0.30259653904E+03  0.00000000000E+00 0. -1.
         23    2    1    2    0    0 -0.39938291015E+02  0.28339674556E+02 -0.90624163765E+02  0.13915303782E+03  0.93555462880E+02 0.  0.
        -24    2    1    2    0    0  0.66770388066E+02  0.40660302892E+02 -0.69533142880E+02  0.13255055689E+03  0.81383335029E+02 0.  0.
         13    1    4    4    0    0  0.62350121040E+02  0.39284700844E+02 -0.11800909891E+02  0.74633014064E+02  0.00000000000E+00 0. -1.
        -14    1    4    4    0    0  0.44202670269E+01  0.13756020474E+01 -0.57732232989E+02  0.57917542830E+02  0.00000000000E+00 0.  1.
        -13    1    3    3    0    0 -0.30170794801E+02  0.59203357140E+02 -0.35783178156E+02  0.75470194080E+02  0.00000000000E+00 0.  1.
         13    1    3    3    0    0 -0.97674962139E+01 -0.30863682583E+02 -0.54840985608E+02  0.63682843744E+02  0.00000000000E+00 0. -1.
          2    1    1    2  501    0 -0.26832097051E+02 -0.68999977448E+02 -0.70855526169E+02  0.10247665055E+03  0.00000000000E+00 0. -1.
<scales pt_clust_5="13000.00000" pt_clust_6="13000.00000" pt_clust_7="13000.00000" pt_clust_8="13000.00000" pt_clust_9="13000.00000"></scales>
<clustering>
<clus scale="   81.383">  5  6 -1 -1</clus>
<clus scale="   74.034">  5  9 -1 -1</clus>
<clus scale="   93.555">  7  8 -1 -1</clus>
<clus scale="  105.597">  2  7  1 -1</clus>
<clus scale="  188.491">  1  5  2 -1</clus>
</clustering>
</event>
<event>
 9    1  0.2728138E-005  0.4115074E+03  0.7546771E-02  0.1053105E+00
         21   -1    0    0  501  502  0.00000000000E+00  0.00000000000E+00  0.14141228725E+03  0.14141228725E+03  0.00000000000E+00 0. -1.
          1   -1    0    0  502    0 -0.00000000000E+00 -0.00000000000E+00 -0.16231810301E+04  0.16231810301E+04  0.00000000000E+00 0. -1.
         23    2    1    2    0    0 -0.56863712145E+02  0.26029787371E+03 -0.64271229757E+02  0.28857247322E+03  0.90304022671E+02 0.  0.
        -24    2    1    2    0    0  0.19210717247E+01  0.13541824134E+02 -0.72091486783E+03  0.72553150008E+03  0.80564504779E+02 0.  0.
         13    1    4    4    0    0  0.19167009324E+02 -0.70970800058E+01 -0.49174782350E+02  0.53253187794E+02  0.00000000000E+00 0. -1.
        -14    1    4    4    0    0 -0.17245937599E+02  0.20638904140E+02 -0.67174008548E+03  0.67227831228E+03  0.00000000000E+00 0.  1.
        -13    1    3    3    0    0  0.19567967826E+02  0.40865815625E+02 -0.28356505585E+02  0.53451021137E+02  0.00000000000E+00 0.  1.
         13    1    3    3    0    0 -0.76431679972E+02  0.21943205808E+03 -0.35914724172E+02  0.23512145208E+03  0.00000000000E+00 0. -1.
          2    1    1    2  501    0  0.54942640421E+02 -0.27383969784E+03 -0.69658264528E+03  0.75048934406E+03  0.00000000000E+00 0. -1.
<scales pt_clust_5="13000.00000" pt_clust_6="13000.00000" pt_clust_7="13000.00000" pt_clust_8="13000.00000" pt_clust_9="13000.00000"></scales>
<clustering>
<clus scale="   80.565">  5  6 -1 -1</clus>
<clus scale="   90.304">  7  8 -1 -1</clus>
<clus scale="  279.297">  5  9 -1 -1</clus>
<clus scale="  281.324">  2  7  1 -1</clus>
<clus scale="  411.507">  1  5  2 -1</clus>
</clustering>
</event>
<event>
 9    1  0.2728138E-005  0.2649723E+03  0.7546771E-02  0.1147153E+00
          1   -1    0    0  502    0 -0.00000000000E+00  0.00000000000E+00  0.20412782619E+03  0.20412782619E+03  0.00000000000E+00 0. -1.
         21   -1    0    0  501  502  0.00000000000E+00 -0.00000000000E+00 -0.19335240269E+03  0.19335240269E+03  0.00000000000E+00 0. -1.
         23    2    1    2    0    0  0.98097643821E+01  0.17202345115E+02  0.82290366570E+02  0.12302673679E+03  0.89284496859E+02 0.  0.
        -24    2    1    2    0    0 -0.17067387990E+02  0.10360576940E+03 -0.78395121718E+02  0.15323216355E+03  0.79428267337E+02 0.  0.
         13    1    4    4    0    0 -0.33558535225E+02  0.93862417594E+02 -0.86930581003E+02  0.13226206802E+03  0.00000000000E+00 0. -1.
        -14    1    4    4    0    0  0.16491147234E+02  0.97433518077E+01  0.85354592853E+01  0.20970095535E+02  0.00000000000E+00 0.  1.
        -11    1    3    3    0    0 -0.30272263225E+02 -0.17165640569E+02  0.50714414026E+02  0.61506267379E+02  0.00000000000E+00 0.  1.
         11    1    3    3    0    0  0.40082027607E+02  0.34367985683E+02  0.31575952544E+02  0.61520469407E+02  0.00000000000E+00 0. -1.
          2    1    1    2  501    0  0.72576236083E+01 -0.12080811452E+03  0.68801786524E+01  0.12122132853E+03  0.00000000000E+00 0. -1.
<scales pt_clust_5="13000.00000" pt_clust_6="13000.00000" pt_clust_7="13000.00000" pt_clust_8="13000.00000" pt_clust_9="13000.00000"></scales>
<clustering>
<clus scale="   79.428">  5  6 -1 -1</clus>
<clus scale="   89.284">  7  8 -1 -1</clus>
<clus scale="   91.454">  1  7  2 -1</clus>
<clus scale="  110.769">  5  9 -1 -1</clus>
<clus scale="  264.972">  2  5  1 -1</clus>
</clustering>
</event>
<event>
 9    1  0.2728138E-005  0.2619822E+03  0.7546771E-02  0.1144946E+00
          1   -1    0    0  502    0 -0.00000000000E+00  0.00000000000E+00  0.25797321557E+03  0.25797321557E+03  0.00000000000E+00 0. -1.
         21   -1    0    0  501  502  0.00000000000E+00 -0.00000000000E+00 -0.12686760869E+03  0.12686760869E+03  0.00000000000E+00 0. -1.
         23    2    1    2    0    0  0.34979542987E+02 -0.21130115154E+02  0.32142894313E+02  0.10479030799E+03  0.90982376317E+02 0.  0.
        -24    2    1    2    0    0  0.14489725765E+02 -0.72850877778E+02 -0.28452829637E+02  0.11417599749E+03  0.81910880496E+02 0.  0.
         13    1    4    4    0    0 -0.24142270217E+02 -0.35798418480E+02 -0.40619905374E+02  0.59281976093E+02  0.00000000000E+00 0. -1.
        -14    1    4    4    0    0  0.38631995982E+02 -0.37052459298E+02  0.12167075736E+02  0.54894021401E+02  0.00000000000E+00 0.  1.
        -11    1    3    3    0    0  0.66043593414E+02 -0.10492809442E+02  0.22803473115E+02  0.70653051364E+02  0.00000000000E+00 0.  1.
         11    1    3    3    0    0 -0.31064050427E+02 -0.10637305712E+02  0.93394211984E+01  0.34137256627E+02  0.00000000000E+00 0. -1.
          2    1    1    2  501    0 -0.49469268752E+02  0.93980992932E+02  0.12741554221E+03  0.16587451878E+03  0.00000000000E+00 0. -1.
<scales pt_clust_5="13000.00000" pt_clust_6="13000.00000" pt_clust_7="13000.00000" pt_clust_8="13000.00000" pt_clust_9="13000.00000"></scales>
<clustering>
<clus scale="   81.911">  5  6 -1 -1</clus>
<clus scale="   90.982">  7  8 -1 -1</clus>
<clus scale="   99.739">  1  7  2 -1</clus>
<clus scale="   80.797">  5  9 -1 -1</clus>
<clus scale="  261.982">  2  5  1 -1</clus>
</clustering>
</event>
<event>
 9    1  0.2728138E-005  0.1645890E+03  0.7546771E-02  0.1209050E+00
          1   -1    0    0  502    0 -0.00000000000E+00  0.00000000000E+00  0.21057677809E+03  0.21057677809E+03  0.00000000000E+00 0. -1.
         21   -1    0    0  501  502  0.00000000000E+00 -0.00000000000E+00 -0.83127424929E+02  0.83127424929E+02  0.00000000000E+00 0. -1.
         23    2    1    2    0    0  0.15464607034E+02  0.55160949954E+01  0.76243958753E+02  0.12133384330E+03  0.92947183444E+02 0.  0.
        -24    2    1    2    0    0 -0.51620811874E+02 -0.15859253976E+02 -0.12832912477E+02  0.98106257788E+02  0.80894561123E+02 0.  0.
         11    1    4    4    0    0 -0.52209044320E+02 -0.23500878379E+02 -0.40023154076E+02  0.69856484707E+02  0.00000000000E+00 0. -1.
        -12    1    4    4    0    0  0.58823244678E+00  0.76416244030E+01  0.27190241599E+02  0.28249773081E+02  0.00000000000E+00 0.  1.
        -13    1    3    3    0    0 -0.10267888963E+02 -0.38060089027E+02  0.15718253401E+02  0.42438937433E+02  0.00000000000E+00 0.  1.
         13    1    3    3    0    0  0.25732495997E+02  0.43576184022E+02  0.60525705352E+02  0.78894905872E+02  0.00000000000E+00 0. -1.
          2    1    1    2  501    0  0.36156204839E+02  0.10343158981E+02  0.64038306885E+02  0.74264101926E+02  0.00000000000E+00 0. -1.
<scales pt_clust_5="13000.00000" pt_clust_6="13000.00000" pt_clust_7="13000.00000" pt_clust_8="13000.00000" pt_clust_9="13000.00000"></scales>
<clustering>
<clus scale="   80.895">  5  6 -1 -1</clus>
<clus scale="   37.607">  5  9 -1 -1</clus>
<clus scale="   92.947">  7  8 -1 -1</clus>
<clus scale="   94.386">  1  7  2 -1</clus>
<clus scale="  164.589">  2  5  1 -1</clus>
</clustering>
</event>
<event>
 9    1  0.2728138E-005  0.1612981E+03  0.7546771E-02  0.1212012E+00
          3   -1    0    0  502    0 -0.00000000000E+00  0.00000000000E+00  0.17622679104E+03  0.17622679104E+03  0.00000000000E+00 0. -1.
         21   -1    0    0  501  502  0.00000000000E+00 -0.00000000000E+00 -0.11894049489E+03  0.11894049489E+03  0.00000000000E+00 0. -1.
         23    2    1    2    0    0  0.26946700858E+02  0.20879325938E+01 -0.44821711242E+02  0.10426648965E+03  0.90177773956E+02 0.  0.
        -24    2    1    2    0    0 -0.30197476146E+02  0.25904204821E+02  0.75280285607E+01  0.92211892686E+02  0.82845920513E+02 0.  0.
         11    1    4    4    0    0 -0.45803370033E+02  0.25837509472E+02 -0.23407810620E+02  0.57562585072E+02  0.00000000000E+00 0. -1.
        -12    1    4    4    0    0  0.15605893887E+02  0.66695348406E-01  0.30935839181E+02  0.34649307614E+02  0.00000000000E+00 0.  1.
        -13    1    3    3    0    0 -0.26510154712E+02  0.36301399718E+01 -0.43135775127E+02  0.50760824608E+02  0.00000000000E+00 0.  1.
         13    1    3    3    0    0  0.53456855570E+02 -0.15422073780E+01 -0.16859361148E+01  0.53505665042E+02  0.00000000000E+00 0. -1.
          4    1    1    2  501    0  0.32507752880E+01 -0.27992137414E+02  0.94579978830E+02  0.98688903593E+02  0.00000000000E+00 0. -1.
<scales pt_clust_5="13000.00000" pt_clust_6="13000.00000" pt_clust_7="13000.00000" pt_clust_8="13000.00000" pt_clust_9="13000.00000"></scales>
<clustering>
<clus scale="   82.846">  5  6 -1 -1</clus>
<clus scale="   28.180">  5  9 -1 -1</clus>
<clus scale="   90.178">  7  8 -1 -1</clus>
<clus scale="   94.141">  1  7  2 -1</clus>
<clus scale="  161.298">  2  5  1 -1</clus>
</clustering>
</event>
<event>
 9    1  0.2728138E-005  0.4179281E+03  0.7546771E-02  0.1045450E+00
         21   -1    0    0  501  502  0.00000000000E+00  0.00000000000E+00  0.47192384298E+03  0.47192384298E+03  0.00000000000E+00 0. -1.
          1   -1    0    0  502    0 -0.00000000000E+00 -0.00000000000E+00 -0.30002940296E+03  0.30002940296E+03  0.00000000000E+00 0. -1.
         23    2    1    2    0    0 -0.25149736452E+03 -0.20047614277E+03  0.63377695389E+02  0.34016653024E+03  0.90856633459E+02 0.  0.
        -24    2    1    2    0    0 -0.16965184235E+02  0.93015032011E+02 -0.55454869250E+01  0.12093269357E+03  0.75195414038E+02 0.  0.
         11    1    4    4    0    0  0.11915300802E+02  0.67741095758E+02  0.23627007661E+02  0.72725964681E+02  0.00000000000E+00 0. -1.
        -12    1    4    4    0    0 -0.28880485037E+02  0.25273936253E+02 -0.29172494586E+02  0.48206728888E+02  0.00000000000E+00 0.  1.
        -13    1    3    3    0    0 -0.14188134228E+03 -0.12222440401E+03  0.81571337780E+02  0.20426209480E+03  0.00000000000E+00 0.  1.
         13    1    3    3    0    0 -0.10961602224E+03 -0.78251738757E+02 -0.18193642391E+02  0.13590443544E+03  0.00000000000E+00 0. -1.
          2    1    1    2  501    0  0.26846254875E+03  0.10746111076E+03  0.11406223155E+03  0.31085402213E+03  0.00000000000E+00 0. -1.
<scales pt_clust_5="13000.00000" pt_clust_6="13000.00000" pt_clust_7="13000.00000" pt_clust_8="13000.00000" pt_clust_9="13000.00000"></scales>
<clustering>
<clus scale="   75.195">  5  6 -1 -1</clus>
<clus scale="   90.857">  7  8 -1 -1</clus>
<clus scale="  289.171">  5  9 -1 -1</clus>
<clus scale="  334.210">  2  7  1 -1</clus>
<clus scale="  417.928">  1  5  2 -1</clus>
</clustering>
</event>
<event>
 9    1  0.2728138E-005  0.5993653E+03  0.7546771E-02  0.1040613E+00
          1   -1    0    0  502    0 -0.00000000000E+00  0.00000000000E+00  0.11039562552E+04  0.11039562552E+04  0.00000000000E+00 0. -1.
         21   -1    0    0  501  502  0.00000000000E+00 -0.00000000000E+00 -0.12656804021E+03  0.12656804021E+03  0.00000000000E+00 0.  1.
         23    2    1    2    0    0 -0.29754981977E+02 -0.87958197432E+02  0.29368625187E+03  0.32130090055E+03  0.91436593923E+02 0.  0.
        -24    2    1    2    0    0 -0.15433308669E+03  0.27694920413E+03  0.30232620563E+03  0.44548479820E+03  0.80845578095E+02 0.  0.
         13    1    4    4    0    0 -0.12478051579E+03  0.14783027601E+03  0.19859289813E+03  0.27724196438E+03  0.00000000000E+00 0. -1.
        -14    1    4    4    0    0 -0.29552570906E+02  0.12911892812E+03  0.10373330750E+03  0.16824283381E+03  0.00000000000E+00 0.  1.
        -13    1    3    3    0    0 -0.60514383201E+02 -0.76378587182E+02  0.21839695691E+03  0.23915039189E+03  0.00000000000E+00 0.  1.
         13    1    3    3    0    0  0.30759401224E+02 -0.11579610250E+02  0.75289294964E+02  0.82150508662E+02  0.00000000000E+00 0. -1.
          2    1    1    2  501    0  0.18408806867E+03 -0.18899100670E+03  0.38137575752E+03  0.46373859670E+03  0.00000000000E+00 0. -1.
<scales pt_clust_5="13000.00000" pt_clust_6="13000.00000" pt_clust_7="13000.00000" pt_clust_8="13000.00000" pt_clust_9="13000.00000"></scales>
<clustering>
<clus scale="   80.846">  5  6 -1 -1</clus>
<clus scale="   91.437">  7  8 -1 -1</clus>
<clus scale="  130.318">  1  7  2 -1</clus>
<clus scale="  289.585">  5  9 -1 -1</clus>
<clus scale="  599.365">  2  5  1 -1</clus>
</clustering>
</event>
<event>
 9    1  0.2728138E-005  0.2575936E+03  0.7546771E-02  0.1118885E+00
         21   -1    0    0  501  502  0.00000000000E+00  0.00000000000E+00  0.11181687797E+03  0.11181687797E+03  0.00000000000E+00 0.  1.
          1   -1    0    0  502    0 -0.00000000000E+00 -0.00000000000E+00 -0.61605611317E+03  0.61605611317E+03  0.00000000000E+00 0. -1.
         23    2    1    2    0    0 -0.17108092510E+03 -0.73206298831E+01 -0.40641305134E+03  0.45232910755E+03  0.10053744915E+03 0.  0.
        -24    2    1    2    0    0  0.10687088240E+03 -0.74681329381E+02 -0.64903487160E+02  0.16631405770E+03  0.80307015126E+02 0.  0.
         11    1    4    4    0    0  0.94067234746E+02 -0.22857008716E+02 -0.57028990469E+02  0.11235387512E+03  0.00000000000E+00 0. -1.
        -12    1    4    4    0    0  0.12803647654E+02 -0.51824320665E+02 -0.78744966918E+01  0.53960182577E+02  0.00000000000E+00 0.  1.
        -11    1    3    3    0    0 -0.22260765241E+02  0.11272702131E+02 -0.73471674091E+01  0.26011465767E+02  0.00000000000E+00 0.  1.
         11    1    3    3    0    0 -0.14882015986E+03 -0.18593332014E+02 -0.39906588393E+03  0.42631764178E+03  0.00000000000E+00 0. -1.
          2    1    1    2  501    0  0.64210042701E+02  0.82001959264E+02 -0.32922696701E+02  0.10922982589E+03  0.00000000000E+00 0. -1.
<scales pt_clust_5="13000.00000" pt_clust_6="13000.00000" pt_clust_7="13000.00000" pt_clust_8="13000.00000" pt_clust_9="13000.00000"></scales>
<clustering>
<clus scale="   80.307">  5  6 -1 -1</clus>
<clus scale="  100.537">  7  8 -1 -1</clus>
<clus scale="  104.150">  5  9 -1 -1</clus>
<clus scale="  198.570">  2  7  1 -1</clus>
<clus scale="  257.594">  1  5  2 -1</clus>
</clustering>
</event>
<event>
 9    1  0.2728138E-005  0.2584327E+03  0.7546771E-02  0.1130482E+00
         21   -1    0    0  501  502  0.00000000000E+00  0.00000000000E+00  0.30220719018E+03  0.30220719018E+03  0.00000000000E+00 0. -1.
          1   -1    0    0  502    0 -0.00000000000E+00 -0.00000000000E+00 -0.17646566705E+03  0.17646566705E+03  0.00000000000E+00 0. -1.
         23    2    1    2    0    0 -0.51821174958E+02 -0.10395052675E+03 -0.61225786490E+02  0.15969913605E+03  0.90906935581E+02 0.  0.
        -24    2    1    2    0    0 -0.44899807060E+02 -0.26305785799E+02  0.78411941533E+02  0.12376633592E+03  0.80384614766E+02 0.  0.
         11    1    4    4    0    0 -0.58367696767E+02 -0.45481581822E+01  0.78808522029E+02  0.98174624589E+02  0.00000000000E+00 0. -1.
        -12    1    4    4    0    0  0.13467889707E+02 -0.21757627617E+02 -0.39658049598E+00  0.25591711329E+02  0.00000000000E+00 0.  1.
        -11    1    3    3    0    0  0.18453171642E+02 -0.21195709914E+02  0.10027255478E+02  0.29838289408E+02  0.00000000000E+00 0.  1.
         11    1    3    3    0    0 -0.70274346600E+02 -0.82754816838E+02 -0.71253041968E+02  0.12986084664E+03  0.00000000000E+00 0. -1.
          2    1    1    2  501    0  0.96720982018E+02  0.13025631255E+03  0.10855536809E+03  0.19520738527E+03  0.00000000000E+00 0. -1.
<scales pt_clust_5="13000.00000" pt_clust_6="13000.00000" pt_clust_7="13000.00000" pt_clust_8="13000.00000" pt_clust_9="13000.00000"></scales>
<clustering>
<clus scale="   80.385">  5  6 -1 -1</clus>
<clus scale="   90.907">  7  8 -1 -1</clus>
<clus scale="  147.496">  2  7  1 -1</clus>
<clus scale="   88.195">  5  9 -1 -1</clus>
<clus scale="  258.433">  1  5  2 -1</clus>
</clustering>
</event>
<event>
 9    1  0.2728138E-005  0.2252857E+03  0.7546771E-02  0.1161264E+00
         21   -1    0    0  501  502  0.00000000000E+00  0.00000000000E+00  0.10046070798E+04  0.10046070798E+04  0.00000000000E+00 0.  1.
         -2   -1    0    0    0  501 -0.00000000000E+00 -0.00000000000E+00 -0.30294684097E+02  0.30294684097E+02  0.00000000000E+00 0.  1.
         23    2    1    2    0    0  0.54788567561E+02 -0.11406608049E+02  0.18027299572E+03  0.20952172208E+03  0.90934598444E+02 0.  0.
        -24    2    1    2    0    0 -0.74106563682E+02 -0.69902595470E+02  0.59966813949E+03  0.61380367628E+03  0.82309901295E+02 0.  0.
         11    1    4    4    0    0 -0.37721195409E+01 -0.54344950628E+02  0.18231731165E+03  0.19028190842E+03  0.00000000000E+00 0. -1.
        -12    1    4    4    0    0 -0.70334444141E+02 -0.15557644842E+02  0.41735082785E+03  0.42352176786E+03  0.00000000000E+00 0.  1.
        -11    1    3    3    0    0 -0.24725274359E+02 -0.11283817653E+02  0.49593955322E+02  0.56552843761E+02  0.00000000000E+00 0. -1.
         11    1    3    3    0    0  0.79513841920E+02 -0.12279039571E+00  0.13067904040E+03  0.15296887832E+03  0.00000000000E+00 0.  1.
         -1    1    1    2    0  502  0.19317996121E+02  0.81309203519E+02  0.19437126044E+03  0.21157636549E+03  0.00000000000E+00 0.  1.
<scales pt_clust_5="13000.00000" pt_clust_6="13000.00000" pt_clust_7="13000.00000" pt_clust_8="13000.00000" pt_clust_9="13000.00000"></scales>
<clustering>
<clus scale="   82.310">  5  6 -1 -1</clus>
<clus scale="   83.573">  5  9 -1 -1</clus>
<clus scale="   90.935">  7  8 -1 -1</clus>
<clus scale="  106.775">  2  7  1 -1</clus>
<clus scale="  225.286">  1  5  2 -1</clus>
</clustering>
</event>
<event>
 9    1  0.2728138E-005  0.1809626E+03  0.7546771E-02  0.1182325E+00
         -2   -1    0    0    0  501 -0.00000000000E+00  0.00000000000E+00  0.13683366501E+04  0.13683366501E+04  0.00000000000E+00 0.  1.
         21   -1    0    0  501  502  0.00000000000E+00 -0.00000000000E+00 -0.22113388494E+02  0.22113388494E+02  0.00000000000E+00 0.  1.
         23    2    1    2    0    0  0.19149578441E+02  0.85493357536E+02  0.26342859184E+03  0.29263777305E+03  0.92554971121E+02 0.  0.
        -24    2    1    2    0    0 -0.57593858252E+01  0.91815560798E+01  0.40205666126E+03  0.41039181724E+03  0.81574587303E+02 0.  0.
         13    1    4    4    0    0 -0.25305864054E+02 -0.14526461980E+02  0.57616053271E+02  0.64583391423E+02  0.00000000000E+00 0. -1.
        -14    1    4    4    0    0  0.19546478229E+02  0.23708018059E+02  0.34444060799E+03  0.34580842582E+03  0.00000000000E+00 0.  1.
        -13    1    3    3    0    0 -0.14101074010E+01  0.72438770248E+02  0.25760113087E+03  0.26759616302E+03  0.00000000000E+00 0. -1.
         13    1    3    3    0    0  0.20559685842E+02  0.13054587288E+02  0.58274609617E+01  0.25041610021E+02  0.00000000000E+00 0.  1.
         -1    1    1    2    0  502 -0.13390192616E+02 -0.94674913616E+02  0.68073800852E+03  0.68742044832E+03  0.00000000000E+00 0.  1.
<scales pt_clust_5="13000.00000" pt_clust_6="13000.00000" pt_clust_7="13000.00000" pt_clust_8="13000.00000" pt_clust_9="13000.00000"></scales>
<clustering>
<clus scale="   81.575">  5  6 -1 -1</clus>
<clus scale="   92.555">  7  8 -1 -1</clus>
<clus scale="   95.617">  5  9 -1 -1</clus>
<clus scale="  127.445">  1  7  2 -1</clus>
<clus scale="  180.963">  2  5  1 -1</clus>
</clustering>
</event>
<event>
 9    1  0.2728138E-005  0.1807317E+03  0.7546771E-02  0.1191762E+00
         21   -1    0    0  501  502  0.00000000000E+00  0.00000000000E+00  0.51869664187E+03  0.51869664187E+03  0.00000000000E+00 0. -1.
         -2   -1    0    0    0  501 -0.00000000000E+00 -0.00000000000E+00 -0.39210876186E+02  0.39210876186E+02  0.00000000000E+00 0.  1.
         23    2    1    2    0    0 -0.26671054201E+02 -0.35823683504E+02  0.19465093601E+03  0.22057264140E+03  0.93640919549E+02 0.  0.
        -24    2    1    2    0    0  0.79368987691E+02  0.43272889054E+02  0.23559129040E+03  0.26482633221E+03  0.80360133055E+02 0.  0.
         13    1    4    4    0    0  0.12159418734E+02  0.49280083324E+02  0.74233979734E+02  0.89928092516E+02  0.00000000000E+00 0. -1.
        -14    1    4    4    0    0  0.67209568957E+02 -0.60071942697E+01  0.16135731067E+03  0.17489823969E+03  0.00000000000E+00 0.  1.
        -13    1    3    3    0    0  0.28564312727E+02 -0.37534704806E+02  0.10729189721E+03  0.11720207009E+03  0.00000000000E+00 0. -1.
         13    1    3    3    0    0 -0.55235366928E+02  0.17110213011E+01  0.87359038801E+02  0.10337057131E+03  0.00000000000E+00 0.  1.
         -1    1    1    2    0  502 -0.52697933490E+02 -0.74492055496E+01  0.49243539277E+02  0.72508544448E+02  0.00000000000E+00 0.  1.
<scales pt_clust_5="13000.00000" pt_clust_6="13000.00000" pt_clust_7="13000.00000" pt_clust_8="13000.00000" pt_clust_9="13000.00000"></scales>
<clustering>
<clus scale="   80.360">  5  6 -1 -1</clus>
<clus scale="   53.222">  5  9 -1 -1</clus>
<clus scale="   93.641">  7  8 -1 -1</clus>
<clus scale="  103.746">  2  7  1 -1</clus>
<clus scale="  180.732">  1  5  2 -1</clus>
</clustering>
</event>
<event>
 9    1  0.2728138E-005  0.1603397E+03  0.7546771E-02  0.1206505E+00
         21   -1    0    0  501  502  0.00000000000E+00  0.00000000000E+00  0.26291894489E+02  0.26291894489E+02  0.00000000000E+00 0. -1.
          1   -1    0    0  502    0 -0.00000000000E+00 -0.00000000000E+00 -0.73813273237E+03  0.73813273237E+03  0.00000000000E+00 0. -1.
         23    2    1    2    0    0 -0.16879374680E+01  0.62657045755E+02 -0.18944877290E+03  0.21797948970E+03  0.87723804421E+02 0.  0.
        -24    2    1    2    0    0  0.32891034007E+02 -0.16236065755E+02 -0.19138123876E+03  0.21074183408E+03  0.80249063137E+02 0.  0.
         11    1    4    4    0    0 -0.10450701054E+02 -0.35724212551E+02 -0.55814064721E+02  0.67086856653E+02  0.00000000000E+00 0. -1.
        -12    1    4    4    0    0  0.43341735060E+02  0.19488146797E+02 -0.13556717404E+03  0.14365497743E+03  0.00000000000E+00 0.  1.
        -13    1    3    3    0    0 -0.29454378963E+02  0.11783284637E+02 -0.16874160655E+02  0.35932485786E+02  0.00000000000E+00 0. -1.
         13    1    3    3    0    0  0.27766441495E+02  0.50873761118E+02 -0.17257461224E+03  0.18204700392E+03  0.00000000000E+00 0.  1.
          2    1    1    2  501    0 -0.31203096539E+02 -0.46420980000E+02 -0.33101082622E+03  0.33570330307E+03  0.00000000000E+00 0. -1.
<scales pt_clust_5="13000.00000" pt_clust_6="13000.00000" pt_clust_7="13000.00000" pt_clust_8="13000.00000" pt_clust_9="13000.00000"></scales>
<clustering>
<clus scale="   80.249">  5  6 -1 -1</clus>
<clus scale="   55.933">  5  9 -1 -1</clus>
<clus scale="   87.724">  7  8 -1 -1</clus>
<clus scale="  107.816">  2  7  1 -1</clus>
<clus scale="  160.340">  1  5  2 -1</clus>
</clustering>
</event>
<event>
 9    1  0.2728138E-005  0.1493834E+03  0.7546771E-02  0.1210872E+00
          1   -1    0    0  502    0 -0.00000000000E+00  0.00000000000E+00  0.11578863698E+04  0.11578863698E+04  0.00000000000E+00 0. -1.
         21   -1    0    0  501  502  0.00000000000E+00 -0.00000000000E+00 -0.16519979104E+02  0.16519979104E+02  0.00000000000E+00 0. -1.
         23    2    1    2    0    0 -0.78835593789E+02 -0.53836399820E-01  0.39519953063E+03  0.41343304331E+03  0.92353443580E+02 0.  0.
        -24    2    1    2    0    0  0.85503595451E+01 -0.64773890517E+01  0.41651733701E+03  0.42385095524E+03  0.77768084792E+02 0.  0.
         13    1    4    4    0    0  0.18964164878E+02 -0.14387538699E+02  0.36300549119E+02  0.43409338692E+02  0.00000000000E+00 0. -1.
        -14    1    4    4    0    0 -0.10413805333E+02  0.79101496472E+01  0.38021678789E+03  0.38044161655E+03  0.00000000000E+00 0.  1.
        -11    1    3    3    0    0 -0.38315434102E+01 -0.35147926866E+02  0.16625753313E+03  0.16997536531E+03  0.00000000000E+00 0.  1.
         11    1    3    3    0    0 -0.75004050379E+02  0.35094090466E+02  0.22894199750E+03  0.24345767800E+03  0.00000000000E+00 0. -1.
          2    1    1    2  501    0  0.70285234244E+02  0.65312254515E+01  0.32964952308E+03  0.33712235038E+03  0.00000000000E+00 0. -1.
<scales pt_clust_5="13000.00000" pt_clust_6="13000.00000" pt_clust_7="13000.00000" pt_clust_8="13000.00000" pt_clust_9="13000.00000"></scales>
<clustering>
<clus scale="   77.768">  5  6 -1 -1</clus>
<clus scale="   70.588">  5  9 -1 -1</clus>
<clus scale="   92.353">  7  8 -1 -1</clus>
<clus scale="  121.426">  1  7  2 -1</clus>
<clus scale="  149.383">  2  5  1 -1</clus>
</clustering>
</event>
<event>
 9    1  0.2728138E-005  0.3346793E+03  0.7546771E-02  0.1115359E+00
         21   -1    0    0  501  502  0.00000000000E+00  0.00000000000E+00  0.11824636716E+03  0.11824636716E+03  0.00000000000E+00 0. -1.
          1   -1    0    0  502    0 -0.00000000000E+00 -0.00000000000E+00 -0.39961269436E+03  0.39961269436E+03  0.00000000000E+00 0. -1.
         23    2    1    2    0    0  0.28696903599E+02  0.13822479286E+02 -0.80365636602E+02  0.12745990338E+03  0.93663323734E+02 0.  0.
        -24    2    1    2    0    0 -0.17284277718E+03  0.38662286194E+01 -0.11755326993E+03  0.22290469472E+03  0.77318550903E+02 0.  0.
         13    1    4    4    0    0 -0.17198420456E+03  0.10639563962E+02 -0.89769723523E+02  0.19429454496E+03  0.00000000000E+00 0. -1.
        -14    1    4    4    0    0 -0.85857261168E+00 -0.67733353423E+01 -0.27783546403E+02  0.28610149761E+02  0.00000000000E+00 0.  1.
        -13    1    3    3    0    0  0.40956510586E+02  0.43010220258E+02 -0.26621309892E+02  0.65084629110E+02  0.00000000000E+00 0.  1.
         13    1    3    3    0    0 -0.12259606987E+02 -0.29187740972E+02 -0.53744326710E+02  0.62375274268E+02  0.00000000000E+00 0. -1.
          2    1    1    2  501    0  0.14414587358E+03 -0.17688707905E+02 -0.83447420672E+02  0.16749446341E+03  0.00000000000E+00 0. -1.
<scales pt_clust_5="13000.00000" pt_clust_6="13000.00000" pt_clust_7="13000.00000" pt_clust_8="13000.00000" pt_clust_9="13000.00000"></scales>
<clustering>
<clus scale="   77.319">  5  6 -1 -1</clus>
<clus scale="   93.663">  7  8 -1 -1</clus>
<clus scale="   98.931">  2  7  1 -1</clus>
<clus scale="  156.769">  5  9 -1 -1</clus>
<clus scale="  334.679">  1  5  2 -1</clus>
</clustering>
</event>
<event>
 9    1  0.2728138E-005  0.2551323E+03  0.7546771E-02  0.1129999E+00
         21   -1    0    0  501  502  0.00000000000E+00  0.00000000000E+00  0.85623453223E+03  0.85623453223E+03  0.00000000000E+00 0.  1.
          1   -1    0    0  502    0 -0.00000000000E+00 -0.00000000000E+00 -0.24902987469E+03  0.24902987469E+03  0.00000000000E+00 0. -1.
         23    2    1    2    0    0 -0.70479018770E+02 -0.10342412911E+03 -0.20320251719E+03  0.25564550293E+03  0.91648882201E+02 0.  0.
        -24    2    1    2    0    0  0.11129173958E+03  0.56119461853E+02  0.74292695264E+03  0.75765700917E+03  0.81045920817E+02 0.  0.
         13    1    4    4    0    0  0.29099497332E+02  0.54518418962E+02  0.22879064370E+03  0.23698986771E+03  0.00000000000E+00 0. -1.
        -14    1    4    4    0    0  0.82192242252E+02  0.16010428913E+01  0.51413630894E+03  0.52066714146E+03  0.00000000000E+00 0.  1.
        -11    1    3    3    0    0 -0.23699781603E+02 -0.17009007273E+02  0.82979647013E+00  0.29183463444E+02  0.00000000000E+00 0.  1.
         11    1    3    3    0    0 -0.46779237167E+02 -0.86415121838E+02 -0.20403231366E+03  0.22646203949E+03  0.00000000000E+00 0. -1.
          2    1    1    2  501    0 -0.40812720815E+02  0.47304667258E+02  0.67480222091E+02  0.91961894816E+02  0.00000000000E+00 0. -1.
<scales pt_clust_5="13000.00000" pt_clust_6="13000.00000" pt_clust_7="13000.00000" pt_clust_8="13000.00000" pt_clust_9="13000.00000"></scales>
<clustering>
<clus scale="   81.046">  5  6 -1 -1</clus>
<clus scale="   62.477">  5  9 -1 -1</clus>
<clus scale="   91.649">  7  8 -1 -1</clus>
<clus scale="  155.124">  2  7  1 -1</clus>
<clus scale="  255.132">  1  5  2 -1</clus>
</clustering>
</event>
<event>
 9    1  0.2728138E-005  0.3334548E+03  0.7546771E-02  0.1100934E+00
         21   -1    0    0  501  502  0.00000000000E+00  0.00000000000E+00  0.65666929065E+02  0.65666929065E+02  0.00000000000E+00 0. -1.
          1   -1    0    0  502    0 -0.00000000000E+00 -0.00000000000E+00 -0.89421510739E+03  0.89421510739E+03  0.00000000000E+00 0. -1.
         23    2    1    2    0    0  0.70546654819E+02 -0.94239381214E+02 -0.18250288839E+03  0.23285617394E+03  0.84004773621E+02 0.  0.
        -24    2    1    2    0    0  0.94289944550E+02  0.73058668956E+02 -0.43775655516E+03  0.46056024730E+03  0.79099791713E+02 0.  0.
         11    1    4    4    0    0  0.57505669214E+02  0.74348308037E+02 -0.38450373750E+03  0.39582533655E+03  0.00000000000E+00 0. -1.
        -12    1    4    4    0    0  0.36784275336E+02 -0.12896390811E+01 -0.53252817664E+02  0.64734910752E+02  0.00000000000E+00 0.  1.
        -13    1    3    3    0    0 -0.12039490321E+02 -0.37794835895E+02 -0.27093861957E+02  0.48036197844E+02  0.00000000000E+00 0.  1.
         13    1    3    3    0    0  0.82586145140E+02 -0.56444545318E+02 -0.15540902644E+03  0.18481997609E+03  0.00000000000E+00 0. -1.
          2    1    1    2  501    0 -0.16483659937E+03  0.21180712258E+02 -0.20828873476E+03  0.26646561522E+03  0.00000000000E+00 0. -1.
<scales pt_clust_5="13000.00000" pt_clust_6="13000.00000" pt_clust_7="13000.00000" pt_clust_8="13000.00000" pt_clust_9="13000.00000"></scales>
<clustering>
<clus scale="   79.100">  5  6 -1 -1</clus>
<clus scale="   84.005">  7  8 -1 -1</clus>
<clus scale="  144.619">  2  7  1 -1</clus>
<clus scale="  140.907">  5  9 -1 -1</clus>
<clus scale="  333.455">  1  5  2 -1</clus>
</clustering>
</event>
<event>
 9    1  0.2728138E-005  0.4394130E+03  0.7546771E-02  0.1079479E+00
         21   -1    0    0  501  502  0.00000000000E+00  0.00000000000E+00  0.28821487035E+03  0.28821487035E+03  0.00000000000E+00 0. -1.
          1   -1    0    0  502    0 -0.00000000000E+00 -0.00000000000E+00 -0.30626204346E+03  0.30626204346E+03  0.00000000000E+00 0. -1.
         23    2    1    2    0    0  0.26135084506E+02 -0.54634947508E+02  0.88543659491E+02  0.14232051976E+03  0.93526095709E+02 0.  0.
        -24    2    1    2    0    0  0.75614685883E+02  0.72141859524E+02 -0.24614245105E+03  0.27856445312E+03  0.78038578381E+02 0.  0.
         11    1    4    4    0    0  0.56660297063E+02  0.46668864875E+02 -0.76674717206E+02  0.10614793672E+03  0.00000000000E+00 0. -1.
        -12    1    4    4    0    0  0.18954388821E+02  0.25472994649E+02 -0.16946773384E+03  0.17241651639E+03  0.00000000000E+00 0.  1.
        -11    1    3    3    0    0 -0.35705143264E+01 -0.49082379830E+02  0.47836864402E+00  0.49214402555E+02  0.00000000000E+00 0.  1.
         11    1    3    3    0    0  0.29705598833E+02 -0.55525676786E+01  0.88065290847E+02  0.93106117209E+02  0.00000000000E+00 0. -1.
          2    1    1    2  501    0 -0.10174977039E+03 -0.17506912016E+02  0.13955161844E+03  0.17359194092E+03  0.00000000000E+00 0. -1.
<scales pt_clust_5="13000.00000" pt_clust_6="13000.00000" pt_clust_7="13000.00000" pt_clust_8="13000.00000" pt_clust_9="13000.00000"></scales>
<clustering>
<clus scale="   78.039">  5  6 -1 -1</clus>
<clus scale="   93.526">  7  8 -1 -1</clus>
<clus scale="  103.245">  5  9 -1 -1</clus>
<clus scale="  111.423">  2  7  1 -1</clus>
<clus scale="  439.413">  1  5  2 -1</clus>
</clustering>
</event>
<event>
 9    1  0.2728138E-005  0.4075921E+03  0.7546771E-02  0.1080983E+00
         21   -1    0    0  501  502  0.00000000000E+00  0.00000000000E+00  0.22967508616E+03  0.22967508616E+03  0.00000000000E+00 0. -1.
          1   -1    0    0  502    0 -0.00000000000E+00 -0.00000000000E+00 -0.64327894621E+03  0.64327894621E+03  0.00000000000E+00 0. -1.
         23    2    1    2    0    0 -0.66269935803E+02  0.61455472358E+02  0.13450241437E+03  0.18990807692E+03  0.99023728135E+02 0.  0.
        -24    2    1    2    0    0 -0.12283509116E+01  0.66640432472E+02 -0.52310319122E+03  0.53611150165E+03  0.96623689878E+02 0.  0.
         13    1    4    4    0    0 -0.52970872672E+01  0.90000719659E+02 -0.45883463268E+03  0.46760817874E+03  0.00000000000E+00 0. -1.
        -14    1    4    4    0    0  0.40687363556E+01 -0.23360287187E+02 -0.64268558542E+02  0.68503322913E+02  0.00000000000E+00 0.  1.
        -13    1    3    3    0    0 -0.71336452552E+02  0.28881633427E+02  0.33999510778E+02  0.84136822767E+02  0.00000000000E+00 0.  1.
         13    1    3    3    0    0  0.50665167492E+01  0.32573838931E+02  0.10050290359E+03  0.10577125415E+03  0.00000000000E+00 0. -1.
          2    1    1    2  501    0  0.67498286714E+02 -0.12809590483E+03 -0.25003083191E+02  0.14693445380E+03  0.00000000000E+00 0. -1.
<scales pt_clust_5="13000.00000" pt_clust_6="13000.00000" pt_clust_7="13000.00000" pt_clust_8="13000.00000" pt_clust_9="13000.00000"></scales>
<clustering>
<clus scale="   96.624">  5  6 -1 -1</clus>
<clus scale="   99.024">  7  8 -1 -1</clus>
<clus scale="  134.068">  2  7  1 -1</clus>
<clus scale="  132.950">  5  9 -1 -1</clus>
<clus scale="  407.592">  1  5  2 -1</clus>
</clustering>
</event>
<event>
 9    1  0.2728138E-005  0.2277436E+03  0.7546771E-02  0.1162554E+00
         -4   -1    0    0    0  501 -0.00000000000E+00  0.00000000000E+00  0.11668646610E+03  0.11668646610E+03  0.00000000000E+00 0.  1.
         21   -1    0    0  501  502  0.00000000000E+00 -0.00000000000E+00 -0.23064049315E+03  0.23064049315E+03  0.00000000000E+00 0.  1.
         23    2    1    2    0    0 -0.19172068901E+01  0.47677690269E+02 -0.32105694871E+02  0.10532221257E+03  0.88233525292E+02 0.  0.
        -24    2    1    2    0    0 -0.10183439250E+02  0.46584016975E+02 -0.10818397248E+03  0.14338800856E+03  0.81133076014E+02 0.  0.
         11    1    4    4    0    0 -0.34524862927E+02 -0.42855968780E+01 -0.24798856467E+02  0.42723714525E+02  0.00000000000E+00 0. -1.
        -12    1    4    4    0    0  0.24341423677E+02  0.50869613853E+02 -0.83385116012E+02  0.10066429403E+03  0.00000000000E+00 0.  1.
        -13    1    3    3    0    0  0.28958948998E+02  0.42420140458E+01 -0.41928090931E+02  0.51132966073E+02  0.00000000000E+00 0.  1.
         13    1    3    3    0    0 -0.30876155888E+02  0.43435676223E+02  0.98223960605E+01  0.54189246495E+02  0.00000000000E+00 0. -1.
         -3    1    1    2    0  502  0.12100646140E+02 -0.94261707244E+02  0.26335640296E+02  0.98616738130E+02  0.00000000000E+00 0.  1.
<scales pt_clust_5="13000.00000" pt_clust_6="13000.00000" pt_clust_7="13000.00000" pt_clust_8="13000.00000" pt_clust_9="13000.00000"></scales>
<clustering>
<clus scale="   81.133">  5  6 -1 -1</clus>
<clus scale="   88.234">  7  8 -1 -1</clus>
<clus scale="   95.035">  5  9 -1 -1</clus>
<clus scale="  100.309">  1  7  2 -1</clus>
<clus scale="  227.744">  2  5  1 -1</clus>
</clustering>
</event>
<event>
 9    1  0.2728138E-005  0.2668569E+03  0.7546771E-02  0.1126555E+00
         21   -1    0    0  501  502  0.00000000000E+00  0.00000000000E+00  0.66343463518E+03  0.66343463518E+03  0.00000000000E+00 0. -1.
          3   -1    0    0  502    0 -0.00000000000E+00 -0.00000000000E+00 -0.68730534871E+02  0.68730534871E+02  0.00000000000E+00 0. -1.
         23    2    1    2    0    0  0.10578849373E+03  0.50240357008E+02  0.13182628975E+03  0.19787268353E+03  0.89778223091E+02 0.  0.
        -24    2    1    2    0    0 -0.24414740548E+02  0.57958119789E+02  0.84030022204E+02  0.13198135713E+03  0.80017565523E+02 0.  0.
         13    1    4    4    0    0 -0.28611189206E+02  0.42662376808E+02  0.98128335346E+02  0.11076032115E+03  0.00000000000E+00 0. -1.
        -14    1    4    4    0    0  0.41964486575E+01  0.15295742981E+02 -0.14098313142E+02  0.21221035982E+02  0.00000000000E+00 0.  1.
        -13    1    3    3    0    0  0.96280589907E+02  0.73405167086E+02  0.97867541397E+02  0.15568020493E+03  0.00000000000E+00 0. -1.
         13    1    3    3    0    0  0.95079038238E+01 -0.23164810078E+02  0.33958748349E+02  0.42192478602E+02  0.00000000000E+00 0.  1.
          4    1    1    2  501    0 -0.81373753183E+02 -0.10819847680E+03  0.37884778835E+03  0.40231112939E+03  0.00000000000E+00 0. -1.
<scales pt_clust_5="13000.00000" pt_clust_6="13000.00000" pt_clust_7="13000.00000" pt_clust_8="13000.00000" pt_clust_9="13000.00000"></scales>
<clustering>
<clus scale="   80.018">  5  6 -1 -1</clus>
<clus scale="   89.778">  7  8 -1 -1</clus>
<clus scale="  135.383">  5  9 -1 -1</clus>
<clus scale="  147.565">  2  7  1 -1</clus>
<clus scale="  266.857">  1  5  2 -1</clus>
</clustering>
</event>
<event>
 9    1  0.2728138E-005  0.2470858E+03  0.7546771E-02  0.1117220E+00
         21   -1    0    0  501  502  0.00000000000E+00  0.00000000000E+00  0.22037507878E+03  0.22037507878E+03  0.00000000000E+00 0. -1.
          1   -1    0    0  502    0 -0.00000000000E+00 -0.00000000000E+00 -0.63147230598E+03  0.63147230598E+03  0.00000000000E+00 0. -1.
         23    2    1    2    0    0 -0.28876616800E+02 -0.21417423875E+03 -0.52854449938E+03  0.57826875039E+03  0.91274291599E+02 0.  0.
        -24    2    1    2    0    0  0.34858772872E+02  0.12984573623E+03  0.10443976887E+03  0.18804339211E+03  0.79859894370E+02 0.  0.
         13    1    4    4    0    0  0.32797502326E+02  0.30885751640E+02  0.69994731151E+02  0.83239823414E+02  0.00000000000E+00 0. -1.
        -14    1    4    4    0    0  0.20612705457E+01  0.98959984594E+02  0.34445037721E+02  0.10480356869E+03  0.00000000000E+00 0.  1.
        -13    1    3    3    0    0  0.28730370084E+02 -0.12480651517E+03 -0.30063181224E+03  0.32677452001E+03  0.00000000000E+00 0.  1.
         13    1    3    3    0    0 -0.57606986884E+02 -0.89367723586E+02 -0.22791268714E+03  0.25149423038E+03  0.00000000000E+00 0. -1.
          2    1    1    2  501    0 -0.59821560721E+01  0.84328502519E+02  0.13007503309E+02  0.85535242273E+02  0.00000000000E+00 0. -1.
<scales pt_clust_5="13000.00000" pt_clust_6="13000.00000" pt_clust_7="13000.00000" pt_clust_8="13000.00000" pt_clust_9="13000.00000"></scales>
<clustering>
<clus scale="   79.860">  5  6 -1 -1</clus>
<clus scale="   84.540">  5  9 -1 -1</clus>
<clus scale="   91.274">  7  8 -1 -1</clus>
<clus scale="  234.596">  2  7  1 -1</clus>
<clus scale="  247.086">  1  5  2 -1</clus>
</clustering>
</event>
<event>
 9    1  0.2728138E-005  0.2516669E+03  0.7546771E-02  0.1134757E+00
         21   -1    0    0  501  502  0.00000000000E+00  0.00000000000E+00  0.69423375111E+02  0.69423375111E+02  0.00000000000E+00 0. -1.
          1   -1    0    0  502    0 -0.00000000000E+00 -0.00000000000E+00 -0.56395923571E+03  0.56395923571E+03  0.00000000000E+00 0. -1.
         23    2    1    2    0    0  0.10971114151E+03 -0.37366595590E+00 -0.18973142415E+03  0.23810808489E+03  0.93063271933E+02 0.  0.
        -24    2    1    2    0    0  0.10554611241E+02 -0.22561120172E+02 -0.23877012708E+02  0.88827021280E+02  0.81851841834E+02 0.  0.
         13    1    4    4    0    0  0.15617661337E+02 -0.46798306874E+02 -0.36178635611E+02  0.61179134895E+02  0.00000000000E+00 0. -1.
        -14    1    4    4    0    0 -0.50630500960E+01  0.24237186702E+02  0.12301622902E+02  0.27647886384E+02  0.00000000000E+00 0.  1.
        -11    1    3    3    0    0  0.30108900503E+02  0.19879907472E+01  0.22562678275E+01  0.30258696952E+02  0.00000000000E+00 0.  1.
         11    1    3    3    0    0  0.79602241002E+02 -0.23616567031E+01 -0.19198769198E+03  0.20784938794E+03  0.00000000000E+00 0. -1.
          2    1    1    2  501    0 -0.12026575275E+03  0.22934786128E+02 -0.28092742374E+03  0.30644750465E+03  0.00000000000E+00 0. -1.
<scales pt_clust_5="13000.00000" pt_clust_6="13000.00000" pt_clust_7="13000.00000" pt_clust_8="13000.00000" pt_clust_9="13000.00000"></scales>
<clustering>
<clus scale="   81.852">  5  6 -1 -1</clus>
<clus scale="   93.063">  7  8 -1 -1</clus>
<clus scale="  122.433">  5  9 -1 -1</clus>
<clus scale="  143.866">  2  7  1 -1</clus>
<clus scale="  251.667">  1  5  2 -1</clus>
</clustering>
</event>
<event>
 9    1  0.2728138E-005  0.2145925E+03  0.7546771E-02  0.1167345E+00
         -4   -1    0    0    0  501 -0.00000000000E+00  0.00000000000E+00  0.31704409822E+03  0.31704409822E+03  0.00000000000E+00 0.  1.
         21   -1    0    0  501  502  0.00000000000E+00 -0.00000000000E+00 -0.87418084943E+02  0.87418084943E+02  0.00000000000E+00 0.  1.
         23    2    1    2    0    0  0.24435442640E+02  0.53937110105E+02  0.12789236039E+03  0.16697602158E+03  0.89544587952E+02 0.  0.
        -24    2    1    2    0    0 -0.36020687062E+02  0.55358554152E+02  0.60087693889E+02  0.11995256633E+03  0.80100111098E+02 0.  0.
         11    1    4    4    0    0 -0.33642055803E+01 -0.19759547383E+02  0.33757643350E+01  0.20326174672E+02  0.00000000000E+00 0. -1.
        -12    1    4    4    0    0 -0.32656481482E+02  0.75118101535E+02  0.56711929554E+02  0.99626391658E+02  0.00000000000E+00 0.  1.
        -13    1    3    3    0    0 -0.24275520897E+02 -0.10417639007E+02  0.36330843849E+02  0.44919464958E+02  0.00000000000E+00 0.  1.
         13    1    3    3    0    0  0.48710963537E+02  0.64354749112E+02  0.91561516542E+02  0.12205655662E+03  0.00000000000E+00 0. -1.
         -3    1    1    2    0  502  0.11585244422E+02 -0.10929566426E+03  0.41645959000E+02  0.11753359526E+03  0.00000000000E+00 0.  1.
<scales pt_clust_5="13000.00000" pt_clust_6="13000.00000" pt_clust_7="13000.00000" pt_clust_8="13000.00000" pt_clust_9="13000.00000"></scales>
<clustering>
<clus scale="   80.100">  5  6 -1 -1</clus>
<clus scale="   89.545">  7  8 -1 -1</clus>
<clus scale="  107.352">  1  7  2 -1</clus>
<clus scale="   87.092">  5  9 -1 -1</clus>
<clus scale="  214.592">  2  5  1 -1</clus>
</clustering>
</event>
<event>
 9    1  0.2728138E-005  0.1727399E+03  0.7546771E-02  0.1188270E+00
         21   -1    0    0  501  502  0.00000000000E+00  0.00000000000E+00  0.32198455539E+02  0.32198455539E+02  0.00000000000E+00 0. -1.
          1   -1    0    0  502    0 -0.00000000000E+00 -0.00000000000E+00 -0.71330409221E+03  0.71330409221E+03  0.00000000000E+00 0. -1.
         23    2    1    2    0    0 -0.42119660232E+02 -0.77194238561E+02 -0.24864490531E+03  0.27981880619E+03  0.93494701002E+02 0.  0.
        -24    2    1    2    0    0  0.80940178138E+02  0.55093659043E+02 -0.34143083595E+03  0.36428398770E+03  0.80877588052E+02 0.  0.
         13    1    4    4    0    0  0.75991070714E+02  0.85302613834E+01 -0.16695393817E+03  0.18363285561E+03  0.00000000000E+00 0. -1.
        -14    1    4    4    0    0  0.49491074239E+01  0.46563397659E+02 -0.17447689778E+03  0.18065113209E+03  0.00000000000E+00 0.  1.
        -13    1    3    3    0    0 -0.70315164768E+02 -0.65753302055E+02 -0.20649717165E+03  0.22783503029E+03  0.00000000000E+00 0. -1.
         13    1    3    3    0    0  0.28195504535E+02 -0.11440936506E+02 -0.42147733659E+02  0.51983775899E+02  0.00000000000E+00 0.  1.
          2    1    1    2  501    0 -0.38820517906E+02  0.22100579518E+02 -0.91029895404E+02  0.10139975386E+03  0.00000000000E+00 0. -1.
<scales pt_clust_5="13000.00000" pt_clust_6="13000.00000" pt_clust_7="13000.00000" pt_clust_8="13000.00000" pt_clust_9="13000.00000"></scales>
<clustering>
<clus scale="   80.878">  5  6 -1 -1</clus>
<clus scale="   44.671">  5  9 -1 -1</clus>
<clus scale="   93.495">  7  8 -1 -1</clus>
<clus scale="  128.352">  2  7  1 -1</clus>
<clus scale="  172.740">  1  5  2 -1</clus>
</clustering>
</event>
<event>
 9    1  0.2728138E-005  0.3780704E+03  0.7546771E-02  0.1100766E+00
          1   -1    0    0  502    0 -0.00000000000E+00  0.00000000000E+00  0.45752045665E+03  0.45752045665E+03  0.00000000000E+00 0. -1.
         21   -1    0    0  501  502  0.00000000000E+00 -0.00000000000E+00 -0.12577321855E+03  0.12577321855E+03  0.00000000000E+00 0.  1.
         23    2    1    2    0    0 -0.38306745183E+02 -0.14963165200E+02  0.91884046322E+02  0.13555316110E+03  0.90778182826E+02 0.  0.
        -24    2    1    2    0    0 -0.12065127082E+03 -0.47907611977E+02 -0.12682172412E+01  0.15216524129E+03  0.79377476942E+02 0.  0.
         11    1    4    4    0    0 -0.11430652611E+03 -0.13487211632E+02  0.96454101980E+01  0.11550290354E+03  0.00000000000E+00 0. -1.
        -12    1    4    4    0    0 -0.63447447147E+01 -0.34420400345E+02 -0.10913627439E+02  0.36662337750E+02  0.00000000000E+00 0.  1.
        -13    1    3    3    0    0 -0.53119932423E+02  0.16485893586E+02  0.26738570225E+02  0.61712746216E+02  0.00000000000E+00 0.  1.
         13    1    3    3    0    0  0.14813187239E+02 -0.31449058786E+02  0.65145476097E+02  0.73840414887E+02  0.00000000000E+00 0. -1.
          2    1    1    2  501    0  0.15895801601E+03  0.62870777177E+02  0.24113140902E+03  0.29557527280E+03  0.00000000000E+00 0. -1.
<scales pt_clust_5="13000.00000" pt_clust_6="13000.00000" pt_clust_7="13000.00000" pt_clust_8="13000.00000" pt_clust_9="13000.00000"></scales>
<clustering>
<clus scale="   79.377">  5  6 -1 -1</clus>
<clus scale="   90.778">  7  8 -1 -1</clus>
<clus scale="   99.659">  1  7  2 -1</clus>
<clus scale="  138.840">  5  9 -1 -1</clus>
<clus scale="  378.070">  2  5  1 -1</clus>
</clustering>
</event>
<event>
 9    1  0.2728138E-005  0.2116367E+03  0.7546771E-02  0.1166092E+00
         21   -1    0    0  501  502  0.00000000000E+00  0.00000000000E+00  0.28004661191E+03  0.28004661191E+03  0.00000000000E+00 0. -1.
          3   -1    0    0  502    0 -0.00000000000E+00 -0.00000000000E+00 -0.10962430659E+03  0.10962430659E+03  0.00000000000E+00 0. -1.
         23    2    1    2    0    0 -0.16631315276E+02  0.69406248663E+02 -0.42422910995E+01  0.11526643367E+03  0.90413083653E+02 0.  0.
        -24    2    1    2    0    0 -0.88534976271E+01  0.44591875969E+02  0.95204229350E+02  0.13312816677E+03  0.81193864782E+02 0.  0.
         13    1    4    4    0    0 -0.33319661382E+01  0.29825654517E+02  0.10845717603E+03  0.11253279832E+03  0.00000000000E+00 0. -1.
        -14    1    4    4    0    0 -0.55215314889E+01  0.14766221452E+02 -0.13252946677E+02  0.20595368450E+02  0.00000000000E+00 0.  1.
        -11    1    3    3    0    0  0.10520181664E+02  0.49020927997E+02  0.36658748073E+02  0.62109495362E+02  0.00000000000E+00 0. -1.
         11    1    3    3    0    0 -0.27151496940E+02  0.20385320667E+02 -0.40901039172E+02  0.53156938307E+02  0.00000000000E+00 0.  1.
          4    1    1    2  501    0  0.25484812903E+02 -0.11399812463E+03  0.79460367072E+02  0.14127631806E+03  0.00000000000E+00 0. -1.
<scales pt_clust_5="13000.00000" pt_clust_6="13000.00000" pt_clust_7="13000.00000" pt_clust_8="13000.00000" pt_clust_9="13000.00000"></scales>
<clustering>
<clus scale="   81.194">  5  6 -1 -1</clus>
<clus scale="   90.413">  7  8 -1 -1</clus>
<clus scale="  115.188">  2  7  1 -1</clus>
<clus scale="   72.587">  5  9 -1 -1</clus>
<clus scale="  211.637">  1  5  2 -1</clus>
</clustering>
</event>
<event>
 9    1  0.2728138E-005  0.1770847E+03  0.7546771E-02  0.1191946E+00
          1   -1    0    0  502    0 -0.00000000000E+00  0.00000000000E+00  0.48621578815E+02  0.48621578815E+02  0.00000000000E+00 0. -1.
         21   -1    0    0  501  502  0.00000000000E+00 -0.00000000000E+00 -0.43926114047E+03  0.43926114047E+03  0.00000000000E+00 0.  1.
         23    2    1    2    0    0 -0.60495148269E+02  0.19340557149E+02 -0.19644619107E+03  0.22507088912E+03  0.89621866915E+02 0.  0.
        -24    2    1    2    0    0 -0.13575741485E+02  0.31439986341E+02 -0.96159373577E+02  0.12986136993E+03  0.80278121404E+02 0.  0.
         13    1    4    4    0    0  0.27168551834E+02  0.23954494551E+02 -0.75124961738E+02  0.83400886650E+02  0.00000000000E+00 0. -1.
        -14    1    4    4    0    0 -0.40744293319E+02  0.74854917904E+01 -0.21034411839E+02  0.46460483282E+02  0.00000000000E+00 0.  1.
        -13    1    3    3    0    0 -0.60225665839E+02 -0.14832146020E+02 -0.17258203565E+03  0.18338942830E+03  0.00000000000E+00 0.  1.
         13    1    3    3    0    0 -0.26948243059E+00  0.34172703169E+02 -0.23864155418E+02  0.41681460825E+02  0.00000000000E+00 0. -1.
          2    1    1    2  501    0  0.74070889754E+02 -0.50780543490E+02 -0.98033997011E+02  0.13295046023E+03  0.00000000000E+00 0. -1.
<scales pt_clust_5="13000.00000" pt_clust_6="13000.00000" pt_clust_7="13000.00000" pt_clust_8="13000.00000" pt_clust_9="13000.00000"></scales>
<clustering>
<clus scale="   80.278">  5  6 -1 -1</clus>
<clus scale="   89.622">  7  8 -1 -1</clus>
<clus scale="   89.806">  5  9 -1 -1</clus>
<clus scale="  109.844">  1  7  2 -1</clus>
<clus scale="  177.085">  2  5  1 -1</clus>
</clustering>
</event>
<event>
 9    1  0.2728138E-005  0.2505676E+03  0.7546771E-02  0.1123428E+00
          1   -1    0    0  502    0 -0.00000000000E+00  0.00000000000E+00  0.36506429922E+03  0.36506429922E+03  0.00000000000E+00 0. -1.
         21   -1    0    0  501  502  0.00000000000E+00 -0.00000000000E+00 -0.43874618740E+03  0.43874618740E+03  0.00000000000E+00 0. -1.
         23    2    1    2    0    0 -0.14620771467E+03  0.84590945396E+02  0.29843264395E+03  0.35519780293E+03  0.92580302201E+02 0.  0.
        -24    2    1    2    0    0  0.79035942264E+02  0.89499060732E+01 -0.90849430121E+02  0.14468506813E+03  0.79708023417E+02 0.  0.
         13    1    4    4    0    0  0.80342987016E+02  0.21857123689E+02 -0.99003885290E+02  0.12936189053E+03  0.00000000000E+00 0. -1.
        -14    1    4    4    0    0 -0.13070447521E+01 -0.12907217616E+02  0.81544551697E+01  0.15323177597E+02  0.00000000000E+00 0.  1.
        -11    1    3    3    0    0 -0.59150924964E+02  0.41297734908E+02  0.21600076993E+03  0.22772937325E+03  0.00000000000E+00 0.  1.
         11    1    3    3    0    0 -0.87056789708E+02  0.43293210488E+02  0.82431874024E+02  0.12746842967E+03  0.00000000000E+00 0. -1.
          2    1    1    2  501    0  0.67171772409E+02 -0.93540851469E+02 -0.28126510200E+03  0.30392761557E+03  0.00000000000E+00 0. -1.
<scales pt_clust_5="13000.00000" pt_clust_6="13000.00000" pt_clust_7="13000.00000" pt_clust_8="13000.00000" pt_clust_9="13000.00000"></scales>
<clustering>
<clus scale="   79.708">  5  6 -1 -1</clus>
<clus scale="   92.580">  7  8 -1 -1</clus>
<clus scale="  115.161">  5  9 -1 -1</clus>
<clus scale="  192.623">  1  7  2 -1</clus>
<clus scale="  250.568">  2  5  1 -1</clus>
</clustering>
</event>
<event>
 9    1  0.2728138E-005  0.1466380E+03  0.7546771E-02  0.1213498E+00
         21   -1    0    0  501  502  0.00000000000E+00  0.00000000000E+00  0.51762932228E+03  0.51762932228E+03  0.00000000000E+00 0. -1.
          1   -1    0    0  502    0 -0.00000000000E+00 -0.00000000000E+00 -0.40098835956E+02  0.40098835956E+02  0.00000000000E+00 0. -1.
         23    2    1    2    0    0 -0.25464245988E+02 -0.72368419327E+02  0.32125590162E+03  0.34342823131E+03  0.94084960501E+02 0.  0.
        -24    2    1    2    0    0 -0.40910168951E+01  0.66711894161E+02  0.14358469575E+03  0.18164195512E+03  0.88938303139E+02 0.  0.
         11    1    4    4    0    0  0.93898133646E+01  0.86575946421E+02  0.11648315299E+03  0.14543688674E+03  0.00000000000E+00 0. -1.
        -12    1    4    4    0    0 -0.13480830260E+02 -0.19864052260E+02  0.27101542760E+02  0.36205068384E+02  0.00000000000E+00 0.  1.
        -11    1    3    3    0    0  0.31391363867E+02 -0.14650845344E+02  0.15038096236E+03  0.15431947004E+03  0.00000000000E+00 0.  1.
         11    1    3    3    0    0 -0.56855609854E+02 -0.57717573983E+02  0.17087493926E+03  0.18910876126E+03  0.00000000000E+00 0. -1.
          2    1    1    2  501    0  0.29555262883E+02  0.56565251661E+01  0.12689888955E+02  0.32657971809E+02  0.00000000000E+00 0. -1.
<scales pt_clust_5="13000.00000" pt_clust_6="13000.00000" pt_clust_7="13000.00000" pt_clust_8="13000.00000" pt_clust_9="13000.00000"></scales>
<clustering>
<clus scale="   88.938">  5  6 -1 -1</clus>
<clus scale="   30.092">  5  9 -1 -1</clus>
<clus scale="   94.085">  7  8 -1 -1</clus>
<clus scale="  121.399">  2  7  1 -1</clus>
<clus scale="  146.638">  1  5  2 -1</clus>
</clustering>
</event>
<event>
 9    1  0.2728138E-005  0.2217037E+03  0.7546771E-02  0.1139204E+00
         21   -1    0    0  501  502  0.00000000000E+00  0.00000000000E+00  0.82035366651E+02  0.82035366651E+02  0.00000000000E+00 0. -1.
          1   -1    0    0  502    0 -0.00000000000E+00 -0.00000000000E+00 -0.76627234709E+03  0.76627234709E+03  0.00000000000E+00 0. -1.
         23    2    1    2    0    0  0.96642181104E+02 -0.13322463469E+03 -0.56672642698E+03  0.59738686934E+03  0.92756208240E+02 0.  0.
        -24    2    1    2    0    0 -0.41584563388E+02  0.11701075168E+03 -0.39636487972E+02  0.15418098009E+03  0.82340339585E+02 0.  0.
         11    1    4    4    0    0 -0.19953455766E+01  0.87970561452E+02  0.45730087438E+01  0.88111937302E+02  0.00000000000E+00 0. -1.
        -12    1    4    4    0    0 -0.39589217812E+02  0.29040190225E+02 -0.44209496716E+02  0.66069042789E+02  0.00000000000E+00 0.  1.
        -11    1    3    3    0    0  0.76194880045E+02 -0.13713740276E+03 -0.54567725084E+03  0.56778163854E+03  0.00000000000E+00 0. -1.
         11    1    3    3    0    0  0.20447301059E+02  0.39127680686E+01 -0.21049176141E+02  0.29605230801E+02  0.00000000000E+00 0.  1.
          2    1    1    2  501    0 -0.55057617715E+02  0.16213883009E+02 -0.77874065482E+02  0.96739864303E+02  0.00000000000E+00 0. -1.
<scales pt_clust_5="13000.00000" pt_clust_6="13000.00000" pt_clust_7="13000.00000" pt_clust_8="13000.00000" pt_clust_9="13000.00000"></scales>
<clustering>
<clus scale="   82.340">  5  6 -1 -1</clus>
<clus scale="   57.395">  5  9 -1 -1</clus>
<clus scale="   92.756">  7  8 -1 -1</clus>
<clus scale="  188.924">  2  7  1 -1</clus>
<clus scale="  221.704">  1  5  2 -1</clus>
</clustering>
</event>
<event>
 9    1  0.2728138E-005  0.5753970E+03  0.7546771E-02  0.1016010E+00
          1   -1    0    0  502    0 -0.00000000000E+00  0.00000000000E+00  0.14068623562E+04  0.14068623562E+04  0.00000000000E+00 0. -1.
         21   -1    0    0  501  502  0.00000000000E+00 -0.00000000000E+00 -0.13916549277E+03  0.13916549277E+03  0.00000000000E+00 0.  1.
         23    2    1    2    0    0  0.25420519340E+03 -0.14579239918E+03  0.38016092726E+03  0.48829360375E+03  0.89624822662E+02 0.  0.
        -24    2    1    2    0    0  0.13692537482E+03  0.22812184670E+01  0.23726029694E+03  0.28544091535E+03  0.80189185220E+02 0.  0.
         13    1    4    4    0    0  0.99158463383E+02  0.30796861919E+02  0.11824183231E+03  0.15735939271E+03  0.00000000000E+00 0. -1.
        -14    1    4    4    0    0  0.37766911438E+02 -0.28515643452E+02  0.11901846463E+03  0.12808152265E+03  0.00000000000E+00 0.  1.
        -13    1    3    3    0    0  0.21889198028E+03 -0.11607524497E+03  0.25798960347E+03  0.35769511742E+03  0.00000000000E+00 0.  1.
         13    1    3    3    0    0  0.35313213116E+02 -0.29717154209E+02  0.12217132379E+03  0.13059848633E+03  0.00000000000E+00 0. -1.
          2    1    1    2  501    0 -0.39113056822E+03  0.14351118071E+03  0.65027563918E+03  0.77229332982E+03  0.00000000000E+00 0. -1.
<scales pt_clust_5="13000.00000" pt_clust_6="13000.00000" pt_clust_7="13000.00000" pt_clust_8="13000.00000" pt_clust_9="13000.00000"></scales>
<clustering>
<clus scale="   80.189">  5  6 -1 -1</clus>
<clus scale="   89.625">  7  8 -1 -1</clus>
<clus scale="  306.445">  1  7  2 -1</clus>
<clus scale="  208.521">  5  9 -1 -1</clus>
<clus scale="  575.397">  2  5  1 -1</clus>
</clustering>
</event>
<event>
 9    1  0.2728138E-005  0.9280260E+03  0.7546771E-02  0.9680695E-01
         21   -1    0    0  501  502  0.00000000000E+00  0.00000000000E+00  0.82226938338E+03  0.82226938338E+03  0.00000000000E+00 0. -1.
          1   -1    0    0  502    0 -0.00000000000E+00 -0.00000000000E+00 -0.49057645053E+03  0.49057645053E+03  0.00000000000E+00 0. -1.
         23    2    1    2    0    0  0.17049010534E+03 -0.27947494759E+03  0.51608028929E+02  0.34347498515E+03  0.90213936963E+02 0.  0.
        -24    2    1    2    0    0 -0.10716503761E+03 -0.30090648431E+03  0.22881420056E+02  0.33140039271E+03  0.85285422648E+02 0.  0.
         11    1    4    4    0    0 -0.10900883946E+03 -0.21183980598E+03  0.37336767641E+02  0.24114946547E+03  0.00000000000E+00 0. -1.
        -12    1    4    4    0    0  0.18438018426E+01 -0.89066678327E+02 -0.14455347585E+02  0.90250927237E+02  0.00000000000E+00 0.  1.
        -13    1    3    3    0    0  0.14186001272E+03 -0.17657087228E+03  0.40022059845E+01  0.22653378070E+03  0.00000000000E+00 0. -1.
         13    1    3    3    0    0  0.28630092621E+02 -0.10290407531E+03  0.47605822945E+02  0.11694120445E+03  0.00000000000E+00 0.  1.
          2    1    1    2  501    0 -0.63325067724E+02  0.58038143190E+03  0.25720348386E+03  0.63797045606E+03  0.00000000000E+00 0. -1.
<scales pt_clust_5="13000.00000" pt_clust_6="13000.00000" pt_clust_7="13000.00000" pt_clust_8="13000.00000" pt_clust_9="13000.00000"></scales>
<clustering>
<clus scale="   85.285">  5  6 -1 -1</clus>
<clus scale="   90.214">  7  8 -1 -1</clus>
<clus scale="  339.576">  2  7  1 -1</clus>
<clus scale="  427.113">  5  9 -1 -1</clus>
<clus scale="  928.026">  1  5  2 -1</clus>
</clustering>
</event>
<event>
 9    1  0.2728138E-005  0.1627103E+03  0.7546771E-02  0.1201435E+00
         21   -1    0    0  501  502  0.00000000000E+00  0.00000000000E+00  0.68078958409E+02  0.68078958409E+02  0.00000000000E+00 0.  1.
          3   -1    0    0  502    0 -0.00000000000E+00 -0.00000000000E+00 -0.31267162274E+03  0.31267162274E+03  0.00000000000E+00 0. -1.
         23    2    1    2    0    0  0.48695913267E+02  0.45487400906E+02 -0.45835501932E+02  0.12388669332E+03  0.93843614246E+02 0.  0.
        -24    2    1    2    0    0  0.13421283188E+02 -0.78266293540E+01 -0.14557545616E+03  0.16683514970E+03  0.80002292288E+02 0.  0.
         11    1    4    4    0    0  0.29356077014E+02  0.20281715011E+02 -0.29347480486E+02  0.46199586928E+02  0.00000000000E+00 0. -1.
        -12    1    4    4    0    0 -0.15934793825E+02 -0.28108344365E+02 -0.11622797567E+03  0.12063556278E+03  0.00000000000E+00 0.  1.
        -13    1    3    3    0    0  0.42374782539E+02  0.13866380614E+01 -0.63172363166E+02  0.76080828257E+02  0.00000000000E+00 0. -1.
         13    1    3    3    0    0  0.63211307280E+01  0.44100762845E+02  0.17336861233E+02  0.47805865065E+02  0.00000000000E+00 0.  1.
          4    1    1    2  501    0 -0.62117196455E+02 -0.37660771552E+02 -0.53181706239E+02  0.90028738122E+02  0.00000000000E+00 0. -1.
<scales pt_clust_5="13000.00000" pt_clust_6="13000.00000" pt_clust_7="13000.00000" pt_clust_8="13000.00000" pt_clust_9="13000.00000"></scales>
<clustering>
<clus scale="   80.002">  5  6 -1 -1</clus>
<clus scale="   72.642">  5  9 -1 -1</clus>
<clus scale="   93.844">  7  8 -1 -1</clus>
<clus scale="  115.096">  2  7  1 -1</clus>
<clus scale="  162.710">  1  5  2 -1</clus>
</clustering>
</event>
<event>
 9    1  0.2728138E-005  0.1782951E+03  0.7546771E-02  0.1182863E+00
         21   -1    0    0  501  502  0.00000000000E+00  0.00000000000E+00  0.49925776649E+02  0.49925776649E+02  0.00000000000E+00 0. -1.
          1   -1    0    0  502    0 -0.00000000000E+00 -0.00000000000E+00 -0.55974710991E+03  0.55974710991E+03  0.00000000000E+00 0. -1.
         23    2    1    2    0    0 -0.86040470620E+02  0.32459077922E+02 -0.33511844109E+03  0.36005271630E+03  0.94218016471E+02 0.  0.
        -24    2    1    2    0    0  0.87573729337E+02  0.19457904951E+02 -0.94505763105E+02  0.15407278148E+03  0.82215050924E+02 0.  0.
         13    1    4    4    0    0  0.66594084176E+02  0.43574755057E+02 -0.35877591536E+02  0.87296809220E+02  0.00000000000E+00 0. -1.
        -14    1    4    4    0    0  0.20979645162E+02 -0.24116850106E+02 -0.58628171568E+02  0.66775972262E+02  0.00000000000E+00 0.  1.
        -13    1    3    3    0    0  0.66187737967E+01  0.32320840971E+02 -0.14300199314E+03  0.14675835571E+03  0.00000000000E+00 0.  1.
         13    1    3    3    0    0 -0.92659244417E+02  0.13823695095E+00 -0.19211644795E+03  0.21329436059E+03  0.00000000000E+00 0. -1.
          2    1    1    2  501    0 -0.15332587171E+01 -0.51916982874E+02 -0.80197129067E+02  0.95547388784E+02  0.00000000000E+00 0. -1.
<scales pt_clust_5="13000.00000" pt_clust_6="13000.00000" pt_clust_7="13000.00000" pt_clust_8="13000.00000" pt_clust_9="13000.00000"></scales>
<clustering>
<clus scale="   82.215">  5  6 -1 -1</clus>
<clus scale="   51.940">  5  9 -1 -1</clus>
<clus scale="   94.218">  7  8 -1 -1</clus>
<clus scale="  131.657">  2  7  1 -1</clus>
<clus scale="  178.295">  1  5  2 -1</clus>
</clustering>
</event>
<event>
 9    1  0.2728138E-005  0.1719470E+03  0.7546771E-02  0.1201537E+00
         -2   -1    0    0    0  501 -0.00000000000E+00  0.00000000000E+00  0.96062185052E+02  0.96062185052E+02  0.00000000000E+00 0.  1.
         21   -1    0    0  501  502  0.00000000000E+00 -0.00000000000E+00 -0.20102803020E+03  0.20102803020E+03  0.00000000000E+00 0.  1.
         23    2    1    2    0    0  0.32925000813E+02 -0.87772300789E+01 -0.33632440727E+01  0.97368231139E+02  0.91149139206E+02 0.  0.
        -24    2    1    2    0    0  0.18625599702E+02 -0.11034194221E+02 -0.11641696830E+03  0.14254312068E+03  0.79353414173E+02 0.  0.
         13    1    4    4    0    0  0.14169738389E+02 -0.33702544925E+02 -0.16715545119E+02  0.40200155088E+02  0.00000000000E+00 0. -1.
        -14    1    4    4    0    0  0.44558613127E+01  0.22668350704E+02 -0.99701423177E+02  0.10234296560E+03  0.00000000000E+00 0.  1.
        -13    1    3    3    0    0  0.54579840962E+01  0.40484138071E+02 -0.30766014342E+01  0.40966089661E+02  0.00000000000E+00 0.  1.
         13    1    3    3    0    0  0.27467016716E+02 -0.49261368150E+02 -0.28664263857E+00  0.56402141478E+02  0.00000000000E+00 0. -1.
         -1    1    1    2    0  502 -0.51550600515E+02  0.19811424300E+02  0.14814367225E+02  0.57178863424E+02  0.00000000000E+00 0.  1.
<scales pt_clust_5="13000.00000" pt_clust_6="13000.00000" pt_clust_7="13000.00000" pt_clust_8="13000.00000" pt_clust_9="13000.00000"></scales>
<clustering>
<clus scale="   79.353">  5  6 -1 -1</clus>
<clus scale="   55.226">  5  9 -1 -1</clus>
<clus scale="   91.149">  7  8 -1 -1</clus>
<clus scale="   97.310">  1  7  2 -1</clus>
<clus scale="  171.947">  2  5  1 -1</clus>
</clustering>
</event>
<event>
 9    1  0.2728138E-005  0.6878520E+03  0.7546771E-02  0.1010494E+00
         21   -1    0    0  501  502  0.00000000000E+00  0.00000000000E+00  0.43067204094E+03  0.43067204094E+03  0.00000000000E+00 0.  1.
          1   -1    0    0  502    0 -0.00000000000E+00 -0.00000000000E+00 -0.49857392336E+03  0.49857392336E+03  0.00000000000E+00 0. -1.
         23    2    1    2    0    0  0.17405123810E+03  0.84023454247E+02 -0.11164675734E+03  0.24000434491E+03  0.88223085436E+02 0.  0.
        -24    2    1    2    0    0 -0.11390159764E+02  0.27665664700E+03 -0.18281477931E+02  0.28874688748E+03  0.79824285318E+02 0.  0.
         13    1    4    4    0    0  0.16595841943E+02  0.72140784501E+02 -0.34538090535E+02  0.81685950175E+02  0.00000000000E+00 0. -1.
        -14    1    4    4    0    0 -0.27986001706E+02  0.20451586249E+03  0.16256612604E+02  0.20706093730E+03  0.00000000000E+00 0.  1.
        -11    1    3    3    0    0  0.23601602385E+02 -0.11756561317E+01  0.12895461272E+02  0.26920451778E+02  0.00000000000E+00 0.  1.
         11    1    3    3    0    0  0.15044963571E+03  0.85199110379E+02 -0.12454221861E+03  0.21308389313E+03  0.00000000000E+00 0. -1.
          2    1    1    2  501    0 -0.16266107834E+03 -0.36068010124E+03  0.62026352849E+02  0.40049473191E+03  0.00000000000E+00 0. -1.
<scales pt_clust_5="13000.00000" pt_clust_6="13000.00000" pt_clust_7="13000.00000" pt_clust_8="13000.00000" pt_clust_9="13000.00000"></scales>
<clustering>
<clus scale="   79.824">  5  6 -1 -1</clus>
<clus scale="   88.223">  7  8 -1 -1</clus>
<clus scale="  212.455">  2  7  1 -1</clus>
<clus scale="  324.572">  5  9 -1 -1</clus>
<clus scale="  687.852">  1  5  2 -1</clus>
</clustering>
</event>
<event>
 9    1  0.2728138E-005  0.2977203E+03  0.7546771E-02  0.1104447E+00
          1   -1    0    0  502    0 -0.00000000000E+00  0.00000000000E+00  0.68507014802E+03  0.68507014802E+03  0.00000000000E+00 0. -1.
         21   -1    0    0  501  502  0.00000000000E+00 -0.00000000000E+00 -0.86310757936E+02  0.86310757936E+02  0.00000000000E+00 0. -1.
         23    2    1    2    0    0  0.12743697753E+03  0.99677562721E+02  0.18895231709E+03  0.26484443051E+03  0.90905415064E+02 0.  0.
        -24    2    1    2    0    0  0.43271565117E+02 -0.70899162566E+02  0.22924067960E+03  0.25638886847E+03  0.79277002315E+02 0.  0.
         11    1    4    4    0    0  0.26383190440E+02 -0.82765125067E+02  0.13974749506E+03  0.16454634922E+03  0.00000000000E+00 0. -1.
        -12    1    4    4    0    0  0.16888374676E+02  0.11865962501E+02  0.89493184535E+02  0.91842519257E+02  0.00000000000E+00 0.  1.
        -13    1    3    3    0    0  0.47229686763E+02  0.56851027636E+02  0.14736368214E+03  0.16485975090E+03  0.00000000000E+00 0.  1.
         13    1    3    3    0    0  0.80207290766E+02  0.42826535085E+02  0.41588634956E+02  0.99984679611E+02  0.00000000000E+00 0. -1.
          2    1    1    2  501    0 -0.17070854265E+03 -0.28778400156E+02  0.18056639339E+03  0.25014760697E+03  0.00000000000E+00 0. -1.
<scales pt_clust_5="13000.00000" pt_clust_6="13000.00000" pt_clust_7="13000.00000" pt_clust_8="13000.00000" pt_clust_9="13000.00000"></scales>
<clustering>
<clus scale="   79.277">  5  6 -1 -1</clus>
<clus scale="   90.905">  7  8 -1 -1</clus>
<clus scale="  173.117">  5  9 -1 -1</clus>
<clus scale="  185.579">  1  7  2 -1</clus>
<clus scale="  297.720">  2  5  1 -1</clus>
</clustering>
</event>
<event>
 9    1  0.2728138E-005  0.2304652E+03  0.7546771E-02  0.1137710E+00
         21   -1    0    0  501  502  0.00000000000E+00  0.00000000000E+00  0.96163325193E+02  0.96163325193E+02  0.00000000000E+00 0. -1.
          3   -1    0    0  502    0 -0.00000000000E+00 -0.00000000000E+00 -0.50910977343E+03  0.50910977343E+03  0.00000000000E+00 0. -1.
         23    2    1    2    0    0 -0.70873152544E+02 -0.13006670331E+03 -0.61298581707E+02  0.18483235819E+03  0.92006159870E+02 0.  0.
        -24    2    1    2    0    0 -0.13355785253E+02  0.21920363911E+02 -0.19014228790E+03  0.20860543502E+03  0.81873429878E+02 0.  0.
         13    1    4    4    0    0 -0.48041536076E+02  0.10655973881E+02 -0.11472741080E+03  0.12483556287E+03  0.00000000000E+00 0. -1.
        -14    1    4    4    0    0  0.34685750823E+02  0.11264390031E+02 -0.75414877098E+02  0.83769872153E+02  0.00000000000E+00 0.  1.
        -13    1    3    3    0    0 -0.72672847344E+01 -0.31781875812E+02 -0.59385054646E+02  0.67745743577E+02  0.00000000000E+00 0.  1.
         13    1    3    3    0    0 -0.63605867809E+02 -0.98284827500E+02 -0.19135270617E+01  0.11708661462E+03  0.00000000000E+00 0. -1.
          4    1    1    2  501    0  0.84228937797E+02  0.10814633940E+03 -0.16150557864E+03  0.21183530541E+03  0.00000000000E+00 0. -1.
<scales pt_clust_5="13000.00000" pt_clust_6="13000.00000" pt_clust_7="13000.00000" pt_clust_8="13000.00000" pt_clust_9="13000.00000"></scales>
<clustering>
<clus scale="   81.873">  5  6 -1 -1</clus>
<clus scale="   92.006">  7  8 -1 -1</clus>
<clus scale="  137.077">  5  9 -1 -1</clus>
<clus scale="  174.372">  2  7  1 -1</clus>
<clus scale="  230.465">  1  5  2 -1</clus>
</clustering>
</event>
<event>
 9    1  0.2728138E-005  0.1324009E+03  0.7546771E-02  0.1237509E+00
         21   -1    0    0  501  502  0.00000000000E+00  0.00000000000E+00  0.14200036877E+03  0.14200036877E+03  0.00000000000E+00 0.  1.
          1   -1    0    0  502    0 -0.00000000000E+00 -0.00000000000E+00 -0.16587302113E+03  0.16587302113E+03  0.00000000000E+00 0. -1.
         23    2    1    2    0    0 -0.35581300604E+02  0.12920848215E+02 -0.11094311944E+03  0.14940808077E+03  0.92635962655E+02 0.  0.
        -24    2    1    2    0    0  0.61106045750E+02  0.13666092658E+01  0.54363622301E+02  0.11458613695E+03  0.80241902418E+02 0.  0.
         13    1    4    4    0    0  0.12704957347E+02 -0.19577918620E+02 -0.14780007064E+02  0.27625340677E+02  0.00000000000E+00 0. -1.
        -14    1    4    4    0    0  0.48401088402E+02  0.20944527885E+02  0.69143629366E+02  0.86960796275E+02  0.00000000000E+00 0.  1.
        -13    1    3    3    0    0 -0.34585928161E+02 -0.30275370002E+02 -0.22943123553E+02  0.51372866124E+02  0.00000000000E+00 0.  1.
         13    1    3    3    0    0 -0.99537244344E+00  0.43196218217E+02 -0.87999995887E+02  0.98035214646E+02  0.00000000000E+00 0. -1.
          2    1    1    2  501    0 -0.25524745146E+02 -0.14287457481E+02  0.32706844774E+02  0.43879172178E+02  0.00000000000E+00 0. -1.
<scales pt_clust_5="13000.00000" pt_clust_6="13000.00000" pt_clust_7="13000.00000" pt_clust_8="13000.00000" pt_clust_9="13000.00000"></scales>
<clustering>
<clus scale="   80.242">  5  6 -1 -1</clus>
<clus scale="   29.251">  5  9 -1 -1</clus>
<clus scale="   92.636">  7  8 -1 -1</clus>
<clus scale="  100.072">  2  7  1 -1</clus>
<clus scale="  132.401">  1  5  2 -1</clus>
</clustering>
</event>
<event>
 9    1  0.2728138E-005  0.2812587E+03  0.7546771E-02  0.1105391E+00
          1   -1    0    0  502    0 -0.00000000000E+00  0.00000000000E+00  0.44214769856E+03  0.44214769856E+03  0.00000000000E+00 0. -1.
         21   -1    0    0  501  502  0.00000000000E+00 -0.00000000000E+00 -0.33538744732E+03  0.33538744732E+03  0.00000000000E+00 0. -1.
         23    2    1    2    0    0  0.14898846329E+03 -0.12506741809E+03  0.34668165292E+03  0.40784777688E+03  0.91171373639E+02 0.  0.
        -24    2    1    2    0    0 -0.17845500798E+03  0.53555019311E+02 -0.15860947928E+03  0.25746469232E+03  0.80104749587E+02 0.  0.
         11    1    4    4    0    0 -0.16205695878E+03  0.41818648977E+02 -0.16624741594E+03  0.23590137896E+03  0.00000000000E+00 0. -1.
        -12    1    4    4    0    0 -0.16398049205E+02  0.11736370334E+02  0.76379366624E+01  0.21563313354E+02  0.00000000000E+00 0.  1.
        -13    1    3    3    0    0  0.24204578577E+02  0.99892343518E+01  0.77932683212E+02  0.82214047095E+02  0.00000000000E+00 0.  1.
         13    1    3    3    0    0  0.12478388472E+03 -0.13505665245E+03  0.26874896971E+03  0.32563372979E+03  0.00000000000E+00 0. -1.
          2    1    1    2  501    0  0.29466544685E+02  0.71512398783E+02 -0.81311922403E+02  0.11222267668E+03  0.00000000000E+00 0. -1.
<scales pt_clust_5="13000.00000" pt_clust_6="13000.00000" pt_clust_7="13000.00000" pt_clust_8="13000.00000" pt_clust_9="13000.00000"></scales>
<clustering>
<clus scale="   80.105">  5  6 -1 -1</clus>
<clus scale="   77.345">  5  9 -1 -1</clus>
<clus scale="   91.171">  7  8 -1 -1</clus>
<clus scale="  214.829">  1  7  2 -1</clus>
<clus scale="  281.259">  2  5  1 -1</clus>
</clustering>
</event>
<event>
 9    1  0.2728138E-005  0.1448186E+03  0.7546771E-02  0.1230911E+00
          1   -1    0    0  502    0 -0.00000000000E+00  0.00000000000E+00  0.89850538103E+03  0.89850538103E+03  0.00000000000E+00 0. -1.
         21   -1    0    0  501  502  0.00000000000E+00 -0.00000000000E+00 -0.15507069242E+02  0.15507069242E+02  0.00000000000E+00 0.  1.
         23    2    1    2    0    0  0.84208759220E+01 -0.17047041395E+02  0.25783440471E+03  0.27229418020E+03  0.85463603662E+02 0.  0.
        -24    2    1    2    0    0  0.39981830818E+02  0.25691790828E+02  0.34402828836E+03  0.35631541475E+03  0.79665530077E+02 0.  0.
         11    1    4    4    0    0  0.52623067387E+02  0.43946042208E+02  0.28799400804E+03  0.29604221070E+03  0.00000000000E+00 0. -1.
        -12    1    4    4    0    0 -0.12641236569E+02 -0.18254251380E+02  0.56034280318E+02  0.60273204048E+02  0.00000000000E+00 0.  1.
        -11    1    3    3    0    0 -0.33731283998E+02 -0.17472149481E+01  0.54851360675E+02  0.64416799425E+02  0.00000000000E+00 0. -1.
         11    1    3    3    0    0  0.42152159920E+02 -0.15299826447E+02  0.20298304403E+03  0.20787738078E+03  0.00000000000E+00 0.  1.
          2    1    1    2  501    0 -0.48402706740E+02 -0.86447494331E+01  0.28113561872E+03  0.28540285532E+03  0.00000000000E+00 0. -1.
<scales pt_clust_5="13000.00000" pt_clust_6="13000.00000" pt_clust_7="13000.00000" pt_clust_8="13000.00000" pt_clust_9="13000.00000"></scales>
<clustering>
<clus scale="   79.666">  5  6 -1 -1</clus>
<clus scale="   49.169">  5  9 -1 -1</clus>
<clus scale="   85.464">  7  8 -1 -1</clus>
<clus scale="   87.553">  1  7  2 -1</clus>
<clus scale="  144.819">  2  5  1 -1</clus>
</clustering>
</event>
<event>
 9    1  0.2728138E-005  0.3618894E+03  0.7546771E-02  0.1101992E+00
         21   -1    0    0  501  502  0.00000000000E+00  0.00000000000E+00  0.92701230132E+02  0.92701230132E+02  0.00000000000E+00 0. -1.
          1   -1    0    0  502    0 -0.00000000000E+00 -0.00000000000E+00 -0.60114975973E+03  0.60114975973E+03  0.00000000000E+00 0. -1.
         23    2    1    2    0    0  0.19607202534E+02  0.57320168600E+02 -0.11105824861E+03  0.15637262194E+03  0.91915277225E+02 0.  0.
        -24    2    1    2    0    0  0.14893712104E+03 -0.75898901891E+02 -0.16072049806E+03  0.24633416913E+03  0.83105565709E+02 0.  0.
         13    1    4    4    0    0  0.11736515371E+03 -0.61267809579E+02 -0.71280894512E+02  0.15036385775E+03  0.00000000000E+00 0. -1.
        -14    1    4    4    0    0  0.31571967336E+02 -0.14631092311E+02 -0.89439603544E+02  0.95970311377E+02  0.00000000000E+00 0.  1.
        -13    1    3    3    0    0  0.11651983594E+01  0.78290893889E+02 -0.61804661364E+02  0.99752884267E+02  0.00000000000E+00 0. -1.
         13    1    3    3    0    0  0.18442004174E+02 -0.20970725289E+02 -0.49253587250E+02  0.56619737672E+02  0.00000000000E+00 0.  1.
          2    1    1    2  501    0 -0.16854432358E+03  0.18578733290E+02 -0.23666978293E+03  0.29114419880E+03  0.00000000000E+00 0. -1.
<scales pt_clust_5="13000.00000" pt_clust_6="13000.00000" pt_clust_7="13000.00000" pt_clust_8="13000.00000" pt_clust_9="13000.00000"></scales>
<clustering>
<clus scale="   83.106">  5  6 -1 -1</clus>
<clus scale="   91.915">  7  8 -1 -1</clus>
<clus scale="  110.084">  2  7  1 -1</clus>
<clus scale="  165.509">  5  9 -1 -1</clus>
<clus scale="  361.889">  1  5  2 -1</clus>
</clustering>
</event>
<event>
 9    1  0.2728138E-005  0.2582513E+03  0.7546771E-02  0.1147488E+00
          1   -1    0    0  502    0 -0.00000000000E+00  0.00000000000E+00  0.42922302124E+03  0.42922302124E+03  0.00000000000E+00 0. -1.
         21   -1    0    0  501  502  0.00000000000E+00 -0.00000000000E+00 -0.10585583944E+03  0.10585583944E+03  0.00000000000E+00 0. -1.
         23    2    1    2    0    0 -0.39006160118E+02  0.99421227669E+01  0.24706619575E+03  0.26579170022E+03  0.89348735251E+02 0.  0.
        -24    2    1    2    0    0  0.79493511673E+02 -0.33497801065E+02  0.14422525560E+03  0.18677775489E+03  0.81508798875E+02 0.  0.
         11    1    4    4    0    0  0.21352763573E+02 -0.49047644263E+02  0.95002857292E+02  0.10902822943E+03  0.00000000000E+00 0. -1.
        -12    1    4    4    0    0  0.58140748099E+02  0.15549843198E+02  0.49222398305E+02  0.77749525451E+02  0.00000000000E+00 0.  1.
        -11    1    3    3    0    0 -0.43183794267E+02 -0.26319808706E+02  0.78951025974E+02  0.93759463095E+02  0.00000000000E+00 0. -1.
         11    1    3    3    0    0  0.41776341482E+01  0.36261931473E+02  0.16811516977E+03  0.17203223712E+03  0.00000000000E+00 0.  1.
          2    1    1    2  501    0 -0.40487351554E+02  0.23555678298E+02 -0.67924269539E+02  0.82509405575E+02  0.00000000000E+00 0. -1.
<scales pt_clust_5="13000.00000" pt_clust_6="13000.00000" pt_clust_7="13000.00000" pt_clust_8="13000.00000" pt_clust_9="13000.00000"></scales>
<clustering>
<clus scale="   81.509">  5  6 -1 -1</clus>
<clus scale="   46.841">  5  9 -1 -1</clus>
<clus scale="   89.349">  7  8 -1 -1</clus>
<clus scale="   97.998">  1  7  2 -1</clus>
<clus scale="  258.251">  2  5  1 -1</clus>
</clustering>
</event>
<event>
 9    1  0.2728138E-005  0.2334587E+03  0.7546771E-02  0.1157622E+00
         21   -1    0    0  501  502  0.00000000000E+00  0.00000000000E+00  0.41362787522E+03  0.41362787522E+03  0.00000000000E+00 0. -1.
          1   -1    0    0  502    0 -0.00000000000E+00 -0.00000000000E+00 -0.13434674920E+03  0.13434674920E+03  0.00000000000E+00 0. -1.
         23    2    1    2    0    0 -0.10397764840E+02 -0.51006354864E+02 -0.71522589919E+02  0.12658857769E+03  0.90550678534E+02 0.  0.
        -24    2    1    2    0    0  0.18546854667E+02 -0.25132032618E+02  0.47107220400E+02  0.10818479655E+03  0.92245623790E+02 0.  0.
         13    1    4    4    0    0 -0.18272949558E+02 -0.37368079376E+02  0.54628740778E+02  0.68662750898E+02  0.00000000000E+00 0. -1.
        -14    1    4    4    0    0  0.36819804225E+02  0.12236046759E+02 -0.75215203782E+01  0.39522045648E+02  0.00000000000E+00 0.  1.
        -11    1    3    3    0    0 -0.48614522232E+02 -0.16433025519E+02 -0.46708393968E+02  0.69390850741E+02  0.00000000000E+00 0.  1.
         11    1    3    3    0    0  0.38216757392E+02 -0.34573329345E+02 -0.24814195951E+02  0.57197726950E+02  0.00000000000E+00 0. -1.
          2    1    1    2  501    0 -0.81490898268E+01  0.76138387481E+02  0.30369649554E+03  0.31320125019E+03  0.00000000000E+00 0. -1.
<scales pt_clust_5="13000.00000" pt_clust_6="13000.00000" pt_clust_7="13000.00000" pt_clust_8="13000.00000" pt_clust_9="13000.00000"></scales>
<clustering>
<clus scale="   90.551">  7  8 -1 -1</clus>
<clus scale="   92.246">  5  6 -1 -1</clus>
<clus scale="   76.573">  5  9 -1 -1</clus>
<clus scale="  104.447">  2  7  1 -1</clus>
<clus scale="  233.459">  1  5  2 -1</clus>
</clustering>
</event>
<event>
 9    1  0.2728138E-005  0.3175163E+03  0.7546771E-02  0.1111101E+00
         21   -1    0    0  501  502  0.00000000000E+00  0.00000000000E+00  0.24091615452E+03  0.24091615452E+03  0.00000000000E+00 0. -1.
          1   -1    0    0  502    0 -0.00000000000E+00 -0.00000000000E+00 -0.64751374209E+03  0.64751374209E+03  0.00000000000E+00 0. -1.
         23    2    1    2    0    0  0.65900217691E+02 -0.59508766104E+02  0.17995999420E+03  0.22144683380E+03  0.93642772038E+02 0.  0.
        -24    2    1    2    0    0 -0.10257211084E+03 -0.56083881154E+02 -0.12324395122E+03  0.18806134886E+03  0.80694236319E+02 0.  0.
         13    1    4    4    0    0 -0.64190864359E+02 -0.74490271426E+02 -0.74634334807E+02  0.12344857851E+03  0.00000000000E+00 0. -1.
        -14    1    4    4    0    0 -0.38381246483E+02  0.18406390272E+02 -0.48609616411E+02  0.64612770348E+02  0.00000000000E+00 0.  1.
        -13    1    3    3    0    0  0.84646377497E+02 -0.67893957811E+02  0.15129768255E+03  0.18618696914E+03  0.00000000000E+00 0.  1.
         13    1    3    3    0    0 -0.18746159806E+02  0.83851917077E+01  0.28662311643E+02  0.35259864664E+02  0.00000000000E+00 0. -1.
          2    1    1    2  501    0  0.36671893151E+02  0.11559264726E+03 -0.46331363054E+03  0.47892171395E+03  0.00000000000E+00 0. -1.
<scales pt_clust_5="13000.00000" pt_clust_6="13000.00000" pt_clust_7="13000.00000" pt_clust_8="13000.00000" pt_clust_9="13000.00000"></scales>
<clustering>
<clus scale="   80.694">  5  6 -1 -1</clus>
<clus scale="   93.643">  7  8 -1 -1</clus>
<clus scale="  121.270">  5  9 -1 -1</clus>
<clus scale="  129.047">  2  7  1 -1</clus>
<clus scale="  317.516">  1  5  2 -1</clus>
</clustering>
</event>
<event>
 9    1  0.2728138E-005  0.1706859E+03  0.7546771E-02  0.1200792E+00
         21   -1    0    0  501  502  0.00000000000E+00  0.00000000000E+00  0.24019145748E+02  0.24019145748E+02  0.00000000000E+00 0.  1.
          3   -1    0    0  502    0 -0.00000000000E+00 -0.00000000000E+00 -0.87453480265E+03  0.87453480265E+03  0.00000000000E+00 0. -1.
         23    2    1    2    0    0  0.32973869449E+02  0.26752752130E+02 -0.17792819758E+03  0.20464647444E+03  0.91753747582E+02 0.  0.
        -24    2    1    2    0    0  0.29514889609E+01  0.63318313852E+01 -0.60650551926E+03  0.61173665282E+03  0.79523481676E+02 0.  0.
         13    1    4    4    0    0 -0.22828992180E+02  0.28770219819E+02 -0.17139429531E+03  0.17528517592E+03  0.00000000000E+00 0. -1.
        -14    1    4    4    0    0  0.25780481141E+02 -0.22438388434E+02 -0.43511122395E+03  0.43645147690E+03  0.00000000000E+00 0.  1.
        -13    1    3    3    0    0  0.21833238433E+02  0.53307471610E+02 -0.59695593738E+02  0.82957463448E+02  0.00000000000E+00 0.  1.
         13    1    3    3    0    0  0.11140631015E+02 -0.26554719480E+02 -0.11823260384E+03  0.12168901099E+03  0.00000000000E+00 0. -1.
          4    1    1    2  501    0 -0.35925358410E+02 -0.33084583515E+02 -0.66081940071E+02  0.82170821140E+02  0.00000000000E+00 0. -1.
<scales pt_clust_5="13000.00000" pt_clust_6="13000.00000" pt_clust_7="13000.00000" pt_clust_8="13000.00000" pt_clust_9="13000.00000"></scales>
<clustering>
<clus scale="   79.523">  5  6 -1 -1</clus>
<clus scale="   48.839">  5  9 -1 -1</clus>
<clus scale="   91.754">  7  8 -1 -1</clus>
<clus scale="  101.103">  2  7  1 -1</clus>
<clus scale="  170.686">  1  5  2 -1</clus>
</clustering>
</event>
<event>
 9    1  0.2728138E-005  0.1748860E+03  0.7546771E-02  0.1180445E+00
          1   -1    0    0  502    0 -0.00000000000E+00  0.00000000000E+00  0.56237933139E+02  0.56237933139E+02  0.00000000000E+00 0. -1.
         21   -1    0    0  501  502  0.00000000000E+00 -0.00000000000E+00 -0.63584378213E+03  0.63584378213E+03  0.00000000000E+00 0. -1.
         23    2    1    2    0    0  0.11285823752E+03  0.63973455794E+01 -0.91010535620E+02  0.17313037002E+03  0.94410272871E+02 0.  0.
        -24    2    1    2    0    0 -0.40391578782E+02  0.26955639910E+02 -0.27175958690E+03  0.28790682455E+03  0.81725029159E+02 0.  0.
         13    1    4    4    0    0 -0.63837721895E+02  0.12469085888E+02 -0.21796513826E+03  0.22746325931E+03  0.00000000000E+00 0. -1.
        -14    1    4    4    0    0  0.23446143114E+02  0.14486554022E+02 -0.53794448642E+02  0.60443565241E+02  0.00000000000E+00 0.  1.
        -13    1    3    3    0    0  0.60910561964E+02  0.43010111800E+02 -0.78664900647E+02  0.10838880417E+03  0.00000000000E+00 0. -1.
         13    1    3    3    0    0  0.51947675557E+02 -0.36612766220E+02 -0.12345634973E+02  0.64741565852E+02  0.00000000000E+00 0.  1.
          2    1    1    2  501    0 -0.72466658739E+02 -0.33352985489E+02 -0.21683572647E+03  0.23104452070E+03  0.00000000000E+00 0. -1.
<scales pt_clust_5="13000.00000" pt_clust_6="13000.00000" pt_clust_7="13000.00000" pt_clust_8="13000.00000" pt_clust_9="13000.00000"></scales>
<clustering>
<clus scale="   81.725">  5  6 -1 -1</clus>
<clus scale="   79.774">  5  9 -1 -1</clus>
<clus scale="   94.410">  7  8 -1 -1</clus>
<clus scale="  147.279">  1  7  2 -1</clus>
<clus scale="  174.886">  2  5  1 -1</clus>
</clustering>
</event>
<event>
 9    1  0.2728138E-005  0.2061356E+03  0.7546771E-02  0.1174300E+00
         21   -1    0    0  501  502  0.00000000000E+00  0.00000000000E+00  0.67658929621E+02  0.67658929621E+02  0.00000000000E+00 0. -1.
          1   -1    0    0  502    0 -0.00000000000E+00 -0.00000000000E+00 -0.35387249362E+03  0.35387249362E+03  0.00000000000E+00 0. -1.
         23    2    1    2    0    0 -0.38222431439E+02 -0.28661637167E+02 -0.94166350239E+02  0.13979747906E+03  0.91616537388E+02 0.  0.
        -24    2    1    2    0    0  0.19317258401E+02 -0.66569696384E+02 -0.77006272522E+02  0.13119879673E+03  0.80488988737E+02 0.  0.
         13    1    4    4    0    0  0.50465128907E+02 -0.44883468865E+02 -0.41771482262E+02  0.79411030363E+02  0.00000000000E+00 0. -1.
        -14    1    4    4    0    0 -0.31147870505E+02 -0.21686227519E+02 -0.35234790260E+02  0.51787766371E+02  0.00000000000E+00 0.  1.
        -11    1    3    3    0    0  0.28259276184E+01 -0.52362870341E+02 -0.67284669128E+02  0.85305819010E+02  0.00000000000E+00 0.  1.
         11    1    3    3    0    0 -0.41048359058E+02  0.23701233174E+02 -0.26881681111E+02  0.54491660047E+02  0.00000000000E+00 0. -1.
          2    1    1    2  501    0  0.18905173038E+02  0.95231333551E+02 -0.11504094124E+03  0.15053514746E+03  0.00000000000E+00 0. -1.
<scales pt_clust_5="13000.00000" pt_clust_6="13000.00000" pt_clust_7="13000.00000" pt_clust_8="13000.00000" pt_clust_9="13000.00000"></scales>
<clustering>
<clus scale="   80.489">  5  6 -1 -1</clus>
<clus scale="   91.617">  7  8 -1 -1</clus>
<clus scale="   97.090">  5  9 -1 -1</clus>
<clus scale="  103.325">  2  7  1 -1</clus>
<clus scale="  206.136">  1  5  2 -1</clus>
</clustering>
</event>
<event>
 9    1  0.2728138E-005  0.3345395E+03  0.7546771E-02  0.1106033E+00
         21   -1    0    0  501  502  0.00000000000E+00  0.00000000000E+00  0.59427747152E+02  0.59427747152E+02  0.00000000000E+00 0.  1.
         -2   -1    0    0    0  501 -0.00000000000E+00 -0.00000000000E+00 -0.98462421768E+03  0.98462421768E+03  0.00000000000E+00 0.  1.
         23    2    1    2    0    0  0.60518864559E+02 -0.56934180840E+02 -0.12708199628E+03  0.17865991342E+03  0.94156768062E+02 0.  0.
        -24    2    1    2    0    0 -0.70150636980E+02  0.15065083730E+03 -0.71943610977E+03  0.74264895476E+03  0.79513315315E+02 0.  0.
         13    1    4    4    0    0 -0.31159322011E+02  0.75863060080E+02 -0.19608294108E+03  0.21254323564E+03  0.00000000000E+00 0. -1.
        -14    1    4    4    0    0 -0.38991314969E+02  0.74787777219E+02 -0.52335316869E+03  0.53010571912E+03  0.00000000000E+00 0.  1.
        -11    1    3    3    0    0  0.77181030941E+02 -0.68804849322E+02 -0.11599943630E+03  0.15539268982E+03  0.00000000000E+00 0. -1.
         11    1    3    3    0    0 -0.16662166381E+02  0.11870668482E+02 -0.11082559980E+02  0.23267223608E+02  0.00000000000E+00 0.  1.
         -1    1    1    2    0  502  0.96317724210E+01 -0.93716656459E+02 -0.78678364478E+02  0.12274309665E+03  0.00000000000E+00 0.  1.
<scales pt_clust_5="13000.00000" pt_clust_6="13000.00000" pt_clust_7="13000.00000" pt_clust_8="13000.00000" pt_clust_9="13000.00000"></scales>
<clustering>
<clus scale="   79.513">  5  6 -1 -1</clus>
<clus scale="   94.157">  7  8 -1 -1</clus>
<clus scale="   94.210">  5  9 -1 -1</clus>
<clus scale="  125.577">  2  7  1 -1</clus>
<clus scale="  334.540">  1  5  2 -1</clus>
</clustering>
</event>
<event>
 9    1  0.2728138E-005  0.2613082E+03  0.7546771E-02  0.1132790E+00
         21   -1    0    0  501  502  0.00000000000E+00  0.00000000000E+00  0.72680472148E+02  0.72680472148E+02  0.00000000000E+00 0. -1.
          1   -1    0    0  502    0 -0.00000000000E+00 -0.00000000000E+00 -0.86447671031E+03  0.86447671031E+03  0.00000000000E+00 0. -1.
         23    2    1    2    0    0  0.87073730823E+02  0.46126997409E+02 -0.39104342990E+02  0.14039681868E+03  0.92046632554E+02 0.  0.
        -24    2    1    2    0    0 -0.38377050791E+02  0.68988506383E+02 -0.19246462778E+03  0.22275902495E+03  0.79666418311E+02 0.  0.
         13    1    4    4    0    0 -0.20693629105E+02 -0.11685377876E+02 -0.18265551787E+02  0.29973400269E+02  0.00000000000E+00 0. -1.
        -14    1    4    4    0    0 -0.17683421687E+02  0.80673884259E+02 -0.17419907600E+03  0.19278562468E+03  0.00000000000E+00 0.  1.
        -11    1    3    3    0    0  0.89569104429E+02  0.13648612815E+02 -0.53018322163E+02  0.10497548087E+03  0.00000000000E+00 0.  1.
         11    1    3    3    0    0 -0.24953736055E+01  0.32478384594E+02  0.13913979173E+02  0.35421337802E+02  0.00000000000E+00 0. -1.
          2    1    1    2  501    0 -0.48696680032E+02 -0.11511550379E+03 -0.56022726739E+03  0.57400133883E+03  0.00000000000E+00 0. -1.
<scales pt_clust_5="13000.00000" pt_clust_6="13000.00000" pt_clust_7="13000.00000" pt_clust_8="13000.00000" pt_clust_9="13000.00000"></scales>
<clustering>
<clus scale="   79.666">  5  6 -1 -1</clus>
<clus scale="   92.047">  7  8 -1 -1</clus>
<clus scale="  124.992">  5  9 -1 -1</clus>
<clus scale="  134.841">  2  7  1 -1</clus>
<clus scale="  261.308">  1  5  2 -1</clus>
</clustering>
</event>
<event>
 9    1  0.2728138E-005  0.2559528E+03  0.7546771E-02  0.1146216E+00
         21   -1    0    0  501  502  0.00000000000E+00  0.00000000000E+00  0.98668707994E+02  0.98668707994E+02  0.00000000000E+00 0. -1.
          1   -1    0    0  502    0 -0.00000000000E+00 -0.00000000000E+00 -0.40086657484E+03  0.40086657484E+03  0.00000000000E+00 0. -1.
         23    2    1    2    0    0 -0.37951130265E+02  0.17318233719E+02 -0.32629426061E+00  0.10375974277E+03  0.95004043309E+02 0.  0.
        -24    2    1    2    0    0  0.11584102803E+03 -0.23312123023E+02 -0.28066026740E+03  0.31482689986E+03  0.79894882975E+02 0.  0.
         11    1    4    4    0    0  0.12457433064E+03 -0.22348136862E+02 -0.27830292546E+03  0.30572981764E+03  0.00000000000E+00 0. -1.
        -12    1    4    4    0    0 -0.87333026140E+01 -0.96398616021E+00 -0.23573419375E+01  0.90970822177E+01  0.00000000000E+00 0.  1.
        -11    1    3    3    0    0 -0.65566798504E+02 -0.38881010426E+01 -0.12526081736E+02  0.66865724549E+02  0.00000000000E+00 0.  1.
         11    1    3    3    0    0  0.27615668240E+02  0.21206334762E+02  0.12199787475E+02  0.36894018225E+02  0.00000000000E+00 0. -1.
          2    1    1    2  501    0 -0.77889897764E+02  0.59938893033E+01 -0.21211305188E+02  0.80948640201E+02  0.00000000000E+00 0. -1.
<scales pt_clust_5="13000.00000" pt_clust_6="13000.00000" pt_clust_7="13000.00000" pt_clust_8="13000.00000" pt_clust_9="13000.00000"></scales>
<clustering>
<clus scale="   79.895">  5  6 -1 -1</clus>
<clus scale="   78.120">  5  9 -1 -1</clus>
<clus scale="   95.004">  7  8 -1 -1</clus>
<clus scale="  103.759">  2  7  1 -1</clus>
<clus scale="  255.953">  1  5  2 -1</clus>
</clustering>
</event>
<event>
 9    1  0.2728138E-005  0.2615138E+03  0.7546771E-02  0.1112569E+00
          1   -1    0    0  502    0 -0.00000000000E+00  0.00000000000E+00  0.74880750268E+03  0.74880750268E+03  0.00000000000E+00 0. -1.
         21   -1    0    0  501  502  0.00000000000E+00 -0.00000000000E+00 -0.94172133240E+02  0.94172133240E+02  0.00000000000E+00 0. -1.
         23    2    1    2    0    0 -0.11705270440E+03 -0.16587802103E+03  0.47841756506E+03  0.52763508841E+03  0.91096468104E+02 0.  0.
        -24    2    1    2    0    0  0.31132298587E+02  0.14361051166E+03  0.14237331457E+03  0.22035187622E+03  0.81802136742E+02 0.  0.
         11    1    4    4    0    0  0.22360855347E+02  0.12567389059E+03  0.70636981663E+02  0.14588871720E+03  0.00000000000E+00 0. -1.
        -12    1    4    4    0    0  0.87714432405E+01  0.17936621074E+02  0.71736332907E+02  0.74463159018E+02  0.00000000000E+00 0.  1.
        -11    1    3    3    0    0 -0.11019674945E+03 -0.79986735954E+02  0.28229200641E+03  0.31341662113E+03  0.00000000000E+00 0.  1.
         11    1    3    3    0    0 -0.68559549505E+01 -0.85891285072E+02  0.19612555865E+03  0.21421846728E+03  0.00000000000E+00 0. -1.
          2    1    1    2  501    0  0.85920405814E+02  0.22267509363E+02  0.33844489813E+02  0.94992671292E+02  0.00000000000E+00 0. -1.
<scales pt_clust_5="13000.00000" pt_clust_6="13000.00000" pt_clust_7="13000.00000" pt_clust_8="13000.00000" pt_clust_9="13000.00000"></scales>
<clustering>
<clus scale="   81.802">  5  6 -1 -1</clus>
<clus scale="   88.759">  5  9 -1 -1</clus>
<clus scale="   91.096">  7  8 -1 -1</clus>
<clus scale="  222.521">  1  7  2 -1</clus>
<clus scale="  261.514">  2  5  1 -1</clus>
</clustering>
</event>
<event>
 9    1  0.2728138E-005  0.2637329E+03  0.7546771E-02  0.1135829E+00
          3   -1    0    0  502    0 -0.00000000000E+00  0.00000000000E+00  0.30308616643E+03  0.30308616643E+03  0.00000000000E+00 0. -1.
         21   -1    0    0  501  502  0.00000000000E+00 -0.00000000000E+00 -0.12489252473E+03  0.12489252473E+03  0.00000000000E+00 0. -1.
         23    2    1    2    0    0 -0.87215459853E+01  0.76284896566E+02  0.29889984400E+02  0.12540801068E+03  0.94542620897E+02 0.  0.
        -24    2    1    2    0    0  0.10470355346E+02  0.79864990269E+02  0.50292322270E+02  0.11820130319E+03  0.70385974339E+02 0.  0.
         11    1    4    4    0    0  0.44960339178E+01  0.24268873397E+02  0.56777553692E+02  0.61910282992E+02  0.00000000000E+00 0. -1.
        -12    1    4    4    0    0  0.59743214280E+01  0.55596116872E+02 -0.64852314220E+01  0.56291020193E+02  0.00000000000E+00 0.  1.
        -11    1    3    3    0    0  0.39689924092E+02  0.23116148070E+02 -0.36261369449E+01  0.46073802156E+02  0.00000000000E+00 0. -1.
         11    1    3    3    0    0 -0.48411470077E+02  0.53168748496E+02  0.33516121345E+02  0.79334208521E+02  0.00000000000E+00 0.  1.
          4    1    1    2  501    0 -0.17488093606E+01 -0.15614988683E+03  0.98011335029E+02  0.18436937730E+03  0.00000000000E+00 0. -1.
<scales pt_clust_5="13000.00000" pt_clust_6="13000.00000" pt_clust_7="13000.00000" pt_clust_8="13000.00000" pt_clust_9="13000.00000"></scales>
<clustering>
<clus scale="   70.386">  5  6 -1 -1</clus>
<clus scale="   94.543">  7  8 -1 -1</clus>
<clus scale="  121.794">  1  7  2 -1</clus>
<clus scale="  108.613">  5  9 -1 -1</clus>
<clus scale="  263.733">  2  5  1 -1</clus>
</clustering>
</event>
<event>
 9    1  0.2728138E-005  0.1518591E+03  0.7546771E-02  0.1215581E+00
         21   -1    0    0  501  502  0.00000000000E+00  0.00000000000E+00  0.77593906232E+02  0.77593906232E+02  0.00000000000E+00 0. -1.
          3   -1    0    0  502    0 -0.00000000000E+00 -0.00000000000E+00 -0.23699769571E+03  0.23699769571E+03  0.00000000000E+00 0. -1.
         23    2    1    2    0    0 -0.42761909458E+02  0.27793113364E+02 -0.11698848471E+03  0.15692026806E+03  0.91305130857E+02 0.  0.
        -24    2    1    2    0    0  0.18405730868E+02 -0.37185060803E+02  0.17943307588E+02  0.91909687028E+02  0.80024550024E+02 0.  0.
         13    1    4    4    0    0  0.29153622554E+02 -0.57583049617E+02  0.22605362963E+02  0.68386722000E+02  0.00000000000E+00 0. -1.
        -14    1    4    4    0    0 -0.10747891686E+02  0.20397988814E+02 -0.46620553753E+01  0.23522965027E+02  0.00000000000E+00 0.  1.
        -13    1    3    3    0    0 -0.99079174901E+01  0.58571276485E+02 -0.70841203684E+02  0.92451270394E+02  0.00000000000E+00 0. -1.
         13    1    3    3    0    0 -0.32853991968E+02 -0.30778163121E+02 -0.46147281030E+02  0.64468997664E+02  0.00000000000E+00 0.  1.
          4    1    1    2  501    0  0.24356178590E+02  0.93919474394E+01 -0.60358612351E+02  0.65761646855E+02  0.00000000000E+00 0. -1.
<scales pt_clust_5="13000.00000" pt_clust_6="13000.00000" pt_clust_7="13000.00000" pt_clust_8="13000.00000" pt_clust_9="13000.00000"></scales>
<clustering>
<clus scale="   80.025">  5  6 -1 -1</clus>
<clus scale="   26.104">  5  9 -1 -1</clus>
<clus scale="   91.305">  7  8 -1 -1</clus>
<clus scale="  104.583">  2  7  1 -1</clus>
<clus scale="  151.859">  1  5  2 -1</clus>
</clustering>
</event>
<event>
 9    1  0.2728138E-005  0.6232570E+03  0.7546771E-02  0.1034995E+00
         21   -1    0    0  501  502  0.00000000000E+00  0.00000000000E+00  0.70718220560E+03  0.70718220560E+03  0.00000000000E+00 0. -1.
         -2   -1    0    0    0  501 -0.00000000000E+00 -0.00000000000E+00 -0.21339529733E+03  0.21339529733E+03  0.00000000000E+00 0.  1.
         23    2    1    2    0    0  0.85981367517E+02 -0.51351461167E+02  0.17052654453E+03  0.21847594274E+03  0.92858317033E+02 0.  0.
        -24    2    1    2    0    0 -0.24080433195E+03  0.12599491074E+03  0.41868875501E+03  0.50550966630E+03  0.79864293241E+02 0.  0.
         13    1    4    4    0    0 -0.18921464588E+03  0.12868922170E+03  0.36654038548E+03  0.43210525591E+03  0.00000000000E+00 0. -1.
        -14    1    4    4    0    0 -0.51589686072E+02 -0.26943109566E+01  0.52148369524E+02  0.73404410389E+02  0.00000000000E+00 0.  1.
        -11    1    3    3    0    0  0.55161727308E+02 -0.77078459942E+02  0.13445040307E+03  0.16450172046E+03  0.00000000000E+00 0.  1.
         11    1    3    3    0    0  0.30819640209E+02  0.25726998775E+02  0.36076141456E+02  0.53974222282E+02  0.00000000000E+00 0. -1.
         -1    1    1    2    0  502  0.15482296443E+03 -0.74643449574E+02 -0.95428391270E+02  0.19659189388E+03  0.00000000000E+00 0.  1.
<scales pt_clust_5="13000.00000" pt_clust_6="13000.00000" pt_clust_7="13000.00000" pt_clust_8="13000.00000" pt_clust_9="13000.00000"></scales>
<clustering>
<clus scale="   79.864">  5  6 -1 -1</clus>
<clus scale="   92.858">  7  8 -1 -1</clus>
<clus scale="  136.574">  2  7  1 -1</clus>
<clus scale="  248.863">  5  9 -1 -1</clus>
<clus scale="  623.257">  1  5  2 -1</clus>
</clustering>
</event>
<event>
 9    1  0.2728138E-005  0.6670828E+03  0.7546771E-02  0.1020792E+00
          1   -1    0    0  502    0 -0.00000000000E+00  0.00000000000E+00  0.75261722570E+03  0.75261722570E+03  0.00000000000E+00 0. -1.
         21   -1    0    0  501  502  0.00000000000E+00 -0.00000000000E+00 -0.23396997014E+03  0.23396997014E+03  0.00000000000E+00 0. -1.
         23    2    1    2    0    0  0.12610495461E+03  0.69199289620E+02  0.13424581967E+03  0.21667553346E+03  0.90748804059E+02 0.  0.
        -24    2    1    2    0    0  0.23346395771E+03 -0.31594331003E+02  0.15670864533E+02  0.25351436391E+03  0.92305662942E+02 0.  0.
         11    1    4    4    0    0  0.17240975055E+03 -0.63926437255E+02  0.13913459309E+02  0.18440524888E+03  0.00000000000E+00 0. -1.
        -12    1    4    4    0    0  0.61054207155E+02  0.32332106252E+02  0.17574052244E+01  0.69109115022E+02  0.00000000000E+00 0.  1.
        -13    1    3    3    0    0  0.11232272181E+03  0.43357461368E+02  0.14220192753E+03  0.18632673314E+03  0.00000000000E+00 0. -1.
         13    1    3    3    0    0  0.13782232805E+02  0.25841828252E+02 -0.79561078555E+01  0.30348800317E+02  0.00000000000E+00 0.  1.
          2    1    1    2  501    0 -0.35956891232E+03 -0.37604958617E+02  0.36873057136E+03  0.51639729848E+03  0.00000000000E+00 0. -1.
<scales pt_clust_5="13000.00000" pt_clust_6="13000.00000" pt_clust_7="13000.00000" pt_clust_8="13000.00000" pt_clust_9="13000.00000"></scales>
<clustering>
<clus scale="   90.749">  7  8 -1 -1</clus>
<clus scale="   92.306">  5  6 -1 -1</clus>
<clus scale="  170.077">  1  7  2 -1</clus>
<clus scale="  263.326">  5  9 -1 -1</clus>
<clus scale="  667.083">  2  5  1 -1</clus>
</clustering>
</event>
<event>
 9    1  0.2728138E-005  0.2183653E+03  0.7546771E-02  0.1161410E+00
          1   -1    0    0  502    0 -0.00000000000E+00  0.00000000000E+00  0.69028782387E+02  0.69028782387E+02  0.00000000000E+00 0. -1.
         21   -1    0    0  501  502  0.00000000000E+00 -0.00000000000E+00 -0.43167426345E+03  0.43167426345E+03  0.00000000000E+00 0. -1.
         23    2    1    2    0    0  0.42093435006E+02 -0.56694128761E+02 -0.18678630113E+03  0.22032857487E+03  0.93110026898E+02 0.  0.
        -24    2    1    2    0    0 -0.10019670423E+02 -0.53315993675E+02 -0.46809224868E+02  0.10779160879E+03  0.80529115333E+02 0.  0.
         13    1    4    4    0    0 -0.30683228182E+02 -0.65240687307E+02 -0.42054542975E+02  0.83464916922E+02  0.00000000000E+00 0. -1.
        -14    1    4    4    0    0  0.20663557758E+02  0.11924693632E+02 -0.47546818923E+01  0.24326691870E+02  0.00000000000E+00 0.  1.
        -13    1    3    3    0    0 -0.13722894243E+02 -0.56494244384E+02 -0.70802588456E+02  0.91612903060E+02  0.00000000000E+00 0.  1.
         13    1    3    3    0    0  0.55816329249E+02 -0.19988437671E+00 -0.11598371267E+03  0.12871567181E+03  0.00000000000E+00 0. -1.
          2    1    1    2  501    0 -0.32073764583E+02  0.11001012244E+03 -0.12904995507E+03  0.17258286217E+03  0.00000000000E+00 0. -1.
<scales pt_clust_5="13000.00000" pt_clust_6="13000.00000" pt_clust_7="13000.00000" pt_clust_8="13000.00000" pt_clust_9="13000.00000"></scales>
<clustering>
<clus scale="   80.529">  5  6 -1 -1</clus>
<clus scale="   93.110">  7  8 -1 -1</clus>
<clus scale="  114.590">  5  9 -1 -1</clus>
<clus scale="  116.857">  1  7  2 -1</clus>
<clus scale="  218.365">  2  5  1 -1</clus>
</clustering>
</event>
<event>
 9    1  0.2728138E-005  0.2070028E+03  0.7546771E-02  0.1168632E+00
         21   -1    0    0  501  502  0.00000000000E+00  0.00000000000E+00  0.72134232007E+03  0.72134232007E+03  0.00000000000E+00 0.  1.
          1   -1    0    0  502    0 -0.00000000000E+00 -0.00000000000E+00 -0.36213812382E+02  0.36213812382E+02  0.00000000000E+00 0. -1.
         23    2    1    2    0    0  0.15953732639E+02  0.68538660349E+02  0.25652977338E+03  0.28158653995E+03  0.92365498436E+02 0.  0.
        -24    2    1    2    0    0  0.67767408505E+02 -0.44051784549E+02  0.15861828400E+03  0.19224740425E+03  0.72569436016E+02 0.  0.
         11    1    4    4    0    0  0.69912596898E+02 -0.36826097487E+02  0.16462649712E+03  0.18260836842E+03  0.00000000000E+00 0. -1.
        -12    1    4    4    0    0 -0.21451883931E+01 -0.72256870616E+01 -0.60082131251E+01  0.96390358289E+01  0.00000000000E+00 0.  1.
        -11    1    3    3    0    0  0.41795660415E+02  0.54876060345E+02  0.23597846310E+03  0.24585380672E+03  0.00000000000E+00 0.  1.
         11    1    3    3    0    0 -0.25841927777E+02  0.13662600004E+02  0.20551310280E+02  0.35732733234E+02  0.00000000000E+00 0. -1.
          2    1    1    2  501    0 -0.83721141143E+02 -0.24486875800E+02  0.26998045030E+03  0.28372218825E+03  0.00000000000E+00 0. -1.
<scales pt_clust_5="13000.00000" pt_clust_6="13000.00000" pt_clust_7="13000.00000" pt_clust_8="13000.00000" pt_clust_9="13000.00000"></scales>
<clustering>
<clus scale="   72.569">  5  6 -1 -1</clus>
<clus scale="   87.229">  5  9 -1 -1</clus>
<clus scale="   92.365">  7  8 -1 -1</clus>
<clus scale="  116.118">  2  7  1 -1</clus>
<clus scale="  207.003">  1  5  2 -1</clus>
</clustering>
</event>
<event>
 9    1  0.2728138E-005  0.1580073E+03  0.7546771E-02  0.1212520E+00
         21   -1    0    0  501  502  0.00000000000E+00  0.00000000000E+00  0.16934968942E+02  0.16934968942E+02  0.00000000000E+00 0.  1.
          1   -1    0    0  502    0 -0.00000000000E+00 -0.00000000000E+00 -0.11621584944E+04  0.11621584944E+04  0.00000000000E+00 0. -1.
         23    2    1    2    0    0  0.22454222291E+02 -0.36813696592E+02 -0.23149323328E+03  0.25180205012E+03  0.89194815069E+02 0.  0.
        -24    2    1    2    0    0 -0.49498467711E+02  0.29973189893E+01 -0.80054243314E+03  0.80610383119E+03  0.80474326184E+02 0.  0.
         11    1    4    4    0    0 -0.34442805578E+02 -0.32167504044E+02 -0.26202420270E+03  0.26622873243E+03  0.00000000000E+00 0. -1.
        -12    1    4    4    0    0 -0.15055662133E+02  0.35164823034E+02 -0.53851823044E+03  0.53987509876E+03  0.00000000000E+00 0.  1.
        -13    1    3    3    0    0 -0.32317554471E+02 -0.21823525742E+02 -0.64002200876E+02  0.74946463023E+02  0.00000000000E+00 0.  1.
         13    1    3    3    0    0  0.54771776762E+02 -0.14990170850E+02 -0.16749103241E+03  0.17685558710E+03  0.00000000000E+00 0. -1.
          2    1    1    2  501    0  0.27044245419E+02  0.33816377603E+02 -0.11318785901E+03  0.12118758201E+03  0.00000000000E+00 0. -1.
<scales pt_clust_5="13000.00000" pt_clust_6="13000.00000" pt_clust_7="13000.00000" pt_clust_8="13000.00000" pt_clust_9="13000.00000"></scales>
<clustering>
<clus scale="   80.474">  5  6 -1 -1</clus>
<clus scale="   43.301">  5  9 -1 -1</clus>
<clus scale="   89.195">  7  8 -1 -1</clus>
<clus scale="   99.072">  2  7  1 -1</clus>
<clus scale="  158.007">  1  5  2 -1</clus>
</clustering>
</event>
<event>
 9    1  0.2728138E-005  0.4024058E+03  0.7546771E-02  0.1076904E+00
          1   -1    0    0  502    0 -0.00000000000E+00  0.00000000000E+00  0.33612639656E+03  0.33612639656E+03  0.00000000000E+00 0. -1.
         21   -1    0    0  501  502  0.00000000000E+00 -0.00000000000E+00 -0.46339556291E+03  0.46339556291E+03  0.00000000000E+00 0. -1.
         23    2    1    2    0    0  0.68479411930E+02 -0.93151709853E+02  0.21902096715E+03  0.26862906393E+03  0.10404190996E+03 0.  0.
        -24    2    1    2    0    0  0.64219479858E+02 -0.38213020729E+02 -0.32514189652E+03  0.34297553006E+03  0.79564972230E+02 0.  0.
         11    1    4    4    0    0  0.39608519452E+02 -0.38128808462E+02 -0.30827547743E+03  0.31313960278E+03  0.00000000000E+00 0. -1.
        -12    1    4    4    0    0  0.24610960406E+02 -0.84212267299E-01 -0.16866419088E+02  0.29835927280E+02  0.00000000000E+00 0.  1.
        -13    1    3    3    0    0  0.15373332807E+02 -0.68816710263E+02  0.19147120223E+03  0.20404239818E+03  0.00000000000E+00 0.  1.
         13    1    3    3    0    0  0.53106079122E+02 -0.24334999590E+02  0.27549764919E+02  0.64586665744E+02  0.00000000000E+00 0. -1.
          2    1    1    2  501    0 -0.13269889179E+03  0.13136473058E+03 -0.21148236986E+02  0.18791736548E+03  0.00000000000E+00 0. -1.
<scales pt_clust_5="13000.00000" pt_clust_6="13000.00000" pt_clust_7="13000.00000" pt_clust_8="13000.00000" pt_clust_9="13000.00000"></scales>
<clustering>
<clus scale="   79.565">  5  6 -1 -1</clus>
<clus scale="  104.042">  7  8 -1 -1</clus>
<clus scale="  155.536">  1  7  2 -1</clus>
<clus scale="   85.127">  5  9 -1 -1</clus>
<clus scale="  402.406">  2  5  1 -1</clus>
</clustering>
</event>
<event>
 9    1  0.2728138E-005  0.5005922E+03  0.7546771E-02  0.1044292E+00
         21   -1    0    0  501  502  0.00000000000E+00  0.00000000000E+00  0.30332538366E+03  0.30332538366E+03  0.00000000000E+00 0. -1.
          1   -1    0    0  502    0 -0.00000000000E+00 -0.00000000000E+00 -0.70132414199E+03  0.70132414199E+03  0.00000000000E+00 0. -1.
         23    2    1    2    0    0 -0.11470301435E+03  0.13480379383E+03 -0.45826897096E+03  0.50044221215E+03  0.95410238604E+02 0.  0.
        -24    2    1    2    0    0  0.10207765979E+03  0.14792749925E+03 -0.47887337050E+02  0.20123134214E+03  0.76801447551E+02 0.  0.
         11    1    4    4    0    0  0.11123572418E+03  0.11925819132E+03 -0.28837287904E+02  0.16561247448E+03  0.00000000000E+00 0. -1.
        -12    1    4    4    0    0 -0.91580643887E+01  0.28669307935E+02 -0.19050049146E+02  0.35618867659E+02  0.00000000000E+00 0.  1.
        -13    1    3    3    0    0 -0.90870026246E+02  0.74072398110E+02 -0.18136737606E+03  0.21595880842E+03  0.00000000000E+00 0. -1.
         13    1    3    3    0    0 -0.23832988103E+02  0.60731395724E+02 -0.27690159489E+03  0.28448340374E+03  0.00000000000E+00 0.  1.
          2    1    1    2  501    0  0.12625354560E+02 -0.28273129308E+03  0.10815754968E+03  0.30297597136E+03  0.00000000000E+00 0. -1.
<scales pt_clust_5="13000.00000" pt_clust_6="13000.00000" pt_clust_7="13000.00000" pt_clust_8="13000.00000" pt_clust_9="13000.00000"></scales>
<clustering>
<clus scale="   76.801">  5  6 -1 -1</clus>
<clus scale="   95.410">  7  8 -1 -1</clus>
<clus scale="  201.077">  2  7  1 -1</clus>
<clus scale="  226.732">  5  9 -1 -1</clus>
<clus scale="  500.592">  1  5  2 -1</clus>
</clustering>
</event>
<event>
 9    1  0.2728138E-005  0.2357241E+03  0.7546771E-02  0.1156746E+00
         -2   -1    0    0    0  501 -0.00000000000E+00  0.00000000000E+00  0.61821928377E+03  0.61821928377E+03  0.00000000000E+00 0.  1.
         21   -1    0    0  501  502  0.00000000000E+00 -0.00000000000E+00 -0.76641891149E+02  0.76641891149E+02  0.00000000000E+00 0.  1.
         23    2    1    2    0    0  0.38062777332E+02  0.30179782702E+02  0.41414201251E+03  0.42689542727E+03  0.91468601125E+02 0.  0.
        -24    2    1    2    0    0  0.61906279757E+02 -0.26837607952E+02  0.32421519144E+01  0.10850120477E+03  0.84907921970E+02 0.  0.
         11    1    4    4    0    0  0.38522177471E+02 -0.26245105579E+02  0.42319366407E+02  0.62957862870E+02  0.00000000000E+00 0. -1.
        -12    1    4    4    0    0  0.23384102285E+02 -0.59250237285E+00 -0.39077214493E+02  0.45543341898E+02  0.00000000000E+00 0.  1.
        -13    1    3    3    0    0 -0.15983436189E+02  0.44786565755E+02  0.19519893142E+03  0.20090776374E+03  0.00000000000E+00 0. -1.
         13    1    3    3    0    0  0.54046213521E+02 -0.14606783053E+02  0.21894308110E+03  0.22598766353E+03  0.00000000000E+00 0.  1.
         -1    1    1    2    0  502 -0.99969057089E+02 -0.33421747507E+01  0.12419322819E+03  0.15946454288E+03  0.00000000000E+00 0.  1.
<scales pt_clust_5="13000.00000" pt_clust_6="13000.00000" pt_clust_7="13000.00000" pt_clust_8="13000.00000" pt_clust_9="13000.00000"></scales>
<clustering>
<clus scale="   84.908">  5  6 -1 -1</clus>
<clus scale="   91.469">  7  8 -1 -1</clus>
<clus scale="  100.025">  5  9 -1 -1</clus>
<clus scale="  103.567">  1  7  2 -1</clus>
<clus scale="  235.724">  2  5  1 -1</clus>
</clustering>
</event>
<event>
 9    1  0.2728138E-005  0.2717495E+03  0.7546771E-02  0.1129278E+00
          1   -1    0    0  502    0 -0.00000000000E+00  0.00000000000E+00  0.89590515145E+02  0.89590515145E+02  0.00000000000E+00 0. -1.
         21   -1    0    0  501  502  0.00000000000E+00 -0.00000000000E+00 -0.45203143086E+03  0.45203143086E+03  0.00000000000E+00 0. -1.
         23    2    1    2    0    0 -0.62108679538E+02 -0.67582452427E+02 -0.12233559207E+03  0.17899489920E+03  0.92996241338E+02 0.  0.
        -24    2    1    2    0    0 -0.40041129079E+02 -0.36433894975E+02 -0.22702451010E+02  0.10086762872E+03  0.82025340719E+02 0.  0.
         13    1    4    4    0    0 -0.35837691159E+02 -0.28219992045E+02  0.25180742494E+02  0.52103530122E+02  0.00000000000E+00 0. -1.
        -14    1    4    4    0    0 -0.42034379205E+01 -0.82139029305E+01 -0.47883193504E+02  0.48764098595E+02  0.00000000000E+00 0.  1.
        -11    1    3    3    0    0 -0.49945883964E+02 -0.19541216584E+02 -0.11755046272E+03  0.12920743692E+03  0.00000000000E+00 0. -1.
         11    1    3    3    0    0 -0.12162795574E+02 -0.48041235843E+02 -0.47851293543E+01  0.49787462281E+02  0.00000000000E+00 0.  1.
          2    1    1    2  501    0  0.10214980862E+03  0.10401634740E+03 -0.21740287264E+03  0.26175941809E+03  0.00000000000E+00 0. -1.
<scales pt_clust_5="13000.00000" pt_clust_6="13000.00000" pt_clust_7="13000.00000" pt_clust_8="13000.00000" pt_clust_9="13000.00000"></scales>
<clustering>
<clus scale="   82.025">  5  6 -1 -1</clus>
<clus scale="   92.996">  7  8 -1 -1</clus>
<clus scale="  130.664">  1  7  2 -1</clus>
<clus scale="  112.581">  5  9 -1 -1</clus>
<clus scale="  271.750">  2  5  1 -1</clus>
</clustering>
</event>
<event>
 9    1  0.2728138E-005  0.3693737E+03  0.7546771E-02  0.1100442E+00
         21   -1    0    0  501  502  0.00000000000E+00  0.00000000000E+00  0.92135019923E+02  0.92135019923E+02  0.00000000000E+00 0.  1.
          1   -1    0    0  502    0 -0.00000000000E+00 -0.00000000000E+00 -0.74108059534E+03  0.74108059534E+03  0.00000000000E+00 0. -1.
         23    2    1    2    0    0  0.15162579238E+02 -0.33172885664E+02 -0.32331140192E+03  0.34079857725E+03  0.10140544116E+03 0.  0.
        -24    2    1    2    0    0 -0.93522967256E+02 -0.12810549519E+03 -0.99308234609E+02  0.20367061438E+03  0.80386755127E+02 0.  0.
         13    1    4    4    0    0 -0.30115247964E+02 -0.62996280596E+02 -0.10591329834E+01  0.69832523165E+02  0.00000000000E+00 0. -1.
        -14    1    4    4    0    0 -0.63407719292E+02 -0.65109214595E+02 -0.98249101626E+02  0.13383809122E+03  0.00000000000E+00 0.  1.
        -11    1    3    3    0    0  0.40058121528E+02 -0.46247359792E+02 -0.29353183975E+03  0.29984064490E+03  0.00000000000E+00 0.  1.
         11    1    3    3    0    0 -0.24895542290E+02  0.13074474128E+02 -0.29779562163E+02  0.40957932349E+02  0.00000000000E+00 0. -1.
          2    1    1    2  501    0  0.78360388018E+02  0.16127838086E+03 -0.22632593889E+03  0.28874642363E+03  0.00000000000E+00 0. -1.
<scales pt_clust_5="13000.00000" pt_clust_6="13000.00000" pt_clust_7="13000.00000" pt_clust_8="13000.00000" pt_clust_9="13000.00000"></scales>
<clustering>
<clus scale="   80.387">  5  6 -1 -1</clus>
<clus scale="  101.405">  7  8 -1 -1</clus>
<clus scale="  107.766">  2  7  1 -1</clus>
<clus scale="  165.643">  5  9 -1 -1</clus>
<clus scale="  369.374">  1  5  2 -1</clus>
</clustering>
</event>
<event>
 9    1  0.2728138E-005  0.2804043E+03  0.7546771E-02  0.1134717E+00
          3   -1    0    0  502    0 -0.00000000000E+00  0.00000000000E+00  0.30585345621E+03  0.30585345621E+03  0.00000000000E+00 0. -1.
         21   -1    0    0  501  502  0.00000000000E+00 -0.00000000000E+00 -0.16990497241E+03  0.16990497241E+03  0.00000000000E+00 0. -1.
         23    2    1    2    0    0  0.10746837362E+02 -0.40131580281E+02  0.16367902218E+03  0.19398624159E+03  0.95466231614E+02 0.  0.
        -24    2    1    2    0    0 -0.40505015136E+02  0.14480916092E+03 -0.12172182606E+02  0.17184035602E+03  0.82283635010E+02 0.  0.
         11    1    4    4    0    0 -0.50492569619E+02  0.13910863737E+03 -0.29639012943E+02  0.15092774319E+03  0.00000000000E+00 0. -1.
        -12    1    4    4    0    0  0.99875544833E+01  0.57005235540E+01  0.17466830337E+02  0.20912612830E+02  0.00000000000E+00 0.  1.
        -11    1    3    3    0    0 -0.33733173840E+02  0.10821239927E+02  0.69855029471E+02  0.78324653802E+02  0.00000000000E+00 0.  1.
         11    1    3    3    0    0  0.44480011202E+02 -0.50952820207E+02  0.93823992704E+02  0.11566158779E+03  0.00000000000E+00 0. -1.
          4    1    1    2  501    0  0.29758177774E+02 -0.10467758064E+03 -0.15558355774E+02  0.10993183100E+03  0.00000000000E+00 0. -1.
<scales pt_clust_5="13000.00000" pt_clust_6="13000.00000" pt_clust_7="13000.00000" pt_clust_8="13000.00000" pt_clust_9="13000.00000"></scales>
<clustering>
<clus scale="   82.284">  5  6 -1 -1</clus>
<clus scale="   95.466">  7  8 -1 -1</clus>
<clus scale="  104.115">  1  7  2 -1</clus>
<clus scale="  124.257">  5  9 -1 -1</clus>
<clus scale="  280.404">  2  5  1 -1</clus>
</clustering>
</event>
<event>
 9    1  0.2728138E-005  0.2501006E+03  0.7546771E-02  0.1148114E+00
         21   -1    0    0  501  502  0.00000000000E+00  0.00000000000E+00  0.92234386670E+03  0.92234386670E+03  0.00000000000E+00 0.  1.
          1   -1    0    0  502    0 -0.00000000000E+00 -0.00000000000E+00 -0.39115367452E+02  0.39115367452E+02  0.00000000000E+00 0. -1.
         23    2    1    2    0    0  0.49025720997E+02 -0.17546252768E+02  0.13075953986E+03  0.16851545026E+03  0.92671502671E+02 0.  0.
        -24    2    1    2    0    0 -0.80371744414E+02  0.76125436286E+02  0.23910186402E+03  0.27529538147E+03  0.79769332002E+02 0.  0.
         13    1    4    4    0    0 -0.78229947721E+02  0.44576393063E+02  0.10886597608E+03  0.14127554738E+03  0.00000000000E+00 0. -1.
        -14    1    4    4    0    0 -0.21417966934E+01  0.31549043224E+02  0.13023588794E+03  0.13401983409E+03  0.00000000000E+00 0.  1.
        -13    1    3    3    0    0 -0.12724080971E+02  0.25919493712E+02  0.22918228426E+02  0.36864177531E+02  0.00000000000E+00 0.  1.
         13    1    3    3    0    0  0.61749801969E+02 -0.43465746479E+02  0.10784131143E+03  0.13165127273E+03  0.00000000000E+00 0. -1.
          2    1    1    2  501    0  0.31346023417E+02 -0.58579183519E+02  0.51336709536E+03  0.51764840242E+03  0.00000000000E+00 0. -1.
<scales pt_clust_5="13000.00000" pt_clust_6="13000.00000" pt_clust_7="13000.00000" pt_clust_8="13000.00000" pt_clust_9="13000.00000"></scales>
<clustering>
<clus scale="   79.769">  5  6 -1 -1</clus>
<clus scale="   66.439">  5  9 -1 -1</clus>
<clus scale="   92.672">  7  8 -1 -1</clus>
<clus scale="  106.299">  2  7  1 -1</clus>
<clus scale="  250.101">  1  5  2 -1</clus>
</clustering>
</event>
<event>
 9    1  0.2728138E-005  0.3222676E+03  0.7546771E-02  0.1105197E+00
         -2   -1    0    0    0  501 -0.00000000000E+00  0.00000000000E+00  0.74290808478E+02  0.74290808478E+02  0.00000000000E+00 0.  1.
         21   -1    0    0  501  502  0.00000000000E+00 -0.00000000000E+00 -0.81409681562E+03  0.81409681562E+03  0.00000000000E+00 0.  1.
         23    2    1    2    0    0  0.10691879516E+03 -0.34308453268E+02 -0.37551641316E+03  0.40200984494E+03  0.89390380647E+02 0.  0.
        -24    2    1    2    0    0  0.37899178522E+02 -0.69714489263E+01  0.25804910184E+00  0.91952551891E+02  0.83488061285E+02 0.  0.
         11    1    4    4    0    0 -0.14035698548E+02  0.15762376527E+02  0.22685231411E+02  0.30985045936E+02  0.00000000000E+00 0. -1.
        -12    1    4    4    0    0  0.51934877070E+02 -0.22733825453E+02 -0.22427182309E+02  0.60967505955E+02  0.00000000000E+00 0.  1.
        -11    1    3    3    0    0  0.21294220524E+02 -0.85671893465E+01 -0.88506386104E+01  0.24600291966E+02  0.00000000000E+00 0. -1.
         11    1    3    3    0    0  0.85624574635E+02 -0.25741263922E+02 -0.36666577455E+03  0.37740955298E+03  0.00000000000E+00 0.  1.
         -1    1    1    2    0  502 -0.14481797368E+03  0.41279902195E+02 -0.36454764308E+03  0.39442522726E+03  0.00000000000E+00 0.  1.
<scales pt_clust_5="13000.00000" pt_clust_6="13000.00000" pt_clust_7="13000.00000" pt_clust_8="13000.00000" pt_clust_9="13000.00000"></scales>
<clustering>
<clus scale="   83.488">  5  6 -1 -1</clus>
<clus scale="   89.390">  7  8 -1 -1</clus>
<clus scale="  143.525">  1  7  2 -1</clus>
<clus scale="  123.125">  5  9 -1 -1</clus>
<clus scale="  322.268">  2  5  1 -1</clus>
</clustering>
</event>
<event>
 9    1  0.2728138E-005  0.3054903E+03  0.7546771E-02  0.1130114E+00
         -2   -1    0    0    0  501 -0.00000000000E+00  0.00000000000E+00  0.16829759228E+03  0.16829759228E+03  0.00000000000E+00 0.  1.
         21   -1    0    0  501  502  0.00000000000E+00 -0.00000000000E+00 -0.23391642482E+03  0.23391642482E+03  0.00000000000E+00 0.  1.
         23    2    1    2    0    0 -0.43226645980E+01 -0.95002046158E+01 -0.17737916827E+01  0.90123501705E+02  0.89499496678E+02 0.  0.
        -24    2    1    2    0    0 -0.18825193223E+02 -0.40644452690E+02  0.10187907798E+03  0.13740567478E+03  0.80589164880E+02 0.  0.
         11    1    4    4    0    0 -0.22080432053E+02 -0.64438930420E+02  0.77597364157E+02  0.10325343654E+03  0.00000000000E+00 0. -1.
        -12    1    4    4    0    0  0.32552388302E+01  0.23794477730E+02  0.24281713827E+02  0.34152238238E+02  0.00000000000E+00 0.  1.
        -11    1    3    3    0    0 -0.45975865021E+02  0.44073501897E+01 -0.40004983240E+00  0.46188363686E+02  0.00000000000E+00 0.  1.
         11    1    3    3    0    0  0.41653200423E+02 -0.13907554806E+02 -0.13737418503E+01  0.43935138019E+02  0.00000000000E+00 0. -1.
         -1    1    1    2    0  502  0.23147857821E+02  0.50144657306E+02 -0.16572411884E+03  0.17468484062E+03  0.00000000000E+00 0.  1.
<scales pt_clust_5="13000.00000" pt_clust_6="13000.00000" pt_clust_7="13000.00000" pt_clust_8="13000.00000" pt_clust_9="13000.00000"></scales>
<clustering>
<clus scale="   80.589">  5  6 -1 -1</clus>
<clus scale="   55.230">  5  9 -1 -1</clus>
<clus scale="   89.499">  7  8 -1 -1</clus>
<clus scale="   90.106">  1  7  2 -1</clus>
<clus scale="  305.490">  2  5  1 -1</clus>
</clustering>
</event>
<event>
 9    1  0.2728138E-005  0.1835308E+03  0.7546771E-02  0.1184508E+00
         21   -1    0    0  501  502  0.00000000000E+00  0.00000000000E+00  0.10396738822E+03  0.10396738822E+03  0.00000000000E+00 0. -1.
          3   -1    0    0  502    0 -0.00000000000E+00 -0.00000000000E+00 -0.32455634161E+03  0.32455634161E+03  0.00000000000E+00 0. -1.
         23    2    1    2    0    0  0.50123999700E+02 -0.48388329943E+02 -0.21551970995E+03  0.24492292769E+03  0.93191465849E+02 0.  0.
        -24    2    1    2    0    0 -0.83247721950E+02  0.63070567031E+01 -0.34887748173E+02  0.12230514359E+03  0.82288705187E+02 0.  0.
         11    1    4    4    0    0 -0.76926362749E+02  0.35765105668E+02 -0.14856054776E+02  0.86124969856E+02  0.00000000000E+00 0. -1.
        -12    1    4    4    0    0 -0.63213592017E+01 -0.29458048965E+02 -0.20031693397E+02  0.36180173732E+02  0.00000000000E+00 0.  1.
        -11    1    3    3    0    0  0.32847958780E+02 -0.36089136632E+02 -0.21816089499E+03  0.22355220930E+03  0.00000000000E+00 0. -1.
         11    1    3    3    0    0  0.17276040921E+02 -0.12299193311E+02  0.26411850377E+01  0.21370718387E+02  0.00000000000E+00 0.  1.
          4    1    1    2  501    0  0.33123722250E+02  0.42081273240E+02  0.29818504731E+02  0.61295658554E+02  0.00000000000E+00 0. -1.
<scales pt_clust_5="13000.00000" pt_clust_6="13000.00000" pt_clust_7="13000.00000" pt_clust_8="13000.00000" pt_clust_9="13000.00000"></scales>
<clustering>
<clus scale="   82.289">  5  6 -1 -1</clus>
<clus scale="   53.554">  5  9 -1 -1</clus>
<clus scale="   93.191">  7  8 -1 -1</clus>
<clus scale="  116.355">  2  7  1 -1</clus>
<clus scale="  183.531">  1  5  2 -1</clus>
</clustering>
</event>
<event>
 9    1  0.2728138E-005  0.4395827E+03  0.7546771E-02  0.1080234E+00
         21   -1    0    0  501  502  0.00000000000E+00  0.00000000000E+00  0.73345064724E+03  0.73345064724E+03  0.00000000000E+00 0.  1.
         -4   -1    0    0    0  501 -0.00000000000E+00 -0.00000000000E+00 -0.14493857428E+03  0.14493857428E+03  0.00000000000E+00 0.  1.
         23    2    1    2    0    0 -0.55983940342E+02  0.21379719309E+02 -0.35859360419E+02  0.11479729706E+03  0.91111095418E+02 0.  0.
        -24    2    1    2    0    0 -0.80711783564E+02 -0.13815948185E+03  0.53208939824E+03  0.56150479502E+03  0.81031306837E+02 0.  0.
         11    1    4    4    0    0  0.13467911657E+02 -0.14808829687E+02  0.30726805848E+02  0.36671824044E+02  0.00000000000E+00 0. -1.
        -12    1    4    4    0    0 -0.94179695220E+02 -0.12335065216E+03  0.50136259239E+03  0.52483297098E+03  0.00000000000E+00 0.  1.
        -13    1    3    3    0    0 -0.38236176416E+01 -0.20760369331E+02  0.18814566259E+02  0.28277215035E+02  0.00000000000E+00 0. -1.
         13    1    3    3    0    0 -0.52160322701E+02  0.42140088641E+02 -0.54673926678E+02  0.86520082023E+02  0.00000000000E+00 0.  1.
         -3    1    1    2    0  502  0.13669572391E+03  0.11677976254E+03  0.92282035146E+02  0.20208712944E+03  0.00000000000E+00 0.  1.
<scales pt_clust_5="13000.00000" pt_clust_6="13000.00000" pt_clust_7="13000.00000" pt_clust_8="13000.00000" pt_clust_9="13000.00000"></scales>
<clustering>
<clus scale="   81.031">  5  6 -1 -1</clus>
<clus scale="   91.111">  7  8 -1 -1</clus>
<clus scale="  109.053">  2  7  1 -1</clus>
<clus scale="  162.555">  5  9 -1 -1</clus>
<clus scale="  439.583">  1  5  2 -1</clus>
</clustering>
</event>
<event>
 9    1  0.2728138E-005  0.4131172E+03  0.7546771E-02  0.1066005E+00
         21   -1    0    0  501  502  0.00000000000E+00  0.00000000000E+00  0.28807540747E+03  0.28807540747E+03  0.00000000000E+00 0. -1.
          1   -1    0    0  502    0 -0.00000000000E+00 -0.00000000000E+00 -0.34235325505E+03  0.34235325505E+03  0.00000000000E+00 0. -1.
         23    2    1    2    0    0 -0.16636358406E+03 -0.32612889090E+02 -0.94146696663E+02  0.21539214365E+03  0.93753572820E+02 0.  0.
        -24    2    1    2    0    0 -0.72791936444E+02 -0.76844672571E+02 -0.43757227430E+02  0.13904803820E+03  0.78840930106E+02 0.  0.
         13    1    4    4    0    0 -0.68843239498E+02 -0.73246456745E+02 -0.57692272876E+01  0.10068624054E+03  0.00000000000E+00 0. -1.
        -14    1    4    4    0    0 -0.39486969456E+01 -0.35982158257E+01 -0.37988000142E+02  0.38361797657E+02  0.00000000000E+00 0.  1.
        -11    1    3    3    0    0 -0.11012240696E+02 -0.22054737195E+02  0.11524057997E+02  0.27211850187E+02  0.00000000000E+00 0.  1.
         11    1    3    3    0    0 -0.15535134337E+03 -0.10558151895E+02 -0.10567075466E+03  0.18818029346E+03  0.00000000000E+00 0. -1.
          2    1    1    2  501    0  0.23915552051E+03  0.10945756166E+03  0.83626076516E+02  0.27598848068E+03  0.00000000000E+00 0. -1.
<scales pt_clust_5="13000.00000" pt_clust_6="13000.00000" pt_clust_7="13000.00000" pt_clust_8="13000.00000" pt_clust_9="13000.00000"></scales>
<clustering>
<clus scale="   78.841">  5  6 -1 -1</clus>
<clus scale="   93.754">  7  8 -1 -1</clus>
<clus scale="  193.727">  2  7  1 -1</clus>
<clus scale="  179.642">  5  9 -1 -1</clus>
<clus scale="  413.117">  1  5  2 -1</clus>
</clustering>
</event>
<event>
 9    1  0.2728138E-005  0.2633076E+03  0.7546771E-02  0.1140945E+00
          1   -1    0    0  502    0 -0.00000000000E+00  0.00000000000E+00  0.15832253382E+03  0.15832253382E+03  0.00000000000E+00 0. -1.
         21   -1    0    0  501  502  0.00000000000E+00 -0.00000000000E+00 -0.23423358734E+03  0.23423358734E+03  0.00000000000E+00 0. -1.
         23    2    1    2    0    0  0.18967967292E+02 -0.53371279320E+02  0.24280996712E+02  0.11083045877E+03  0.92117026388E+02 0.  0.
        -24    2    1    2    0    0  0.58722052539E+02 -0.90062252689E+01  0.38800639556E+02  0.11071203697E+03  0.84983962916E+02 0.  0.
         11    1    4    4    0    0  0.21293969504E+02 -0.96278378179E+01 -0.26568378882E+02  0.35383713128E+02  0.00000000000E+00 0. -1.
        -12    1    4    4    0    0  0.37428083035E+02  0.62161254909E+00  0.65369018438E+02  0.75328323846E+02  0.00000000000E+00 0.  1.
        -13    1    3    3    0    0  0.50119069536E+02 -0.41528491080E+02  0.37337843340E+02  0.75037665527E+02  0.00000000000E+00 0. -1.
         13    1    3    3    0    0 -0.31151102244E+02 -0.11842788241E+02 -0.13056846628E+02  0.35792793244E+02  0.00000000000E+00 0.  1.
          2    1    1    2  501    0 -0.77690019831E+02  0.62377504589E+02 -0.13899268979E+03  0.17101362541E+03  0.00000000000E+00 0. -1.
<scales pt_clust_5="13000.00000" pt_clust_6="13000.00000" pt_clust_7="13000.00000" pt_clust_8="13000.00000" pt_clust_9="13000.00000"></scales>
<clustering>
<clus scale="   84.984">  5  6 -1 -1</clus>
<clus scale="   92.117">  7  8 -1 -1</clus>
<clus scale="   99.633">  5  9 -1 -1</clus>
<clus scale="  108.138">  1  7  2 -1</clus>
<clus scale="  263.308">  2  5  1 -1</clus>
</clustering>
</event>
<event>
 9    1  0.2728138E-005  0.3560711E+03  0.7546771E-02  0.1098428E+00
         21   -1    0    0  501  502  0.00000000000E+00  0.00000000000E+00  0.12891620979E+03  0.12891620979E+03  0.00000000000E+00 0. -1.
          1   -1    0    0  502    0 -0.00000000000E+00 -0.00000000000E+00 -0.52966661291E+03  0.52966661291E+03  0.00000000000E+00 0. -1.
         23    2    1    2    0    0  0.54932291009E+02  0.67695929827E+02 -0.23239168001E+03  0.26471574092E+03  0.92023013644E+02 0.  0.
        -24    2    1    2    0    0 -0.58425010523E+02  0.12226470903E+03 -0.11989731500E+03  0.19779119985E+03  0.79899009158E+02 0.  0.
         11    1    4    4    0    0  0.16723742814E+02  0.49673180575E+02 -0.33407937456E+02  0.62154635605E+02  0.00000000000E+00 0. -1.
        -12    1    4    4    0    0 -0.75148753338E+02  0.72591528453E+02 -0.86489377549E+02  0.13563656424E+03  0.00000000000E+00 0.  1.
        -11    1    3    3    0    0 -0.13401744261E+02  0.44059810968E+02 -0.47366856398E+02  0.66064307889E+02  0.00000000000E+00 0.  1.
         11    1    3    3    0    0  0.68334035271E+02  0.23636118859E+02 -0.18502482361E+03  0.19865143303E+03  0.00000000000E+00 0. -1.
          2    1    1    2  501    0  0.34927195137E+01 -0.18996063885E+03 -0.48461408105E+02  0.19607588194E+03  0.00000000000E+00 0. -1.
<scales pt_clust_5="13000.00000" pt_clust_6="13000.00000" pt_clust_7="13000.00000" pt_clust_8="13000.00000" pt_clust_9="13000.00000"></scales>
<clustering>
<clus scale="   79.899">  5  6 -1 -1</clus>
<clus scale="   92.023">  7  8 -1 -1</clus>
<clus scale="  126.762">  2  7  1 -1</clus>
<clus scale="  162.836">  5  9 -1 -1</clus>
<clus scale="  356.071">  1  5  2 -1</clus>
</clustering>
</event>
<event>
 9    1  0.2728138E-005  0.1492811E+03  0.7546771E-02  0.1213179E+00
         21   -1    0    0  501  502  0.00000000000E+00  0.00000000000E+00  0.32644714782E+03  0.32644714782E+03  0.00000000000E+00 0.  1.
         -4   -1    0    0    0  501 -0.00000000000E+00 -0.00000000000E+00 -0.54382857161E+02  0.54382857161E+02  0.00000000000E+00 0.  1.
         23    2    1    2    0    0 -0.59002444256E+02 -0.42614261772E+02  0.10001982834E+03  0.15304907566E+03  0.90126520869E+02 0.  0.
        -24    2    1    2    0    0 -0.99669742326E+00  0.37025565594E+02  0.99259353017E+02  0.13328858750E+03  0.80879802691E+02 0.  0.
         11    1    4    4    0    0  0.69935296599E+01  0.55193777391E+02  0.34285814503E+02  0.65351201947E+02  0.00000000000E+00 0. -1.
        -12    1    4    4    0    0 -0.79902270831E+01 -0.18168211798E+02  0.64973538515E+02  0.67937385554E+02  0.00000000000E+00 0.  1.
        -11    1    3    3    0    0 -0.36686658187E+02 -0.70477115108E+02  0.61046612260E+02  0.10019792169E+03  0.00000000000E+00 0. -1.
         11    1    3    3    0    0 -0.22315786069E+02  0.27862853336E+02  0.38973216085E+02  0.52851153969E+02  0.00000000000E+00 0.  1.
         -3    1    1    2    0  502  0.59999141679E+02  0.55886961779E+01  0.72785109301E+02  0.94492341823E+02  0.00000000000E+00 0.  1.
<scales pt_clust_5="13000.00000" pt_clust_6="13000.00000" pt_clust_7="13000.00000" pt_clust_8="13000.00000" pt_clust_9="13000.00000"></scales>
<clustering>
<clus scale="   80.880">  5  6 -1 -1</clus>
<clus scale="   60.259">  5  9 -1 -1</clus>
<clus scale="   90.127">  7  8 -1 -1</clus>
<clus scale="  115.845">  2  7  1 -1</clus>
<clus scale="  149.281">  1  5  2 -1</clus>
</clustering>
</event>
<event>
 9    1  0.2728138E-005  0.3345589E+03  0.7546771E-02  0.1114884E+00
         21   -1    0    0  501  502  0.00000000000E+00  0.00000000000E+00  0.92463077562E+03  0.92463077562E+03  0.00000000000E+00 0. -1.
         -4   -1    0    0    0  501 -0.00000000000E+00 -0.00000000000E+00 -0.52561126797E+02  0.52561126797E+02  0.00000000000E+00 0.  1.
         23    2    1    2    0    0  0.36267712619E+02 -0.19573089659E+01  0.13881747525E+03  0.17122144380E+03  0.93420090699E+02 0.  0.
        -24    2    1    2    0    0 -0.99273228992E+02 -0.11736392760E+02  0.73055907122E+03  0.74143778967E+03  0.77592026034E+02 0.  0.
         11    1    4    4    0    0 -0.89267007679E+02 -0.27071330991E+02  0.41529127191E+03  0.42563869202E+03  0.00000000000E+00 0. -1.
        -12    1    4    4    0    0 -0.10006221312E+02  0.15334938231E+02  0.31526779930E+03  0.31579909764E+03  0.00000000000E+00 0.  1.
        -13    1    3    3    0    0 -0.82476459656E+00  0.20526547752E+02 -0.48846842323E+01  0.21115859900E+02  0.00000000000E+00 0. -1.
         13    1    3    3    0    0  0.37092477216E+02 -0.22483856718E+02  0.14370215948E+03  0.15010558390E+03  0.00000000000E+00 0.  1.
         -3    1    1    2    0  502  0.63005516373E+02  0.13693701726E+02  0.26931023536E+01  0.64532668941E+02  0.00000000000E+00 0.  1.
<scales pt_clust_5="13000.00000" pt_clust_6="13000.00000" pt_clust_7="13000.00000" pt_clust_8="13000.00000" pt_clust_9="13000.00000"></scales>
<clustering>
<clus scale="   77.592">  5  6 -1 -1</clus>
<clus scale="   64.476">  5  9 -1 -1</clus>
<clus scale="   93.420">  7  8 -1 -1</clus>
<clus scale="  100.232">  2  7  1 -1</clus>
<clus scale="  334.559">  1  5  2 -1</clus>
</clustering>
</event>
<event>
 9    1  0.2728138E-005  0.3369163E+03  0.7546771E-02  0.1108643E+00
         -2   -1    0    0    0  501 -0.00000000000E+00  0.00000000000E+00  0.73468002709E+02  0.73468002709E+02  0.00000000000E+00 0.  1.
         21   -1    0    0  501  502  0.00000000000E+00 -0.00000000000E+00 -0.69623750236E+03  0.69623750236E+03  0.00000000000E+00 0.  1.
         23    2    1    2    0    0  0.72056349847E+02 -0.55830939975E+01 -0.14424516495E+03  0.18447208379E+03  0.89442683296E+02 0.  0.
        -24    2    1    2    0    0 -0.13735559318E+03 -0.65275098856E+02 -0.10902705937E+03  0.20337859133E+03  0.79677815166E+02 0.  0.
         11    1    4    4    0    0 -0.25576590347E+02 -0.38583715768E+02 -0.19942636717E+01  0.46334028357E+02  0.00000000000E+00 0. -1.
        -12    1    4    4    0    0 -0.11177900283E+03 -0.26691383088E+02 -0.10703279570E+03  0.15704456298E+03  0.00000000000E+00 0.  1.
        -13    1    3    3    0    0  0.17662964446E+01 -0.21221447497E+02 -0.94701040728E+02  0.97065734181E+02  0.00000000000E+00 0. -1.
         13    1    3    3    0    0  0.70290053403E+02  0.15638353500E+02 -0.49544124224E+02  0.87406349613E+02  0.00000000000E+00 0.  1.
         -1    1    1    2    0  502  0.65299243333E+02  0.70858192853E+02 -0.36949727534E+03  0.38185482995E+03  0.00000000000E+00 0.  1.
<scales pt_clust_5="13000.00000" pt_clust_6="13000.00000" pt_clust_7="13000.00000" pt_clust_8="13000.00000" pt_clust_9="13000.00000"></scales>
<clustering>
<clus scale="   79.678">  5  6 -1 -1</clus>
<clus scale="   89.443">  7  8 -1 -1</clus>
<clus scale="   96.358">  5  9 -1 -1</clus>
<clus scale="  114.993">  1  7  2 -1</clus>
<clus scale="  336.916">  2  5  1 -1</clus>
</clustering>
</event>
<event>
 9    1  0.2728138E-005  0.2093556E+03  0.7546771E-02  0.1173741E+00
          3   -1    0    0  502    0 -0.00000000000E+00  0.00000000000E+00  0.15779687488E+03  0.15779687488E+03  0.00000000000E+00 0. -1.
         21   -1    0    0  501  502  0.00000000000E+00 -0.00000000000E+00 -0.28261784280E+03  0.28261784280E+03  0.00000000000E+00 0. -1.
         23    2    1    2    0    0  0.34552655881E+02  0.23436337500E+02  0.94290169617E+02  0.13736445507E+03  0.90748055005E+02 0.  0.
        -24    2    1    2    0    0  0.51871954477E+02  0.38605290422E+02 -0.95877769644E+02  0.14024719189E+03  0.79345195264E+02 0.  0.
         11    1    4    4    0    0  0.41166264752E+02  0.62813628704E+02 -0.62915584340E+02  0.97972363743E+02  0.00000000000E+00 0. -1.
        -12    1    4    4    0    0  0.10705689725E+02 -0.24208338282E+02 -0.32962185304E+02  0.42274828148E+02  0.00000000000E+00 0.  1.
        -11    1    3    3    0    0  0.21038202380E+02 -0.29269695939E+02  0.10655421791E+02  0.37588017683E+02  0.00000000000E+00 0.  1.
         11    1    3    3    0    0  0.13514453501E+02  0.52706033439E+02  0.83634747826E+02  0.99776437390E+02  0.00000000000E+00 0. -1.
          4    1    1    2  501    0 -0.86424610358E+02 -0.62041627923E+02 -0.12323336790E+03  0.16280307072E+03  0.00000000000E+00 0. -1.
<scales pt_clust_5="13000.00000" pt_clust_6="13000.00000" pt_clust_7="13000.00000" pt_clust_8="13000.00000" pt_clust_9="13000.00000"></scales>
<clustering>
<clus scale="   79.345">  5  6 -1 -1</clus>
<clus scale="   90.748">  7  8 -1 -1</clus>
<clus scale="   99.892">  1  7  2 -1</clus>
<clus scale="   86.715">  5  9 -1 -1</clus>
<clus scale="  209.356">  2  5  1 -1</clus>
</clustering>
</event>
<event>
 9    1  0.2728138E-005  0.5217073E+03  0.7546771E-02  0.1064782E+00
         -2   -1    0    0    0  501 -0.00000000000E+00  0.00000000000E+00  0.60334087807E+03  0.60334087807E+03  0.00000000000E+00 0.  1.
         21   -1    0    0  501  502  0.00000000000E+00 -0.00000000000E+00 -0.16710890700E+03  0.16710890700E+03  0.00000000000E+00 0.  1.
         23    2    1    2    0    0 -0.24216539103E+02  0.32447241559E+02  0.16511480443E+02  0.10086498159E+03  0.90894726324E+02 0.  0.
        -24    2    1    2    0    0  0.33890095550E+02 -0.22820726225E+03  0.39692828010E+03  0.47226514339E+03  0.11070326555E+03 0.  0.
         13    1    4    4    0    0  0.42803190879E+02 -0.16996265002E+03  0.19628388002E+03  0.26314782368E+03  0.00000000000E+00 0. -1.
        -14    1    4    4    0    0 -0.89130953289E+01 -0.58244612231E+02  0.20064440007E+03  0.20911731971E+03  0.00000000000E+00 0.  1.
        -11    1    3    3    0    0 -0.50287147989E+02  0.64559959925E+01 -0.14497657480E+02  0.52731956247E+02  0.00000000000E+00 0.  1.
         11    1    3    3    0    0  0.26070608887E+02  0.25991245566E+02  0.31009137923E+02  0.48133025342E+02  0.00000000000E+00 0. -1.
         -1    1    1    2    0  502 -0.96735564471E+01  0.19576002069E+03  0.22792210534E+02  0.19731966009E+03  0.00000000000E+00 0.  1.
<scales pt_clust_5="13000.00000" pt_clust_6="13000.00000" pt_clust_7="13000.00000" pt_clust_8="13000.00000" pt_clust_9="13000.00000"></scales>
<clustering>
<clus scale="   90.895">  7  8 -1 -1</clus>
<clus scale="   99.504">  1  7  2 -1</clus>
<clus scale="  110.703">  5  6 -1 -1</clus>
<clus scale="  202.840">  5  9 -1 -1</clus>
<clus scale="  521.707">  2  5  1 -1</clus>
</clustering>
</event>
<event>
 9    1  0.2728138E-005  0.4337907E+03  0.7546771E-02  0.1087510E+00
          1   -1    0    0  502    0 -0.00000000000E+00  0.00000000000E+00  0.96791359022E+03  0.96791359022E+03  0.00000000000E+00 0. -1.
         21   -1    0    0  501  502  0.00000000000E+00 -0.00000000000E+00 -0.73540859512E+02  0.73540859512E+02  0.00000000000E+00 0. -1.
         23    2    1    2    0    0  0.27849915556E+02 -0.11453099705E+01  0.10346865732E+03  0.13939923266E+03  0.89159707759E+02 0.  0.
        -24    2    1    2    0    0  0.19087450059E+03  0.33926960450E+02  0.38088059052E+03  0.43618585413E+03  0.87200696582E+02 0.  0.
         13    1    4    4    0    0  0.18358633847E+03  0.15825320043E+02  0.29270306799E+03  0.34587493467E+03  0.00000000000E+00 0. -1.
        -14    1    4    4    0    0  0.72881621245E+01  0.18101640407E+02  0.88177522535E+02  0.90310919456E+02  0.00000000000E+00 0.  1.
        -13    1    3    3    0    0  0.14153388521E+02  0.15518540678E+02 -0.10447864427E+02  0.23458503415E+02  0.00000000000E+00 0.  1.
         13    1    3    3    0    0  0.13696527035E+02 -0.16663850648E+02  0.11391652175E+03  0.11594072925E+03  0.00000000000E+00 0. -1.
          2    1    1    2  501    0 -0.21872441615E+03 -0.32781650480E+02  0.41002348286E+03  0.46586936294E+03  0.00000000000E+00 0. -1.
<scales pt_clust_5="13000.00000" pt_clust_6="13000.00000" pt_clust_7="13000.00000" pt_clust_8="13000.00000" pt_clust_9="13000.00000"></scales>
<clustering>
<clus scale="   87.201">  5  6 -1 -1</clus>
<clus scale="   89.160">  7  8 -1 -1</clus>
<clus scale="   93.415">  1  7  2 -1</clus>
<clus scale="  207.024">  5  9 -1 -1</clus>
<clus scale="  433.791">  2  5  1 -1</clus>
</clustering>
</event>
<event>
 9    1  0.2728138E-005  0.2288994E+03  0.7546771E-02  0.1141061E+00
         21   -1    0    0  501  502  0.00000000000E+00  0.00000000000E+00  0.26259283308E+02  0.26259283308E+02  0.00000000000E+00 0. -1.
          1   -1    0    0  502    0 -0.00000000000E+00 -0.00000000000E+00 -0.14836034627E+04  0.14836034627E+04  0.00000000000E+00 0. -1.
         23    2    1    2    0    0 -0.85032154723E+02  0.10299201510E+03 -0.54034077363E+03  0.56472245730E+03  0.95422636821E+02 0.  0.
        -24    2    1    2    0    0  0.11916101065E+03 -0.35796839628E+02 -0.69677328984E+03  0.71237157438E+03  0.80619367157E+02 0.  0.
         11    1    4    4    0    0  0.12525187819E+03 -0.17737060740E+02 -0.54967279305E+03  0.56404150178E+03  0.00000000000E+00 0. -1.
        -12    1    4    4    0    0 -0.60908675315E+01 -0.18059778888E+02 -0.14710049679E+03  0.14833007260E+03  0.00000000000E+00 0.  1.
        -11    1    3    3    0    0 -0.71448680989E+02  0.12553974173E+02 -0.22714704524E+03  0.23844977761E+03  0.00000000000E+00 0.  1.
         11    1    3    3    0    0 -0.13583473734E+02  0.90438040928E+02 -0.31319372840E+03  0.32627267969E+03  0.00000000000E+00 0. -1.
          2    1    1    2  501    0 -0.34128855931E+02 -0.67195175473E+02 -0.22023011596E+03  0.23276871437E+03  0.00000000000E+00 0. -1.
<scales pt_clust_5="13000.00000" pt_clust_6="13000.00000" pt_clust_7="13000.00000" pt_clust_8="13000.00000" pt_clust_9="13000.00000"></scales>
<clustering>
<clus scale="   80.619">  5  6 -1 -1</clus>
<clus scale="   75.366">  5  9 -1 -1</clus>
<clus scale="   95.423">  7  8 -1 -1</clus>
<clus scale="  164.144">  2  7  1 -1</clus>
<clus scale="  228.899">  1  5  2 -1</clus>
</clustering>
</event>
<event>
 9    1  0.2728138E-005  0.2190124E+03  0.7546771E-02  0.1160283E+00
          3   -1    0    0  502    0 -0.00000000000E+00  0.00000000000E+00  0.71087733109E+03  0.71087733109E+03  0.00000000000E+00 0. -1.
         21   -1    0    0  501  502  0.00000000000E+00 -0.00000000000E+00 -0.44153577849E+02  0.44153577849E+02  0.00000000000E+00 0. -1.
         23    2    1    2    0    0  0.74814042089E+02  0.12415526279E+02  0.13456957971E+03  0.17957067768E+03  0.91571667621E+02 0.  0.
        -24    2    1    2    0    0 -0.25545732656E+01  0.49868998273E+01  0.65681574321E+02  0.10310341584E+03  0.79277046724E+02 0.  0.
         13    1    4    4    0    0 -0.59281255120E+01  0.41438025585E+02  0.43150471212E+02  0.60118348300E+02  0.00000000000E+00 0. -1.
        -14    1    4    4    0    0  0.33735522464E+01 -0.36451125758E+02  0.22531103109E+02  0.42985067536E+02  0.00000000000E+00 0.  1.
        -13    1    3    3    0    0  0.52874006614E+02  0.48947866719E+02  0.10635061670E+03  0.12846014131E+03  0.00000000000E+00 0.  1.
         13    1    3    3    0    0  0.21940035475E+02 -0.36532340440E+02  0.28218963012E+02  0.51110536371E+02  0.00000000000E+00 0. -1.
          4    1    1    2  501    0 -0.72259468823E+02 -0.17402426106E+02  0.46647259920E+03  0.47235681542E+03  0.00000000000E+00 0. -1.
<scales pt_clust_5="13000.00000" pt_clust_6="13000.00000" pt_clust_7="13000.00000" pt_clust_8="13000.00000" pt_clust_9="13000.00000"></scales>
<clustering>
<clus scale="   79.277">  5  6 -1 -1</clus>
<clus scale="   74.326">  5  9 -1 -1</clus>
<clus scale="   91.572">  7  8 -1 -1</clus>
<clus scale="  118.898">  1  7  2 -1</clus>
<clus scale="  219.012">  2  5  1 -1</clus>
</clustering>
</event>
<event>
 9    1  0.2728138E-005  0.3132710E+03  0.7546771E-02  0.1105067E+00
         21   -1    0    0  501  502  0.00000000000E+00  0.00000000000E+00  0.12187274657E+03  0.12187274657E+03  0.00000000000E+00 0. -1.
          1   -1    0    0  502    0 -0.00000000000E+00 -0.00000000000E+00 -0.51469666558E+03  0.51469666558E+03  0.00000000000E+00 0. -1.
         23    2    1    2    0    0  0.10842357759E+03  0.63234666686E+02 -0.34332303515E+02  0.16048646340E+03  0.93930307257E+02 0.  0.
        -24    2    1    2    0    0  0.81262223527E+02 -0.60324858757E+01 -0.14652487386E+03  0.18594041103E+03  0.80401230932E+02 0.  0.
         13    1    4    4    0    0  0.73788375779E+02 -0.32333228068E+02 -0.13285277141E+03  0.15537059216E+03  0.00000000000E+00 0. -1.
        -14    1    4    4    0    0  0.74738477480E+01  0.26300742193E+02 -0.13672102446E+02  0.30569818863E+02  0.00000000000E+00 0.  1.
        -13    1    3    3    0    0 -0.19696734357E+01  0.42324277260E+02  0.19567879858E+01  0.42415245823E+02  0.00000000000E+00 0.  1.
         13    1    3    3    0    0  0.11039325103E+03  0.20910389426E+02 -0.36289091500E+02  0.11807121758E+03  0.00000000000E+00 0. -1.
          2    1    1    2  501    0 -0.18968580112E+03 -0.57202180810E+02 -0.21196674164E+03  0.29014253773E+03  0.00000000000E+00 0. -1.
<scales pt_clust_5="13000.00000" pt_clust_6="13000.00000" pt_clust_7="13000.00000" pt_clust_8="13000.00000" pt_clust_9="13000.00000"></scales>
<clustering>
<clus scale="   80.401">  5  6 -1 -1</clus>
<clus scale="   93.930">  7  8 -1 -1</clus>
<clus scale="  156.771">  2  7  1 -1</clus>
<clus scale="  125.920">  5  9 -1 -1</clus>
<clus scale="  313.271">  1  5  2 -1</clus>
</clustering>
</event>
<event>
 9    1  0.2728138E-005  0.1621941E+03  0.7546771E-02  0.1189204E+00
         -4   -1    0    0    0  501 -0.00000000000E+00  0.00000000000E+00  0.20421735492E+03  0.20421735492E+03  0.00000000000E+00 0.  1.
         21   -1    0    0  501  502  0.00000000000E+00 -0.00000000000E+00 -0.14357530465E+03  0.14357530465E+03  0.00000000000E+00 0.  1.
         23    2    1    2    0    0 -0.11886057647E+03 -0.28782618703E+02  0.98779754355E+02  0.18117513411E+03  0.90059500172E+02 0.  0.
        -24    2    1    2    0    0  0.69271392636E+02  0.19310915035E+02 -0.45161183502E+02  0.11564567454E+03  0.78504472910E+02 0.  0.
         13    1    4    4    0    0  0.41808308570E+02  0.14239235270E+02  0.17136494728E+02  0.47374570586E+02  0.00000000000E+00 0. -1.
        -14    1    4    4    0    0  0.27463084065E+02  0.50716797649E+01 -0.62297678230E+02  0.68271103952E+02  0.00000000000E+00 0.  1.
        -11    1    3    3    0    0 -0.32117050056E+02  0.13343930351E+02 -0.96255233744E+01  0.36086231193E+02  0.00000000000E+00 0. -1.
         11    1    3    3    0    0 -0.86743526412E+02 -0.42126549054E+02  0.10840527773E+03  0.14508890292E+03  0.00000000000E+00 0.  1.
         -3    1    1    2    0  502  0.49589183833E+02  0.94717036679E+01  0.70234794068E+01  0.50971850923E+02  0.00000000000E+00 0.  1.
<scales pt_clust_5="13000.00000" pt_clust_6="13000.00000" pt_clust_7="13000.00000" pt_clust_8="13000.00000" pt_clust_9="13000.00000"></scales>
<clustering>
<clus scale="   78.504">  5  6 -1 -1</clus>
<clus scale="   50.486">  5  9 -1 -1</clus>
<clus scale="   90.060">  7  8 -1 -1</clus>
<clus scale="  151.878">  1  7  2 -1</clus>
<clus scale="  162.194">  2  5  1 -1</clus>
</clustering>
</event>
<event>
 9    1  0.2728138E-005  0.2566732E+03  0.7546771E-02  0.1145432E+00
         21   -1    0    0  501  502  0.00000000000E+00  0.00000000000E+00  0.12980819449E+03  0.12980819449E+03  0.00000000000E+00 0.  1.
          1   -1    0    0  502    0 -0.00000000000E+00 -0.00000000000E+00 -0.65101870865E+03  0.65101870865E+03  0.00000000000E+00 0. -1.
         23    2    1    2    0    0  0.26066590398E+02 -0.46798198706E+02 -0.51344386336E+03  0.52403624837E+03  0.90110211675E+02 0.  0.
        -24    2    1    2    0    0  0.25343508241E+02 -0.61291679866E+02  0.59206842109E+02  0.11963428836E+03  0.80049668133E+02 0.  0.
         13    1    4    4    0    0  0.36937486853E+02 -0.32021120402E+00  0.40493132214E+02  0.54810347807E+02  0.00000000000E+00 0. -1.
        -14    1    4    4    0    0 -0.11593978612E+02 -0.60971468662E+02  0.18713709895E+02  0.64823940554E+02  0.00000000000E+00 0.  1.
        -11    1    3    3    0    0 -0.10828892181E+02  0.22827254633E+02 -0.99373895579E+02  0.10253545525E+03  0.00000000000E+00 0.  1.
         11    1    3    3    0    0  0.36895482579E+02 -0.69625453339E+02 -0.41406996778E+03  0.42150079313E+03  0.00000000000E+00 0. -1.
          2    1    1    2  501    0 -0.51410098639E+02  0.10808987857E+03 -0.66973492909E+02  0.13715636640E+03  0.00000000000E+00 0. -1.
<scales pt_clust_5="13000.00000" pt_clust_6="13000.00000" pt_clust_7="13000.00000" pt_clust_8="13000.00000" pt_clust_9="13000.00000"></scales>
<clustering>
<clus scale="   80.050">  5  6 -1 -1</clus>
<clus scale="   90.110">  7  8 -1 -1</clus>
<clus scale="  104.830">  2  7  1 -1</clus>
<clus scale="   78.491">  5  9 -1 -1</clus>
<clus scale="  256.673">  1  5  2 -1</clus>
</clustering>
</event>
<event>
 9    1  0.2728138E-005  0.1925467E+03  0.7546771E-02  0.1180063E+00
         21   -1    0    0  501  502  0.00000000000E+00  0.00000000000E+00  0.20257480106E+03  0.20257480106E+03  0.00000000000E+00 0. -1.
          1   -1    0    0  502    0 -0.00000000000E+00 -0.00000000000E+00 -0.12418855330E+03  0.12418855330E+03  0.00000000000E+00 0. -1.
         23    2    1    2    0    0 -0.18002271519E+01 -0.71754460573E+02  0.74942016395E+02  0.13418586688E+03  0.85074071361E+02 0.  0.
        -24    2    1    2    0    0  0.55011072403E+02 -0.24616279170E+01 -0.17189751891E+02  0.98954930870E+02  0.80400951950E+02 0.  0.
         11    1    4    4    0    0  0.43912319929E+02  0.26850900226E+02  0.15413260946E+02  0.53729240619E+02  0.00000000000E+00 0. -1.
        -12    1    4    4    0    0  0.11098752474E+02 -0.29312528143E+02 -0.32603012836E+02  0.45225690251E+02  0.00000000000E+00 0.  1.
        -13    1    3    3    0    0 -0.29175273155E+02 -0.28600622443E+02  0.72261251533E+02  0.83011328389E+02  0.00000000000E+00 0. -1.
         13    1    3    3    0    0  0.27375046003E+02 -0.43153838130E+02  0.26807648620E+01  0.51174538487E+02  0.00000000000E+00 0.  1.
          2    1    1    2  501    0 -0.53210845252E+02  0.74216088490E+02  0.20633983257E+02  0.93622556621E+02  0.00000000000E+00 0. -1.
<scales pt_clust_5="13000.00000" pt_clust_6="13000.00000" pt_clust_7="13000.00000" pt_clust_8="13000.00000" pt_clust_9="13000.00000"></scales>
<clustering>
<clus scale="   80.401">  5  6 -1 -1</clus>
<clus scale="   85.074">  7  8 -1 -1</clus>
<clus scale="   91.320">  5  9 -1 -1</clus>
<clus scale="  111.308">  2  7  1 -1</clus>
<clus scale="  192.547">  1  5  2 -1</clus>
</clustering>
</event>
<event>
 9    1  0.2899162E-005  0.1484782E+03  0.7546771E-02  0.1215545E+00
         -4   -1    0    0    0  501 -0.00000000000E+00  0.00000000000E+00  0.11541706720E+03  0.11541706720E+03  0.00000000000E+00 0.  1.
         21   -1    0    0  501  502  0.00000000000E+00 -0.00000000000E+00 -0.18693762732E+03  0.18693762732E+03  0.00000000000E+00 0.  1.
         23    2    1    2    0    0 -0.65035580485E+02  0.16621724167E+01  0.37568707047E+02  0.11810963159E+03  0.91137740701E+02 0.  0.
        -24    2    1    2    0    0  0.29759615179E+02 -0.41328233249E+02 -0.66584328920E+02  0.11624168150E+03  0.80529485911E+02 0.  0.
         13    1    4    4    0    0  0.22699461462E+02 -0.16428633872E+02  0.14199510172E+02  0.31413240054E+02  0.00000000000E+00 0. -1.
        -14    1    4    4    0    0  0.70601537167E+01 -0.24899599378E+02 -0.80783839092E+02  0.84828441446E+02  0.00000000000E+00 0.  1.
        -11    1    3    3    0    0 -0.27345868864E+02 -0.33592848251E+02  0.48843752242E+02  0.65283904070E+02  0.00000000000E+00 0.  1.
         11    1    3    3    0    0 -0.37689711621E+02  0.35255020668E+02 -0.11275045195E+02  0.52825727525E+02  0.00000000000E+00 0. -1.
         -3    1    1    2    0  502  0.35275965307E+02  0.39666060833E+02 -0.42504938249E+02  0.68003381429E+02  0.00000000000E+00 0.  1.
<scales pt_clust_5="13000.00000" pt_clust_6="13000.00000" pt_clust_7="13000.00000" pt_clust_8="13000.00000" pt_clust_9="13000.00000"></scales>
<clustering>
<clus scale="   80.529">  5  6 -1 -1</clus>
<clus scale="   53.083">  5  9 -1 -1</clus>
<clus scale="   91.138">  7  8 -1 -1</clus>
<clus scale="  111.975">  1  7  2 -1</clus>
<clus scale="  148.478">  2  5  1 -1</clus>
</clustering>
</event>
<event>
 9    1  0.2728138E-005  0.3455933E+03  0.7546771E-02  0.1096712E+00
          3   -1    0    0  502    0 -0.00000000000E+00  0.00000000000E+00  0.31524712302E+03  0.31524712302E+03  0.00000000000E+00 0. -1.
         21   -1    0    0  501  502  0.00000000000E+00 -0.00000000000E+00 -0.20948956615E+03  0.20948956615E+03  0.00000000000E+00 0. -1.
         23    2    1    2    0    0 -0.99179409323E+02 -0.52515953840E+02 -0.38864363735E+02  0.15010321547E+03  0.91793550346E+02 0.  0.
        -24    2    1    2    0    0 -0.83945489616E+02 -0.42476376407E+01 -0.24468096462E+02  0.11900040112E+03  0.80607196138E+02 0.  0.
         11    1    4    4    0    0 -0.53683784860E+02  0.11934137885E+02 -0.51478831166E+02  0.75328895268E+02  0.00000000000E+00 0. -1.
        -12    1    4    4    0    0 -0.30261704755E+02 -0.16181775526E+02  0.27010734705E+02  0.43671505850E+02  0.00000000000E+00 0.  1.
        -13    1    3    3    0    0 -0.72352304316E+01  0.24160553597E+02 -0.53779937798E+01  0.25787666173E+02  0.00000000000E+00 0. -1.
         13    1    3    3    0    0 -0.91944178891E+02 -0.76676507438E+02 -0.33486369956E+02  0.12431554930E+03  0.00000000000E+00 0.  1.
          4    1    1    2  501    0  0.18312489894E+03  0.56763591481E+02  0.16909001707E+03  0.25563307259E+03  0.00000000000E+00 0. -1.
<scales pt_clust_5="13000.00000" pt_clust_6="13000.00000" pt_clust_7="13000.00000" pt_clust_8="13000.00000" pt_clust_9="13000.00000"></scales>
<clustering>
<clus scale="   80.607">  5  6 -1 -1</clus>
<clus scale="   91.794">  7  8 -1 -1</clus>
<clus scale="  144.985">  1  7  2 -1</clus>
<clus scale="  102.932">  5  9 -1 -1</clus>
<clus scale="  345.593">  2  5  1 -1</clus>
</clustering>
</event>
<event>
 9    1  0.2728138E-005  0.2847238E+03  0.7546771E-02  0.1116101E+00
         21   -1    0    0  501  502  0.00000000000E+00  0.00000000000E+00  0.39745464491E+03  0.39745464491E+03  0.00000000000E+00 0.  1.
         -2   -1    0    0    0  501 -0.00000000000E+00 -0.00000000000E+00 -0.26963867671E+03  0.26963867671E+03  0.00000000000E+00 0.  1.
         23    2    1    2    0    0 -0.93482813934E+02  0.88573226988E+02 -0.18567419465E+03  0.24360340707E+03  0.91013517324E+02 0.  0.
        -24    2    1    2    0    0 -0.18928803150E+02 -0.13848307497E+03  0.19055187461E+03  0.24958997984E+03  0.80307406106E+02 0.  0.
         13    1    4    4    0    0 -0.24333994584E+02 -0.11756814436E+02  0.97455988571E+01  0.28728777823E+02  0.00000000000E+00 0. -1.
        -14    1    4    4    0    0  0.54051914341E+01 -0.12672626053E+03  0.18080627575E+03  0.22086120201E+03  0.00000000000E+00 0.  1.
        -13    1    3    3    0    0 -0.24163151582E+02  0.22228238162E+02  0.19260284433E+01  0.32888631041E+02  0.00000000000E+00 0. -1.
         13    1    3    3    0    0 -0.69319662351E+02  0.66344988826E+02 -0.18760022310E+03  0.21071477603E+03  0.00000000000E+00 0.  1.
         -1    1    1    2    0  502  0.11241161708E+03  0.49909847978E+02  0.12293828824E+03  0.17389993472E+03  0.00000000000E+00 0.  1.
<scales pt_clust_5="13000.00000" pt_clust_6="13000.00000" pt_clust_7="13000.00000" pt_clust_8="13000.00000" pt_clust_9="13000.00000"></scales>
<clustering>
<clus scale="   80.307">  5  6 -1 -1</clus>
<clus scale="   91.014">  7  8 -1 -1</clus>
<clus scale="  122.993">  5  9 -1 -1</clus>
<clus scale="  157.695">  2  7  1 -1</clus>
<clus scale="  284.724">  1  5  2 -1</clus>
</clustering>
</event>
<event>
 9    1  0.2728138E-005  0.1948569E+03  0.7546771E-02  0.1181845E+00
         21   -1    0    0  501  502  0.00000000000E+00  0.00000000000E+00  0.29522819011E+03  0.29522819011E+03  0.00000000000E+00 0.  1.
          1   -1    0    0  502    0 -0.00000000000E+00 -0.00000000000E+00 -0.97060192969E+02  0.97060192969E+02  0.00000000000E+00 0. -1.
         23    2    1    2    0    0 -0.43958939999E+02 -0.19616241704E+02 -0.14100834247E+02  0.10414386117E+03  0.91268422515E+02 0.  0.
        -24    2    1    2    0    0  0.16812661961E+00 -0.57208349727E+02  0.14889491988E+03  0.17935157249E+03  0.82002840445E+02 0.  0.
         11    1    4    4    0    0 -0.35097459675E+02 -0.14048394018E+02  0.30792633256E+02  0.48758335830E+02  0.00000000000E+00 0. -1.
        -12    1    4    4    0    0  0.35265586295E+02 -0.43159955709E+02  0.11810228663E+03  0.13059323666E+03  0.00000000000E+00 0.  1.
        -13    1    3    3    0    0 -0.58454292294E+02 -0.42771670496E+02 -0.22013328000E+02  0.75702752223E+02  0.00000000000E+00 0. -1.
         13    1    3    3    0    0  0.14495352295E+02  0.23155428792E+02  0.79124937522E+01  0.28441108946E+02  0.00000000000E+00 0.  1.
          2    1    1    2  501    0  0.43790813379E+02  0.76824591430E+02  0.63373911506E+02  0.10879294942E+03  0.00000000000E+00 0. -1.
<scales pt_clust_5="13000.00000" pt_clust_6="13000.00000" pt_clust_7="13000.00000" pt_clust_8="13000.00000" pt_clust_9="13000.00000"></scales>
<clustering>
<clus scale="   82.003">  5  6 -1 -1</clus>
<clus scale="   88.429">  5  9 -1 -1</clus>
<clus scale="   91.268">  7  8 -1 -1</clus>
<clus scale="  103.185">  2  7  1 -1</clus>
<clus scale="  194.857">  1  5  2 -1</clus>
</clustering>
</event>
<event>
 9    1  0.2728138E-005  0.1444290E+03  0.7546771E-02  0.1219954E+00
         21   -1    0    0  501  502  0.00000000000E+00  0.00000000000E+00  0.29341144914E+03  0.29341144914E+03  0.00000000000E+00 0. -1.
          1   -1    0    0  502    0 -0.00000000000E+00 -0.00000000000E+00 -0.60843290518E+02  0.60843290518E+02  0.00000000000E+00 0. -1.
         23    2    1    2    0    0  0.47645810654E+02 -0.39689013137E+02  0.50413482840E+02  0.12178954310E+03  0.91901210656E+02 0.  0.
        -24    2    1    2    0    0 -0.69168272202E+02  0.17686678804E+02  0.16619155871E+03  0.19779330342E+03  0.80034293926E+02 0.  0.
         13    1    4    4    0    0 -0.79059703812E+02  0.33861682655E+02  0.14978185243E+03  0.17271842298E+03  0.00000000000E+00 0. -1.
        -14    1    4    4    0    0  0.98914316101E+01 -0.16175003851E+02  0.16409706285E+02  0.25074880443E+02  0.00000000000E+00 0.  1.
        -13    1    3    3    0    0 -0.50113898287E+01 -0.51805154062E+02  0.70796831568E+01  0.52526278461E+02  0.00000000000E+00 0. -1.
         13    1    3    3    0    0  0.52657200483E+02  0.12116140924E+02  0.43333799683E+02  0.69263264640E+02  0.00000000000E+00 0.  1.
          2    1    1    2  501    0  0.21522461548E+02  0.22002334334E+02  0.15963117073E+02  0.34671893139E+02  0.00000000000E+00 0. -1.
<scales pt_clust_5="13000.00000" pt_clust_6="13000.00000" pt_clust_7="13000.00000" pt_clust_8="13000.00000" pt_clust_9="13000.00000"></scales>
<clustering>
<clus scale="   80.034">  5  6 -1 -1</clus>
<clus scale="   30.779">  5  9 -1 -1</clus>
<clus scale="   91.901">  7  8 -1 -1</clus>
<clus scale="  110.866">  2  7  1 -1</clus>
<clus scale="  144.429">  1  5  2 -1</clus>
</clustering>
</event>
<event>
 9    1  0.2728138E-005  0.4898977E+03  0.7546771E-02  0.1058574E+00
         21   -1    0    0  501  502  0.00000000000E+00  0.00000000000E+00  0.20129945685E+03  0.20129945685E+03  0.00000000000E+00 0.  1.
         -2   -1    0    0    0  501 -0.00000000000E+00 -0.00000000000E+00 -0.53525061480E+03  0.53525061480E+03  0.00000000000E+00 0.  1.
         23    2    1    2    0    0 -0.66663257760E+02 -0.92186480422E+02 -0.16514768801E+03  0.21838567058E+03  0.86465051618E+02 0.  0.
        -24    2    1    2    0    0  0.18005597809E+03 -0.88390562136E+02  0.40457815850E+02  0.21940653414E+03  0.79179199534E+02 0.  0.
         11    1    4    4    0    0  0.25417571198E+02 -0.42241865426E+02  0.29957226532E+02  0.57687637686E+02  0.00000000000E+00 0. -1.
        -12    1    4    4    0    0  0.15463840689E+03 -0.46148696710E+02  0.10500589317E+02  0.16171889645E+03  0.00000000000E+00 0.  1.
        -11    1    3    3    0    0 -0.33463040737E+02  0.80505487893E+01 -0.23349238733E+02  0.41590544365E+02  0.00000000000E+00 0.  1.
         11    1    3    3    0    0 -0.33200217023E+02 -0.10023702921E+03 -0.14179844928E+03  0.17679512622E+03  0.00000000000E+00 0. -1.
         -1    1    1    2    0  502 -0.11339272033E+03  0.18057704256E+03 -0.20926128579E+03  0.29875786693E+03  0.00000000000E+00 0.  1.
<scales pt_clust_5="13000.00000" pt_clust_6="13000.00000" pt_clust_7="13000.00000" pt_clust_8="13000.00000" pt_clust_9="13000.00000"></scales>
<clustering>
<clus scale="   79.179">  5  6 -1 -1</clus>
<clus scale="   86.465">  7  8 -1 -1</clus>
<clus scale="  142.893">  2  7  1 -1</clus>
<clus scale="  197.745">  5  9 -1 -1</clus>
<clus scale="  489.898">  1  5  2 -1</clus>
</clustering>
</event>
<event>
 9    1  0.2728138E-005  0.2257274E+03  0.7546771E-02  0.1167565E+00
          1   -1    0    0  502    0 -0.00000000000E+00  0.00000000000E+00  0.36656501682E+03  0.36656501682E+03  0.00000000000E+00 0. -1.
         21   -1    0    0  501  502  0.00000000000E+00 -0.00000000000E+00 -0.73702213907E+02  0.73702213907E+02  0.00000000000E+00 0. -1.
         23    2    1    2    0    0  0.37885605118E+01 -0.28009900063E+01  0.14090978402E+03  0.16815955416E+03  0.91650802988E+02 0.  0.
        -24    2    1    2    0    0 -0.10328503868E+02 -0.57158287211E+02 -0.11343958406E+02  0.98027842640E+02  0.78147455182E+02 0.  0.
         13    1    4    4    0    0  0.13019988237E+02 -0.42625186289E+02 -0.38854678738E+02  0.59127934682E+02  0.00000000000E+00 0. -1.
        -14    1    4    4    0    0 -0.23348492105E+02 -0.14533100921E+02  0.27510720332E+02  0.38899907958E+02  0.00000000000E+00 0.  1.
        -13    1    3    3    0    0 -0.24546871556E+02  0.24186747666E+00  0.13724902394E+03  0.13942704894E+03  0.00000000000E+00 0.  1.
         13    1    3    3    0    0  0.28335432068E+02 -0.30428574830E+01  0.36607600781E+01  0.28732505225E+02  0.00000000000E+00 0. -1.
          2    1    1    2  501    0  0.65399433561E+01  0.59959277217E+02  0.16329697730E+03  0.17407983392E+03  0.00000000000E+00 0. -1.
<scales pt_clust_5="13000.00000" pt_clust_6="13000.00000" pt_clust_7="13000.00000" pt_clust_8="13000.00000" pt_clust_9="13000.00000"></scales>
<clustering>
<clus scale="   78.147">  5  6 -1 -1</clus>
<clus scale="   60.315">  5  9 -1 -1</clus>
<clus scale="   91.651">  7  8 -1 -1</clus>
<clus scale="   91.772">  1  7  2 -1</clus>
<clus scale="  225.727">  2  5  1 -1</clus>
</clustering>
</event>
<event>
 9    1  0.2728138E-005  0.2483442E+03  0.7546771E-02  0.1146964E+00
         21   -1    0    0  501  502  0.00000000000E+00  0.00000000000E+00  0.26089999459E+02  0.26089999459E+02  0.00000000000E+00 0. -1.
          1   -1    0    0  502    0 -0.00000000000E+00 -0.00000000000E+00 -0.14015934522E+04  0.14015934522E+04  0.00000000000E+00 0. -1.
         23    2    1    2    0    0  0.56510325857E+02  0.27535434190E+02 -0.23088832422E+03  0.25643684070E+03  0.92189033737E+02 0.  0.
        -24    2    1    2    0    0  0.47882295478E+02  0.21839431328E+02 -0.23086678102E+03  0.25022992312E+03  0.80906543998E+02 0.  0.
         13    1    4    4    0    0  0.57118654603E+02  0.37947941858E+02 -0.21543502609E+03  0.22608590726E+03  0.00000000000E+00 0. -1.
        -14    1    4    4    0    0 -0.92363591246E+01 -0.16108510531E+02 -0.15431754934E+02  0.24144015858E+02  0.00000000000E+00 0.  1.
        -11    1    3    3    0    0  0.99936229198E+01  0.32907110531E+02 -0.19345349275E+03  0.19648665165E+03  0.00000000000E+00 0.  1.
         11    1    3    3    0    0  0.46516702937E+02 -0.53716763404E+01 -0.37434831473E+02  0.59950189043E+02  0.00000000000E+00 0. -1.
          2    1    1    2  501    0 -0.10439262134E+03 -0.49374865518E+02 -0.91374834749E+03  0.92101668784E+03  0.00000000000E+00 0. -1.
<scales pt_clust_5="13000.00000" pt_clust_6="13000.00000" pt_clust_7="13000.00000" pt_clust_8="13000.00000" pt_clust_9="13000.00000"></scales>
<clustering>
<clus scale="   80.907">  5  6 -1 -1</clus>
<clus scale="   92.189">  7  8 -1 -1</clus>
<clus scale="  111.582">  2  7  1 -1</clus>
<clus scale="   65.683">  5  9 -1 -1</clus>
<clus scale="  248.344">  1  5  2 -1</clus>
</clustering>
</event>
<event>
 9    1  0.2728138E-005  0.5384191E+03  0.7546771E-02  0.1057716E+00
          1   -1    0    0  502    0 -0.00000000000E+00  0.00000000000E+00  0.16384103221E+04  0.16384103221E+04  0.00000000000E+00 0. -1.
         21   -1    0    0  501  502  0.00000000000E+00 -0.00000000000E+00 -0.68207525199E+02  0.68207525199E+02  0.00000000000E+00 0. -1.
         23    2    1    2    0    0 -0.70728156481E+02 -0.25400746230E+01  0.45601646920E+03  0.46915822118E+03  0.84554669998E+02 0.  0.
        -24    2    1    2    0    0 -0.53590812324E+02  0.12539736578E+03  0.10325835880E+04  0.10445655435E+04  0.79321080695E+02 0.  0.
         11    1    4    4    0    0 -0.41984875511E+02  0.21660446876E+02  0.20214024971E+03  0.20758753643E+03  0.00000000000E+00 0. -1.
        -12    1    4    4    0    0 -0.11605936813E+02  0.10373691890E+03  0.83044333830E+03  0.83697800702E+03  0.00000000000E+00 0.  1.
        -13    1    3    3    0    0 -0.18225212328E+02  0.38697369763E+02  0.15244274359E+03  0.15833014515E+03  0.00000000000E+00 0. -1.
         13    1    3    3    0    0 -0.52502944153E+02 -0.41237444386E+02  0.30357372561E+03  0.31082807603E+03  0.00000000000E+00 0.  1.
          2    1    1    2  501    0  0.12431896881E+03 -0.12285729115E+03  0.81602739659E+02  0.19289408263E+03  0.00000000000E+00 0. -1.
<scales pt_clust_5="13000.00000" pt_clust_6="13000.00000" pt_clust_7="13000.00000" pt_clust_8="13000.00000" pt_clust_9="13000.00000"></scales>
<clustering>
<clus scale="   79.321">  5  6 -1 -1</clus>
<clus scale="   84.555">  7  8 -1 -1</clus>
<clus scale="  110.265">  1  7  2 -1</clus>
<clus scale="  169.226">  5  9 -1 -1</clus>
<clus scale="  538.419">  2  5  1 -1</clus>
</clustering>
</event>
<event>
 9    1  0.2728138E-005  0.3952488E+03  0.7546771E-02  0.1064909E+00
         -2   -1    0    0    0  501 -0.00000000000E+00  0.00000000000E+00  0.65679228688E+03  0.65679228688E+03  0.00000000000E+00 0.  1.
         21   -1    0    0  501  502  0.00000000000E+00 -0.00000000000E+00 -0.14798257734E+03  0.14798257734E+03  0.00000000000E+00 0. -1.
         23    2    1    2    0    0  0.10091371460E+03 -0.18309582542E+03  0.19703140506E+03  0.30135922473E+03  0.91040368346E+02 0.  0.
        -24    2    1    2    0    0 -0.62159390983E+02 -0.25186771775E+02 -0.24770222699E+02  0.10573681299E+03  0.77900875020E+02 0.  0.
         11    1    4    4    0    0 -0.21026564390E+02 -0.46159449483E+02 -0.30539057133E+02  0.59206800262E+02  0.00000000000E+00 0. -1.
        -12    1    4    4    0    0 -0.41132826594E+02  0.20972677708E+02  0.57688344346E+01  0.46530012729E+02  0.00000000000E+00 0.  1.
        -11    1    3    3    0    0  0.10719295286E+03 -0.13383122397E+03  0.18063721725E+03  0.24906009297E+03  0.00000000000E+00 0.  1.
         11    1    3    3    0    0 -0.62792382616E+01 -0.49264601452E+02  0.16394187813E+02  0.52299131765E+02  0.00000000000E+00 0. -1.
         -1    1    1    2    0  502 -0.38754323619E+02  0.20828259720E+03  0.33654852718E+03  0.39767882650E+03  0.00000000000E+00 0.  1.
<scales pt_clust_5="13000.00000" pt_clust_6="13000.00000" pt_clust_7="13000.00000" pt_clust_8="13000.00000" pt_clust_9="13000.00000"></scales>
<clustering>
<clus scale="   77.901">  5  6 -1 -1</clus>
<clus scale="   91.040">  7  8 -1 -1</clus>
<clus scale="  211.857">  5  9 -1 -1</clus>
<clus scale="  228.026">  1  7  2 -1</clus>
<clus scale="  395.249">  2  5  1 -1</clus>
</clustering>
</event>
<event>
 9    1  0.2728138E-005  0.2338937E+03  0.7546771E-02  0.1140546E+00
          1   -1    0    0  502    0 -0.00000000000E+00  0.00000000000E+00  0.48858508343E+03  0.48858508343E+03  0.00000000000E+00 0. -1.
         21   -1    0    0  501  502  0.00000000000E+00 -0.00000000000E+00 -0.20286354977E+03  0.20286354977E+03  0.00000000000E+00 0. -1.
         23    2    1    2    0    0 -0.65778477926E+02 -0.10826201806E+03 -0.13757762294E+03  0.20782849362E+03  0.90651021581E+02 0.  0.
        -24    2    1    2    0    0  0.11165965785E+01  0.34982016349E+02  0.35144331789E+03  0.36231729911E+03  0.80848199053E+02 0.  0.
         11    1    4    4    0    0 -0.68794042727E+01 -0.18876818669E+02  0.28822334771E+02  0.35133850741E+02  0.00000000000E+00 0. -1.
        -12    1    4    4    0    0  0.79960008512E+01  0.53858835018E+02  0.32262098312E+03  0.32718344837E+03  0.00000000000E+00 0.  1.
        -13    1    3    3    0    0 -0.41904616541E+02  0.20052879224E+01 -0.27236346254E+02  0.50018362872E+02  0.00000000000E+00 0.  1.
         13    1    3    3    0    0 -0.23873861385E+02 -0.11026730598E+03 -0.11034127668E+03  0.15781013075E+03  0.00000000000E+00 0. -1.
          2    1    1    2  501    0  0.64661881348E+02  0.73280001712E+02  0.71855838705E+02  0.12130284047E+03  0.00000000000E+00 0. -1.
<scales pt_clust_5="13000.00000" pt_clust_6="13000.00000" pt_clust_7="13000.00000" pt_clust_8="13000.00000" pt_clust_9="13000.00000"></scales>
<clustering>
<clus scale="   80.848">  5  6 -1 -1</clus>
<clus scale="   90.651">  7  8 -1 -1</clus>
<clus scale="   97.730">  5  9 -1 -1</clus>
<clus scale="  155.773">  1  7  2 -1</clus>
<clus scale="  233.894">  2  5  1 -1</clus>
</clustering>
</event>
<event>
 9    1  0.2728138E-005  0.2249215E+03  0.7546771E-02  0.1157158E+00
         21   -1    0    0  501  502  0.00000000000E+00  0.00000000000E+00  0.10259960058E+03  0.10259960058E+03  0.00000000000E+00 0. -1.
          1   -1    0    0  502    0 -0.00000000000E+00 -0.00000000000E+00 -0.29735797014E+03  0.29735797014E+03  0.00000000000E+00 0. -1.
         23    2    1    2    0    0  0.73521370456E+02  0.84473598097E+01 -0.32018167747E+02  0.12233543100E+03  0.92000243538E+02 0.  0.
        -24    2    1    2    0    0  0.39882769172E+02  0.31564463911E+02 -0.12390310353E+03  0.15125060367E+03  0.70269590766E+02 0.  0.
         13    1    4    4    0    0  0.14986605951E+02  0.52043538237E+02 -0.84112845868E+02  0.10004048715E+03  0.00000000000E+00 0. -1.
        -14    1    4    4    0    0  0.24896163221E+02 -0.20479074326E+02 -0.39790257665E+02  0.51210116515E+02  0.00000000000E+00 0.  1.
        -13    1    3    3    0    0  0.65635688511E+02 -0.33665025818E+02 -0.29408080687E+02  0.79411666519E+02  0.00000000000E+00 0. -1.
         13    1    3    3    0    0  0.78856819452E+01  0.42112385627E+02 -0.26100870597E+01  0.42923764483E+02  0.00000000000E+00 0.  1.
          2    1    1    2  501    0 -0.11340413963E+03 -0.40011823721E+02 -0.38837098278E+02  0.12637153605E+03  0.00000000000E+00 0. -1.
<scales pt_clust_5="13000.00000" pt_clust_6="13000.00000" pt_clust_7="13000.00000" pt_clust_8="13000.00000" pt_clust_9="13000.00000"></scales>
<clustering>
<clus scale="   70.270">  5  6 -1 -1</clus>
<clus scale="   92.000">  7  8 -1 -1</clus>
<clus scale="  118.071">  2  7  1 -1</clus>
<clus scale="   93.395">  5  9 -1 -1</clus>
<clus scale="  224.921">  1  5  2 -1</clus>
</clustering>
</event>
<event>
 9    1  0.2728138E-005  0.2448711E+03  0.7546771E-02  0.1140360E+00
          1   -1    0    0  502    0 -0.00000000000E+00  0.00000000000E+00  0.22539132204E+03  0.22539132204E+03  0.00000000000E+00 0. -1.
         21   -1    0    0  501  502  0.00000000000E+00 -0.00000000000E+00 -0.16125963976E+03  0.16125963976E+03  0.00000000000E+00 0. -1.
         23    2    1    2    0    0 -0.55954695564E+02 -0.85197162078E+02  0.19444514666E+02  0.13773568319E+03  0.90573422650E+02 0.  0.
        -24    2    1    2    0    0 -0.46672575922E+02 -0.21634187626E+02  0.10763483257E+02  0.96941233159E+02  0.81457858413E+02 0.  0.
         11    1    4    4    0    0 -0.68104858459E+02 -0.40756628446E+01  0.35891710941E+01  0.68321043043E+02  0.00000000000E+00 0. -1.
        -12    1    4    4    0    0  0.21432282537E+02 -0.17558524781E+02  0.71743121633E+01  0.28620190116E+02  0.00000000000E+00 0.  1.
        -11    1    3    3    0    0 -0.13419725865E+01 -0.44844751422E+02  0.46523613726E+02  0.64632029635E+02  0.00000000000E+00 0.  1.
         11    1    3    3    0    0 -0.54612722978E+02 -0.40352410656E+02 -0.27079099060E+02  0.73103653552E+02  0.00000000000E+00 0. -1.
          2    1    1    2  501    0  0.10262727149E+03  0.10683134970E+03  0.33923684360E+02  0.15197404546E+03  0.00000000000E+00 0. -1.
<scales pt_clust_5="13000.00000" pt_clust_6="13000.00000" pt_clust_7="13000.00000" pt_clust_8="13000.00000" pt_clust_9="13000.00000"></scales>
<clustering>
<clus scale="   81.458">  5  6 -1 -1</clus>
<clus scale="   90.573">  7  8 -1 -1</clus>
<clus scale="  136.356">  1  7  2 -1</clus>
<clus scale="   85.515">  5  9 -1 -1</clus>
<clus scale="  244.871">  2  5  1 -1</clus>
</clustering>
</event>
<event>
 9    1  0.2728138E-005  0.2041837E+03  0.7546771E-02  0.1179228E+00
          1   -1    0    0  502    0 -0.00000000000E+00  0.00000000000E+00  0.47853961394E+03  0.47853961394E+03  0.00000000000E+00 0. -1.
         21   -1    0    0  501  502  0.00000000000E+00 -0.00000000000E+00 -0.51996659017E+02  0.51996659017E+02  0.00000000000E+00 0. -1.
         23    2    1    2    0    0 -0.23077294339E+02 -0.13118102859E+02  0.64604874141E+02  0.11497619724E+03  0.91329568224E+02 0.  0.
        -24    2    1    2    0    0 -0.38847435396E+01 -0.24428474071E+02  0.53110049888E+02  0.10329184232E+03  0.85068711712E+02 0.  0.
         11    1    4    4    0    0  0.19248650197E+02 -0.32053714113E+02 -0.73543699399E+01  0.38105614810E+02  0.00000000000E+00 0. -1.
        -12    1    4    4    0    0 -0.23133393736E+02  0.76252400421E+01  0.60464419828E+02  0.65186227507E+02  0.00000000000E+00 0.  1.
        -13    1    3    3    0    0 -0.41629303546E+01 -0.47802191933E+02  0.57407412130E+02  0.74819720062E+02  0.00000000000E+00 0.  1.
         13    1    3    3    0    0 -0.18914363985E+02  0.34684089074E+02  0.71974620111E+01  0.40156477176E+02  0.00000000000E+00 0. -1.
          2    1    1    2  501    0  0.26962037879E+02  0.37546576930E+02  0.30882803090E+03  0.31226823341E+03  0.00000000000E+00 0. -1.
<scales pt_clust_5="13000.00000" pt_clust_6="13000.00000" pt_clust_7="13000.00000" pt_clust_8="13000.00000" pt_clust_9="13000.00000"></scales>
<clustering>
<clus scale="   85.069">  5  6 -1 -1</clus>
<clus scale="   46.224">  5  9 -1 -1</clus>
<clus scale="   91.330">  7  8 -1 -1</clus>
<clus scale="   95.109">  1  7  2 -1</clus>
<clus scale="  204.184">  2  5  1 -1</clus>
</clustering>
</event>
<event>
 9    1  0.2728138E-005  0.4642584E+03  0.7546771E-02  0.1038336E+00
         21   -1    0    0  501  502  0.00000000000E+00  0.00000000000E+00  0.36387563130E+03  0.36387563130E+03  0.00000000000E+00 0. -1.
          1   -1    0    0  502    0 -0.00000000000E+00 -0.00000000000E+00 -0.45671881285E+03  0.45671881285E+03  0.00000000000E+00 0. -1.
         23    2    1    2    0    0 -0.18788477751E+03  0.21949030832E+03  0.10281139778E+03  0.31679233687E+03  0.79438757022E+02 0.  0.
        -24    2    1    2    0    0 -0.44745235319E+02 -0.99559424615E+01 -0.15704291417E+03  0.18834650972E+03  0.93330991419E+02 0.  0.
         11    1    4    4    0    0 -0.25051904996E+02 -0.22924162208E+02 -0.48079434185E+01  0.34296231233E+02  0.00000000000E+00 0. -1.
        -12    1    4    4    0    0 -0.19693330323E+02  0.12968219747E+02 -0.15223497075E+03  0.15405027849E+03  0.00000000000E+00 0.  1.
        -13    1    3    3    0    0 -0.16612957154E+03  0.15007001318E+03  0.57698653235E+02  0.23119078265E+03  0.00000000000E+00 0. -1.
         13    1    3    3    0    0 -0.21755205970E+02  0.69420295143E+02  0.45112744548E+02  0.85601554222E+02  0.00000000000E+00 0.  1.
          2    1    1    2  501    0  0.23263001283E+03 -0.20953436586E+03 -0.38611665159E+02  0.31545559756E+03  0.00000000000E+00 0. -1.
<scales pt_clust_5="13000.00000" pt_clust_6="13000.00000" pt_clust_7="13000.00000" pt_clust_8="13000.00000" pt_clust_9="13000.00000"></scales>
<clustering>
<clus scale="   79.439">  7  8 -1 -1</clus>
<clus scale="   93.331">  5  6 -1 -1</clus>
<clus scale="  299.645">  2  7  1 -1</clus>
<clus scale="  169.116">  5  9 -1 -1</clus>
<clus scale="  464.258">  1  5  2 -1</clus>
</clustering>
</event>
<event>
 9    1  0.2728138E-005  0.1894032E+03  0.7546771E-02  0.1194135E+00
         -2   -1    0    0    0  501 -0.00000000000E+00  0.00000000000E+00  0.34872287594E+03  0.34872287594E+03  0.00000000000E+00 0.  1.
         21   -1    0    0  501  502  0.00000000000E+00 -0.00000000000E+00 -0.78538889839E+02  0.78538889839E+02  0.00000000000E+00 0.  1.
         23    2    1    2    0    0  0.11055983490E+02  0.14947522170E+02 -0.13035714198E+02  0.86546405959E+02  0.83514593634E+02 0.  0.
        -24    2    1    2    0    0 -0.69825449112E+02 -0.47264561014E+02  0.18370195488E+03  0.22070693202E+03  0.88631876569E+02 0.  0.
         13    1    4    4    0    0 -0.16058154134E+02  0.23650163363E+02  0.21770994507E+02  0.35932864388E+02  0.00000000000E+00 0. -1.
        -14    1    4    4    0    0 -0.53767294978E+02 -0.70914724377E+02  0.16193096037E+03  0.18477406763E+03  0.00000000000E+00 0.  1.
        -13    1    3    3    0    0 -0.21578188726E+02 -0.17994691431E+02  0.15510837153E+02  0.32093818994E+02  0.00000000000E+00 0. -1.
         13    1    3    3    0    0  0.32634172217E+02  0.32942213601E+02 -0.28546551351E+02  0.54452586965E+02  0.00000000000E+00 0.  1.
         -1    1    1    2    0  502  0.58769465622E+02  0.32317038843E+02  0.99517745421E+02  0.12000842780E+03  0.00000000000E+00 0.  1.
<scales pt_clust_5="13000.00000" pt_clust_6="13000.00000" pt_clust_7="13000.00000" pt_clust_8="13000.00000" pt_clust_9="13000.00000"></scales>
<clustering>
<clus scale="   83.515">  7  8 -1 -1</clus>
<clus scale="   85.559">  1  7  2 -1</clus>
<clus scale="   88.632">  5  6 -1 -1</clus>
<clus scale="   73.063">  5  9 -1 -1</clus>
<clus scale="  189.403">  2  5  1 -1</clus>
</clustering>
</event>
<event>
 9    1  0.2728138E-005  0.3606627E+03  0.7546771E-02  0.1083400E+00
         21   -1    0    0  501  502  0.00000000000E+00  0.00000000000E+00  0.20856319801E+03  0.20856319801E+03  0.00000000000E+00 0. -1.
          1   -1    0    0  502    0 -0.00000000000E+00 -0.00000000000E+00 -0.65823109386E+03  0.65823109386E+03  0.00000000000E+00 0. -1.
         23    2    1    2    0    0 -0.37459247017E+02  0.15116854428E+03  0.10171172565E+03  0.20793387314E+03  0.92930600430E+02 0.  0.
        -24    2    1    2    0    0  0.44012849786E+02 -0.20107004621E+03 -0.18384444798E+03  0.28789517322E+03  0.81966793785E+02 0.  0.
         13    1    4    4    0    0  0.49398285180E+02 -0.20341701454E+03 -0.18745917420E+03  0.28099753447E+03  0.00000000000E+00 0. -1.
        -14    1    4    4    0    0 -0.53854353938E+01  0.23469683324E+01  0.36147262236E+01  0.68976387558E+01  0.00000000000E+00 0.  1.
        -13    1    3    3    0    0 -0.63265550569E+02  0.13892553666E+03  0.82609204654E+02  0.17357164319E+03  0.00000000000E+00 0. -1.
         13    1    3    3    0    0  0.25806303553E+02  0.12243007617E+02  0.19102520997E+02  0.34362229948E+02  0.00000000000E+00 0.  1.
          2    1    1    2  501    0 -0.65536027691E+01  0.49901501929E+02 -0.36753517352E+03  0.37096524551E+03  0.00000000000E+00 0. -1.
<scales pt_clust_5="13000.00000" pt_clust_6="13000.00000" pt_clust_7="13000.00000" pt_clust_8="13000.00000" pt_clust_9="13000.00000"></scales>
<clustering>
<clus scale="   81.967">  5  6 -1 -1</clus>
<clus scale="   50.330">  5  9 -1 -1</clus>
<clus scale="   92.931">  7  8 -1 -1</clus>
<clus scale="  181.359">  2  7  1 -1</clus>
<clus scale="  360.663">  1  5  2 -1</clus>
</clustering>
</event>
<event>
 9    1  0.2728138E-005  0.1530960E+03  0.7546771E-02  0.1219724E+00
         21   -1    0    0  501  502  0.00000000000E+00  0.00000000000E+00  0.11404184766E+03  0.11404184766E+03  0.00000000000E+00 0. -1.
          1   -1    0    0  502    0 -0.00000000000E+00 -0.00000000000E+00 -0.13873432527E+03  0.13873432527E+03  0.00000000000E+00 0. -1.
         23    2    1    2    0    0  0.74211694504E+01  0.21133457294E+02 -0.33693352386E+02  0.99415816678E+02  0.90810604213E+02 0.  0.
        -24    2    1    2    0    0  0.11689128450E+02  0.11742944161E+02  0.49922667829E+02  0.97497538518E+02  0.82091198021E+02 0.  0.
         11    1    4    4    0    0  0.30957653067E+02  0.24282144923E+00  0.63939446358E+02  0.71040045371E+02  0.00000000000E+00 0. -1.
        -12    1    4    4    0    0 -0.19268524618E+02  0.11500122711E+02 -0.14016778529E+02  0.26457493148E+02  0.00000000000E+00 0.  1.
        -13    1    3    3    0    0 -0.71528683244E+01 -0.19950425077E+02  0.20756959329E+02  0.29665372854E+02  0.00000000000E+00 0. -1.
         13    1    3    3    0    0  0.14574037775E+02  0.41083882371E+02 -0.54450311715E+02  0.69750443824E+02  0.00000000000E+00 0.  1.
          2    1    1    2  501    0 -0.19110297900E+02 -0.32876401455E+02 -0.40921793058E+02  0.55862817737E+02  0.00000000000E+00 0. -1.
<scales pt_clust_5="13000.00000" pt_clust_6="13000.00000" pt_clust_7="13000.00000" pt_clust_8="13000.00000" pt_clust_9="13000.00000"></scales>
<clustering>
<clus scale="   82.091">  5  6 -1 -1</clus>
<clus scale="   38.027">  5  9 -1 -1</clus>
<clus scale="   90.811">  7  8 -1 -1</clus>
<clus scale="   93.532">  2  7  1 -1</clus>
<clus scale="  153.096">  1  5  2 -1</clus>
</clustering>
</event>
<event>
 9    1  0.2728138E-005  0.4167529E+03  0.7546771E-02  0.1048323E+00
          1   -1    0    0  502    0 -0.00000000000E+00  0.00000000000E+00  0.39952211470E+03  0.39952211470E+03  0.00000000000E+00 0. -1.
         21   -1    0    0  501  502  0.00000000000E+00 -0.00000000000E+00 -0.43993223414E+03  0.43993223414E+03  0.00000000000E+00 0. -1.
         23    2    1    2    0    0 -0.22110773424E+02 -0.29707040132E+03  0.18934813095E+03  0.36356376460E+03  0.87098717538E+02 0.  0.
        -24    2    1    2    0    0  0.98686014487E+02  0.35531241673E+02 -0.24272448158E+02  0.13458293052E+03  0.80758992422E+02 0.  0.
         13    1    4    4    0    0  0.66996728213E+02  0.60206407988E+02 -0.27796077953E+02  0.94265556295E+02  0.00000000000E+00 0. -1.
        -14    1    4    4    0    0  0.31689286274E+02 -0.24675166315E+02  0.35236297949E+01  0.40317374222E+02  0.00000000000E+00 0.  1.
        -11    1    3    3    0    0 -0.40710995119E+02 -0.17005936700E+03  0.70218362513E+02  0.18843617450E+03  0.00000000000E+00 0.  1.
         11    1    3    3    0    0  0.18600221694E+02 -0.12701103432E+03  0.11912976844E+03  0.17512759010E+03  0.00000000000E+00 0. -1.
          2    1    1    2  501    0 -0.76575241062E+02  0.26153915965E+03 -0.20548580223E+03  0.34130765372E+03  0.00000000000E+00 0. -1.
<scales pt_clust_5="13000.00000" pt_clust_6="13000.00000" pt_clust_7="13000.00000" pt_clust_8="13000.00000" pt_clust_9="13000.00000"></scales>
<clustering>
<clus scale="   80.759">  5  6 -1 -1</clus>
<clus scale="   87.099">  7  8 -1 -1</clus>
<clus scale="  272.519">  5  9 -1 -1</clus>
<clus scale="  310.364">  1  7  2 -1</clus>
<clus scale="  416.753">  2  5  1 -1</clus>
</clustering>
</event>
<event>
 9    1  0.2728138E-005  0.2419528E+03  0.7546771E-02  0.1153682E+00
         21   -1    0    0  501  502  0.00000000000E+00  0.00000000000E+00  0.40820469162E+03  0.40820469162E+03  0.00000000000E+00 0. -1.
          1   -1    0    0  502    0 -0.00000000000E+00 -0.00000000000E+00 -0.72853717043E+02  0.72853717043E+02  0.00000000000E+00 0. -1.
         23    2    1    2    0    0 -0.14714815570E+02 -0.41475012452E+02  0.10317543643E+03  0.14572775353E+03  0.93030667045E+02 0.  0.
        -24    2    1    2    0    0 -0.89050189768E+02 -0.88535030951E+01  0.15586401381E+03  0.19704260591E+03  0.80770520177E+02 0.  0.
         11    1    4    4    0    0 -0.10455656071E+03 -0.88486067622E+01  0.13854647671E+03  0.17379729123E+03  0.00000000000E+00 0. -1.
        -12    1    4    4    0    0  0.15506370940E+02 -0.48963329852E-02  0.17317537096E+02  0.23245314685E+02  0.00000000000E+00 0.  1.
        -11    1    3    3    0    0 -0.70874263222E+01 -0.64153710581E+02  0.34887652873E+02  0.73369465830E+02  0.00000000000E+00 0. -1.
         11    1    3    3    0    0 -0.76273892479E+01  0.22678698129E+02  0.68287783558E+02  0.72358287700E+02  0.00000000000E+00 0.  1.
          2    1    1    2  501    0  0.10376500534E+03  0.50328515547E+02  0.76311524331E+02  0.13828804921E+03  0.00000000000E+00 0. -1.
<scales pt_clust_5="13000.00000" pt_clust_6="13000.00000" pt_clust_7="13000.00000" pt_clust_8="13000.00000" pt_clust_9="13000.00000"></scales>
<clustering>
<clus scale="   80.771">  5  6 -1 -1</clus>
<clus scale="   93.031">  7  8 -1 -1</clus>
<clus scale="  102.915">  2  7  1 -1</clus>
<clus scale="   98.266">  5  9 -1 -1</clus>
<clus scale="  241.953">  1  5  2 -1</clus>
</clustering>
</event>
<event>
 9    1  0.2728138E-005  0.5233551E+03  0.7546771E-02  0.1033589E+00
          3   -1    0    0  502    0 -0.00000000000E+00  0.00000000000E+00  0.68643061086E+03  0.68643061086E+03  0.00000000000E+00 0. -1.
         21   -1    0    0  501  502  0.00000000000E+00 -0.00000000000E+00 -0.24151310219E+03  0.24151310219E+03  0.00000000000E+00 0. -1.
         23    2    1    2    0    0  0.27397258905E+02  0.22213405762E+03 -0.95493177507E+00  0.24040983572E+03  0.87760058469E+02 0.  0.
        -24    2    1    2    0    0  0.68491617427E+02 -0.43259129900E+02 -0.70023170366E+02  0.13315206159E+03  0.79144002557E+02 0.  0.
         13    1    4    4    0    0  0.74038998264E+02 -0.64081309218E+01 -0.35529128088E+02  0.82372060485E+02  0.00000000000E+00 0. -1.
        -14    1    4    4    0    0 -0.55473808363E+01 -0.36850998978E+02 -0.34494042279E+02  0.50780001108E+02  0.00000000000E+00 0.  1.
        -13    1    3    3    0    0  0.48663908193E+02  0.20992700881E+03  0.33182578358E+01  0.21551922379E+03  0.00000000000E+00 0. -1.
         13    1    3    3    0    0 -0.21266649288E+02  0.12207048820E+02 -0.42731896109E+01  0.24890611930E+02  0.00000000000E+00 0.  1.
          4    1    1    2  501    0 -0.95888876333E+02 -0.17887492772E+03  0.51589561081E+03  0.55438181574E+03  0.00000000000E+00 0. -1.
<scales pt_clust_5="13000.00000" pt_clust_6="13000.00000" pt_clust_7="13000.00000" pt_clust_8="13000.00000" pt_clust_9="13000.00000"></scales>
<clustering>
<clus scale="   79.144">  5  6 -1 -1</clus>
<clus scale="   87.760">  7  8 -1 -1</clus>
<clus scale="  202.956">  5  9 -1 -1</clus>
<clus scale="  240.408">  1  7  2 -1</clus>
<clus scale="  523.355">  2  5  1 -1</clus>
</clustering>
</event>
<event>
 9    1  0.2728138E-005  0.2175530E+03  0.7546771E-02  0.1167686E+00
          1   -1    0    0  502    0 -0.00000000000E+00  0.00000000000E+00  0.10787730543E+03  0.10787730543E+03  0.00000000000E+00 0. -1.
         21   -1    0    0  501  502  0.00000000000E+00 -0.00000000000E+00 -0.26529839781E+03  0.26529839781E+03  0.00000000000E+00 0. -1.
         23    2    1    2    0    0  0.42158847184E+02  0.21303569357E+02  0.39552364858E+01  0.10230372845E+03  0.90659795363E+02 0.  0.
        -24    2    1    2    0    0 -0.20197930653E+02  0.57795725012E+02 -0.15852685034E+03  0.18873124341E+03  0.82100047063E+02 0.  0.
         13    1    4    4    0    0 -0.17474343158E+02  0.44797658109E+02 -0.16645715965E+03  0.17326329340E+03  0.00000000000E+00 0. -1.
        -14    1    4    4    0    0 -0.27235874952E+01  0.12998066903E+02  0.79303093033E+01  0.15467950016E+02  0.00000000000E+00 0.  1.
        -11    1    3    3    0    0  0.56850553231E+02  0.35904854078E+02  0.25966287405E+02  0.72079067909E+02  0.00000000000E+00 0. -1.
         11    1    3    3    0    0 -0.14691706047E+02 -0.14601284721E+02 -0.22011050919E+02  0.30224660538E+02  0.00000000000E+00 0.  1.
          2    1    1    2  501    0 -0.21960916531E+02 -0.79099294369E+02 -0.28494785222E+01  0.82140731385E+02  0.00000000000E+00 0. -1.
<scales pt_clust_5="13000.00000" pt_clust_6="13000.00000" pt_clust_7="13000.00000" pt_clust_8="13000.00000" pt_clust_9="13000.00000"></scales>
<clustering>
<clus scale="   82.100">  5  6 -1 -1</clus>
<clus scale="   82.091">  5  9 -1 -1</clus>
<clus scale="   90.660">  7  8 -1 -1</clus>
<clus scale="  102.227">  1  7  2 -1</clus>
<clus scale="  217.553">  2  5  1 -1</clus>
</clustering>
</event>
<event>
 9    1  0.2728138E-005  0.1249201E+03  0.7546771E-02  0.1238862E+00
         21   -1    0    0  501  502  0.00000000000E+00  0.00000000000E+00  0.73187700383E+02  0.73187700383E+02  0.00000000000E+00 0. -1.
         -2   -1    0    0    0  501 -0.00000000000E+00 -0.00000000000E+00 -0.32274170689E+03  0.32274170689E+03  0.00000000000E+00 0.  1.
         23    2    1    2    0    0 -0.67741045226E+02 -0.65994047536E+00  0.10511091815E+01  0.11591520203E+03  0.94052881413E+02 0.  0.
        -24    2    1    2    0    0  0.48255004442E+02  0.21622118124E+02 -0.18151118480E+03  0.20522724138E+03  0.79848913282E+02 0.  0.
         11    1    4    4    0    0  0.54413139818E+02  0.15904819128E+02 -0.18685746809E+03  0.19526767894E+03  0.00000000000E+00 0. -1.
        -12    1    4    4    0    0 -0.61581353765E+01  0.57172989957E+01  0.53462832893E+01  0.99595624468E+01  0.00000000000E+00 0.  1.
        -13    1    3    3    0    0 -0.84316249364E+02 -0.19354896420E+02 -0.12635778784E+02  0.87427140110E+02  0.00000000000E+00 0.  1.
         13    1    3    3    0    0  0.16575204138E+02  0.18694955945E+02  0.13686887965E+02  0.28488061924E+02  0.00000000000E+00 0. -1.
         -1    1    1    2    0  502  0.19486040785E+02 -0.20962177649E+02 -0.69093930887E+02  0.74786963855E+02  0.00000000000E+00 0.  1.
<scales pt_clust_5="13000.00000" pt_clust_6="13000.00000" pt_clust_7="13000.00000" pt_clust_8="13000.00000" pt_clust_9="13000.00000"></scales>
<clustering>
<clus scale="   79.849">  5  6 -1 -1</clus>
<clus scale="   28.620">  5  9 -1 -1</clus>
<clus scale="   94.053">  7  8 -1 -1</clus>
<clus scale="  115.910">  2  7  1 -1</clus>
<clus scale="  124.920">  1  5  2 -1</clus>
</clustering>
</event>
<event>
 9    1  0.2728138E-005  0.3642726E+03  0.7546771E-02  0.1071785E+00
         21   -1    0    0  501  502  0.00000000000E+00  0.00000000000E+00  0.12155870632E+04  0.12155870632E+04  0.00000000000E+00 0. -1.
          1   -1    0    0  502    0 -0.00000000000E+00 -0.00000000000E+00 -0.12267252258E+03  0.12267252258E+03  0.00000000000E+00 0. -1.
         23    2    1    2    0    0 -0.14968302878E+02  0.22301270255E+03  0.88837368151E+03  0.92048994943E+03  0.90195528775E+02 0.  0.
        -24    2    1    2    0    0  0.42931016596E+01  0.44529029463E+02  0.29908913428E+02  0.98099721074E+02  0.82022844291E+02 0.  0.
         13    1    4    4    0    0 -0.21864804144E+02  0.59402403490E+02  0.21605790165E+02  0.66884417986E+02  0.00000000000E+00 0. -1.
        -14    1    4    4    0    0  0.26157905804E+02 -0.14873374027E+02  0.83031232629E+01  0.31215303089E+02  0.00000000000E+00 0.  1.
        -11    1    3    3    0    0 -0.49925489645E+02  0.16290313246E+03  0.66924616878E+03  0.69059425099E+03  0.00000000000E+00 0. -1.
         11    1    3    3    0    0  0.34957186766E+02  0.60109570091E+02  0.21912751273E+03  0.22989569843E+03  0.00000000000E+00 0.  1.
          2    1    1    2  501    0  0.10675201219E+02 -0.26754173201E+03  0.17463194572E+03  0.31966991531E+03  0.00000000000E+00 0. -1.
<scales pt_clust_5="13000.00000" pt_clust_6="13000.00000" pt_clust_7="13000.00000" pt_clust_8="13000.00000" pt_clust_9="13000.00000"></scales>
<clustering>
<clus scale="   82.023">  5  6 -1 -1</clus>
<clus scale="   90.196">  7  8 -1 -1</clus>
<clus scale="  241.027">  2  7  1 -1</clus>
<clus scale="  115.850">  5  9 -1 -1</clus>
<clus scale="  364.273">  1  5  2 -1</clus>
</clustering>
</event>
<event>
 9    1  0.3243019E-005  0.9729875E+03  0.7546771E-02  0.9965102E-01
         -2   -1    0    0    0  501 -0.00000000000E+00  0.00000000000E+00  0.75548903949E+03  0.75548903949E+03  0.00000000000E+00 0.  1.
         21   -1    0    0  501  502  0.00000000000E+00 -0.00000000000E+00 -0.47325942746E+03  0.47325942746E+03  0.00000000000E+00 0.  1.
         23    2    1    2    0    0  0.14718187118E+02 -0.70733885188E+02  0.22597677956E+03  0.25413617074E+03  0.91103132932E+02 0.  0.
        -24    2    1    2    0    0  0.39327654936E+03 -0.43161687907E+02  0.28405811123E+03  0.49364748295E+03  0.80432899266E+02 0.  0.
         13    1    4    4    0    0  0.73374242556E+02  0.17974333100E+02  0.76081446622E+02  0.10721586935E+03  0.00000000000E+00 0. -1.
        -14    1    4    4    0    0  0.31990230681E+03 -0.61136021007E+02  0.20797666461E+03  0.38643161360E+03  0.00000000000E+00 0.  1.
        -13    1    3    3    0    0  0.38158907978E+02  0.25938567731E+01  0.91703384935E+02  0.99359655593E+02  0.00000000000E+00 0.  1.
         13    1    3    3    0    0 -0.23440720860E+02 -0.73327741961E+02  0.13427339463E+03  0.15477651514E+03  0.00000000000E+00 0. -1.
         -1    1    1    2    0  502 -0.40799473648E+03  0.11389557309E+03 -0.22780527876E+03  0.48096481326E+03  0.00000000000E+00 0.  1.
<scales pt_clust_5="13000.00000" pt_clust_6="13000.00000" pt_clust_7="13000.00000" pt_clust_8="13000.00000" pt_clust_9="13000.00000"></scales>
<clustering>
<clus scale="   80.433">  5  6 -1 -1</clus>
<clus scale="   91.103">  7  8 -1 -1</clus>
<clus scale="  116.274">  1  7  2 -1</clus>
<clus scale="  415.741">  5  9 -1 -1</clus>
<clus scale="  972.988">  2  5  1 -1</clus>
</clustering>
</event>
<event>
 9    1  0.2728138E-005  0.1740639E+03  0.7546771E-02  0.1197868E+00
         21   -1    0    0  501  502  0.00000000000E+00  0.00000000000E+00  0.31081421400E+02  0.31081421400E+02  0.00000000000E+00 0.  1.
          1   -1    0    0  502    0 -0.00000000000E+00 -0.00000000000E+00 -0.10791737429E+04  0.10791737429E+04  0.00000000000E+00 0. -1.
         23    2    1    2    0    0 -0.26314026767E+02 -0.32331089271E+02 -0.87670819225E+02  0.13418770383E+03  0.92641459276E+02 0.  0.
        -24    2    1    2    0    0 -0.71060103272E+01 -0.31713496300E+02 -0.71407390792E+03  0.71934631786E+03  0.80630873829E+02 0.  0.
         13    1    4    4    0    0 -0.18382307433E+02 -0.48070727664E+02 -0.27199544851E+03  0.27682165395E+03  0.00000000000E+00 0. -1.
        -14    1    4    4    0    0  0.11276297106E+02  0.16357231364E+02 -0.44207845941E+03  0.44252466391E+03  0.00000000000E+00 0.  1.
        -11    1    3    3    0    0  0.89615426538E+01 -0.35129796773E+02  0.34679034423E+01  0.36420299592E+02  0.00000000000E+00 0.  1.
         11    1    3    3    0    0 -0.35275569421E+02  0.27987075019E+01 -0.91138722667E+02  0.97767404236E+02  0.00000000000E+00 0. -1.
          2    1    1    2  501    0  0.33420037094E+02  0.64044585572E+02 -0.24634759437E+03  0.25672114263E+03  0.00000000000E+00 0. -1.
<scales pt_clust_5="13000.00000" pt_clust_6="13000.00000" pt_clust_7="13000.00000" pt_clust_8="13000.00000" pt_clust_9="13000.00000"></scales>
<clustering>
<clus scale="   80.631">  5  6 -1 -1</clus>
<clus scale="   72.240">  5  9 -1 -1</clus>
<clus scale="   92.641">  7  8 -1 -1</clus>
<clus scale="  101.588">  2  7  1 -1</clus>
<clus scale="  174.064">  1  5  2 -1</clus>
</clustering>
</event>
<event>
 9    1  0.2728138E-005  0.2524381E+03  0.7546771E-02  0.1134602E+00
         -2   -1    0    0    0  501 -0.00000000000E+00  0.00000000000E+00  0.40991702201E+03  0.40991702201E+03  0.00000000000E+00 0.  1.
         21   -1    0    0  501  502  0.00000000000E+00 -0.00000000000E+00 -0.96291056669E+02  0.96291056669E+02  0.00000000000E+00 0.  1.
         23    2    1    2    0    0  0.19030085014E+02  0.10885161485E+03  0.13709415901E+03  0.19816836964E+03  0.90912463954E+02 0.  0.
        -24    2    1    2    0    0 -0.81154031179E+02 -0.26117349512E+02  0.16741057778E+03  0.20417662532E+03  0.79960615639E+02 0.  0.
         11    1    4    4    0    0 -0.85232369179E+02 -0.10162253328E+02  0.87447074138E+02  0.12253497021E+03  0.00000000000E+00 0. -1.
        -12    1    4    4    0    0  0.40783380000E+01 -0.15955096184E+02  0.79963503644E+02  0.81641655116E+02  0.00000000000E+00 0.  1.
        -13    1    3    3    0    0 -0.60803345399E+01  0.11275318739E+03  0.89005732198E+02  0.14377855229E+03  0.00000000000E+00 0.  1.
         13    1    3    3    0    0  0.25110419554E+02 -0.39015725423E+01  0.48088426812E+02  0.54389817353E+02  0.00000000000E+00 0. -1.
         -1    1    1    2    0  502  0.62123946165E+02 -0.82734265336E+02  0.91212285506E+01  0.10386308371E+03  0.00000000000E+00 0.  1.
<scales pt_clust_5="13000.00000" pt_clust_6="13000.00000" pt_clust_7="13000.00000" pt_clust_8="13000.00000" pt_clust_9="13000.00000"></scales>
<clustering>
<clus scale="   79.961">  5  6 -1 -1</clus>
<clus scale="   90.912">  7  8 -1 -1</clus>
<clus scale="  103.462">  5  9 -1 -1</clus>
<clus scale="  143.094">  1  7  2 -1</clus>
<clus scale="  252.438">  2  5  1 -1</clus>
</clustering>
</event>
<event>
 9    1  0.2728138E-005  0.1332039E+03  0.7546771E-02  0.1229662E+00
         21   -1    0    0  501  502  0.00000000000E+00  0.00000000000E+00  0.21017066094E+02  0.21017066094E+02  0.00000000000E+00 0. -1.
          1   -1    0    0  502    0 -0.00000000000E+00 -0.00000000000E+00 -0.77210671987E+03  0.77210671987E+03  0.00000000000E+00 0. -1.
         23    2    1    2    0    0  0.69152293133E+02 -0.54939796437E+02 -0.43619658718E+03  0.45121601750E+03  0.74350594535E+02 0.  0.
        -24    2    1    2    0    0 -0.46554011429E+02  0.28010626310E+02 -0.24762993033E+03  0.26601183945E+03  0.80559575259E+02 0.  0.
         11    1    4    4    0    0 -0.51371340866E+02  0.57078613439E+01 -0.23354784636E+03  0.23919906121E+03  0.00000000000E+00 0. -1.
        -12    1    4    4    0    0  0.48173294375E+01  0.22302764966E+02 -0.14082083967E+02  0.26812778239E+02  0.00000000000E+00 0.  1.
        -13    1    3    3    0    0  0.52611186741E+02  0.44370352233E+01 -0.17181032024E+03  0.17973984086E+03  0.00000000000E+00 0.  1.
         13    1    3    3    0    0  0.16541106392E+02 -0.59376831660E+02 -0.26438626694E+03  0.27147617664E+03  0.00000000000E+00 0. -1.
          2    1    1    2  501    0 -0.22598281704E+02  0.26929170127E+02 -0.67263136268E+02  0.75895929010E+02  0.00000000000E+00 0. -1.
<scales pt_clust_5="13000.00000" pt_clust_6="13000.00000" pt_clust_7="13000.00000" pt_clust_8="13000.00000" pt_clust_9="13000.00000"></scales>
<clustering>
<clus scale="   74.351">  7  8 -1 -1</clus>
<clus scale="   80.560">  5  6 -1 -1</clus>
<clus scale="   35.155">  5  9 -1 -1</clus>
<clus scale="  115.449">  2  7  1 -1</clus>
<clus scale="  133.204">  1  5  2 -1</clus>
</clustering>
</event>
<event>
 9    1  0.2728138E-005  0.1237516E+03  0.7546771E-02  0.1245859E+00
          1   -1    0    0  502    0 -0.00000000000E+00  0.00000000000E+00  0.27399920165E+03  0.27399920165E+03  0.00000000000E+00 0. -1.
         21   -1    0    0  501  502  0.00000000000E+00 -0.00000000000E+00 -0.59555961009E+02  0.59555961009E+02  0.00000000000E+00 0. -1.
         23    2    1    2    0    0 -0.21837471547E+02 -0.44159278877E+02  0.17564431674E+03  0.20386391946E+03  0.91009090640E+02 0.  0.
        -24    2    1    2    0    0 -0.39771182543E+01  0.21097711117E+02  0.30392140390E+02  0.94069578960E+02  0.86397179377E+02 0.  0.
         13    1    4    4    0    0 -0.27786701363E+02  0.17018841633E+02 -0.19967654000E+02  0.38215820670E+02  0.00000000000E+00 0. -1.
        -14    1    4    4    0    0  0.23809583109E+02  0.40788694832E+01  0.50359794390E+02  0.55853758290E+02  0.00000000000E+00 0.  1.
        -11    1    3    3    0    0  0.26428270835E+02 -0.23392363869E+02  0.22254747463E+02  0.41724452918E+02  0.00000000000E+00 0.  1.
         11    1    3    3    0    0 -0.48265742382E+02 -0.20766915008E+02  0.15338956928E+03  0.16213946654E+03  0.00000000000E+00 0. -1.
          2    1    1    2  501    0  0.25814589801E+02  0.23061567760E+02  0.84067835085E+01  0.35621664239E+02  0.00000000000E+00 0. -1.
<scales pt_clust_5="13000.00000" pt_clust_6="13000.00000" pt_clust_7="13000.00000" pt_clust_8="13000.00000" pt_clust_9="13000.00000"></scales>
<clustering>
<clus scale="   86.397">  5  6 -1 -1</clus>
<clus scale="   34.615">  5  9 -1 -1</clus>
<clus scale="   91.009">  7  8 -1 -1</clus>
<clus scale="  103.487">  1  7  2 -1</clus>
<clus scale="  123.752">  2  5  1 -1</clus>
</clustering>
</event>
<event>
 9    1  0.2728138E-005  0.3834217E+03  0.7546771E-02  0.1054518E+00
         21   -1    0    0  501  502  0.00000000000E+00  0.00000000000E+00  0.14185541395E+03  0.14185541395E+03  0.00000000000E+00 0. -1.
          1   -1    0    0  502    0 -0.00000000000E+00 -0.00000000000E+00 -0.21562115950E+04  0.21562115950E+04  0.00000000000E+00 0. -1.
         23    2    1    2    0    0 -0.13279134108E+03  0.29291231169E+03 -0.18516391564E+04  0.18815468274E+04  0.90662757080E+02 0.  0.
        -24    2    1    2    0    0  0.63515590576E+02 -0.16878656174E+03 -0.18756631831E+03  0.27221557725E+03  0.79981642035E+02 0.  0.
         11    1    4    4    0    0  0.69935823386E+02 -0.79885473441E+02 -0.82656744813E+02  0.13455424825E+03  0.00000000000E+00 0. -1.
        -12    1    4    4    0    0 -0.64202328099E+01 -0.88901088295E+02 -0.10490957350E+03  0.13766132899E+03  0.00000000000E+00 0.  1.
        -13    1    3    3    0    0  0.12278715519E+02  0.16157662842E+02 -0.78215200901E+02  0.80805040532E+02  0.00000000000E+00 0.  1.
         13    1    3    3    0    0 -0.14507005660E+03  0.27675464884E+03 -0.17734239555E+04  0.18007417869E+04  0.00000000000E+00 0. -1.
          2    1    1    2  501    0  0.69275750501E+02 -0.12412574995E+03  0.24849293731E+02  0.14430460425E+03  0.00000000000E+00 0. -1.
<scales pt_clust_5="13000.00000" pt_clust_6="13000.00000" pt_clust_7="13000.00000" pt_clust_8="13000.00000" pt_clust_9="13000.00000"></scales>
<clustering>
<clus scale="   79.982">  5  6 -1 -1</clus>
<clus scale="   90.663">  7  8 -1 -1</clus>
<clus scale="  142.149">  5  9 -1 -1</clus>
<clus scale="  334.142">  2  7  1 -1</clus>
<clus scale="  383.422">  1  5  2 -1</clus>
</clustering>
</event>
<event>
 9    1  0.2728138E-005  0.2402239E+03  0.7546771E-02  0.1158563E+00
         -2   -1    0    0    0  501 -0.00000000000E+00  0.00000000000E+00  0.19455687957E+03  0.19455687957E+03  0.00000000000E+00 0.  1.
         21   -1    0    0  501  502  0.00000000000E+00 -0.00000000000E+00 -0.14335714569E+03  0.14335714569E+03  0.00000000000E+00 0.  1.
         23    2    1    2    0    0  0.29962880062E+02 -0.93358556345E+00  0.15044066864E+02  0.94984478590E+02  0.88865524596E+02 0.  0.
        -24    2    1    2    0    0  0.11708582529E+02  0.86700602989E+02  0.74169882103E+02  0.14027686711E+03  0.80761021354E+02 0.  0.
         13    1    4    4    0    0 -0.57875639363E+01  0.34089230001E+02  0.77365299055E+02  0.84740551074E+02  0.00000000000E+00 0. -1.
        -14    1    4    4    0    0  0.17496146465E+02  0.52611372988E+02 -0.31954169520E+01  0.55536316031E+02  0.00000000000E+00 0.  1.
        -13    1    3    3    0    0  0.34965683577E+01  0.33900398374E+02  0.33237337264E+02  0.47604449252E+02  0.00000000000E+00 0.  1.
         13    1    3    3    0    0  0.26466311704E+02 -0.34833983938E+02 -0.18193270400E+02  0.47380029338E+02  0.00000000000E+00 0. -1.
         -1    1    1    2    0  502 -0.41671462590E+02 -0.85767017426E+02 -0.38014215089E+02  0.10265267956E+03  0.00000000000E+00 0.  1.
<scales pt_clust_5="13000.00000" pt_clust_6="13000.00000" pt_clust_7="13000.00000" pt_clust_8="13000.00000" pt_clust_9="13000.00000"></scales>
<clustering>
<clus scale="   80.761">  5  6 -1 -1</clus>
<clus scale="   88.866">  7  8 -1 -1</clus>
<clus scale="   93.786">  1  7  2 -1</clus>
<clus scale="   92.733">  5  9 -1 -1</clus>
<clus scale="  240.224">  2  5  1 -1</clus>
</clustering>
</event>
<event>
 9    1  0.2728138E-005  0.3128043E+03  0.7546771E-02  0.1100672E+00
         21   -1    0    0  501  502  0.00000000000E+00  0.00000000000E+00  0.80311647112E+02  0.80311647112E+02  0.00000000000E+00 0.  1.
          1   -1    0    0  502    0 -0.00000000000E+00 -0.00000000000E+00 -0.98349185665E+03  0.98349185665E+03  0.00000000000E+00 0. -1.
         23    2    1    2    0    0  0.15305173455E+03 -0.16860617561E+02 -0.61033286995E+03  0.63531071177E+03  0.86048675010E+02 0.  0.
        -24    2    1    2    0    0 -0.69412043374E+02  0.12837313499E+03 -0.12085013395E+03  0.20710246197E+03  0.83600127535E+02 0.  0.
         13    1    4    4    0    0 -0.88294812801E+02  0.94807526321E+02 -0.96388459897E+02  0.16147809826E+03  0.00000000000E+00 0. -1.
        -14    1    4    4    0    0  0.18882769427E+02  0.33565608671E+02 -0.24461674057E+02  0.45624363714E+02  0.00000000000E+00 0.  1.
        -11    1    3    3    0    0  0.28149612695E+02 -0.30306633150E+02 -0.77260039893E+02  0.87635646126E+02  0.00000000000E+00 0. -1.
         11    1    3    3    0    0  0.12490212186E+03  0.13446015589E+02 -0.53307283006E+03  0.54767506564E+03  0.00000000000E+00 0.  1.
          2    1    1    2  501    0 -0.83639691176E+02 -0.11151251743E+03 -0.17199720564E+03  0.22139033003E+03  0.00000000000E+00 0. -1.
<scales pt_clust_5="13000.00000" pt_clust_6="13000.00000" pt_clust_7="13000.00000" pt_clust_8="13000.00000" pt_clust_9="13000.00000"></scales>
<clustering>
<clus scale="   83.600">  5  6 -1 -1</clus>
<clus scale="   86.049">  7  8 -1 -1</clus>
<clus scale="  139.394">  5  9 -1 -1</clus>
<clus scale="  176.390">  2  7  1 -1</clus>
<clus scale="  312.804">  1  5  2 -1</clus>
</clustering>
</event>
<event>
 9    1  0.2728138E-005  0.1930613E+03  0.7546771E-02  0.1185690E+00
          1   -1    0    0  502    0 -0.00000000000E+00  0.00000000000E+00  0.49342869764E+03  0.49342869764E+03  0.00000000000E+00 0. -1.
         21   -1    0    0  501  502  0.00000000000E+00 -0.00000000000E+00 -0.45575807815E+02  0.45575807815E+02  0.00000000000E+00 0. -1.
         23    2    1    2    0    0  0.30340730898E+02  0.11385432112E+02  0.90959544898E+02  0.13323915455E+03  0.91808744037E+02 0.  0.
        -24    2    1    2    0    0 -0.28491308244E+02 -0.84206798402E+02  0.22362763706E+03  0.25389000516E+03  0.80921413228E+02 0.  0.
         13    1    4    4    0    0 -0.30270805183E+02 -0.99382504777E+02  0.18225243835E+03  0.20978359132E+03  0.00000000000E+00 0. -1.
        -14    1    4    4    0    0  0.17794969397E+01  0.15175706375E+02  0.41375198708E+02  0.44106413836E+02  0.00000000000E+00 0.  1.
        -11    1    3    3    0    0  0.49296867300E+02  0.19706272688E+02  0.97930319866E+02  0.11139508902E+03  0.00000000000E+00 0. -1.
         11    1    3    3    0    0 -0.18956136403E+02 -0.83208405765E+01 -0.69707749685E+01  0.21844065530E+02  0.00000000000E+00 0.  1.
          2    1    1    2  501    0 -0.18494226542E+01  0.72821366290E+02  0.13326570787E+03  0.15187534575E+03  0.00000000000E+00 0. -1.
<scales pt_clust_5="13000.00000" pt_clust_6="13000.00000" pt_clust_7="13000.00000" pt_clust_8="13000.00000" pt_clust_9="13000.00000"></scales>
<clustering>
<clus scale="   80.921">  5  6 -1 -1</clus>
<clus scale="   72.845">  5  9 -1 -1</clus>
<clus scale="   91.809">  7  8 -1 -1</clus>
<clus scale="   97.360">  1  7  2 -1</clus>
<clus scale="  193.061">  2  5  1 -1</clus>
</clustering>
</event>
<event>
 9    1  0.2728138E-005  0.3740081E+03  0.7546771E-02  0.1067114E+00
         21   -1    0    0  501  502  0.00000000000E+00  0.00000000000E+00  0.41744473734E+03  0.41744473734E+03  0.00000000000E+00 0. -1.
          1   -1    0    0  502    0 -0.00000000000E+00 -0.00000000000E+00 -0.25210069384E+03  0.25210069384E+03  0.00000000000E+00 0. -1.
         23    2    1    2    0    0  0.18933115026E+01 -0.23612774123E+03  0.15196051564E+03  0.29529790054E+03  0.91372626896E+02 0.  0.
        -24    2    1    2    0    0 -0.50530871262E+01 -0.14518366478E+02 -0.72514517054E+02  0.10927219289E+03  0.80285367909E+02 0.  0.
         13    1    4    4    0    0  0.30184857191E+02 -0.26438651452E+02 -0.55192428402E+02  0.68237321512E+02  0.00000000000E+00 0. -1.
        -14    1    4    4    0    0 -0.35237944317E+02  0.11920284974E+02 -0.17322088651E+02  0.41034871375E+02  0.00000000000E+00 0.  1.
        -11    1    3    3    0    0  0.37295529154E+01 -0.80384513308E+02  0.10564725966E+03  0.13280407757E+03  0.00000000000E+00 0.  1.
         11    1    3    3    0    0 -0.18362414128E+01 -0.15574322792E+03  0.46313255976E+02  0.16249382298E+03  0.00000000000E+00 0. -1.
          2    1    1    2  501    0  0.31597756235E+01  0.25064610771E+03  0.85898044916E+02  0.26497533774E+03  0.00000000000E+00 0. -1.
<scales pt_clust_5="13000.00000" pt_clust_6="13000.00000" pt_clust_7="13000.00000" pt_clust_8="13000.00000" pt_clust_9="13000.00000"></scales>
<clustering>
<clus scale="   80.285">  5  6 -1 -1</clus>
<clus scale="   91.373">  7  8 -1 -1</clus>
<clus scale="  250.666">  5  9 -1 -1</clus>
<clus scale="  253.197">  2  7  1 -1</clus>
<clus scale="  374.008">  1  5  2 -1</clus>
</clustering>
</event>
<event>
 9    1  0.2728138E-005  0.2616450E+03  0.7546771E-02  0.1148573E+00
         21   -1    0    0  501  502  0.00000000000E+00  0.00000000000E+00  0.20554638167E+03  0.20554638167E+03  0.00000000000E+00 0. -1.
          1   -1    0    0  502    0 -0.00000000000E+00 -0.00000000000E+00 -0.17795557683E+03  0.17795557683E+03  0.00000000000E+00 0. -1.
         23    2    1    2    0    0  0.60490644094E+00 -0.34236983783E+01 -0.57521957611E+02  0.10836147809E+03  0.91767895826E+02 0.  0.
        -24    2    1    2    0    0  0.19489440926E+02  0.10189916978E+03 -0.22514074361E+02  0.12788309599E+03  0.71301638044E+02 0.  0.
         11    1    4    4    0    0  0.19064258720E+02  0.97623033426E+02  0.54255343672E+01  0.99614953893E+02  0.00000000000E+00 0. -1.
        -12    1    4    4    0    0  0.42518220553E+00  0.42761363521E+01 -0.27939608729E+02  0.28268142102E+02  0.00000000000E+00 0.  1.
        -13    1    3    3    0    0 -0.38073434452E+02  0.13235914587E+02 -0.43653329697E+01  0.40544197832E+02  0.00000000000E+00 0. -1.
         13    1    3    3    0    0  0.38678340893E+02 -0.16659612965E+02 -0.53156624642E+02  0.67817280259E+02  0.00000000000E+00 0.  1.
          2    1    1    2  501    0 -0.20094347366E+02 -0.98475471400E+02  0.10762683681E+03  0.14725738442E+03  0.00000000000E+00 0. -1.
<scales pt_clust_5="13000.00000" pt_clust_6="13000.00000" pt_clust_7="13000.00000" pt_clust_8="13000.00000" pt_clust_9="13000.00000"></scales>
<clustering>
<clus scale="   71.302">  5  6 -1 -1</clus>
<clus scale="   91.768">  7  8 -1 -1</clus>
<clus scale="   91.834">  2  7  1 -1</clus>
<clus scale="  101.180">  5  9 -1 -1</clus>
<clus scale="  261.645">  1  5  2 -1</clus>
</clustering>
</event>
<event>
 9    1  0.2728138E-005  0.3281586E+03  0.7546771E-02  0.1106735E+00
          1   -1    0    0  502    0 -0.00000000000E+00  0.00000000000E+00  0.87497553615E+03  0.87497553615E+03  0.00000000000E+00 0. -1.
         21   -1    0    0  501  502  0.00000000000E+00 -0.00000000000E+00 -0.60470806154E+02  0.60470806154E+02  0.00000000000E+00 0. -1.
         23    2    1    2    0    0 -0.34939649717E+02  0.86499299191E+02  0.20222547372E+03  0.24077092506E+03  0.91501848326E+02 0.  0.
        -24    2    1    2    0    0 -0.36937679984E+02 -0.64697754650E+02  0.38581675759E+02  0.11608180187E+03  0.80226226147E+02 0.  0.
         13    1    4    4    0    0  0.22100728603E+02 -0.31484917038E+00  0.88079359341E+01  0.23793298851E+02  0.00000000000E+00 0. -1.
        -14    1    4    4    0    0 -0.59038408587E+02 -0.64382905479E+02  0.29773739825E+02  0.92288503020E+02  0.00000000000E+00 0.  1.
        -11    1    3    3    0    0  0.26181099317E+02  0.16396434866E+02  0.21879337027E+02  0.37854965679E+02  0.00000000000E+00 0.  1.
         11    1    3    3    0    0 -0.61120749035E+02  0.70102864324E+02  0.18034613670E+03  0.20291595938E+03  0.00000000000E+00 0. -1.
          2    1    1    2  501    0  0.71877329701E+02 -0.21801544541E+02  0.57369758051E+03  0.57859361538E+03  0.00000000000E+00 0. -1.
<scales pt_clust_5="13000.00000" pt_clust_6="13000.00000" pt_clust_7="13000.00000" pt_clust_8="13000.00000" pt_clust_9="13000.00000"></scales>
<clustering>
<clus scale="   80.226">  5  6 -1 -1</clus>
<clus scale="   75.111">  5  9 -1 -1</clus>
<clus scale="   91.502">  7  8 -1 -1</clus>
<clus scale="  130.673">  1  7  2 -1</clus>
<clus scale="  328.159">  2  5  1 -1</clus>
</clustering>
</event>
<event>
 9    1  0.2728138E-005  0.2819208E+03  0.7546771E-02  0.1140254E+00
          3   -1    0    0  502    0 -0.00000000000E+00  0.00000000000E+00  0.21535186559E+03  0.21535186559E+03  0.00000000000E+00 0. -1.
         21   -1    0    0  501  502  0.00000000000E+00 -0.00000000000E+00 -0.16120366246E+03  0.16120366246E+03  0.00000000000E+00 0.  1.
         23    2    1    2    0    0  0.16715355217E+02  0.12134154673E+01  0.25750359206E+02  0.93208080366E+02  0.87998805499E+02 0.  0.
        -24    2    1    2    0    0  0.11367216524E+03  0.31788161183E+02 -0.90567777933E+01  0.14373062119E+03  0.81514525712E+02 0.  0.
         13    1    4    4    0    0  0.80274334923E+02 -0.13793883782E+02 -0.24670937777E+02  0.85105201063E+02  0.00000000000E+00 0. -1.
        -14    1    4    4    0    0  0.33397830315E+02  0.45582044966E+02  0.15614159984E+02  0.58625420127E+02  0.00000000000E+00 0.  1.
        -11    1    3    3    0    0 -0.13399413411E+02  0.38999379116E+02  0.12953372679E+02  0.43223670771E+02  0.00000000000E+00 0. -1.
         11    1    3    3    0    0  0.30114768627E+02 -0.37785963649E+02  0.12796986527E+02  0.49984409595E+02  0.00000000000E+00 0.  1.
          4    1    1    2  501    0 -0.13038752045E+03 -0.33001576651E+02  0.37454621726E+02  0.13961682649E+03  0.00000000000E+00 0. -1.
<scales pt_clust_5="13000.00000" pt_clust_6="13000.00000" pt_clust_7="13000.00000" pt_clust_8="13000.00000" pt_clust_9="13000.00000"></scales>
<clustering>
<clus scale="   81.515">  5  6 -1 -1</clus>
<clus scale="   87.999">  7  8 -1 -1</clus>
<clus scale="   89.580">  1  7  2 -1</clus>
<clus scale="  125.137">  5  9 -1 -1</clus>
<clus scale="  281.921">  2  5  1 -1</clus>
</clustering>
</event>
<event>
 9    1  0.2728138E-005  0.1860214E+03  0.7546771E-02  0.1186139E+00
          3   -1    0    0  502    0 -0.00000000000E+00  0.00000000000E+00  0.13760719218E+03  0.13760719218E+03  0.00000000000E+00 0. -1.
         21   -1    0    0  501  502  0.00000000000E+00 -0.00000000000E+00 -0.16648406923E+03  0.16648406923E+03  0.00000000000E+00 0. -1.
         23    2    1    2    0    0 -0.48385873609E+02 -0.41647701413E+02 -0.46245371325E+02  0.11726077480E+03  0.86808589089E+02 0.  0.
        -24    2    1    2    0    0  0.86368852640E+01  0.10147566600E+02 -0.53883182922E+02  0.99371684468E+02  0.82424300890E+02 0.  0.
         13    1    4    4    0    0  0.26421854229E+02 -0.29457713723E+02 -0.31176440575E+02  0.50376995996E+02  0.00000000000E+00 0. -1.
        -14    1    4    4    0    0 -0.17784968965E+02  0.39605280322E+02 -0.22706742347E+02  0.48994688472E+02  0.00000000000E+00 0.  1.
        -11    1    3    3    0    0  0.18420397858E+02 -0.30851858188E+02 -0.11727620143E+01  0.35951683989E+02  0.00000000000E+00 0.  1.
         11    1    3    3    0    0 -0.66806271467E+02 -0.10795843225E+02 -0.45072609310E+02  0.81309090810E+02  0.00000000000E+00 0. -1.
          4    1    1    2  501    0  0.39748988345E+02  0.31500134814E+02  0.71251677200E+02  0.87458802139E+02  0.00000000000E+00 0. -1.
<scales pt_clust_5="13000.00000" pt_clust_6="13000.00000" pt_clust_7="13000.00000" pt_clust_8="13000.00000" pt_clust_9="13000.00000"></scales>
<clustering>
<clus scale="   82.424">  5  6 -1 -1</clus>
<clus scale="   50.717">  5  9 -1 -1</clus>
<clus scale="   86.809">  7  8 -1 -1</clus>
<clus scale="  107.757">  1  7  2 -1</clus>
<clus scale="  186.021">  2  5  1 -1</clus>
</clustering>
</event>
<event>
 9    1  0.2728138E-005  0.1926684E+03  0.7546771E-02  0.1176992E+00
         21   -1    0    0  501  502  0.00000000000E+00  0.00000000000E+00  0.21177755423E+02  0.21177755423E+02  0.00000000000E+00 0. -1.
          3   -1    0    0  502    0 -0.00000000000E+00 -0.00000000000E+00 -0.12451479468E+04  0.12451479468E+04  0.00000000000E+00 0. -1.
         23    2    1    2    0    0  0.85153937231E+00 -0.77320164781E+02 -0.30581735951E+03  0.32817553940E+03  0.90530626196E+02 0.  0.
        -24    2    1    2    0    0 -0.31644729469E+02  0.21225019661E+00 -0.67653505663E+03  0.68266435038E+03  0.85612490221E+02 0.  0.
         11    1    4    4    0    0 -0.36837716155E+02  0.14776118036E+02 -0.13031200897E+03  0.13622250430E+03  0.00000000000E+00 0. -1.
        -12    1    4    4    0    0  0.51929866864E+01 -0.14563867840E+02 -0.54622304765E+03  0.54644184608E+03  0.00000000000E+00 0.  1.
        -11    1    3    3    0    0 -0.13661366291E+02 -0.95110987727E+02 -0.24864978274E+03  0.26656977955E+03  0.00000000000E+00 0. -1.
         11    1    3    3    0    0  0.14512905664E+02  0.17790822946E+02 -0.57167576777E+02  0.61605759848E+02  0.00000000000E+00 0.  1.
          4    1    1    2  501    0  0.30793190096E+02  0.77107914585E+02 -0.24161777520E+03  0.25548581240E+03  0.00000000000E+00 0. -1.
<scales pt_clust_5="13000.00000" pt_clust_6="13000.00000" pt_clust_7="13000.00000" pt_clust_8="13000.00000" pt_clust_9="13000.00000"></scales>
<clustering>
<clus scale="   85.612">  5  6 -1 -1</clus>
<clus scale="   83.029">  5  9 -1 -1</clus>
<clus scale="   90.531">  7  8 -1 -1</clus>
<clus scale="  119.059">  2  7  1 -1</clus>
<clus scale="  192.668">  1  5  2 -1</clus>
</clustering>
</event>
<event>
 9    1  0.2728138E-005  0.3749910E+03  0.7546771E-02  0.1082166E+00
          1   -1    0    0  502    0 -0.00000000000E+00  0.00000000000E+00  0.51934209201E+03  0.51934209201E+03  0.00000000000E+00 0. -1.
         21   -1    0    0  501  502  0.00000000000E+00 -0.00000000000E+00 -0.15433732426E+03  0.15433732426E+03  0.00000000000E+00 0.  1.
         23    2    1    2    0    0  0.51013993494E+02 -0.13266189721E+03  0.27223063022E+02  0.16898670314E+03  0.87257115312E+02 0.  0.
        -24    2    1    2    0    0  0.14116473063E+02 -0.90341748465E+02  0.47606163008E+02  0.13297447485E+03  0.83993796668E+02 0.  0.
         13    1    4    4    0    0 -0.28274073042E+02 -0.28183104785E+02  0.41351757033E+02  0.57477634010E+02  0.00000000000E+00 0. -1.
        -14    1    4    4    0    0  0.42390546105E+02 -0.62158643680E+02  0.62544059750E+01  0.75496840843E+02  0.00000000000E+00 0.  1.
        -13    1    3    3    0    0  0.22478604956E+02 -0.12944744036E+03  0.40309957322E+02  0.13742932786E+03  0.00000000000E+00 0.  1.
         13    1    3    3    0    0  0.28535388538E+02 -0.32144568501E+01 -0.13086894300E+02  0.31557375276E+02  0.00000000000E+00 0. -1.
          2    1    1    2  501    0 -0.65130466557E+02  0.22300364568E+03  0.29017554172E+03  0.37171823828E+03  0.00000000000E+00 0. -1.
<scales pt_clust_5="13000.00000" pt_clust_6="13000.00000" pt_clust_7="13000.00000" pt_clust_8="13000.00000" pt_clust_9="13000.00000"></scales>
<clustering>
<clus scale="   83.994">  5  6 -1 -1</clus>
<clus scale="   87.257">  7  8 -1 -1</clus>
<clus scale="  166.780">  1  7  2 -1</clus>
<clus scale="  121.390">  5  9 -1 -1</clus>
<clus scale="  374.991">  2  5  1 -1</clus>
</clustering>
</event>
<event>
 9    1  0.2728138E-005  0.6612525E+03  0.7546771E-02  0.1001431E+00
          1   -1    0    0  502    0 -0.00000000000E+00  0.00000000000E+00  0.11727271443E+04  0.11727271443E+04  0.00000000000E+00 0. -1.
         21   -1    0    0  501  502  0.00000000000E+00 -0.00000000000E+00 -0.22522518047E+03  0.22522518047E+03  0.00000000000E+00 0. -1.
         23    2    1    2    0    0 -0.24861326039E+03  0.17461083635E+03  0.12083828266E+03  0.33935524789E+03  0.90898824559E+02 0.  0.
        -24    2    1    2    0    0 -0.11225487172E+03  0.10318331544E+02  0.54895861857E+03  0.56712509631E+03  0.86992446642E+02 0.  0.
         13    1    4    4    0    0 -0.70715699622E+02  0.42042583278E+02  0.41991061848E+03  0.42789393136E+03  0.00000000000E+00 0. -1.
        -14    1    4    4    0    0 -0.41539172097E+02 -0.31724251734E+02  0.12904800009E+03  0.13923116495E+03  0.00000000000E+00 0.  1.
        -13    1    3    3    0    0 -0.57411665469E+02  0.38033671464E+02  0.71477248046E+02  0.99255511108E+02  0.00000000000E+00 0.  1.
         13    1    3    3    0    0 -0.19120159492E+03  0.13657716488E+03  0.49361034619E+02  0.24009973679E+03  0.00000000000E+00 0. -1.
          2    1    1    2  501    0  0.36086813211E+03 -0.18492916789E+03  0.27770506262E+03  0.49147198060E+03  0.00000000000E+00 0. -1.
<scales pt_clust_5="13000.00000" pt_clust_6="13000.00000" pt_clust_7="13000.00000" pt_clust_8="13000.00000" pt_clust_9="13000.00000"></scales>
<clustering>
<clus scale="   86.992">  5  6 -1 -1</clus>
<clus scale="   90.899">  7  8 -1 -1</clus>
<clus scale="  317.112">  1  7  2 -1</clus>
<clus scale="  283.252">  5  9 -1 -1</clus>
<clus scale="  661.253">  2  5  1 -1</clus>
</clustering>
</event>
<event>
 9    1  0.2728138E-005  0.2744472E+03  0.7546771E-02  0.1136814E+00
         -2   -1    0    0    0  501 -0.00000000000E+00  0.00000000000E+00  0.67211630828E+03  0.67211630828E+03  0.00000000000E+00 0.  1.
         21   -1    0    0  501  502  0.00000000000E+00 -0.00000000000E+00 -0.56638825152E+02  0.56638825152E+02  0.00000000000E+00 0.  1.
         23    2    1    2    0    0 -0.54157642204E+02 -0.15913210960E+01  0.10324026729E+03  0.14762845986E+03  0.90553999685E+02 0.  0.
        -24    2    1    2    0    0 -0.50290291724E+02  0.69959341155E+01  0.44773142371E+03  0.45824633355E+03  0.83355971036E+02 0.  0.
         13    1    4    4    0    0 -0.28438732055E+02 -0.36039287401E+02  0.15846897056E+03  0.16498486702E+03  0.00000000000E+00 0. -1.
        -14    1    4    4    0    0 -0.21851559669E+02  0.43035221516E+02  0.28926245315E+03  0.29326146653E+03  0.00000000000E+00 0.  1.
        -13    1    3    3    0    0 -0.11385044003E+02  0.17487021092E+02 -0.11409083374E+02  0.23781974625E+02  0.00000000000E+00 0.  1.
         13    1    3    3    0    0 -0.42772598201E+02 -0.19078342188E+02  0.11464935067E+03  0.12384648524E+03  0.00000000000E+00 0. -1.
         -1    1    1    2    0  502  0.10444793393E+03 -0.54046130194E+01  0.64505792131E+02  0.12288034002E+03  0.00000000000E+00 0.  1.
<scales pt_clust_5="13000.00000" pt_clust_6="13000.00000" pt_clust_7="13000.00000" pt_clust_8="13000.00000" pt_clust_9="13000.00000"></scales>
<clustering>
<clus scale="   83.356">  5  6 -1 -1</clus>
<clus scale="   90.554">  7  8 -1 -1</clus>
<clus scale="  104.588">  5  9 -1 -1</clus>
<clus scale="  105.525">  1  7  2 -1</clus>
<clus scale="  274.447">  2  5  1 -1</clus>
</clustering>
</event>
<event>
 9    1  0.3421766E-005  0.4338684E+03  0.7546771E-02  0.1069958E+00
          1   -1    0    0  502    0 -0.00000000000E+00  0.00000000000E+00  0.63352782064E+03  0.63352782064E+03  0.00000000000E+00 0. -1.
         21   -1    0    0  501  502  0.00000000000E+00 -0.00000000000E+00 -0.17173636795E+03  0.17173636795E+03  0.00000000000E+00 0.  1.
         23    2    1    2    0    0 -0.10238834870E+03 -0.63332618500E+02 -0.26245488317E+02  0.15225437521E+03  0.89432514203E+02 0.  0.
        -24    2    1    2    0    0 -0.77662255299E+02  0.34255655279E+02  0.45338772121E+03  0.46736429573E+03  0.75260104703E+02 0.  0.
         13    1    4    4    0    0 -0.86571682249E+02  0.46260648707E+02  0.40467652301E+03  0.41641060512E+03  0.00000000000E+00 0. -1.
        -14    1    4    4    0    0  0.89094269501E+01 -0.12004993428E+02  0.48711198204E+02  0.50953690605E+02  0.00000000000E+00 0.  1.
        -11    1    3    3    0    0  0.47462937452E+01 -0.32643652119E+02  0.10966987372E+02  0.34762194119E+02  0.00000000000E+00 0. -1.
         11    1    3    3    0    0 -0.10713464245E+03 -0.30688966381E+02 -0.37212475689E+02  0.11749218109E+03  0.00000000000E+00 0.  1.
          2    1    1    2  501    0  0.18005060400E+03  0.29076963221E+02  0.34649219796E+02  0.18564551765E+03  0.00000000000E+00 0. -1.
<scales pt_clust_5="13000.00000" pt_clust_6="13000.00000" pt_clust_7="13000.00000" pt_clust_8="13000.00000" pt_clust_9="13000.00000"></scales>
<clustering>
<clus scale="   75.260">  5  6 -1 -1</clus>
<clus scale="   89.433">  7  8 -1 -1</clus>
<clus scale="  149.975">  1  7  2 -1</clus>
<clus scale="  161.166">  5  9 -1 -1</clus>
<clus scale="  433.868">  2  5  1 -1</clus>
</clustering>
</event>
<event>
 9    1  0.2728138E-005  0.4067496E+03  0.7546771E-02  0.1091129E+00
          1   -1    0    0  502    0 -0.00000000000E+00  0.00000000000E+00  0.37050771425E+03  0.37050771425E+03  0.00000000000E+00 0. -1.
         21   -1    0    0  501  502  0.00000000000E+00 -0.00000000000E+00 -0.25987489757E+03  0.25987489757E+03  0.00000000000E+00 0. -1.
         23    2    1    2    0    0  0.28879620163E+02  0.36602875543E+02  0.18986773430E+03  0.21598738235E+03  0.91798637492E+02 0.  0.
        -24    2    1    2    0    0  0.11724918338E+03  0.10157381356E+02 -0.18196372336E+03  0.22975136584E+03  0.76317429765E+02 0.  0.
         13    1    4    4    0    0  0.11064840855E+03 -0.19902925275E+01 -0.18502138180E+03  0.21559207616E+03  0.00000000000E+00 0. -1.
        -14    1    4    4    0    0  0.66007748270E+01  0.12147673883E+02  0.30576584384E+01  0.14159289679E+02  0.00000000000E+00 0.  1.
        -11    1    3    3    0    0 -0.27075303207E+01 -0.27940646657E+02  0.32210035405E+02  0.42725833367E+02  0.00000000000E+00 0.  1.
         11    1    3    3    0    0  0.31587150483E+02  0.64543522200E+02  0.15765769890E+03  0.17326154898E+03  0.00000000000E+00 0. -1.
          2    1    1    2  501    0 -0.14612880354E+03 -0.46760256899E+02  0.10272880574E+03  0.18464386364E+03  0.00000000000E+00 0. -1.
<scales pt_clust_5="13000.00000" pt_clust_6="13000.00000" pt_clust_7="13000.00000" pt_clust_8="13000.00000" pt_clust_9="13000.00000"></scales>
<clustering>
<clus scale="   76.317">  5  6 -1 -1</clus>
<clus scale="   91.799">  7  8 -1 -1</clus>
<clus scale="  102.960">  1  7  2 -1</clus>
<clus scale="  122.337">  5  9 -1 -1</clus>
<clus scale="  406.750">  2  5  1 -1</clus>
</clustering>
</event>
<event>
 9    1  0.2728138E-005  0.2983497E+03  0.7546771E-02  0.1132198E+00
          3   -1    0    0  502    0 -0.00000000000E+00  0.00000000000E+00  0.11212325819E+03  0.11212325819E+03  0.00000000000E+00 0. -1.
         21   -1    0    0  501  502  0.00000000000E+00 -0.00000000000E+00 -0.33991127464E+03  0.33991127464E+03  0.00000000000E+00 0. -1.
         23    2    1    2    0    0  0.22380083594E+02 -0.95086551611E+01 -0.47868945818E+02  0.10363333613E+03  0.88640564746E+02 0.  0.
        -24    2    1    2    0    0 -0.88691150284E+02 -0.63923973217E+02  0.70543100254E+01  0.13686265754E+03  0.82031879457E+02 0.  0.
         11    1    4    4    0    0 -0.26134639974E+02 -0.66944827435E+02  0.15923590373E+02  0.73608355893E+02  0.00000000000E+00 0. -1.
        -12    1    4    4    0    0 -0.62556510310E+02  0.30208542188E+01 -0.88692803481E+01  0.63254301643E+02  0.00000000000E+00 0.  1.
        -11    1    3    3    0    0  0.26993931121E+02 -0.40244617248E+02 -0.23507629574E+01  0.48516261411E+02  0.00000000000E+00 0.  1.
         11    1    3    3    0    0 -0.46138475267E+01  0.30735962086E+02 -0.45518182861E+02  0.55117074717E+02  0.00000000000E+00 0. -1.
          4    1    1    2  501    0  0.66311066690E+02  0.73432628378E+02 -0.18697338066E+03  0.21153853916E+03  0.00000000000E+00 0. -1.
<scales pt_clust_5="13000.00000" pt_clust_6="13000.00000" pt_clust_7="13000.00000" pt_clust_8="13000.00000" pt_clust_9="13000.00000"></scales>
<clustering>
<clus scale="   82.032">  5  6 -1 -1</clus>
<clus scale="   88.641">  7  8 -1 -1</clus>
<clus scale="   91.915">  1  7  2 -1</clus>
<clus scale="  100.156">  5  9 -1 -1</clus>
<clus scale="  298.350">  2  5  1 -1</clus>
</clustering>
</event>
<event>
 9    1  0.2728138E-005  0.2854080E+03  0.7546771E-02  0.1122721E+00
         21   -1    0    0  501  502  0.00000000000E+00  0.00000000000E+00  0.74735991772E+02  0.74735991772E+02  0.00000000000E+00 0. -1.
          1   -1    0    0  502    0 -0.00000000000E+00 -0.00000000000E+00 -0.12097926996E+04  0.12097926996E+04  0.00000000000E+00 0. -1.
         23    2    1    2    0    0  0.67622491308E+02  0.69608148363E+02 -0.20767496534E+02  0.13426864660E+03  0.90436081844E+02 0.  0.
        -24    2    1    2    0    0  0.71027411796E+02 -0.29109558413E+02 -0.24720034260E+03  0.27122248150E+03  0.81002255974E+02 0.  0.
         13    1    4    4    0    0  0.75098937202E+02  0.55379114770E+01 -0.14779063232E+03  0.16586919495E+03  0.00000000000E+00 0. -1.
        -14    1    4    4    0    0 -0.40715254058E+01 -0.34647469890E+02 -0.99409710280E+02  0.10535328655E+03  0.00000000000E+00 0.  1.
        -11    1    3    3    0    0  0.75232344919E+02  0.20182976211E+02 -0.29899621414E+02  0.83434079437E+02  0.00000000000E+00 0.  1.
         11    1    3    3    0    0 -0.76098536113E+01  0.49425172151E+02  0.91321248808E+01  0.50834567167E+02  0.00000000000E+00 0. -1.
          2    1    1    2  501    0 -0.13864990310E+03 -0.40498589950E+02 -0.86708886868E+03  0.87903756325E+03  0.00000000000E+00 0. -1.
<scales pt_clust_5="13000.00000" pt_clust_6="13000.00000" pt_clust_7="13000.00000" pt_clust_8="13000.00000" pt_clust_9="13000.00000"></scales>
<clustering>
<clus scale="   81.002">  5  6 -1 -1</clus>
<clus scale="   90.436">  7  8 -1 -1</clus>
<clus scale="  132.653">  2  7  1 -1</clus>
<clus scale="   87.506">  5  9 -1 -1</clus>
<clus scale="  285.408">  1  5  2 -1</clus>
</clustering>
</event>
<event>
 9    1  0.2728138E-005  0.5677179E+03  0.7546771E-02  0.1026909E+00
         21   -1    0    0  501  502  0.00000000000E+00  0.00000000000E+00  0.90941695718E+02  0.90941695718E+02  0.00000000000E+00 0. -1.
          1   -1    0    0  502    0 -0.00000000000E+00 -0.00000000000E+00 -0.25261491732E+04  0.25261491732E+04  0.00000000000E+00 0. -1.
         23    2    1    2    0    0 -0.14085449059E+03 -0.15727966797E+03 -0.18065361525E+03  0.29215717066E+03  0.90239692964E+02 0.  0.
        -24    2    1    2    0    0  0.24940195867E+03 -0.96914526033E+02 -0.13714090701E+04  0.13995462308E+04  0.79831398650E+02 0.  0.
         11    1    4    4    0    0  0.77637369179E+02 -0.65601433839E+02 -0.60701662368E+03  0.61546753825E+03  0.00000000000E+00 0. -1.
        -12    1    4    4    0    0  0.17176458949E+03 -0.31313092194E+02 -0.76439244639E+03  0.78407869251E+03  0.00000000000E+00 0.  1.
        -11    1    3    3    0    0 -0.10988903457E+03 -0.59190561747E+02 -0.11771222013E+03  0.17156715678E+03  0.00000000000E+00 0. -1.
         11    1    3    3    0    0 -0.30965456023E+02 -0.98089106224E+02 -0.62941395118E+02  0.12059001387E+03  0.00000000000E+00 0.  1.
          2    1    1    2  501    0 -0.10854746808E+03  0.25419419400E+03 -0.88314479220E+03  0.92538746754E+03  0.00000000000E+00 0. -1.
<scales pt_clust_5="13000.00000" pt_clust_6="13000.00000" pt_clust_7="13000.00000" pt_clust_8="13000.00000" pt_clust_9="13000.00000"></scales>
<clustering>
<clus scale="   79.831">  5  6 -1 -1</clus>
<clus scale="   90.240">  7  8 -1 -1</clus>
<clus scale="  229.609">  2  7  1 -1</clus>
<clus scale="  252.682">  5  9 -1 -1</clus>
<clus scale="  567.718">  1  5  2 -1</clus>
</clustering>
</event>
<event>
 9    1  0.2728138E-005  0.5132829E+03  0.7546771E-02  0.1067796E+00
          1   -1    0    0  502    0 -0.00000000000E+00  0.00000000000E+00  0.36762482285E+03  0.36762482285E+03  0.00000000000E+00 0. -1.
         21   -1    0    0  501  502  0.00000000000E+00 -0.00000000000E+00 -0.32081156772E+03  0.32081156772E+03  0.00000000000E+00 0. -1.
         23    2    1    2    0    0 -0.60937857324E+01 -0.29474116340E+02 -0.11534214941E+03  0.15014862482E+03  0.91295894461E+02 0.  0.
        -24    2    1    2    0    0  0.52716305546E+02 -0.19769994975E+02  0.33660108101E+03  0.35112490648E+03  0.82574515688E+02 0.  0.
         13    1    4    4    0    0  0.40713020717E+01  0.29717817432E+02  0.11928374755E+03  0.12299730324E+03  0.00000000000E+00 0. -1.
        -14    1    4    4    0    0  0.48645003474E+02 -0.49487812407E+02  0.21731733346E+03  0.22812760325E+03  0.00000000000E+00 0.  1.
        -13    1    3    3    0    0  0.38678102579E+02  0.50114842280E+01 -0.38901335053E+02  0.55085610300E+02  0.00000000000E+00 0.  1.
         13    1    3    3    0    0 -0.44771888311E+02 -0.34485600568E+02 -0.76440814361E+02  0.95063014520E+02  0.00000000000E+00 0. -1.
          2    1    1    2  501    0 -0.46622519814E+02  0.49244111316E+02 -0.17444567646E+03  0.18716285927E+03  0.00000000000E+00 0. -1.
<scales pt_clust_5="13000.00000" pt_clust_6="13000.00000" pt_clust_7="13000.00000" pt_clust_8="13000.00000" pt_clust_9="13000.00000"></scales>
<clustering>
<clus scale="   82.575">  5  6 -1 -1</clus>
<clus scale="   67.813">  5  9 -1 -1</clus>
<clus scale="   91.296">  7  8 -1 -1</clus>
<clus scale="   96.129">  1  7  2 -1</clus>
<clus scale="  513.283">  2  5  1 -1</clus>
</clustering>
</event>
<event>
 9    1  0.2728138E-005  0.1419840E+03  0.7546771E-02  0.1222440E+00
         21   -1    0    0  501  502  0.00000000000E+00  0.00000000000E+00  0.26989443913E+03  0.26989443913E+03  0.00000000000E+00 0.  1.
         -4   -1    0    0    0  501 -0.00000000000E+00 -0.00000000000E+00 -0.97483211815E+02  0.97483211815E+02  0.00000000000E+00 0.  1.
         23    2    1    2    0    0  0.13792334090E+02  0.63811348151E+02 -0.34873389152E+02  0.11612803926E+03  0.89484365108E+02 0.  0.
        -24    2    1    2    0    0  0.74545365400E+00 -0.62089598070E+01  0.13870037448E+03  0.16051273569E+03  0.80544630837E+02 0.  0.
         13    1    4    4    0    0 -0.23615195008E+02  0.12710646602E+02  0.10743123338E+02  0.28890356027E+02  0.00000000000E+00 0. -1.
        -14    1    4    4    0    0  0.24360648662E+02 -0.18919606409E+02  0.12795725114E+03  0.13162237967E+03  0.00000000000E+00 0.  1.
        -11    1    3    3    0    0  0.16608073280E+02  0.84747241463E+02 -0.16058693549E+02  0.87839653188E+02  0.00000000000E+00 0.  1.
         11    1    3    3    0    0 -0.28157391896E+01 -0.20935893311E+02 -0.18814695603E+02  0.28288386072E+02  0.00000000000E+00 0. -1.
         -3    1    1    2    0  502 -0.14537787744E+02 -0.57602388344E+02  0.68584241993E+02  0.90736875994E+02  0.00000000000E+00 0.  1.
<scales pt_clust_5="13000.00000" pt_clust_6="13000.00000" pt_clust_7="13000.00000" pt_clust_8="13000.00000" pt_clust_9="13000.00000"></scales>
<clustering>
<clus scale="   80.545">  5  6 -1 -1</clus>
<clus scale="   59.409">  5  9 -1 -1</clus>
<clus scale="   89.484">  7  8 -1 -1</clus>
<clus scale="  110.768">  2  7  1 -1</clus>
<clus scale="  141.984">  1  5  2 -1</clus>
</clustering>
</event>
<event>
 9    1  0.2728138E-005  0.2190901E+03  0.7546771E-02  0.1169877E+00
          1   -1    0    0  502    0 -0.00000000000E+00  0.00000000000E+00  0.14785572698E+03  0.14785572698E+03  0.00000000000E+00 0. -1.
         21   -1    0    0  501  502  0.00000000000E+00 -0.00000000000E+00 -0.16750434968E+03  0.16750434968E+03  0.00000000000E+00 0. -1.
         23    2    1    2    0    0 -0.35793468920E+02  0.28192369183E+01  0.19565475012E+01  0.95207249571E+02  0.88155951464E+02 0.  0.
        -24    2    1    2    0    0  0.45677298521E+02  0.74126152016E+02 -0.60576936068E+02  0.13333646055E+03  0.80795696140E+02 0.  0.
         13    1    4    4    0    0  0.65080990367E+02  0.71929090725E+02 -0.59463335638E+02  0.11377705254E+03  0.00000000000E+00 0. -1.
        -14    1    4    4    0    0 -0.19403691847E+02  0.21970612912E+01 -0.11136004299E+01  0.19559408005E+02  0.00000000000E+00 0.  1.
        -13    1    3    3    0    0 -0.26982563554E+02  0.35961610696E+02  0.27270266459E+02  0.52582921301E+02  0.00000000000E+00 0. -1.
         13    1    3    3    0    0 -0.88109053666E+01 -0.33142373777E+02 -0.25313718958E+02  0.42624328270E+02  0.00000000000E+00 0.  1.
          2    1    1    2  501    0 -0.98838296004E+01 -0.76945388934E+02  0.38971765865E+02  0.86816366547E+02  0.00000000000E+00 0. -1.
<scales pt_clust_5="13000.00000" pt_clust_6="13000.00000" pt_clust_7="13000.00000" pt_clust_8="13000.00000" pt_clust_9="13000.00000"></scales>
<clustering>
<clus scale="   80.796">  5  6 -1 -1</clus>
<clus scale="   77.578">  5  9 -1 -1</clus>
<clus scale="   88.156">  7  8 -1 -1</clus>
<clus scale="   95.187">  1  7  2 -1</clus>
<clus scale="  219.090">  2  5  1 -1</clus>
</clustering>
</event>
<event>
 9    1  0.2728138E-005  0.3704871E+03  0.7546771E-02  0.1084161E+00
          1   -1    0    0  502    0 -0.00000000000E+00  0.00000000000E+00  0.45243908383E+03  0.45243908383E+03  0.00000000000E+00 0. -1.
         21   -1    0    0  501  502  0.00000000000E+00 -0.00000000000E+00 -0.15829399073E+03  0.15829399073E+03  0.00000000000E+00 0. -1.
         23    2    1    2    0    0 -0.66963060698E+01  0.13801917675E+03  0.74964523168E+02  0.18026725852E+03  0.88218314968E+02 0.  0.
        -24    2    1    2    0    0  0.16301214387E+03 -0.46634163719E+02  0.13233453565E+03  0.22964725259E+03  0.80484327800E+02 0.  0.
         11    1    4    4    0    0  0.14082405268E+03 -0.12334360626E+02  0.77328395795E+02  0.16113109899E+03  0.00000000000E+00 0. -1.
        -12    1    4    4    0    0  0.22188091195E+02 -0.34299803093E+02  0.55006139851E+02  0.68516153602E+02  0.00000000000E+00 0.  1.
        -13    1    3    3    0    0  0.23781563048E+02  0.14191203568E+02 -0.71386764546E+01  0.28599190570E+02  0.00000000000E+00 0.  1.
         13    1    3    3    0    0 -0.30477869118E+02  0.12382797318E+03  0.82103199623E+02  0.15166806796E+03  0.00000000000E+00 0. -1.
          2    1    1    2  501    0 -0.15631583780E+03 -0.91385013034E+02  0.86846034287E+02  0.20081856345E+03  0.00000000000E+00 0. -1.
<scales pt_clust_5="13000.00000" pt_clust_6="13000.00000" pt_clust_7="13000.00000" pt_clust_8="13000.00000" pt_clust_9="13000.00000"></scales>
<clustering>
<clus scale="   80.484">  5  6 -1 -1</clus>
<clus scale="   88.218">  7  8 -1 -1</clus>
<clus scale="  163.941">  1  7  2 -1</clus>
<clus scale="  162.132">  5  9 -1 -1</clus>
<clus scale="  370.487">  2  5  1 -1</clus>
</clustering>
</event>
<event>
 9    1  0.2728138E-005  0.3476288E+03  0.7546771E-02  0.1094477E+00
         21   -1    0    0  501  502  0.00000000000E+00  0.00000000000E+00  0.69930696715E+02  0.69930696715E+02  0.00000000000E+00 0. -1.
          1   -1    0    0  502    0 -0.00000000000E+00 -0.00000000000E+00 -0.93394731483E+03  0.93394731483E+03  0.00000000000E+00 0. -1.
         23    2    1    2    0    0 -0.71572972038E+02  0.95519704710E+02 -0.37158626836E+03  0.40110653141E+03  0.92538588680E+02 0.  0.
        -24    2    1    2    0    0 -0.95931888469E+02  0.38261471908E+02 -0.22404230838E+03  0.25927850748E+03  0.79771680673E+02 0.  0.
         11    1    4    4    0    0 -0.61050173449E+02  0.61721822096E+02 -0.16926943944E+03  0.19023367244E+03  0.00000000000E+00 0. -1.
        -12    1    4    4    0    0 -0.34881715020E+02 -0.23460350187E+02 -0.54772868943E+02  0.69044835041E+02  0.00000000000E+00 0.  1.
        -13    1    3    3    0    0 -0.83860823141E+02  0.38145789946E+02 -0.23758463022E+03  0.25482188969E+03  0.00000000000E+00 0.  1.
         13    1    3    3    0    0  0.12287851103E+02  0.57373914763E+02 -0.13400163814E+03  0.14628464172E+03  0.00000000000E+00 0. -1.
          2    1    1    2  501    0  0.16750486051E+03 -0.13378117662E+03 -0.26838804138E+03  0.34349297266E+03  0.00000000000E+00 0. -1.
<scales pt_clust_5="13000.00000" pt_clust_6="13000.00000" pt_clust_7="13000.00000" pt_clust_8="13000.00000" pt_clust_9="13000.00000"></scales>
<clustering>
<clus scale="   79.772">  5  6 -1 -1</clus>
<clus scale="   92.539">  7  8 -1 -1</clus>
<clus scale="  151.030">  2  7  1 -1</clus>
<clus scale="  150.756">  5  9 -1 -1</clus>
<clus scale="  347.629">  1  5  2 -1</clus>
</clustering>
</event>
<event>
 9    1  0.2728138E-005  0.2986587E+03  0.7546771E-02  0.1126996E+00
         21   -1    0    0  501  502  0.00000000000E+00  0.00000000000E+00  0.17490598667E+03  0.17490598667E+03  0.00000000000E+00 0. -1.
          1   -1    0    0  502    0 -0.00000000000E+00 -0.00000000000E+00 -0.23367656416E+03  0.23367656416E+03  0.00000000000E+00 0. -1.
         23    2    1    2    0    0 -0.49476135351E+02  0.15498752320E+02  0.35151131135E+00  0.10412817098E+03  0.90302010716E+02 0.  0.
        -24    2    1    2    0    0  0.66670330328E+02 -0.10466206899E+03 -0.12274355669E+03  0.19357864510E+03  0.83711585205E+02 0.  0.
         11    1    4    4    0    0  0.48333263015E+02 -0.11693325993E+03 -0.11226109089E+03  0.16915095069E+03  0.00000000000E+00 0. -1.
        -12    1    4    4    0    0  0.18337067313E+02  0.12271190943E+02 -0.10482465809E+02  0.24427694411E+02  0.00000000000E+00 0.  1.
        -11    1    3    3    0    0 -0.92137919396E+01  0.40476413049E+02 -0.26903630567E+02  0.49467558187E+02  0.00000000000E+00 0.  1.
         11    1    3    3    0    0 -0.40262343411E+02 -0.24977660729E+02  0.27255141879E+02  0.54660612797E+02  0.00000000000E+00 0. -1.
          2    1    1    2  501    0 -0.17194194977E+02  0.89163316669E+02  0.63621467887E+02  0.11087573475E+03  0.00000000000E+00 0. -1.
<scales pt_clust_5="13000.00000" pt_clust_6="13000.00000" pt_clust_7="13000.00000" pt_clust_8="13000.00000" pt_clust_9="13000.00000"></scales>
<clustering>
<clus scale="   83.712">  5  6 -1 -1</clus>
<clus scale="   90.302">  7  8 -1 -1</clus>
<clus scale="   90.806">  5  9 -1 -1</clus>
<clus scale="  104.128">  2  7  1 -1</clus>
<clus scale="  298.659">  1  5  2 -1</clus>
</clustering>
</event>
<event>
 9    1  0.2728138E-005  0.1234263E+03  0.7546771E-02  0.1248253E+00
          3   -1    0    0  502    0 -0.00000000000E+00  0.00000000000E+00  0.87410266326E+02  0.87410266326E+02  0.00000000000E+00 0. -1.
         21   -1    0    0  501  502  0.00000000000E+00 -0.00000000000E+00 -0.14785414997E+03  0.14785414997E+03  0.00000000000E+00 0. -1.
         23    2    1    2    0    0 -0.20738342434E+02  0.32472321329E+02 -0.38669376618E+01  0.99488843737E+02  0.91643583091E+02 0.  0.
        -24    2    1    2    0    0 -0.57849277972E+01 -0.40381407627E+02 -0.51604995250E+02  0.10765515642E+03  0.85219913735E+02 0.  0.
         13    1    4    4    0    0 -0.12559354446E+02 -0.53138149900E+02 -0.67075488631E+02  0.86490008290E+02  0.00000000000E+00 0. -1.
        -14    1    4    4    0    0  0.67744266491E+01  0.12756742273E+02  0.15470493381E+02  0.21165148128E+02  0.00000000000E+00 0.  1.
        -11    1    3    3    0    0 -0.34843299192E+02  0.58412634636E+02 -0.11524794118E+02  0.68984869813E+02  0.00000000000E+00 0. -1.
         11    1    3    3    0    0  0.14104956758E+02 -0.25940313307E+02  0.76578564559E+01  0.30503973923E+02  0.00000000000E+00 0.  1.
          4    1    1    2  501    0  0.26523270231E+02  0.79090862979E+01 -0.49719507312E+01  0.28120416140E+02  0.00000000000E+00 0. -1.
<scales pt_clust_5="13000.00000" pt_clust_6="13000.00000" pt_clust_7="13000.00000" pt_clust_8="13000.00000" pt_clust_9="13000.00000"></scales>
<clustering>
<clus scale="   85.220">  5  6 -1 -1</clus>
<clus scale="   27.677">  5  9 -1 -1</clus>
<clus scale="   91.644">  7  8 -1 -1</clus>
<clus scale="   99.414">  1  7  2 -1</clus>
<clus scale="  123.426">  2  5  1 -1</clus>
</clustering>
</event>
<event>
 9    1  0.2728138E-005  0.3009085E+03  0.7546771E-02  0.1115072E+00
          1   -1    0    0  502    0 -0.00000000000E+00  0.00000000000E+00  0.56114885009E+03  0.56114885009E+03  0.00000000000E+00 0. -1.
         21   -1    0    0  501  502  0.00000000000E+00 -0.00000000000E+00 -0.86261530689E+02  0.86261530689E+02  0.00000000000E+00 0. -1.
         23    2    1    2    0    0 -0.48116194705E+02 -0.88770885019E+02  0.12077182053E+03  0.18271294070E+03  0.92750999152E+02 0.  0.
        -24    2    1    2    0    0 -0.55989233723E+02 -0.73259066509E+01  0.29606128657E+03  0.31158694024E+03  0.79029568645E+02 0.  0.
         13    1    4    4    0    0 -0.52221429643E+02 -0.37412830921E+02  0.16501431195E+03  0.17707772525E+03  0.00000000000E+00 0. -1.
        -14    1    4    4    0    0 -0.37678040803E+01  0.30086924270E+02  0.13104697462E+03  0.13450921499E+03  0.00000000000E+00 0.  1.
        -11    1    3    3    0    0 -0.18238637027E+02  0.15644232191E+02  0.61364106982E+01  0.24800109228E+02  0.00000000000E+00 0. -1.
         11    1    3    3    0    0 -0.29877557678E+02 -0.10441511721E+03  0.11463540983E+03  0.15791283147E+03  0.00000000000E+00 0.  1.
          2    1    1    2  501    0  0.10410542843E+03  0.96096791670E+02  0.58054212303E+02  0.15311049985E+03  0.00000000000E+00 0. -1.
<scales pt_clust_5="13000.00000" pt_clust_6="13000.00000" pt_clust_7="13000.00000" pt_clust_8="13000.00000" pt_clust_9="13000.00000"></scales>
<clustering>
<clus scale="   79.030">  5  6 -1 -1</clus>
<clus scale="   92.751">  7  8 -1 -1</clus>
<clus scale="  137.107">  1  7  2 -1</clus>
<clus scale="  117.333">  5  9 -1 -1</clus>
<clus scale="  300.908">  2  5  1 -1</clus>
</clustering>
</event>
<event>
 9    1  0.2728138E-005  0.1555387E+03  0.7546771E-02  0.1218762E+00
         21   -1    0    0  501  502  0.00000000000E+00  0.00000000000E+00  0.33669022396E+02  0.33669022396E+02  0.00000000000E+00 0. -1.
          3   -1    0    0  502    0 -0.00000000000E+00 -0.00000000000E+00 -0.50487523876E+03  0.50487523876E+03  0.00000000000E+00 0. -1.
         23    2    1    2    0    0 -0.15908453152E+02  0.10874986109E+02 -0.95553981487E+02  0.13196475110E+03  0.88953852930E+02 0.  0.
        -24    2    1    2    0    0  0.45604027593E+02  0.55599266889E+01 -0.14564011872E+03  0.17407680667E+03  0.83552679928E+02 0.  0.
         11    1    4    4    0    0 -0.38825722653E+01 -0.32294196173E+02 -0.41586499517E+02  0.52796083339E+02  0.00000000000E+00 0. -1.
        -12    1    4    4    0    0  0.49486599858E+02  0.37854122862E+02 -0.10405361920E+03  0.12128072333E+03  0.00000000000E+00 0.  1.
        -11    1    3    3    0    0 -0.17928120248E+02  0.33549988595E+02 -0.10153547801E+03  0.10842726837E+03  0.00000000000E+00 0.  1.
         11    1    3    3    0    0  0.20196670960E+01 -0.22675002486E+02  0.59814965242E+01  0.23537482737E+02  0.00000000000E+00 0. -1.
          4    1    1    2  501    0 -0.29695574441E+02 -0.16434912798E+02 -0.23001211615E+03  0.23250270338E+03  0.00000000000E+00 0. -1.
<scales pt_clust_5="13000.00000" pt_clust_6="13000.00000" pt_clust_7="13000.00000" pt_clust_8="13000.00000" pt_clust_9="13000.00000"></scales>
<clustering>
<clus scale="   83.553">  5  6 -1 -1</clus>
<clus scale="   33.940">  5  9 -1 -1</clus>
<clus scale="   88.954">  7  8 -1 -1</clus>
<clus scale="   91.017">  2  7  1 -1</clus>
<clus scale="  155.539">  1  5  2 -1</clus>
</clustering>
</event>
<event>
 9    1  0.2728138E-005  0.1868254E+03  0.7546771E-02  0.1169638E+00
          3   -1    0    0  502    0 -0.00000000000E+00  0.00000000000E+00  0.11598165912E+04  0.11598165912E+04  0.00000000000E+00 0. -1.
         21   -1    0    0  501  502  0.00000000000E+00 -0.00000000000E+00 -0.53295579351E+02  0.53295579351E+02  0.00000000000E+00 0. -1.
         23    2    1    2    0    0  0.71544159831E+02 -0.96648502474E+02  0.88159707756E+02  0.17775547674E+03  0.96774870727E+02 0.  0.
        -24    2    1    2    0    0 -0.23184578366E+02  0.15935631130E+02  0.63408256382E+03  0.63972635252E+03  0.79985244623E+02 0.  0.
         13    1    4    4    0    0 -0.50918028421E+02  0.11030834776E+02  0.30285294438E+03  0.30730153084E+03  0.00000000000E+00 0. -1.
        -14    1    4    4    0    0  0.27733450055E+02  0.49047963543E+01  0.33122961943E+03  0.33242482168E+03  0.00000000000E+00 0.  1.
        -13    1    3    3    0    0 -0.42986408722E+01 -0.27993417021E+02 -0.15357097537E+02  0.32217233814E+02  0.00000000000E+00 0.  1.
         13    1    3    3    0    0  0.75842800703E+02 -0.68655085453E+02  0.10351680529E+03  0.14553824293E+03  0.00000000000E+00 0. -1.
          4    1    1    2  501    0 -0.48359581465E+02  0.80712871344E+02  0.38427874026E+03  0.39563034128E+03  0.00000000000E+00 0. -1.
<scales pt_clust_5="13000.00000" pt_clust_6="13000.00000" pt_clust_7="13000.00000" pt_clust_8="13000.00000" pt_clust_9="13000.00000"></scales>
<clustering>
<clus scale="   79.985">  5  6 -1 -1</clus>
<clus scale="   94.092">  5  9 -1 -1</clus>
<clus scale="   96.775">  7  8 -1 -1</clus>
<clus scale="  154.353">  1  7  2 -1</clus>
<clus scale="  186.825">  2  5  1 -1</clus>
</clustering>
</event>
<event>
 9    1  0.2728138E-005  0.3785871E+03  0.7546771E-02  0.1059487E+00
          1   -1    0    0  502    0 -0.00000000000E+00  0.00000000000E+00  0.75790619358E+03  0.75790619358E+03  0.00000000000E+00 0. -1.
         21   -1    0    0  501  502  0.00000000000E+00 -0.00000000000E+00 -0.16619972738E+03  0.16619972738E+03  0.00000000000E+00 0. -1.
         23    2    1    2    0    0  0.95398769310E+02 -0.27737173933E+03  0.39610418654E+03  0.49797399920E+03  0.71018098549E+02 0.  0.
        -24    2    1    2    0    0  0.39174392478E+02  0.31513392238E+02  0.34688281689E+02  0.10294532326E+03  0.82865769636E+02 0.  0.
         11    1    4    4    0    0  0.34054921949E+02  0.56625708481E+02  0.90502921485E+01  0.66694200331E+02  0.00000000000E+00 0. -1.
        -12    1    4    4    0    0  0.51194705290E+01 -0.25112316243E+02  0.25637989541E+02  0.36251122924E+02  0.00000000000E+00 0.  1.
        -11    1    3    3    0    0  0.31624761027E+02 -0.16597393710E+03  0.18198033807E+03  0.24832300890E+03  0.00000000000E+00 0. -1.
         11    1    3    3    0    0  0.63774008283E+02 -0.11139780224E+03  0.21412384847E+03  0.24965099031E+03  0.00000000000E+00 0.  1.
          2    1    1    2  501    0 -0.13457316179E+03  0.24585834710E+03  0.16091399797E+03  0.32318659851E+03  0.00000000000E+00 0. -1.
<scales pt_clust_5="13000.00000" pt_clust_6="13000.00000" pt_clust_7="13000.00000" pt_clust_8="13000.00000" pt_clust_9="13000.00000"></scales>
<clustering>
<clus scale="   71.018">  7  8 -1 -1</clus>
<clus scale="   82.866">  5  6 -1 -1</clus>
<clus scale="  280.279">  5  9 -1 -1</clus>
<clus scale="  301.794">  1  7  2 -1</clus>
<clus scale="  378.587">  2  5  1 -1</clus>
</clustering>
</event>
<event>
 9    1  0.2728138E-005  0.1087115E+03  0.7546771E-02  0.1268937E+00
          3   -1    0    0  502    0 -0.00000000000E+00  0.00000000000E+00  0.16959637861E+03  0.16959637861E+03  0.00000000000E+00 0. -1.
         21   -1    0    0  501  502  0.00000000000E+00 -0.00000000000E+00 -0.62269352143E+02  0.62269352143E+02  0.00000000000E+00 0. -1.
         23    2    1    2    0    0  0.21556883041E+02  0.31197578772E+02  0.52176175792E+02  0.10996489231E+03  0.89061417531E+02 0.  0.
        -24    2    1    2    0    0 -0.71544809093E+01 -0.10109929372E+02  0.51055828761E+02  0.96037981897E+02  0.80394023704E+02 0.  0.
         11    1    4    4    0    0  0.21272434948E+02  0.23257549452E+02  0.40714427897E+01  0.31780603228E+02  0.00000000000E+00 0. -1.
        -12    1    4    4    0    0 -0.28426915858E+02 -0.33367478824E+02  0.46984385972E+02  0.64257378669E+02  0.00000000000E+00 0.  1.
        -13    1    3    3    0    0  0.31534374208E+02  0.49907323772E+02  0.62848235476E+02  0.86226784848E+02  0.00000000000E+00 0. -1.
         13    1    3    3    0    0 -0.99774911667E+01 -0.18709745000E+02 -0.10672059684E+02  0.23738107461E+02  0.00000000000E+00 0.  1.
          4    1    1    2  501    0 -0.14402402132E+02 -0.21087649400E+02  0.40950219156E+01  0.25862856549E+02  0.00000000000E+00 0. -1.
<scales pt_clust_5="13000.00000" pt_clust_6="13000.00000" pt_clust_7="13000.00000" pt_clust_8="13000.00000" pt_clust_9="13000.00000"></scales>
<clustering>
<clus scale="   80.394">  5  6 -1 -1</clus>
<clus scale="   25.537">  5  9 -1 -1</clus>
<clus scale="   89.061">  7  8 -1 -1</clus>
<clus scale="   96.798">  1  7  2 -1</clus>
<clus scale="  108.712">  2  5  1 -1</clus>
</clustering>
</event>
<event>
 9    1  0.2728138E-005  0.2239275E+03  0.7546771E-02  0.1144115E+00
         21   -1    0    0  501  502  0.00000000000E+00  0.00000000000E+00  0.52055427958E+02  0.52055427958E+02  0.00000000000E+00 0. -1.
          1   -1    0    0  502    0 -0.00000000000E+00 -0.00000000000E+00 -0.72554271736E+03  0.72554271736E+03  0.00000000000E+00 0. -1.
         23    2    1    2    0    0 -0.95765767221E+02 -0.91491331200E+02 -0.24694065036E+03  0.29584555263E+03  0.94884984890E+02 0.  0.
        -24    2    1    2    0    0  0.45073665199E+02  0.12950766118E+03 -0.34253555417E+03  0.37652525339E+03  0.75078565340E+02 0.  0.
         11    1    4    4    0    0 -0.50929148015E+01  0.82867432055E+02 -0.14053641346E+03  0.16322816112E+03  0.00000000000E+00 0. -1.
        -12    1    4    4    0    0  0.50166580001E+02  0.46640229126E+02 -0.20199914071E+03  0.21329709227E+03  0.00000000000E+00 0.  1.
        -11    1    3    3    0    0 -0.70549728038E+02 -0.10545495666E+03 -0.22927075683E+03  0.26203643248E+03  0.00000000000E+00 0. -1.
         11    1    3    3    0    0 -0.25216039183E+02  0.13963625460E+02 -0.17669893524E+02  0.33809120148E+02  0.00000000000E+00 0.  1.
          2    1    1    2  501    0  0.50692102022E+02 -0.38016329981E+02 -0.84011084872E+02  0.10522733929E+03  0.00000000000E+00 0. -1.
<scales pt_clust_5="13000.00000" pt_clust_6="13000.00000" pt_clust_7="13000.00000" pt_clust_8="13000.00000" pt_clust_9="13000.00000"></scales>
<clustering>
<clus scale="   75.079">  5  6 -1 -1</clus>
<clus scale="   63.364">  5  9 -1 -1</clus>
<clus scale="   94.885">  7  8 -1 -1</clus>
<clus scale="  162.926">  2  7  1 -1</clus>
<clus scale="  223.928">  1  5  2 -1</clus>
</clustering>
</event>
<event>
 9    1  0.2728138E-005  0.1606992E+03  0.7546771E-02  0.1206399E+00
         21   -1    0    0  501  502  0.00000000000E+00  0.00000000000E+00  0.15344152479E+03  0.15344152479E+03  0.00000000000E+00 0. -1.
          3   -1    0    0  502    0 -0.00000000000E+00 -0.00000000000E+00 -0.23960656873E+03  0.23960656873E+03  0.00000000000E+00 0. -1.
         23    2    1    2    0    0 -0.33284229911E+02 -0.13933081495E+02 -0.17807369896E+03  0.20792263621E+03  0.10109208509E+03 0.  0.
        -24    2    1    2    0    0  0.10872104153E+02 -0.15901750537E+02 -0.38965856303E+01  0.82309774075E+02  0.79929013567E+02 0.  0.
         11    1    4    4    0    0  0.17174476667E+02 -0.18392760329E+02  0.34843998030E+02  0.42980931586E+02  0.00000000000E+00 0. -1.
        -12    1    4    4    0    0 -0.63023725147E+01  0.24910097914E+01 -0.38740583661E+02  0.39328842488E+02  0.00000000000E+00 0.  1.
        -11    1    3    3    0    0  0.25762091713E+02  0.24995453605E+02 -0.48973833747E+02  0.60719802884E+02  0.00000000000E+00 0.  1.
         11    1    3    3    0    0 -0.59046321624E+02 -0.38928535100E+02 -0.12909986521E+03  0.14720283333E+03  0.00000000000E+00 0. -1.
          4    1    1    2  501    0  0.22412125758E+02  0.29834832032E+02  0.95805240652E+02  0.10281568324E+03  0.00000000000E+00 0. -1.
<scales pt_clust_5="13000.00000" pt_clust_6="13000.00000" pt_clust_7="13000.00000" pt_clust_8="13000.00000" pt_clust_9="13000.00000"></scales>
<clustering>
<clus scale="   79.929">  5  6 -1 -1</clus>
<clus scale="   37.315">  5  9 -1 -1</clus>
<clus scale="  101.092">  7  8 -1 -1</clus>
<clus scale="  107.339">  2  7  1 -1</clus>
<clus scale="  160.699">  1  5  2 -1</clus>
</clustering>
</event>
<event>
 9    1  0.2728138E-005  0.1270120E+04  0.7546771E-02  0.9732295E-01
         21   -1    0    0  501  502  0.00000000000E+00  0.00000000000E+00  0.15093462833E+04  0.15093462833E+04  0.00000000000E+00 0. -1.
          1   -1    0    0  502    0 -0.00000000000E+00 -0.00000000000E+00 -0.31802687518E+03  0.31802687518E+03  0.00000000000E+00 0. -1.
         23    2    1    2    0    0 -0.49163883114E+02  0.16544767002E+02  0.60523634635E+02  0.12681294984E+03  0.98628581955E+02 0.  0.
        -24    2    1    2    0    0 -0.49233536819E+02  0.16283812543E+03 -0.24775056849E+03  0.30691380754E+03  0.62253874016E+02 0.  0.
         11    1    4    4    0    0 -0.21400124322E+02  0.14775622416E+03 -0.19880271896E+03  0.24862097290E+03  0.00000000000E+00 0. -1.
        -12    1    4    4    0    0 -0.27833412497E+02  0.15081901276E+02 -0.48947849526E+02  0.58292834642E+02  0.00000000000E+00 0.  1.
        -13    1    3    3    0    0  0.17184675415E+02 -0.19592121888E+02 -0.53176515245E+01  0.26597776729E+02  0.00000000000E+00 0.  1.
         13    1    3    3    0    0 -0.66348558529E+02  0.36136888890E+02  0.65841286160E+02  0.10021517311E+03  0.00000000000E+00 0. -1.
          2    1    1    2  501    0  0.98397419933E+02 -0.17938289243E+03  0.13785463419E+04  0.13936464011E+04  0.00000000000E+00 0. -1.
<scales pt_clust_5="13000.00000" pt_clust_6="13000.00000" pt_clust_7="13000.00000" pt_clust_8="13000.00000" pt_clust_9="13000.00000"></scales>
<clustering>
<clus scale="   62.254">  5  6 -1 -1</clus>
<clus scale="   98.629">  7  8 -1 -1</clus>
<clus scale="  111.438">  2  7  1 -1</clus>
<clus scale="  203.589">  5  9 -1 -1</clus>
<clus scale=" 1270.120">  1  5  2 -1</clus>
</clustering>
</event>
<event>
 9    1  0.2728138E-005  0.1883441E+03  0.7546771E-02  0.1173446E+00
          1   -1    0    0  502    0 -0.00000000000E+00  0.00000000000E+00  0.45019172893E+03  0.45019172893E+03  0.00000000000E+00 0. -1.
         21   -1    0    0  501  502  0.00000000000E+00 -0.00000000000E+00 -0.69954211390E+02  0.69954211390E+02  0.00000000000E+00 0. -1.
         23    2    1    2    0    0 -0.88035166595E+02  0.47780588492E+02  0.26639302006E+03  0.30006853332E+03  0.95093156204E+02 0.  0.
        -24    2    1    2    0    0  0.14499132924E+02  0.23849144729E+02  0.40197440920E+02  0.93735585463E+02  0.79946977214E+02 0.  0.
         13    1    4    4    0    0  0.22022222710E+02  0.20391252208E+02 -0.17970240432E+02  0.34981580880E+02  0.00000000000E+00 0. -1.
        -14    1    4    4    0    0 -0.75230897862E+01  0.34578925215E+01  0.58167681352E+02  0.58754004583E+02  0.00000000000E+00 0.  1.
        -11    1    3    3    0    0 -0.45817972204E+02  0.35973349215E+01  0.21607374755E+03  0.22090742807E+03  0.00000000000E+00 0. -1.
         11    1    3    3    0    0 -0.42217194390E+02  0.44183253571E+02  0.50319272508E+02  0.79161105248E+02  0.00000000000E+00 0.  1.
          2    1    1    2  501    0  0.73536033671E+02 -0.71629733222E+02  0.73647056556E+02  0.12634182154E+03  0.00000000000E+00 0. -1.
<scales pt_clust_5="13000.00000" pt_clust_6="13000.00000" pt_clust_7="13000.00000" pt_clust_8="13000.00000" pt_clust_9="13000.00000"></scales>
<clustering>
<clus scale="   79.947">  5  6 -1 -1</clus>
<clus scale="   95.093">  7  8 -1 -1</clus>
<clus scale="  102.657">  5  9 -1 -1</clus>
<clus scale="  138.115">  1  7  2 -1</clus>
<clus scale="  188.344">  2  5  1 -1</clus>
</clustering>
</event>
<event>
 9    1  0.2728138E-005  0.9369793E+03  0.7546771E-02  0.9608766E-01
         21   -1    0    0  501  502  0.00000000000E+00  0.00000000000E+00  0.13713849938E+04  0.13713849938E+04  0.00000000000E+00 0.  1.
          1   -1    0    0  502    0 -0.00000000000E+00 -0.00000000000E+00 -0.53994740065E+03  0.53994740065E+03  0.00000000000E+00 0. -1.
         23    2    1    2    0    0 -0.28295712981E+03  0.29814235725E+03  0.87739442383E+03  0.97322673645E+03  0.91628069303E+02 0.  0.
        -24    2    1    2    0    0 -0.23394817730E+03 -0.23225104968E+02  0.18360477052E+03  0.30924230167E+03  0.81540997192E+02 0.  0.
         11    1    4    4    0    0 -0.96504480242E+02 -0.49276984679E+02  0.90743966461E+02  0.14133578236E+03  0.00000000000E+00 0. -1.
        -12    1    4    4    0    0 -0.13744369706E+03  0.26051879712E+02  0.92860804060E+02  0.16790651932E+03  0.00000000000E+00 0.  1.
        -13    1    3    3    0    0 -0.16201041136E+03  0.23154823603E+03  0.56769740583E+03  0.63414691010E+03  0.00000000000E+00 0. -1.
         13    1    3    3    0    0 -0.12094671845E+03  0.66594121214E+02  0.30969701800E+03  0.33907982636E+03  0.00000000000E+00 0.  1.
          2    1    1    2  501    0  0.51690530711E+03 -0.27491725228E+03 -0.22956160123E+03  0.62886335629E+03  0.00000000000E+00 0. -1.
<scales pt_clust_5="13000.00000" pt_clust_6="13000.00000" pt_clust_7="13000.00000" pt_clust_8="13000.00000" pt_clust_9="13000.00000"></scales>
<clustering>
<clus scale="   81.541">  5  6 -1 -1</clus>
<clus scale="   91.628">  7  8 -1 -1</clus>
<clus scale="  421.129">  2  7  1 -1</clus>
<clus scale="  270.481">  5  9 -1 -1</clus>
<clus scale="  936.979">  1  5  2 -1</clus>
</clustering>
</event>
<event>
 9    1  0.2728138E-005  0.2642422E+03  0.7546771E-02  0.1124737E+00
          1   -1    0    0  502    0 -0.00000000000E+00  0.00000000000E+00  0.55705181815E+03  0.55705181815E+03  0.00000000000E+00 0. -1.
         21   -1    0    0  501  502  0.00000000000E+00 -0.00000000000E+00 -0.89877720117E+02  0.89877720117E+02  0.00000000000E+00 0. -1.
         23    2    1    2    0    0  0.11888046750E+03 -0.53747923748E+02  0.28378552353E+03  0.32528485030E+03  0.90854860137E+02 0.  0.
        -24    2    1    2    0    0 -0.84881331341E+02 -0.67870494795E+02  0.71626008301E+02  0.15300942418E+03  0.80438512839E+02 0.  0.
         11    1    4    4    0    0 -0.10099081498E+02 -0.18043769833E+02 -0.17020838470E+02  0.26782046582E+02  0.00000000000E+00 0. -1.
        -12    1    4    4    0    0 -0.74782249842E+02 -0.49826724962E+02  0.88646846771E+02  0.12622737759E+03  0.00000000000E+00 0.  1.
        -11    1    3    3    0    0  0.12649506024E+02  0.21091046655E+02  0.21893742931E+02  0.32926861849E+02  0.00000000000E+00 0.  1.
         11    1    3    3    0    0  0.10623096148E+03 -0.74838970404E+02  0.26189178060E+03  0.29235798845E+03  0.00000000000E+00 0. -1.
          2    1    1    2  501    0 -0.33999136161E+02  0.12161841854E+03  0.11176256620E+03  0.16863526379E+03  0.00000000000E+00 0. -1.
<scales pt_clust_5="13000.00000" pt_clust_6="13000.00000" pt_clust_7="13000.00000" pt_clust_8="13000.00000" pt_clust_9="13000.00000"></scales>
<clustering>
<clus scale="   80.439">  5  6 -1 -1</clus>
<clus scale="   90.855">  7  8 -1 -1</clus>
<clus scale="  126.281">  5  9 -1 -1</clus>
<clus scale="  158.984">  1  7  2 -1</clus>
<clus scale="  264.242">  2  5  1 -1</clus>
</clustering>
</event>
<event>
 9    1  0.2728138E-005  0.3422853E+03  0.7546771E-02  0.1113261E+00
         21   -1    0    0  501  502  0.00000000000E+00  0.00000000000E+00  0.14520313733E+03  0.14520313733E+03  0.00000000000E+00 0. -1.
          1   -1    0    0  502    0 -0.00000000000E+00 -0.00000000000E+00 -0.33888032509E+03  0.33888032509E+03  0.00000000000E+00 0. -1.
         23    2    1    2    0    0 -0.59344949684E+02  0.17318938465E+02 -0.17342216420E+02  0.99046755565E+02  0.75417097764E+02 0.  0.
        -24    2    1    2    0    0  0.12432379538E+03  0.18362166113E+02 -0.24222847120E+03  0.28585331644E+03  0.85111168568E+02 0.  0.
         11    1    4    4    0    0  0.87789879746E+02  0.11669673143E+02 -0.79730224435E+02  0.11916439462E+03  0.00000000000E+00 0. -1.
        -12    1    4    4    0    0  0.36533915635E+02  0.66924929696E+01 -0.16249824677E+03  0.16668892181E+03  0.00000000000E+00 0.  1.
        -13    1    3    3    0    0 -0.47544479681E+02  0.40928185901E+02  0.70225637164E+01  0.63126146329E+02  0.00000000000E+00 0.  1.
         13    1    3    3    0    0 -0.11800470003E+02 -0.23609247436E+02 -0.24364780136E+02  0.35920609236E+02  0.00000000000E+00 0. -1.
          2    1    1    2  501    0 -0.64978845698E+02 -0.35681104578E+02  0.65893499857E+02  0.99183390422E+02  0.00000000000E+00 0. -1.
<scales pt_clust_5="13000.00000" pt_clust_6="13000.00000" pt_clust_7="13000.00000" pt_clust_8="13000.00000" pt_clust_9="13000.00000"></scales>
<clustering>
<clus scale="   75.417">  7  8 -1 -1</clus>
<clus scale="   85.111">  5  6 -1 -1</clus>
<clus scale="   74.131">  5  9 -1 -1</clus>
<clus scale="   97.517">  2  7  1 -1</clus>
<clus scale="  342.285">  1  5  2 -1</clus>
</clustering>
</event>
<event>
 9    1  0.2728138E-005  0.2755570E+03  0.7546771E-02  0.1106265E+00
         21   -1    0    0  501  502  0.00000000000E+00  0.00000000000E+00  0.23424573980E+03  0.23424573980E+03  0.00000000000E+00 0. -1.
          1   -1    0    0  502    0 -0.00000000000E+00 -0.00000000000E+00 -0.61729027256E+03  0.61729027256E+03  0.00000000000E+00 0. -1.
         23    2    1    2    0    0 -0.90531297341E+02  0.18328215681E+03 -0.50348139118E+03  0.55080909915E+03  0.90049362243E+02 0.  0.
        -24    2    1    2    0    0  0.62861797298E+02 -0.71230371448E+02 -0.11880686490E+02  0.12514463469E+03  0.80589437927E+02 0.  0.
         11    1    4    4    0    0  0.73914612412E+02 -0.66385446551E+02 -0.29636373953E+02  0.10367599579E+03  0.00000000000E+00 0. -1.
        -12    1    4    4    0    0 -0.11052815114E+02 -0.48449248970E+01  0.17755687463E+02  0.21468638906E+02  0.00000000000E+00 0.  1.
        -13    1    3    3    0    0 -0.92815303713E+02  0.13344847638E+03 -0.44600066736E+03  0.47469966477E+03  0.00000000000E+00 0. -1.
         13    1    3    3    0    0  0.22840063724E+01  0.49833680430E+02 -0.57480723819E+02  0.76109434376E+02  0.00000000000E+00 0.  1.
          2    1    1    2  501    0  0.27669500043E+02 -0.11205178537E+03  0.13231754491E+03  0.17558227851E+03  0.00000000000E+00 0. -1.
<scales pt_clust_5="13000.00000" pt_clust_6="13000.00000" pt_clust_7="13000.00000" pt_clust_8="13000.00000" pt_clust_9="13000.00000"></scales>
<clustering>
<clus scale="   80.589">  5  6 -1 -1</clus>
<clus scale="   90.049">  7  8 -1 -1</clus>
<clus scale="  115.418">  5  9 -1 -1</clus>
<clus scale="  223.377">  2  7  1 -1</clus>
<clus scale="  275.557">  1  5  2 -1</clus>
</clustering>
</event>
<event>
 9    1  0.2728138E-005  0.1281324E+03  0.7546771E-02  0.1232945E+00
         21   -1    0    0  501  502  0.00000000000E+00  0.00000000000E+00  0.15445087409E+03  0.15445087409E+03  0.00000000000E+00 0.  1.
         -2   -1    0    0    0  501 -0.00000000000E+00 -0.00000000000E+00 -0.28555953517E+03  0.28555953517E+03  0.00000000000E+00 0.  1.
         23    2    1    2    0    0  0.48390337422E+02  0.64085248032E+02 -0.24193043040E+03  0.27060148805E+03  0.90809076702E+02 0.  0.
        -24    2    1    2    0    0 -0.29876195067E+02 -0.52188834599E+02  0.10762055256E+03  0.14717053304E+03  0.80378610169E+02 0.  0.
         11    1    4    4    0    0 -0.21829625562E+02  0.25648793101E+01 -0.42249633142E+01  0.22382168641E+02  0.00000000000E+00 0. -1.
        -12    1    4    4    0    0 -0.80465695046E+01 -0.54753713909E+02  0.11184551587E+03  0.12478836440E+03  0.00000000000E+00 0.  1.
        -11    1    3    3    0    0  0.74239959215E+02  0.43309472341E+02 -0.15010043268E+03  0.17296653384E+03  0.00000000000E+00 0.  1.
         11    1    3    3    0    0 -0.25849621793E+02  0.20775775692E+02 -0.91829997722E+02  0.97634954212E+02  0.00000000000E+00 0. -1.
         -1    1    1    2    0  502 -0.18514142355E+02 -0.11896413433E+02  0.32012167680E+01  0.22238388173E+02  0.00000000000E+00 0.  1.
<scales pt_clust_5="13000.00000" pt_clust_6="13000.00000" pt_clust_7="13000.00000" pt_clust_8="13000.00000" pt_clust_9="13000.00000"></scales>
<clustering>
<clus scale="   80.379">  5  6 -1 -1</clus>
<clus scale="   22.007">  5  9 -1 -1</clus>
<clus scale="   90.809">  7  8 -1 -1</clus>
<clus scale="  121.222">  2  7  1 -1</clus>
<clus scale="  128.132">  1  5  2 -1</clus>
</clustering>
</event>
<event>
 9    1  0.2728138E-005  0.2516580E+03  0.7546771E-02  0.1149444E+00
          3   -1    0    0  502    0 -0.00000000000E+00  0.00000000000E+00  0.23375024410E+03  0.23375024410E+03  0.00000000000E+00 0. -1.
         21   -1    0    0  501  502  0.00000000000E+00 -0.00000000000E+00 -0.13565170308E+04  0.13565170308E+04  0.00000000000E+00 0. -1.
         23    2    1    2    0    0 -0.13892008582E+02 -0.42111228164E+02  0.21046868155E+03  0.23348852976E+03  0.90848688362E+02 0.  0.
        -24    2    1    2    0    0  0.15912700551E+02 -0.81880025607E+02 -0.43794913545E+03  0.45294494851E+03  0.80013302100E+02 0.  0.
         13    1    4    4    0    0  0.11380885765E+02 -0.97384898539E+02 -0.34761933227E+03  0.36118214683E+03  0.00000000000E+00 0. -1.
        -14    1    4    4    0    0  0.45318147859E+01  0.15504872933E+02 -0.90329803181E+02  0.91762801683E+02  0.00000000000E+00 0.  1.
        -13    1    3    3    0    0 -0.31125068611E+02  0.93222501035E+01  0.14437357668E+03  0.14798447177E+03  0.00000000000E+00 0. -1.
         13    1    3    3    0    0  0.17233060029E+02 -0.51433478267E+02  0.66095104875E+02  0.85504057992E+02  0.00000000000E+00 0.  1.
          4    1    1    2  501    0 -0.20206919694E+01  0.12399125377E+03 -0.89528633283E+03  0.90383379664E+03  0.00000000000E+00 0. -1.
<scales pt_clust_5="13000.00000" pt_clust_6="13000.00000" pt_clust_7="13000.00000" pt_clust_8="13000.00000" pt_clust_9="13000.00000"></scales>
<clustering>
<clus scale="   80.013">  5  6 -1 -1</clus>
<clus scale="   90.849">  7  8 -1 -1</clus>
<clus scale="  101.093">  1  7  2 -1</clus>
<clus scale="  108.932">  5  9 -1 -1</clus>
<clus scale="  251.658">  2  5  1 -1</clus>
</clustering>
</event>
<event>
 9    1  0.2728138E-005  0.2783288E+03  0.7546771E-02  0.1139897E+00
         21   -1    0    0  501  502  0.00000000000E+00  0.00000000000E+00  0.52854732169E+03  0.52854732169E+03  0.00000000000E+00 0. -1.
          3   -1    0    0  502    0 -0.00000000000E+00 -0.00000000000E+00 -0.65535406671E+02  0.65535406671E+02  0.00000000000E+00 0. -1.
         23    2    1    2    0    0  0.25443786604E+02  0.54340774523E+01  0.11707995977E+03  0.15008291774E+03  0.90223332597E+02 0.  0.
        -24    2    1    2    0    0  0.90735841026E+02 -0.35327831049E+02  0.74404474383E+02  0.14715218094E+03  0.81465882752E+02 0.  0.
         13    1    4    4    0    0  0.24350931805E+02  0.22376676706E+02  0.41901758441E+02  0.53380154558E+02  0.00000000000E+00 0. -1.
        -14    1    4    4    0    0  0.66384909221E+02 -0.57704507754E+02  0.32502715942E+02  0.93772026378E+02  0.00000000000E+00 0.  1.
        -11    1    3    3    0    0 -0.33468561729E+02  0.90442651741E+01  0.38571293520E+02  0.51862202427E+02  0.00000000000E+00 0.  1.
         11    1    3    3    0    0  0.58912348333E+02 -0.36101877218E+01  0.78508666248E+02  0.98220715318E+02  0.00000000000E+00 0. -1.
          4    1    1    2  501    0 -0.11617962763E+03  0.29893753596E+02  0.27152748086E+03  0.29684762968E+03  0.00000000000E+00 0. -1.
<scales pt_clust_5="13000.00000" pt_clust_6="13000.00000" pt_clust_7="13000.00000" pt_clust_8="13000.00000" pt_clust_9="13000.00000"></scales>
<clustering>
<clus scale="   81.466">  5  6 -1 -1</clus>
<clus scale="   90.223">  7  8 -1 -1</clus>
<clus scale="   93.900">  2  7  1 -1</clus>
<clus scale="  113.991">  5  9 -1 -1</clus>
<clus scale="  278.329">  1  5  2 -1</clus>
</clustering>
</event>
<event>
 9    1  0.2728138E-005  0.3264714E+03  0.7546771E-02  0.1109988E+00
         21   -1    0    0  501  502  0.00000000000E+00  0.00000000000E+00  0.86932941374E+02  0.86932941374E+02  0.00000000000E+00 0. -1.
          1   -1    0    0  502    0 -0.00000000000E+00 -0.00000000000E+00 -0.72498101705E+03  0.72498101705E+03  0.00000000000E+00 0. -1.
         23    2    1    2    0    0 -0.72435928069E+02 -0.33736396678E+02 -0.36462001277E+02  0.12745111049E+03  0.92353667453E+02 0.  0.
        -24    2    1    2    0    0 -0.94773539465E+02  0.23246212953E+02 -0.41317287591E+03  0.43233473892E+03  0.81725705219E+02 0.  0.
         13    1    4    4    0    0 -0.79322303094E+02 -0.14260585734E+02 -0.33132241653E+03  0.34098377640E+03  0.00000000000E+00 0. -1.
        -14    1    4    4    0    0 -0.15451236371E+02  0.37506798687E+02 -0.81850459377E+02  0.91350962520E+02  0.00000000000E+00 0.  1.
        -13    1    3    3    0    0 -0.64573920419E+02 -0.54226051149E+02  0.66251707685E+00  0.84324935520E+02  0.00000000000E+00 0. -1.
         13    1    3    3    0    0 -0.78620076501E+01  0.20489654471E+02 -0.37124518353E+02  0.43126174971E+02  0.00000000000E+00 0.  1.
          2    1    1    2  501    0  0.16720946753E+03  0.10490183726E+02 -0.18841319849E+03  0.25212810901E+03  0.00000000000E+00 0. -1.
<scales pt_clust_5="13000.00000" pt_clust_6="13000.00000" pt_clust_7="13000.00000" pt_clust_8="13000.00000" pt_clust_9="13000.00000"></scales>
<clustering>
<clus scale="   81.726">  5  6 -1 -1</clus>
<clus scale="   92.354">  7  8 -1 -1</clus>
<clus scale="  122.124">  2  7  1 -1</clus>
<clus scale="  142.400">  5  9 -1 -1</clus>
<clus scale="  326.471">  1  5  2 -1</clus>
</clustering>
</event>
<event>
 9    1  0.2728138E-005  0.5519003E+03  0.7546771E-02  0.1028936E+00
         21   -1    0    0  501  502  0.00000000000E+00  0.00000000000E+00  0.62556146140E+02  0.62556146140E+02  0.00000000000E+00 0. -1.
          1   -1    0    0  502    0 -0.00000000000E+00 -0.00000000000E+00 -0.25192120931E+04  0.25192120931E+04  0.00000000000E+00 0. -1.
         23    2    1    2    0    0 -0.92863004935E+02 -0.19600923335E+03 -0.58825254609E+03  0.63355746425E+03  0.91163837561E+02 0.  0.
        -24    2    1    2    0    0 -0.36607819014E+02 -0.11978301804E+03 -0.22465063080E+03  0.26939851348E+03  0.80122090097E+02 0.  0.
         11    1    4    4    0    0 -0.89506609085E+01 -0.65880966690E+02 -0.46247145998E+02  0.80988978359E+02  0.00000000000E+00 0. -1.
        -12    1    4    4    0    0 -0.27657158106E+02 -0.53902051350E+02 -0.17840348480E+03  0.18840953512E+03  0.00000000000E+00 0.  1.
        -11    1    3    3    0    0 -0.51128288401E+02 -0.12273716917E+03 -0.46914197761E+03  0.48761943124E+03  0.00000000000E+00 0. -1.
         11    1    3    3    0    0 -0.41734716534E+02 -0.73272064185E+02 -0.11911056849E+03  0.14593803301E+03  0.00000000000E+00 0.  1.
          2    1    1    2  501    0  0.12947082395E+03  0.31579225139E+03 -0.16437527700E+04  0.16788122615E+04  0.00000000000E+00 0. -1.
<scales pt_clust_5="13000.00000" pt_clust_6="13000.00000" pt_clust_7="13000.00000" pt_clust_8="13000.00000" pt_clust_9="13000.00000"></scales>
<clustering>
<clus scale="   80.122">  5  6 -1 -1</clus>
<clus scale="   91.164">  7  8 -1 -1</clus>
<clus scale="  235.274">  2  7  1 -1</clus>
<clus scale="  153.085">  5  9 -1 -1</clus>
<clus scale="  551.900">  1  5  2 -1</clus>
</clustering>
</event>
<event>
 9    1  0.2728138E-005  0.5674367E+03  0.7546771E-02  0.1035571E+00
          1   -1    0    0  502    0 -0.00000000000E+00  0.00000000000E+00  0.24668809396E+03  0.24668809396E+03  0.00000000000E+00 0. -1.
         21   -1    0    0  501  502  0.00000000000E+00 -0.00000000000E+00 -0.84926520402E+03  0.84926520402E+03  0.00000000000E+00 0. -1.
         23    2    1    2    0    0  0.25501323302E+02 -0.14966672453E+03  0.90976943177E+02  0.19984968997E+03  0.92804355886E+02 0.  0.
        -24    2    1    2    0    0  0.88991954844E+02 -0.84481963449E+02  0.89064517599E+01  0.14684725676E+03  0.80174944708E+02 0.  0.
         13    1    4    4    0    0  0.98925131066E+02 -0.91028437549E+02  0.58315581201E+01  0.13455989398E+03  0.00000000000E+00 0. -1.
        -14    1    4    4    0    0 -0.99331762221E+01  0.65464741000E+01  0.30748936398E+01  0.12287362772E+02  0.00000000000E+00 0.  1.
        -11    1    3    3    0    0 -0.20875443069E+02 -0.12155512283E+03  0.57141319485E+02  0.13592851946E+03  0.00000000000E+00 0. -1.
         11    1    3    3    0    0  0.46376766371E+02 -0.28111601692E+02  0.33835623692E+02  0.63921170510E+02  0.00000000000E+00 0.  1.
          2    1    1    2  501    0 -0.11449327815E+03  0.23414868797E+03 -0.70246050500E+03  0.74925635126E+03  0.00000000000E+00 0. -1.
<scales pt_clust_5="13000.00000" pt_clust_6="13000.00000" pt_clust_7="13000.00000" pt_clust_8="13000.00000" pt_clust_9="13000.00000"></scales>
<clustering>
<clus scale="   80.175">  5  6 -1 -1</clus>
<clus scale="   92.804">  7  8 -1 -1</clus>
<clus scale="  177.941">  1  7  2 -1</clus>
<clus scale="  227.206">  5  9 -1 -1</clus>
<clus scale="  567.437">  2  5  1 -1</clus>
</clustering>
</event>
<event>
 9    1  0.2728138E-005  0.1900148E+03  0.7546771E-02  0.1191581E+00
         21   -1    0    0  501  502  0.00000000000E+00  0.00000000000E+00  0.18568550056E+03  0.18568550056E+03  0.00000000000E+00 0. -1.
          1   -1    0    0  502    0 -0.00000000000E+00 -0.00000000000E+00 -0.25512756682E+03  0.25512756682E+03  0.00000000000E+00 0. -1.
         23    2    1    2    0    0  0.14301339984E+02  0.14360391286E+02 -0.19393704880E+03  0.21364653287E+03  0.87307004008E+02 0.  0.
        -24    2    1    2    0    0 -0.78489626325E+02  0.11428651402E+02  0.10937625654E+03  0.15635843679E+03  0.78699172483E+02 0.  0.
         11    1    4    4    0    0 -0.54393493084E+02  0.21260395026E+00  0.11673007184E+03  0.12878123684E+03  0.00000000000E+00 0. -1.
        -12    1    4    4    0    0 -0.24096133240E+02  0.11216047452E+02 -0.73538153070E+01  0.27577199951E+02  0.00000000000E+00 0.  1.
        -13    1    3    3    0    0 -0.29224393078E+02  0.27094143690E+02 -0.12440720683E+03  0.13063426382E+03  0.00000000000E+00 0.  1.
         13    1    3    3    0    0  0.43525733061E+02 -0.12733752405E+02 -0.69529841967E+02  0.83012269050E+02  0.00000000000E+00 0. -1.
          2    1    1    2  501    0  0.64188286341E+02 -0.25789042688E+02  0.15118726008E+02  0.70808097716E+02  0.00000000000E+00 0. -1.
<scales pt_clust_5="13000.00000" pt_clust_6="13000.00000" pt_clust_7="13000.00000" pt_clust_8="13000.00000" pt_clust_9="13000.00000"></scales>
<clustering>
<clus scale="   78.699">  5  6 -1 -1</clus>
<clus scale="   69.175">  5  9 -1 -1</clus>
<clus scale="   87.307">  7  8 -1 -1</clus>
<clus scale="   89.628">  2  7  1 -1</clus>
<clus scale="  190.015">  1  5  2 -1</clus>
</clustering>
</event>
<event>
 9    1  0.2728138E-005  0.1851810E+03  0.7546771E-02  0.1190048E+00
          1   -1    0    0  502    0 -0.00000000000E+00  0.00000000000E+00  0.78381430667E+02  0.78381430667E+02  0.00000000000E+00 0. -1.
         21   -1    0    0  501  502  0.00000000000E+00 -0.00000000000E+00 -0.31937234334E+03  0.31937234334E+03  0.00000000000E+00 0. -1.
         23    2    1    2    0    0  0.20041818843E+02 -0.36954664517E+02 -0.84965754056E+01  0.10052384453E+03  0.90914959126E+02 0.  0.
        -24    2    1    2    0    0 -0.33072497804E+02 -0.42750251112E+02 -0.84807646136E+02  0.12890277508E+03  0.80636310058E+02 0.  0.
         13    1    4    4    0    0 -0.46562684072E+02 -0.27560272806E+02 -0.92513723570E+02  0.10717481623E+03  0.00000000000E+00 0. -1.
        -14    1    4    4    0    0  0.13490186268E+02 -0.15189978306E+02  0.77060774343E+01  0.21727958853E+02  0.00000000000E+00 0.  1.
        -11    1    3    3    0    0 -0.35874666060E+02 -0.22055849423E+02 -0.57066261842E+00  0.42116241695E+02  0.00000000000E+00 0. -1.
         11    1    3    3    0    0  0.55916484903E+02 -0.14898815094E+02 -0.79259127872E+01  0.58407602833E+02  0.00000000000E+00 0.  1.
          2    1    1    2  501    0  0.13030678961E+02  0.79704915630E+02 -0.14768669113E+03  0.16832715439E+03  0.00000000000E+00 0. -1.
<scales pt_clust_5="13000.00000" pt_clust_6="13000.00000" pt_clust_7="13000.00000" pt_clust_8="13000.00000" pt_clust_9="13000.00000"></scales>
<clustering>
<clus scale="   80.636">  5  6 -1 -1</clus>
<clus scale="   80.763">  5  9 -1 -1</clus>
<clus scale="   90.915">  7  8 -1 -1</clus>
<clus scale="  100.164">  1  7  2 -1</clus>
<clus scale="  185.181">  2  5  1 -1</clus>
</clustering>
</event>
<event>
 9    1  0.2728138E-005  0.3022382E+03  0.7546771E-02  0.1105646E+00
         21   -1    0    0  501  502  0.00000000000E+00  0.00000000000E+00  0.16407836868E+03  0.16407836868E+03  0.00000000000E+00 0. -1.
          1   -1    0    0  502    0 -0.00000000000E+00 -0.00000000000E+00 -0.82612358760E+03  0.82612358760E+03  0.00000000000E+00 0. -1.
         23    2    1    2    0    0 -0.44156047340E+02  0.13858341054E+03 -0.66608848073E+03  0.68793675803E+03  0.91804143087E+02 0.  0.
        -24    2    1    2    0    0 -0.18565319840E+02  0.52562795603E+02 -0.14682242588E+02  0.10022191937E+03  0.81983817259E+02 0.  0.
         13    1    4    4    0    0 -0.37286680537E+02  0.34801702362E+02  0.21855593094E+02  0.55489836747E+02  0.00000000000E+00 0. -1.
        -14    1    4    4    0    0  0.18721360697E+02  0.17761093241E+02 -0.36537835682E+02  0.44732082623E+02  0.00000000000E+00 0.  1.
        -13    1    3    3    0    0  0.35263275670E+01  0.86428692949E+02 -0.50019507175E+03  0.50761940837E+03  0.00000000000E+00 0. -1.
         13    1    3    3    0    0 -0.47682374907E+02  0.52154717589E+02 -0.16589340898E+03  0.18031734966E+03  0.00000000000E+00 0.  1.
          2    1    1    2  501    0  0.62721367181E+02 -0.19114620614E+03  0.18725504406E+02  0.20204327888E+03  0.00000000000E+00 0. -1.
<scales pt_clust_5="13000.00000" pt_clust_6="13000.00000" pt_clust_7="13000.00000" pt_clust_8="13000.00000" pt_clust_9="13000.00000"></scales>
<clustering>
<clus scale="   81.984">  5  6 -1 -1</clus>
<clus scale="   91.804">  7  8 -1 -1</clus>
<clus scale="  171.997">  2  7  1 -1</clus>
<clus scale="  111.772">  5  9 -1 -1</clus>
<clus scale="  302.238">  1  5  2 -1</clus>
</clustering>
</event>
<event>
 9    1  0.2728138E-005  0.1994470E+03  0.7546771E-02  0.1175833E+00
          1   -1    0    0  502    0 -0.00000000000E+00  0.00000000000E+00  0.69019221189E+03  0.69019221189E+03  0.00000000000E+00 0. -1.
         21   -1    0    0  501  502  0.00000000000E+00 -0.00000000000E+00 -0.35115694873E+02  0.35115694873E+02  0.00000000000E+00 0.  1.
         23    2    1    2    0    0 -0.56960276384E+02  0.47357309021E+01  0.27080980534E+03  0.29236446124E+03  0.94191970438E+02 0.  0.
        -24    2    1    2    0    0  0.22302813045E+02 -0.59831552339E+02  0.33908322580E+03  0.35370812069E+03  0.77812405820E+02 0.  0.
         13    1    4    4    0    0  0.43723723438E+02 -0.52277198371E+02  0.30652366637E+03  0.31400864240E+03  0.00000000000E+00 0. -1.
        -14    1    4    4    0    0 -0.21420910393E+02 -0.75543539685E+01  0.32559559435E+02  0.39699478291E+02  0.00000000000E+00 0.  1.
        -11    1    3    3    0    0 -0.82811985578E+02  0.32322308960E+01  0.18460715705E+03  0.20235630632E+03  0.00000000000E+00 0.  1.
         11    1    3    3    0    0  0.25851709194E+02  0.15035000060E+01  0.86202648293E+02  0.90008154926E+02  0.00000000000E+00 0. -1.
          2    1    1    2  501    0  0.34657463340E+02  0.55095821437E+02  0.45183485875E+02  0.79235324829E+02  0.00000000000E+00 0. -1.
<scales pt_clust_5="13000.00000" pt_clust_6="13000.00000" pt_clust_7="13000.00000" pt_clust_8="13000.00000" pt_clust_9="13000.00000"></scales>
<clustering>
<clus scale="   77.812">  5  6 -1 -1</clus>
<clus scale="   65.090">  5  9 -1 -1</clus>
<clus scale="   94.192">  7  8 -1 -1</clus>
<clus scale="  110.177">  1  7  2 -1</clus>
<clus scale="  199.447">  2  5  1 -1</clus>
</clustering>
</event>
<event>
 9    1  0.2728138E-005  0.4223942E+03  0.7546771E-02  0.1074673E+00
         21   -1    0    0  501  502  0.00000000000E+00  0.00000000000E+00  0.23238719943E+03  0.23238719943E+03  0.00000000000E+00 0. -1.
          1   -1    0    0  502    0 -0.00000000000E+00 -0.00000000000E+00 -0.39695269002E+03  0.39695269002E+03  0.00000000000E+00 0. -1.
         23    2    1    2    0    0 -0.34701134388E+02 -0.10506198820E+03 -0.14932529859E+03  0.20667083457E+03  0.90402427919E+02 0.  0.
        -24    2    1    2    0    0  0.55961685173E+02 -0.87838824994E+02 -0.13963185244E+03  0.19215653909E+03  0.81115423411E+02 0.  0.
         13    1    4    4    0    0  0.67875015048E+02 -0.35812470409E+02 -0.66032141350E+02  0.10124126824E+03  0.00000000000E+00 0. -1.
        -14    1    4    4    0    0 -0.11913329875E+02 -0.52026354586E+02 -0.73599711090E+02  0.90915270844E+02  0.00000000000E+00 0.  1.
        -13    1    3    3    0    0  0.25529876686E+02 -0.25052782645E+02 -0.14209924676E+02  0.38488160273E+02  0.00000000000E+00 0.  1.
         13    1    3    3    0    0 -0.60231011074E+02 -0.80009205551E+02 -0.13511537391E+03  0.16818267430E+03  0.00000000000E+00 0. -1.
          2    1    1    2  501    0 -0.21260550786E+02  0.19290081319E+03  0.12439166043E+03  0.23051251579E+03  0.00000000000E+00 0. -1.
<scales pt_clust_5="13000.00000" pt_clust_6="13000.00000" pt_clust_7="13000.00000" pt_clust_8="13000.00000" pt_clust_9="13000.00000"></scales>
<clustering>
<clus scale="   81.115">  5  6 -1 -1</clus>
<clus scale="   90.402">  7  8 -1 -1</clus>
<clus scale="  142.880">  2  7  1 -1</clus>
<clus scale="  170.049">  5  9 -1 -1</clus>
<clus scale="  422.394">  1  5  2 -1</clus>
</clustering>
</event>
<event>
 9    1  0.2728138E-005  0.6705162E+03  0.7546771E-02  0.1018765E+00
         21   -1    0    0  501  502  0.00000000000E+00  0.00000000000E+00  0.19162565821E+03  0.19162565821E+03  0.00000000000E+00 0. -1.
          1   -1    0    0  502    0 -0.00000000000E+00 -0.00000000000E+00 -0.94984017744E+03  0.94984017744E+03  0.00000000000E+00 0. -1.
         23    2    1    2    0    0  0.13816592459E+03 -0.65214618280E+02 -0.21018774620E+03  0.27548356864E+03  0.91485183402E+02 0.  0.
        -24    2    1    2    0    0  0.31721495604E+02  0.33409182782E+03 -0.22250853403E+03  0.41087918718E+03  0.81780535855E+02 0.  0.
         13    1    4    4    0    0  0.56826391871E+02  0.27465290671E+03 -0.17280035576E+03  0.32942893153E+03  0.00000000000E+00 0. -1.
        -14    1    4    4    0    0 -0.25104896267E+02  0.59438921109E+02 -0.49708178270E+02  0.81450255654E+02  0.00000000000E+00 0.  1.
        -13    1    3    3    0    0  0.35027904282E+02  0.20569434705E+02 -0.28434482006E+02  0.49584024538E+02  0.00000000000E+00 0.  1.
         13    1    3    3    0    0  0.10313802031E+03 -0.85784052985E+02 -0.18175326419E+03  0.22589954410E+03  0.00000000000E+00 0. -1.
          2    1    1    2  501    0 -0.16988742019E+03 -0.26887720954E+03 -0.32551823900E+03  0.45510307983E+03  0.00000000000E+00 0. -1.
<scales pt_clust_5="13000.00000" pt_clust_6="13000.00000" pt_clust_7="13000.00000" pt_clust_8="13000.00000" pt_clust_9="13000.00000"></scales>
<clustering>
<clus scale="   81.781">  5  6 -1 -1</clus>
<clus scale="   91.485">  7  8 -1 -1</clus>
<clus scale="  178.079">  2  7  1 -1</clus>
<clus scale="  318.928">  5  9 -1 -1</clus>
<clus scale="  670.516">  1  5  2 -1</clus>
</clustering>
</event>
<event>
 9    1  0.2728138E-005  0.2979156E+03  0.7546771E-02  0.1114028E+00
          1   -1    0    0  502    0 -0.00000000000E+00  0.00000000000E+00  0.21094549919E+03  0.21094549919E+03  0.00000000000E+00 0. -1.
         21   -1    0    0  501  502  0.00000000000E+00 -0.00000000000E+00 -0.23869540149E+03  0.23869540149E+03  0.00000000000E+00 0. -1.
         23    2    1    2    0    0 -0.53358859332E+02 -0.10086414849E+03 -0.43120673803E+02  0.15132900205E+03  0.89556295326E+02 0.  0.
        -24    2    1    2    0    0  0.37040920706E+02 -0.61793234849E+02  0.59121911786E+02  0.12908464978E+03  0.89314123609E+02 0.  0.
         13    1    4    4    0    0 -0.12144917979E+02 -0.64334310718E+02  0.35135353741E+02  0.74302729766E+02  0.00000000000E+00 0. -1.
        -14    1    4    4    0    0  0.49185838684E+02  0.25410758685E+01  0.23986558045E+02  0.54781920015E+02  0.00000000000E+00 0.  1.
        -13    1    3    3    0    0  0.17142516942E+02 -0.22752778759E+02 -0.35940602195E+02  0.45861549412E+02  0.00000000000E+00 0. -1.
         13    1    3    3    0    0 -0.70501376273E+02 -0.78111369734E+02 -0.71800716084E+01  0.10546745264E+03  0.00000000000E+00 0.  1.
          2    1    1    2  501    0  0.16317938626E+02  0.16265738334E+03 -0.43751140286E+02  0.16922724885E+03  0.00000000000E+00 0. -1.
<scales pt_clust_5="13000.00000" pt_clust_6="13000.00000" pt_clust_7="13000.00000" pt_clust_8="13000.00000" pt_clust_9="13000.00000"></scales>
<clustering>
<clus scale="   89.314">  5  6 -1 -1</clus>
<clus scale="   89.556">  7  8 -1 -1</clus>
<clus scale="  145.055">  1  7  2 -1</clus>
<clus scale="  122.414">  5  9 -1 -1</clus>
<clus scale="  297.916">  2  5  1 -1</clus>
</clustering>
</event>
<event>
 9    1  0.2728138E-005  0.2693020E+03  0.7546771E-02  0.1124335E+00
          1   -1    0    0  502    0 -0.00000000000E+00  0.00000000000E+00  0.47230068352E+03  0.47230068352E+03  0.00000000000E+00 0. -1.
         21   -1    0    0  501  502  0.00000000000E+00 -0.00000000000E+00 -0.94425998482E+02  0.94425998482E+02  0.00000000000E+00 0. -1.
         23    2    1    2    0    0  0.11857594677E+03  0.16839094766E+02  0.15836112903E+03  0.21929353517E+03  0.93099930791E+02 0.  0.
        -24    2    1    2    0    0 -0.49088527603E+01 -0.80432934595E+02  0.17541383848E+03  0.20992252975E+03  0.82485756114E+02 0.  0.
         11    1    4    4    0    0 -0.24678199609E+02 -0.80256549174E+02  0.16971132761E+03  0.18934640725E+03  0.00000000000E+00 0. -1.
        -12    1    4    4    0    0  0.19769346848E+02 -0.17638542124E+00  0.57025108734E+01  0.20576122494E+02  0.00000000000E+00 0.  1.
        -11    1    3    3    0    0  0.96100972484E+02  0.18246042333E+02  0.16831342476E+03  0.19467337755E+03  0.00000000000E+00 0.  1.
         11    1    3    3    0    0  0.22474974289E+02 -0.14069475676E+01 -0.99522957299E+01  0.24620157616E+02  0.00000000000E+00 0. -1.
          2    1    1    2  501    0 -0.11366709401E+03  0.63593839829E+02  0.44099717526E+02  0.13751061709E+03  0.00000000000E+00 0. -1.
<scales pt_clust_5="13000.00000" pt_clust_6="13000.00000" pt_clust_7="13000.00000" pt_clust_8="13000.00000" pt_clust_9="13000.00000"></scales>
<clustering>
<clus scale="   82.486">  5  6 -1 -1</clus>
<clus scale="   93.100">  7  8 -1 -1</clus>
<clus scale="  130.247">  5  9 -1 -1</clus>
<clus scale="  151.695">  1  7  2 -1</clus>
<clus scale="  269.302">  2  5  1 -1</clus>
</clustering>
</event>
<event>
 9    1  0.2728138E-005  0.3144365E+03  0.7546771E-02  0.1088217E+00
          1   -1    0    0  502    0 -0.00000000000E+00  0.00000000000E+00  0.12951977346E+04  0.12951977346E+04  0.00000000000E+00 0. -1.
         21   -1    0    0  501  502  0.00000000000E+00 -0.00000000000E+00 -0.81875111744E+02  0.81875111744E+02  0.00000000000E+00 0.  1.
         23    2    1    2    0    0 -0.15274842225E+03 -0.16256849650E+03  0.19040026578E+03  0.30691377393E+03  0.90461079290E+02 0.  0.
        -24    2    1    2    0    0  0.32836987031E+02 -0.12627115541E+02  0.17688029024E+03  0.19788650398E+03  0.81453788240E+02 0.  0.
         13    1    4    4    0    0  0.56136048469E+02 -0.13867369476E+01  0.15181115373E+03  0.16186353936E+03  0.00000000000E+00 0. -1.
        -14    1    4    4    0    0 -0.23299061438E+02 -0.11240378594E+02  0.25069136506E+02  0.36022964620E+02  0.00000000000E+00 0.  1.
        -11    1    3    3    0    0 -0.91371382303E+02 -0.89885860851E+02  0.50562730850E+02  0.13778529398E+03  0.00000000000E+00 0.  1.
         11    1    3    3    0    0 -0.61377039949E+02 -0.72682635649E+02  0.13983753493E+03  0.16912847996E+03  0.00000000000E+00 0. -1.
          2    1    1    2  501    0  0.11991143522E+03  0.17519561204E+03  0.84604206687E+03  0.87227256846E+03  0.00000000000E+00 0. -1.
<scales pt_clust_5="13000.00000" pt_clust_6="13000.00000" pt_clust_7="13000.00000" pt_clust_8="13000.00000" pt_clust_9="13000.00000"></scales>
<clustering>
<clus scale="   81.454">  5  6 -1 -1</clus>
<clus scale="   90.461">  7  8 -1 -1</clus>
<clus scale="  212.302">  5  9 -1 -1</clus>
<clus scale="  240.715">  1  7  2 -1</clus>
<clus scale="  314.436">  2  5  1 -1</clus>
</clustering>
</event>
<event>
 9    1  0.2728138E-005  0.1721204E+03  0.7546771E-02  0.1185992E+00
         21   -1    0    0  501  502  0.00000000000E+00  0.00000000000E+00  0.88713216878E+02  0.88713216878E+02  0.00000000000E+00 0. -1.
          1   -1    0    0  502    0 -0.00000000000E+00 -0.00000000000E+00 -0.27637480739E+03  0.27637480739E+03  0.00000000000E+00 0. -1.
         23    2    1    2    0    0 -0.85941241931E+02 -0.53663835577E+02 -0.11417179420E+03  0.17793514901E+03  0.91433114076E+02 0.  0.
        -24    2    1    2    0    0  0.51770986705E+02  0.18306316789E+01 -0.80397046294E+02  0.12468690475E+03  0.79997205491E+02 0.  0.
         11    1    4    4    0    0  0.46572420270E+02 -0.10757578894E+02 -0.49884640452E+01  0.48058304246E+02  0.00000000000E+00 0. -1.
        -12    1    4    4    0    0  0.51985664356E+01  0.12588210572E+02 -0.75408582249E+02  0.76628600504E+02  0.00000000000E+00 0.  1.
        -11    1    3    3    0    0 -0.81762978381E+02  0.64933616891E+00 -0.73615458024E+02  0.11002200658E+03  0.00000000000E+00 0. -1.
         11    1    3    3    0    0 -0.41782635497E+01 -0.54313171746E+02 -0.40556336179E+02  0.67913142437E+02  0.00000000000E+00 0.  1.
          2    1    1    2  501    0  0.34170255225E+02  0.51833203898E+02  0.69072499861E+01  0.62465970503E+02  0.00000000000E+00 0. -1.
<scales pt_clust_5="13000.00000" pt_clust_6="13000.00000" pt_clust_7="13000.00000" pt_clust_8="13000.00000" pt_clust_9="13000.00000"></scales>
<clustering>
<clus scale="   79.997">  5  6 -1 -1</clus>
<clus scale="   62.083">  5  9 -1 -1</clus>
<clus scale="   91.433">  7  8 -1 -1</clus>
<clus scale="  136.476">  2  7  1 -1</clus>
<clus scale="  172.120">  1  5  2 -1</clus>
</clustering>
</event>
<event>
 9    1  0.2728138E-005  0.5251757E+03  0.7546771E-02  0.1047640E+00
          1   -1    0    0  502    0 -0.00000000000E+00  0.00000000000E+00  0.20772759092E+03  0.20772759092E+03  0.00000000000E+00 0. -1.
         21   -1    0    0  501  502  0.00000000000E+00 -0.00000000000E+00 -0.64821953955E+03  0.64821953955E+03  0.00000000000E+00 0. -1.
         23    2    1    2    0    0 -0.12511912327E+03  0.32479228272E+02 -0.25288064569E+03  0.29826665180E+03  0.91130013350E+02 0.  0.
        -24    2    1    2    0    0 -0.42802488752E+02 -0.19626808896E+03 -0.23349550176E+03  0.31866203091E+03  0.81683075439E+02 0.  0.
         11    1    4    4    0    0 -0.32919800149E+02 -0.13622577644E+03 -0.21198125089E+03  0.25412049531E+03  0.00000000000E+00 0. -1.
        -12    1    4    4    0    0 -0.98826886029E+01 -0.60042312518E+02 -0.21514250868E+02  0.64541535595E+02  0.00000000000E+00 0.  1.
        -11    1    3    3    0    0 -0.96930909917E+02 -0.12804394163E+02 -0.11813473785E+03  0.15334722069E+03  0.00000000000E+00 0. -1.
         11    1    3    3    0    0 -0.28188213358E+02  0.45283622435E+02 -0.13474590783E+03  0.14491943110E+03  0.00000000000E+00 0.  1.
          2    1    1    2  501    0  0.16792161203E+03  0.16378886069E+03  0.45884198805E+02  0.23901844776E+03  0.00000000000E+00 0. -1.
<scales pt_clust_5="13000.00000" pt_clust_6="13000.00000" pt_clust_7="13000.00000" pt_clust_8="13000.00000" pt_clust_9="13000.00000"></scales>
<clustering>
<clus scale="   81.683">  5  6 -1 -1</clus>
<clus scale="   91.130">  7  8 -1 -1</clus>
<clus scale="  158.159">  1  7  2 -1</clus>
<clus scale="  201.914">  5  9 -1 -1</clus>
<clus scale="  525.176">  2  5  1 -1</clus>
</clustering>
</event>
<event>
 9    1  0.2728138E-005  0.2001895E+03  0.7546771E-02  0.1172024E+00
         21   -1    0    0  501  502  0.00000000000E+00  0.00000000000E+00  0.65101152995E+02  0.65101152995E+02  0.00000000000E+00 0. -1.
          1   -1    0    0  502    0 -0.00000000000E+00 -0.00000000000E+00 -0.39668220691E+03  0.39668220691E+03  0.00000000000E+00 0. -1.
         23    2    1    2    0    0  0.46783982289E+02  0.59281128823E+02 -0.15140441664E+03  0.19245187828E+03  0.91713874845E+02 0.  0.
        -24    2    1    2    0    0  0.29677482713E+02 -0.24628129742E+02 -0.23416217028E+02  0.91508492873E+02  0.79612733235E+02 0.  0.
         13    1    4    4    0    0  0.32611407340E+02 -0.42376031355E+02  0.92029015243E+01  0.54257951662E+02  0.00000000000E+00 0. -1.
        -14    1    4    4    0    0 -0.29339246270E+01  0.17747901612E+02 -0.32619118553E+02  0.37250541211E+02  0.00000000000E+00 0.  1.
        -11    1    3    3    0    0  0.30767844853E+02  0.75687910066E+02 -0.69074115828E+02  0.10698856707E+03  0.00000000000E+00 0. -1.
         11    1    3    3    0    0  0.16016137436E+02 -0.16406781243E+02 -0.82330300816E+02  0.85463311202E+02  0.00000000000E+00 0.  1.
          2    1    1    2  501    0 -0.76461465002E+02 -0.34652999081E+02 -0.15676042025E+03  0.17782298876E+03  0.00000000000E+00 0. -1.
<scales pt_clust_5="13000.00000" pt_clust_6="13000.00000" pt_clust_7="13000.00000" pt_clust_8="13000.00000" pt_clust_9="13000.00000"></scales>
<clustering>
<clus scale="   79.613">  5  6 -1 -1</clus>
<clus scale="   83.948">  5  9 -1 -1</clus>
<clus scale="   91.714">  7  8 -1 -1</clus>
<clus scale="  118.804">  2  7  1 -1</clus>
<clus scale="  200.189">  1  5  2 -1</clus>
</clustering>
</event>
<event>
 9    1  0.2728138E-005  0.4356478E+03  0.7546771E-02  0.1072325E+00
         21   -1    0    0  501  502  0.00000000000E+00  0.00000000000E+00  0.73500960614E+03  0.73500960614E+03  0.00000000000E+00 0. -1.
          3   -1    0    0  502    0 -0.00000000000E+00 -0.00000000000E+00 -0.18032976758E+03  0.18032976758E+03  0.00000000000E+00 0. -1.
         23    2    1    2    0    0 -0.10898336594E+03 -0.24988792640E+02  0.44491448140E+03  0.46607618247E+03  0.82318274406E+02 0.  0.
        -24    2    1    2    0    0  0.13357178421E+03 -0.45774010170E+02 -0.12420956887E+03  0.20358814045E+03  0.77996361395E+02 0.  0.
         11    1    4    4    0    0  0.13619622113E+03 -0.25934615048E+02 -0.94572554032E+02  0.16782724119E+03  0.00000000000E+00 0. -1.
        -12    1    4    4    0    0 -0.26244369228E+01 -0.19839395122E+02 -0.29637014834E+02  0.35760899265E+02  0.00000000000E+00 0.  1.
        -11    1    3    3    0    0 -0.93547683798E+02  0.14632069476E+02  0.33813343602E+03  0.35114026707E+03  0.00000000000E+00 0.  1.
         11    1    3    3    0    0 -0.15435682138E+02 -0.39620862116E+02  0.10678104538E+03  0.11493591541E+03  0.00000000000E+00 0. -1.
          4    1    1    2  501    0 -0.24588418272E+02  0.70762802810E+02  0.23397492602E+03  0.24567505079E+03  0.00000000000E+00 0. -1.
<scales pt_clust_5="13000.00000" pt_clust_6="13000.00000" pt_clust_7="13000.00000" pt_clust_8="13000.00000" pt_clust_9="13000.00000"></scales>
<clustering>
<clus scale="   77.996">  5  6 -1 -1</clus>
<clus scale="   74.913">  5  9 -1 -1</clus>
<clus scale="   82.318">  7  8 -1 -1</clus>
<clus scale="  138.846">  2  7  1 -1</clus>
<clus scale="  435.648">  1  5  2 -1</clus>
</clustering>
</event>
<event>
 9    1  0.2728138E-005  0.2346433E+03  0.7546771E-02  0.1153946E+00
         21   -1    0    0  501  502  0.00000000000E+00  0.00000000000E+00  0.44106164317E+02  0.44106164317E+02  0.00000000000E+00 0. -1.
          1   -1    0    0  502    0 -0.00000000000E+00 -0.00000000000E+00 -0.78940548985E+03  0.78940548985E+03  0.00000000000E+00 0. -1.
         23    2    1    2    0    0 -0.56123004100E+02 -0.33831666548E+02 -0.40443242155E+03  0.41969078745E+03  0.90996704437E+02 0.  0.
        -24    2    1    2    0    0 -0.41911687785E+02  0.37455358495E+01 -0.26747867637E+03  0.28771849550E+03  0.97295795027E+02 0.  0.
         13    1    4    4    0    0  0.24212919382E+01 -0.30673192287E+02 -0.27509509084E+02  0.41273241571E+02  0.00000000000E+00 0. -1.
        -14    1    4    4    0    0 -0.44332979723E+02  0.34418728136E+02 -0.23996916728E+03  0.24644525393E+03  0.00000000000E+00 0.  1.
        -11    1    3    3    0    0  0.21644443654E+02 -0.21300812475E+02 -0.73782613714E+02  0.79787722362E+02  0.00000000000E+00 0.  1.
         11    1    3    3    0    0 -0.77767447754E+02 -0.12530854073E+02 -0.33064980784E+03  0.33990306509E+03  0.00000000000E+00 0. -1.
          2    1    1    2  501    0  0.98034691884E+02  0.30086130699E+02 -0.73388227608E+02  0.12610237121E+03  0.00000000000E+00 0. -1.
<scales pt_clust_5="13000.00000" pt_clust_6="13000.00000" pt_clust_7="13000.00000" pt_clust_8="13000.00000" pt_clust_9="13000.00000"></scales>
<clustering>
<clus scale="   90.997">  7  8 -1 -1</clus>
<clus scale="   97.296">  5  6 -1 -1</clus>
<clus scale="  102.547">  5  9 -1 -1</clus>
<clus scale="  112.137">  2  7  1 -1</clus>
<clus scale="  234.643">  1  5  2 -1</clus>
</clustering>
</event>
<event>
 9    1  0.2728138E-005  0.1873076E+03  0.7546771E-02  0.1190140E+00
         21   -1    0    0  501  502  0.00000000000E+00  0.00000000000E+00  0.18826710096E+03  0.18826710096E+03  0.00000000000E+00 0. -1.
          1   -1    0    0  502    0 -0.00000000000E+00 -0.00000000000E+00 -0.12811377600E+03  0.12811377600E+03  0.00000000000E+00 0. -1.
         23    2    1    2    0    0 -0.15680964752E+02 -0.32277898177E+02 -0.39328655138E+02  0.10429408126E+03  0.89681418946E+02 0.  0.
        -24    2    1    2    0    0  0.11723892636E+02 -0.42233724793E+02  0.46431035812E+01  0.91413464444E+02  0.80085740943E+02 0.  0.
         11    1    4    4    0    0  0.36073267100E+02  0.25838267878E+01 -0.11441624785E+02  0.37932407488E+02  0.00000000000E+00 0. -1.
        -12    1    4    4    0    0 -0.24349374464E+02 -0.44817551581E+02  0.16084728366E+02  0.53481056956E+02  0.00000000000E+00 0.  1.
        -11    1    3    3    0    0  0.24966273303E+02 -0.20096306539E+01 -0.46786620403E+02  0.53069212042E+02  0.00000000000E+00 0.  1.
         11    1    3    3    0    0 -0.40647238055E+02 -0.30268267523E+02  0.74579652647E+01  0.51224869217E+02  0.00000000000E+00 0. -1.
          2    1    1    2  501    0  0.39570721164E+01  0.74511622971E+02  0.94838876513E+02  0.12067333125E+03  0.00000000000E+00 0. -1.
<scales pt_clust_5="13000.00000" pt_clust_6="13000.00000" pt_clust_7="13000.00000" pt_clust_8="13000.00000" pt_clust_9="13000.00000"></scales>
<clustering>
<clus scale="   80.086">  5  6 -1 -1</clus>
<clus scale="   74.617">  5  9 -1 -1</clus>
<clus scale="   89.681">  7  8 -1 -1</clus>
<clus scale="   96.595">  2  7  1 -1</clus>
<clus scale="  187.308">  1  5  2 -1</clus>
</clustering>
</event>
<event>
 9    1  0.2728138E-005  0.2258827E+03  0.7546771E-02  0.1164705E+00
         21   -1    0    0  501  502  0.00000000000E+00  0.00000000000E+00  0.30049704407E+03  0.30049704407E+03  0.00000000000E+00 0.  1.
         -4   -1    0    0    0  501 -0.00000000000E+00 -0.00000000000E+00 -0.94249056974E+02  0.94249056974E+02  0.00000000000E+00 0.  1.
         23    2    1    2    0    0 -0.17016432320E+02  0.27539730543E+02  0.11539770062E+03  0.15127792089E+03  0.92305927833E+02 0.  0.
        -24    2    1    2    0    0 -0.10207151512E-01  0.15652407665E+02 -0.49881743780E+02  0.95275833540E+02  0.79651102468E+02 0.  0.
         13    1    4    4    0    0 -0.20087635062E+02  0.38727250353E+02 -0.95540387189E+01  0.44660862711E+02  0.00000000000E+00 0. -1.
        -14    1    4    4    0    0  0.20077427910E+02 -0.23074842688E+02 -0.40327705061E+02  0.50614970829E+02  0.00000000000E+00 0.  1.
        -11    1    3    3    0    0 -0.58873356181E+01  0.45628915916E+02  0.12088338052E+03  0.12934237656E+03  0.00000000000E+00 0.  1.
         11    1    3    3    0    0 -0.11129096702E+02 -0.18089185372E+02 -0.54856799051E+01  0.21935544326E+02  0.00000000000E+00 0. -1.
         -3    1    1    2    0  502  0.17026639471E+02 -0.43192138208E+02  0.14073203026E+03  0.14819234661E+03  0.00000000000E+00 0.  1.
<scales pt_clust_5="13000.00000" pt_clust_6="13000.00000" pt_clust_7="13000.00000" pt_clust_8="13000.00000" pt_clust_9="13000.00000"></scales>
<clustering>
<clus scale="   79.651">  5  6 -1 -1</clus>
<clus scale="   46.427">  5  9 -1 -1</clus>
<clus scale="   92.306">  7  8 -1 -1</clus>
<clus scale="   97.818">  2  7  1 -1</clus>
<clus scale="  225.883">  1  5  2 -1</clus>
</clustering>
</event>
<event>
 9    1  0.2728138E-005  0.3123109E+03  0.7546771E-02  0.1115196E+00
         -4   -1    0    0    0  501 -0.00000000000E+00  0.00000000000E+00  0.36903388362E+03  0.36903388362E+03  0.00000000000E+00 0.  1.
         21   -1    0    0  501  502  0.00000000000E+00 -0.00000000000E+00 -0.20843028456E+03  0.20843028456E+03  0.00000000000E+00 0.  1.
         23    2    1    2    0    0  0.65412695757E+02  0.45841667555E+02  0.22732004841E+03  0.25810671798E+03  0.92544012275E+02 0.  0.
        -24    2    1    2    0    0 -0.94988540112E+01  0.97060820294E+02  0.39336645095E+02  0.13282397445E+03  0.81140652439E+02 0.  0.
         11    1    4    4    0    0 -0.23240276403E+02  0.36239254187E+02  0.53709985092E+02  0.68834268281E+02  0.00000000000E+00 0. -1.
        -12    1    4    4    0    0  0.13741422392E+02  0.60821566108E+02 -0.14373339997E+02  0.63989706171E+02  0.00000000000E+00 0.  1.
        -11    1    3    3    0    0  0.16402727949E+02  0.58202937567E+02  0.68179475833E+02  0.91132169679E+02  0.00000000000E+00 0.  1.
         11    1    3    3    0    0  0.49009967808E+02 -0.12361270012E+02  0.15914057257E+03  0.16697454830E+03  0.00000000000E+00 0. -1.
         -3    1    1    2    0  502 -0.55913841745E+02 -0.14290248785E+03 -0.10605309444E+03  0.18653347574E+03  0.00000000000E+00 0.  1.
<scales pt_clust_5="13000.00000" pt_clust_6="13000.00000" pt_clust_7="13000.00000" pt_clust_8="13000.00000" pt_clust_9="13000.00000"></scales>
<clustering>
<clus scale="   81.141">  5  6 -1 -1</clus>
<clus scale="   92.544">  7  8 -1 -1</clus>
<clus scale="  122.248">  1  7  2 -1</clus>
<clus scale="  133.008">  5  9 -1 -1</clus>
<clus scale="  312.311">  2  5  1 -1</clus>
</clustering>
</event>
<event>
 9    1  0.2728138E-005  0.4437052E+03  0.7546771E-02  0.1042353E+00
         21   -1    0    0  501  502  0.00000000000E+00  0.00000000000E+00  0.12078636285E+03  0.12078636285E+03  0.00000000000E+00 0. -1.
          1   -1    0    0  502    0 -0.00000000000E+00 -0.00000000000E+00 -0.11619244697E+04  0.11619244697E+04  0.00000000000E+00 0. -1.
         23    2    1    2    0    0 -0.16558048343E+03 -0.24020395106E+03 -0.41225685697E+03  0.51305771226E+03  0.90319795148E+02 0.  0.
        -24    2    1    2    0    0  0.12910092472E+03  0.25537253015E+02 -0.48429809112E+03  0.50827821856E+03  0.80516497331E+02 0.  0.
         11    1    4    4    0    0  0.12626839148E+02 -0.24455650110E+02 -0.84622345733E+02  0.88985713946E+02  0.00000000000E+00 0. -1.
        -12    1    4    4    0    0  0.11647408557E+03  0.49992903125E+02 -0.39967574539E+03  0.41929250461E+03  0.00000000000E+00 0.  1.
        -11    1    3    3    0    0 -0.13501575940E+02 -0.43353628044E+02 -0.22477811339E+02  0.50666375635E+02  0.00000000000E+00 0. -1.
         11    1    3    3    0    0 -0.15207890749E+03 -0.19685032302E+03 -0.38977904563E+03  0.46239133663E+03  0.00000000000E+00 0.  1.
          2    1    1    2  501    0  0.36479558719E+02  0.21466669805E+03 -0.14458315873E+03  0.26137490171E+03  0.00000000000E+00 0. -1.
<scales pt_clust_5="13000.00000" pt_clust_6="13000.00000" pt_clust_7="13000.00000" pt_clust_8="13000.00000" pt_clust_9="13000.00000"></scales>
<clustering>
<clus scale="   80.516">  5  6 -1 -1</clus>
<clus scale="   90.320">  7  8 -1 -1</clus>
<clus scale="  217.744">  5  9 -1 -1</clus>
<clus scale="  305.406">  2  7  1 -1</clus>
<clus scale="  443.705">  1  5  2 -1</clus>
</clustering>
</event>
<event>
 9    1  0.2728138E-005  0.4332044E+03  0.7546771E-02  0.1076125E+00
         -4   -1    0    0    0  501 -0.00000000000E+00  0.00000000000E+00  0.91668811058E+02  0.91668811058E+02  0.00000000000E+00 0.  1.
         21   -1    0    0  501  502  0.00000000000E+00 -0.00000000000E+00 -0.10205613627E+04  0.10205613627E+04  0.00000000000E+00 0.  1.
         23    2    1    2    0    0  0.80379385917E+02 -0.41367737167E+02 -0.58774309596E+02  0.14023645250E+03  0.89664417600E+02 0.  0.
        -24    2    1    2    0    0  0.11368601660E+03  0.21946589226E+01 -0.69139576381E+03  0.70527732742E+03  0.80365909758E+02 0.  0.
         11    1    4    4    0    0  0.20555226453E+02  0.32000242520E+02 -0.13080339506E+03  0.13622063359E+03  0.00000000000E+00 0. -1.
        -12    1    4    4    0    0  0.93130790149E+02 -0.29805583598E+02 -0.56059236875E+03  0.56905669383E+03  0.00000000000E+00 0.  1.
        -13    1    3    3    0    0 -0.72858733257E+01  0.19328265532E+02 -0.10901725095E+02  0.23356228477E+02  0.00000000000E+00 0.  1.
         13    1    3    3    0    0  0.87665259243E+02 -0.60696002699E+02 -0.47872584502E+02  0.11688022403E+03  0.00000000000E+00 0. -1.
         -3    1    1    2    0  502 -0.19406540252E+03  0.39173078244E+02 -0.17872247822E+03  0.26671639383E+03  0.00000000000E+00 0.  1.
<scales pt_clust_5="13000.00000" pt_clust_6="13000.00000" pt_clust_7="13000.00000" pt_clust_8="13000.00000" pt_clust_9="13000.00000"></scales>
<clustering>
<clus scale="   80.366">  5  6 -1 -1</clus>
<clus scale="   89.664">  7  8 -1 -1</clus>
<clus scale="  127.326">  1  7  2 -1</clus>
<clus scale="  124.686">  5  9 -1 -1</clus>
<clus scale="  433.204">  2  5  1 -1</clus>
</clustering>
</event>
<event>
 9    1  0.2728138E-005  0.1688243E+03  0.7546771E-02  0.1202580E+00
         -4   -1    0    0    0  501 -0.00000000000E+00  0.00000000000E+00  0.28641375729E+02  0.28641375729E+02  0.00000000000E+00 0.  1.
         21   -1    0    0  501  502  0.00000000000E+00 -0.00000000000E+00 -0.67647189581E+03  0.67647189581E+03  0.00000000000E+00 0.  1.
         23    2    1    2    0    0  0.10108530738E+02 -0.40995805262E+02 -0.16058948574E+03  0.18945305743E+03  0.91217539962E+02 0.  0.
        -24    2    1    2    0    0 -0.25921411372E+02 -0.36146630496E+02 -0.27503621350E+03  0.28931559063E+03  0.77974956125E+02 0.  0.
         11    1    4    4    0    0 -0.26158207242E+02  0.19950373970E+02 -0.83970525720E+02  0.90184912360E+02  0.00000000000E+00 0. -1.
        -12    1    4    4    0    0  0.23679587000E+00 -0.56097004466E+02 -0.19106568778E+03  0.19913067827E+03  0.00000000000E+00 0.  1.
        -13    1    3    3    0    0  0.25160924021E+02  0.13161793232E+02 -0.11073994025E+03  0.11432252300E+03  0.00000000000E+00 0. -1.
         13    1    3    3    0    0 -0.15052393283E+02 -0.54157598493E+02 -0.49849545491E+02  0.75130534430E+02  0.00000000000E+00 0.  1.
         -3    1    1    2    0  502  0.15812880633E+02  0.77142435758E+02 -0.21220482084E+03  0.22634462348E+03  0.00000000000E+00 0.  1.
<scales pt_clust_5="13000.00000" pt_clust_6="13000.00000" pt_clust_7="13000.00000" pt_clust_8="13000.00000" pt_clust_9="13000.00000"></scales>
<clustering>
<clus scale="   77.975">  5  6 -1 -1</clus>
<clus scale="   78.746">  5  9 -1 -1</clus>
<clus scale="   91.218">  7  8 -1 -1</clus>
<clus scale="  100.516">  1  7  2 -1</clus>
<clus scale="  168.824">  2  5  1 -1</clus>
</clustering>
</event>
<event>
 9    1  0.2728138E-005  0.4948649E+03  0.7546771E-02  0.1031097E+00
         21   -1    0    0  501  502  0.00000000000E+00  0.00000000000E+00  0.32495733277E+03  0.32495733277E+03  0.00000000000E+00 0. -1.
          3   -1    0    0  502    0 -0.00000000000E+00 -0.00000000000E+00 -0.51515043515E+03  0.51515043515E+03  0.00000000000E+00 0. -1.
         23    2    1    2    0    0 -0.16277916525E+02 -0.29178594541E+03  0.10070467507E+02  0.30625683996E+03  0.91037515362E+02 0.  0.
        -24    2    1    2    0    0  0.10330408427E+03 -0.15657953671E+02 -0.16383273873E+03  0.21225722402E+03  0.85411108941E+02 0.  0.
         13    1    4    4    0    0 -0.33231505660E+01 -0.27345297944E+02 -0.29685372656E+02  0.40497283847E+02  0.00000000000E+00 0. -1.
        -14    1    4    4    0    0  0.10662723483E+03  0.11687344273E+02 -0.13414736608E+03  0.17175994018E+03  0.00000000000E+00 0.  1.
        -11    1    3    3    0    0  0.42110894561E+01 -0.23923474600E+03 -0.23819381225E+02  0.24045448611E+03  0.00000000000E+00 0. -1.
         11    1    3    3    0    0 -0.20489005981E+02 -0.52551199404E+02  0.33889848732E+02  0.65802353849E+02  0.00000000000E+00 0.  1.
          4    1    1    2  501    0 -0.87026167742E+02  0.30744389908E+03 -0.36430831150E+02  0.32159370393E+03  0.00000000000E+00 0. -1.
<scales pt_clust_5="13000.00000" pt_clust_6="13000.00000" pt_clust_7="13000.00000" pt_clust_8="13000.00000" pt_clust_9="13000.00000"></scales>
<clustering>
<clus scale="   85.411">  5  6 -1 -1</clus>
<clus scale="   91.038">  7  8 -1 -1</clus>
<clus scale="  306.091">  2  7  1 -1</clus>
<clus scale="  190.499">  5  9 -1 -1</clus>
<clus scale="  494.865">  1  5  2 -1</clus>
</clustering>
</event>
<event>
 9    1  0.2728138E-005  0.2254942E+03  0.7546771E-02  0.1161128E+00
         21   -1    0    0  501  502  0.00000000000E+00  0.00000000000E+00  0.13766403782E+03  0.13766403782E+03  0.00000000000E+00 0.  1.
          1   -1    0    0  502    0 -0.00000000000E+00 -0.00000000000E+00 -0.20162374518E+03  0.20162374518E+03  0.00000000000E+00 0. -1.
         23    2    1    2    0    0  0.12751991340E+02 -0.53419589736E+02 -0.90092404948E+01  0.10719468883E+03  0.91614786190E+02 0.  0.
        -24    2    1    2    0    0  0.44327252035E+02 -0.52264243642E+02 -0.21851079613E+02  0.10750303799E+03  0.79893535789E+02 0.  0.
         11    1    4    4    0    0  0.20991246126E+02  0.81850574124E-01 -0.41835569124E+02  0.46806558914E+02  0.00000000000E+00 0. -1.
        -12    1    4    4    0    0  0.23336005909E+02 -0.52346094216E+02  0.19984489511E+02  0.60696479078E+02  0.00000000000E+00 0.  1.
        -11    1    3    3    0    0  0.16685487215E+02 -0.27678273152E+02 -0.49462457238E+02  0.59084913170E+02  0.00000000000E+00 0. -1.
         11    1    3    3    0    0 -0.39334958751E+01 -0.25741316584E+02  0.40453216743E+02  0.48109775661E+02  0.00000000000E+00 0.  1.
          2    1    1    2  501    0 -0.57079243375E+02  0.10568383338E+03 -0.33099387259E+02  0.12459005618E+03  0.00000000000E+00 0. -1.
<scales pt_clust_5="13000.00000" pt_clust_6="13000.00000" pt_clust_7="13000.00000" pt_clust_8="13000.00000" pt_clust_9="13000.00000"></scales>
<clustering>
<clus scale="   79.894">  5  6 -1 -1</clus>
<clus scale="   91.615">  7  8 -1 -1</clus>
<clus scale="  106.815">  2  7  1 -1</clus>
<clus scale="   91.295">  5  9 -1 -1</clus>
<clus scale="  225.494">  1  5  2 -1</clus>
</clustering>
</event>
<event>
 9    1  0.2728138E-005  0.2281506E+03  0.7546771E-02  0.1156637E+00
         21   -1    0    0  501  502  0.00000000000E+00  0.00000000000E+00  0.35946528977E+02  0.35946528977E+02  0.00000000000E+00 0. -1.
          1   -1    0    0  502    0 -0.00000000000E+00 -0.00000000000E+00 -0.84405688150E+03  0.84405688150E+03  0.00000000000E+00 0. -1.
         23    2    1    2    0    0 -0.70307999056E+02  0.13451182631E+02 -0.34938244040E+03  0.36767150951E+03  0.89387360421E+02 0.  0.
        -24    2    1    2    0    0  0.44751300879E+02  0.54594118306E+02 -0.10744874302E+03  0.15361144929E+03  0.84071685442E+02 0.  0.
         11    1    4    4    0    0  0.54199422342E+02  0.42779627485E+02 -0.31013433134E+02  0.75693506621E+02  0.00000000000E+00 0. -1.
        -12    1    4    4    0    0 -0.94481214631E+01  0.11814490822E+02 -0.76435309888E+02  0.77917942672E+02  0.00000000000E+00 0.  1.
        -13    1    3    3    0    0 -0.86285074753E+02  0.30131386730E+02 -0.28194213726E+03  0.29638553162E+03  0.00000000000E+00 0. -1.
         13    1    3    3    0    0  0.15977075697E+02 -0.16680204099E+02 -0.67440303138E+02  0.71285977891E+02  0.00000000000E+00 0.  1.
          2    1    1    2  501    0  0.25556698177E+02 -0.68045300937E+02 -0.35127916910E+03  0.35872045167E+03  0.00000000000E+00 0. -1.
<scales pt_clust_5="13000.00000" pt_clust_6="13000.00000" pt_clust_7="13000.00000" pt_clust_8="13000.00000" pt_clust_9="13000.00000"></scales>
<clustering>
<clus scale="   84.072">  5  6 -1 -1</clus>
<clus scale="   72.686">  5  9 -1 -1</clus>
<clus scale="   89.387">  7  8 -1 -1</clus>
<clus scale="  114.517">  2  7  1 -1</clus>
<clus scale="  228.151">  1  5  2 -1</clus>
</clustering>
</event>
<event>
 9    1  0.2728138E-005  0.2744494E+03  0.7546771E-02  0.1114683E+00
          1   -1    0    0  502    0 -0.00000000000E+00  0.00000000000E+00  0.13613320261E+04  0.13613320261E+04  0.00000000000E+00 0. -1.
         21   -1    0    0  501  502  0.00000000000E+00 -0.00000000000E+00 -0.39171000274E+02  0.39171000274E+02  0.00000000000E+00 0. -1.
         23    2    1    2    0    0  0.13249735442E+03  0.83262393841E+02  0.63058718524E+03  0.65646211938E+03  0.93883655845E+02 0.  0.
        -24    2    1    2    0    0 -0.12191224554E+02 -0.11993458885E+03  0.30162302714E+03  0.33430922446E+03  0.79077654847E+02 0.  0.
         11    1    4    4    0    0 -0.45267585704E+02 -0.63189681254E+02  0.14624557455E+03  0.16561961903E+03  0.00000000000E+00 0. -1.
        -12    1    4    4    0    0  0.33076361149E+02 -0.56744907596E+02  0.15537745259E+03  0.16868960542E+03  0.00000000000E+00 0.  1.
        -13    1    3    3    0    0  0.77832485874E+02  0.90978470960E+02  0.50957753637E+03  0.52345414662E+03  0.00000000000E+00 0. -1.
         13    1    3    3    0    0  0.54664868544E+02 -0.77160771185E+01  0.12100964886E+03  0.13300797276E+03  0.00000000000E+00 0.  1.
          2    1    1    2  501    0 -0.12030612986E+03  0.36672195009E+02  0.38995081345E+03  0.40973168254E+03  0.00000000000E+00 0. -1.
<scales pt_clust_5="13000.00000" pt_clust_6="13000.00000" pt_clust_7="13000.00000" pt_clust_8="13000.00000" pt_clust_9="13000.00000"></scales>
<clustering>
<clus scale="   79.078">  5  6 -1 -1</clus>
<clus scale="   93.884">  7  8 -1 -1</clus>
<clus scale="  125.771">  5  9 -1 -1</clus>
<clus scale="  182.489">  1  7  2 -1</clus>
<clus scale="  274.449">  2  5  1 -1</clus>
</clustering>
</event>
<event>
 9    1  0.2728138E-005  0.1565657E+03  0.7546771E-02  0.1216552E+00
          1   -1    0    0  502    0 -0.00000000000E+00  0.00000000000E+00  0.12671194285E+03  0.12671194285E+03  0.00000000000E+00 0. -1.
         21   -1    0    0  501  502  0.00000000000E+00 -0.00000000000E+00 -0.13181094003E+03  0.13181094003E+03  0.00000000000E+00 0. -1.
         23    2    1    2    0    0  0.50836450216E+01 -0.24358254612E+02 -0.33669305411E+02  0.99371738451E+02  0.90121874489E+02 0.  0.
        -24    2    1    2    0    0  0.18744784949E+02 -0.10085505868E+02 -0.24688804335E+02  0.91396441397E+02  0.85385525993E+02 0.  0.
         11    1    4    4    0    0  0.49964070568E+02  0.78407616111E+01 -0.62834509926E+01  0.50964376251E+02  0.00000000000E+00 0. -1.
        -12    1    4    4    0    0 -0.31219285618E+02 -0.17926267480E+02 -0.18405353343E+02  0.40432065145E+02  0.00000000000E+00 0.  1.
        -13    1    3    3    0    0  0.20599756030E+02 -0.52625856974E+02 -0.36057947386E+02  0.67037350339E+02  0.00000000000E+00 0.  1.
         13    1    3    3    0    0 -0.15516111009E+02  0.28267602362E+02  0.23886419753E+01  0.32334388112E+02  0.00000000000E+00 0. -1.
          2    1    1    2  501    0 -0.23828429971E+02  0.34443760481E+02  0.53259112564E+02  0.67754703025E+02  0.00000000000E+00 0. -1.
<scales pt_clust_5="13000.00000" pt_clust_6="13000.00000" pt_clust_7="13000.00000" pt_clust_8="13000.00000" pt_clust_9="13000.00000"></scales>
<clustering>
<clus scale="   85.386">  5  6 -1 -1</clus>
<clus scale="   41.883">  5  9 -1 -1</clus>
<clus scale="   90.122">  7  8 -1 -1</clus>
<clus scale="   93.494">  1  7  2 -1</clus>
<clus scale="  156.566">  2  5  1 -1</clus>
</clustering>
</event>
<event>
 9    1  0.2728138E-005  0.9774149E+03  0.7546771E-02  0.9935108E-01
          3   -1    0    0  502    0 -0.00000000000E+00  0.00000000000E+00  0.70165360834E+03  0.70165360834E+03  0.00000000000E+00 0. -1.
         21   -1    0    0  501  502  0.00000000000E+00 -0.00000000000E+00 -0.57225336835E+03  0.57225336835E+03  0.00000000000E+00 0. -1.
         23    2    1    2    0    0 -0.77073061739E+02  0.22788953948E+02  0.25883424883E+03  0.28795914582E+03  0.97291870281E+02 0.  0.
        -24    2    1    2    0    0 -0.23209391451E+03 -0.30898471911E+03  0.20782320219E+03  0.44628621320E+03  0.81496987212E+02 0.  0.
         11    1    4    4    0    0 -0.20553117282E+03 -0.27173922461E+03  0.21044287213E+03  0.40046407033E+03  0.00000000000E+00 0. -1.
        -12    1    4    4    0    0 -0.26562741685E+02 -0.37245494505E+02 -0.26196699375E+01  0.45822142872E+02  0.00000000000E+00 0.  1.
        -11    1    3    3    0    0 -0.26690715101E+02  0.11424473450E+02  0.56715513508E+01  0.29581740330E+02  0.00000000000E+00 0.  1.
         11    1    3    3    0    0 -0.50382346638E+02  0.11364480497E+02  0.25316269748E+03  0.25837740549E+03  0.00000000000E+00 0. -1.
          4    1    1    2  501    0  0.30916697625E+03  0.28619576516E+03 -0.33725721104E+03  0.53966161768E+03  0.00000000000E+00 0. -1.
<scales pt_clust_5="13000.00000" pt_clust_6="13000.00000" pt_clust_7="13000.00000" pt_clust_8="13000.00000" pt_clust_9="13000.00000"></scales>
<clustering>
<clus scale="   81.497">  5  6 -1 -1</clus>
<clus scale="   97.292">  7  8 -1 -1</clus>
<clus scale="  126.195">  1  7  2 -1</clus>
<clus scale="  411.915">  5  9 -1 -1</clus>
<clus scale="  977.415">  2  5  1 -1</clus>
</clustering>
</event>
<event>
 9    1  0.2728138E-005  0.7895628E+03  0.7546771E-02  0.1009671E+00
         21   -1    0    0  501  502  0.00000000000E+00  0.00000000000E+00  0.31589605904E+03  0.31589605904E+03  0.00000000000E+00 0.  1.
          3   -1    0    0  502    0 -0.00000000000E+00 -0.00000000000E+00 -0.85681498054E+03  0.85681498054E+03  0.00000000000E+00 0. -1.
         23    2    1    2    0    0  0.17697963573E+02  0.11103115843E+03 -0.32291701992E+03  0.35360528505E+03  0.90111929330E+02 0.  0.
        -24    2    1    2    0    0  0.62627070586E+02  0.32777955912E+03 -0.79554220645E+02  0.35201398912E+03  0.78888434922E+02 0.  0.
         13    1    4    4    0    0  0.47866268627E+00  0.15206588329E+03 -0.76973793640E+01  0.15226132677E+03  0.00000000000E+00 0. -1.
        -14    1    4    4    0    0  0.62148407900E+02  0.17571367583E+03 -0.71856841281E+02  0.19975266235E+03  0.00000000000E+00 0.  1.
        -11    1    3    3    0    0  0.54560434739E+01  0.53000843539E+02 -0.45945307291E+02  0.70355021771E+02  0.00000000000E+00 0.  1.
         11    1    3    3    0    0  0.12241920099E+02  0.58030314892E+02 -0.27697171263E+03  0.28325026328E+03  0.00000000000E+00 0. -1.
          4    1    1    2  501    0 -0.80325034159E+02 -0.43881071756E+03 -0.13844768094E+03  0.46709176541E+03  0.00000000000E+00 0. -1.
<scales pt_clust_5="13000.00000" pt_clust_6="13000.00000" pt_clust_7="13000.00000" pt_clust_8="13000.00000" pt_clust_9="13000.00000"></scales>
<clustering>
<clus scale="   78.888">  5  6 -1 -1</clus>
<clus scale="   90.112">  7  8 -1 -1</clus>
<clus scale="  144.088">  2  7  1 -1</clus>
<clus scale="  380.476">  5  9 -1 -1</clus>
<clus scale="  789.563">  1  5  2 -1</clus>
</clustering>
</event>
<event>
 9    1  0.2728138E-005  0.3247237E+03  0.7546771E-02  0.1120462E+00
         21   -1    0    0  501  502  0.00000000000E+00  0.00000000000E+00  0.11467990430E+03  0.11467990430E+03  0.00000000000E+00 0. -1.
          1   -1    0    0  502    0 -0.00000000000E+00 -0.00000000000E+00 -0.39895356536E+03  0.39895356536E+03  0.00000000000E+00 0. -1.
         23    2    1    2    0    0 -0.23771282084E+02  0.14093410382E+02 -0.10844937388E+03  0.14436434192E+03  0.91192644739E+02 0.  0.
        -24    2    1    2    0    0  0.59640642669E+02 -0.12823779588E+03 -0.75141779523E+01  0.16276526668E+03  0.80213032708E+02 0.  0.
         11    1    4    4    0    0  0.33766135364E+01 -0.87554722155E+02  0.16768291378E+02  0.89209901280E+02  0.00000000000E+00 0. -1.
        -12    1    4    4    0    0  0.56264029133E+02 -0.40683073723E+02 -0.24282469330E+02  0.73555365396E+02  0.00000000000E+00 0.  1.
        -13    1    3    3    0    0  0.32222187118E+02 -0.26933867578E+01 -0.18986526197E+02  0.37496824558E+02  0.00000000000E+00 0. -1.
         13    1    3    3    0    0 -0.55993469202E+02  0.16786797140E+02 -0.89462847679E+02  0.10686751736E+03  0.00000000000E+00 0.  1.
          2    1    1    2  501    0 -0.35869360585E+02  0.11414438550E+03 -0.16831010923E+03  0.20650386107E+03  0.00000000000E+00 0. -1.
<scales pt_clust_5="13000.00000" pt_clust_6="13000.00000" pt_clust_7="13000.00000" pt_clust_8="13000.00000" pt_clust_9="13000.00000"></scales>
<clustering>
<clus scale="   80.213">  5  6 -1 -1</clus>
<clus scale="   91.193">  7  8 -1 -1</clus>
<clus scale="   95.288">  2  7  1 -1</clus>
<clus scale="  134.393">  5  9 -1 -1</clus>
<clus scale="  324.724">  1  5  2 -1</clus>
</clustering>
</event>
<event>
 9    1  0.2728138E-005  0.2464329E+03  0.7546771E-02  0.1127579E+00
          1   -1    0    0  502    0 -0.00000000000E+00  0.00000000000E+00  0.59865034166E+02  0.59865034166E+02  0.00000000000E+00 0. -1.
         21   -1    0    0  501  502  0.00000000000E+00 -0.00000000000E+00 -0.79071821370E+03  0.79071821370E+03  0.00000000000E+00 0. -1.
         23    2    1    2    0    0  0.11945789707E+03  0.10469185756E+03 -0.24300226881E+03  0.30402336488E+03  0.90274744722E+02 0.  0.
        -24    2    1    2    0    0  0.10031798610E+02 -0.22111042734E+01 -0.15310788309E+03  0.17330021381E+03  0.80532069871E+02 0.  0.
         11    1    4    4    0    0  0.72958587695E+01  0.23256589776E+02 -0.75657869008E+01  0.25521356834E+02  0.00000000000E+00 0. -1.
        -12    1    4    4    0    0  0.27359398404E+01 -0.25467694049E+02 -0.14554209619E+03  0.14777885698E+03  0.00000000000E+00 0.  1.
        -11    1    3    3    0    0  0.22944112322E+02  0.18312327737E+02 -0.80444853104E+00  0.29367001461E+02  0.00000000000E+00 0.  1.
         11    1    3    3    0    0  0.96513784751E+02  0.86379529820E+02 -0.24219782028E+03  0.27465636342E+03  0.00000000000E+00 0. -1.
          2    1    1    2  501    0 -0.12948969568E+03 -0.10248075328E+03 -0.33474302764E+03  0.37325966918E+03  0.00000000000E+00 0. -1.
<scales pt_clust_5="13000.00000" pt_clust_6="13000.00000" pt_clust_7="13000.00000" pt_clust_8="13000.00000" pt_clust_9="13000.00000"></scales>
<clustering>
<clus scale="   80.532">  5  6 -1 -1</clus>
<clus scale="   90.275">  7  8 -1 -1</clus>
<clus scale="  165.136">  5  9 -1 -1</clus>
<clus scale="  182.702">  1  7  2 -1</clus>
<clus scale="  246.433">  2  5  1 -1</clus>
</clustering>
</event>
<event>
 9    1  0.2728138E-005  0.1438033E+03  0.7546771E-02  0.1227419E+00
         21   -1    0    0  501  502  0.00000000000E+00  0.00000000000E+00  0.35291224200E+02  0.35291224200E+02  0.00000000000E+00 0.  1.
         -2   -1    0    0    0  501 -0.00000000000E+00 -0.00000000000E+00 -0.46054486568E+03  0.46054486568E+03  0.00000000000E+00 0.  1.
         23    2    1    2    0    0  0.72207670715E+01 -0.14850943694E+02 -0.25765810388E+03  0.27500208324E+03  0.94687682882E+02 0.  0.
        -24    2    1    2    0    0  0.13367444717E+01 -0.21035382798E+02 -0.36355482313E+02  0.84507151082E+02  0.73317550931E+02 0.  0.
         11    1    4    4    0    0 -0.33844179703E+02 -0.25850952561E-02 -0.83328217745E+01  0.34854905325E+02  0.00000000000E+00 0. -1.
        -12    1    4    4    0    0  0.35180924175E+02 -0.21032797703E+02 -0.28022660538E+02  0.49652245757E+02  0.00000000000E+00 0.  1.
        -11    1    3    3    0    0 -0.17797593811E+02 -0.41031822094E+02 -0.21230723682E+03  0.21696711173E+03  0.00000000000E+00 0.  1.
         11    1    3    3    0    0  0.25018360882E+02  0.26180878400E+02 -0.45350867061E+02  0.58034971510E+02  0.00000000000E+00 0. -1.
         -1    1    1    2    0  502 -0.85575115431E+01  0.35886326492E+02 -0.13124005529E+03  0.13632685556E+03  0.00000000000E+00 0.  1.
<scales pt_clust_5="13000.00000" pt_clust_6="13000.00000" pt_clust_7="13000.00000" pt_clust_8="13000.00000" pt_clust_9="13000.00000"></scales>
<clustering>
<clus scale="   73.318">  5  6 -1 -1</clus>
<clus scale="   36.893">  5  9 -1 -1</clus>
<clus scale="   94.688">  7  8 -1 -1</clus>
<clus scale="   96.117">  2  7  1 -1</clus>
<clus scale="  143.803">  1  5  2 -1</clus>
</clustering>
</event>
<event>
 9    1  0.2728138E-005  0.2360126E+03  0.7546771E-02  0.1140781E+00
         21   -1    0    0  501  502  0.00000000000E+00  0.00000000000E+00  0.17933011123E+03  0.17933011123E+03  0.00000000000E+00 0. -1.
          1   -1    0    0  502    0 -0.00000000000E+00 -0.00000000000E+00 -0.22329015276E+03  0.22329015276E+03  0.00000000000E+00 0. -1.
         23    2    1    2    0    0  0.56197094033E+02 -0.10350864334E+03 -0.68005721522E+02  0.16538592559E+03  0.94104057292E+02 0.  0.
        -24    2    1    2    0    0  0.51654764781E+02  0.15140631952E+02  0.38101195717E+01  0.96342866726E+02  0.79812138785E+02 0.  0.
         13    1    4    4    0    0  0.58110046582E+02  0.38038843452E+02  0.13325385694E+02  0.70719848903E+02  0.00000000000E+00 0. -1.
        -14    1    4    4    0    0 -0.64552818013E+01 -0.22898211499E+02 -0.95152661226E+01  0.25623017824E+02  0.00000000000E+00 0.  1.
        -13    1    3    3    0    0  0.34436644049E+02 -0.27635128895E+02  0.18861349982E+02  0.48013886799E+02  0.00000000000E+00 0.  1.
         13    1    3    3    0    0  0.21760449984E+02 -0.75873514449E+02 -0.86867071504E+02  0.11737203879E+03  0.00000000000E+00 0. -1.
          2    1    1    2  501    0 -0.10785185881E+03  0.88368011392E+02  0.20235560417E+02  0.14089147168E+03  0.00000000000E+00 0. -1.
<scales pt_clust_5="13000.00000" pt_clust_6="13000.00000" pt_clust_7="13000.00000" pt_clust_8="13000.00000" pt_clust_9="13000.00000"></scales>
<clustering>
<clus scale="   79.812">  5  6 -1 -1</clus>
<clus scale="   94.104">  7  8 -1 -1</clus>
<clus scale="  139.431">  5  9 -1 -1</clus>
<clus scale="  150.757">  2  7  1 -1</clus>
<clus scale="  236.013">  1  5  2 -1</clus>
</clustering>
</event>
<event>
 9    1  0.2728138E-005  0.2884127E+03  0.7546771E-02  0.1120898E+00
         21   -1    0    0  501  502  0.00000000000E+00  0.00000000000E+00  0.92619640207E+03  0.92619640207E+03  0.00000000000E+00 0.  1.
         -2   -1    0    0    0  501 -0.00000000000E+00 -0.00000000000E+00 -0.48459127670E+02  0.48459127670E+02  0.00000000000E+00 0.  1.
         23    2    1    2    0    0  0.10099641928E+03  0.95916139424E+00  0.30718964284E+03  0.33535397469E+03  0.88857273042E+02 0.  0.
        -24    2    1    2    0    0  0.49866045558E+02 -0.71533854872E+02  0.21680347461E+03  0.24830897299E+03  0.83963590730E+02 0.  0.
         11    1    4    4    0    0  0.66299383412E+02 -0.24886600476E+02  0.14124279521E+03  0.15800151367E+03  0.00000000000E+00 0. -1.
        -12    1    4    4    0    0 -0.16433337854E+02 -0.46647254396E+02  0.75560679404E+02  0.90307459313E+02  0.00000000000E+00 0.  1.
        -11    1    3    3    0    0  0.19916575317E+02 -0.38458877233E+02  0.80833979961E+02  0.91705438916E+02  0.00000000000E+00 0. -1.
         11    1    3    3    0    0  0.81079843966E+02  0.39418038627E+02  0.22635566288E+03  0.24364853578E+03  0.00000000000E+00 0.  1.
         -1    1    1    2    0  502 -0.15086246484E+03  0.70574693477E+02  0.35374415694E+03  0.39099258206E+03  0.00000000000E+00 0.  1.
<scales pt_clust_5="13000.00000" pt_clust_6="13000.00000" pt_clust_7="13000.00000" pt_clust_8="13000.00000" pt_clust_9="13000.00000"></scales>
<clustering>
<clus scale="   83.964">  5  6 -1 -1</clus>
<clus scale="   88.857">  7  8 -1 -1</clus>
<clus scale="  134.524">  2  7  1 -1</clus>
<clus scale="  119.576">  5  9 -1 -1</clus>
<clus scale="  288.413">  1  5  2 -1</clus>
</clustering>
</event>
<event>
 9    1  0.2728138E-005  0.3936853E+03  0.7546771E-02  0.1079051E+00
          1   -1    0    0  502    0 -0.00000000000E+00  0.00000000000E+00  0.11323671165E+03  0.11323671165E+03  0.00000000000E+00 0. -1.
         21   -1    0    0  501  502  0.00000000000E+00 -0.00000000000E+00 -0.67791324900E+03  0.67791324900E+03  0.00000000000E+00 0. -1.
         23    2    1    2    0    0 -0.85804022998E+02 -0.94000291541E+02 -0.12109083310E+03  0.19805939389E+03  0.91466652265E+02 0.  0.
        -24    2    1    2    0    0  0.63512566452E+02 -0.26358558351E+02  0.24545510826E+02  0.10922075336E+03  0.81228512039E+02 0.  0.
         11    1    4    4    0    0  0.60200188039E+02 -0.19177152534E+02 -0.18199827190E+02  0.65749977407E+02  0.00000000000E+00 0. -1.
        -12    1    4    4    0    0  0.33123784130E+01 -0.71814058167E+01  0.42745338016E+02  0.43470775958E+02  0.00000000000E+00 0.  1.
        -13    1    3    3    0    0 -0.86984697005E+02 -0.48208825802E+02 -0.11469715505E+03  0.15180864855E+03  0.00000000000E+00 0. -1.
         13    1    3    3    0    0  0.11806740069E+01 -0.45791465739E+02 -0.63936780466E+01  0.46250745341E+02  0.00000000000E+00 0.  1.
          2    1    1    2  501    0  0.22291456547E+02  0.12035884989E+03 -0.46813121508E+03  0.48386981340E+03  0.00000000000E+00 0. -1.
<scales pt_clust_5="13000.00000" pt_clust_6="13000.00000" pt_clust_7="13000.00000" pt_clust_8="13000.00000" pt_clust_9="13000.00000"></scales>
<clustering>
<clus scale="   81.229">  5  6 -1 -1</clus>
<clus scale="   91.467">  7  8 -1 -1</clus>
<clus scale="  122.406">  5  9 -1 -1</clus>
<clus scale="  156.731">  1  7  2 -1</clus>
<clus scale="  393.685">  2  5  1 -1</clus>
</clustering>
</event>
<event>
 9    1  0.2728138E-005  0.3105026E+03  0.7546771E-02  0.1090136E+00
          1   -1    0    0  502    0 -0.00000000000E+00  0.00000000000E+00  0.52575706886E+03  0.52575706886E+03  0.00000000000E+00 0. -1.
         21   -1    0    0  501  502  0.00000000000E+00 -0.00000000000E+00 -0.14354751698E+03  0.14354751698E+03  0.00000000000E+00 0. -1.
         23    2    1    2    0    0  0.24520446368E+02 -0.21780339744E+03  0.14268030705E+03  0.27714882918E+03  0.91729119003E+02 0.  0.
        -24    2    1    2    0    0 -0.30040522187E+02  0.25698798440E+03  0.21197235106E+03  0.34393454258E+03  0.80083923888E+02 0.  0.
         13    1    4    4    0    0 -0.22193497019E+02  0.25933856939E+03  0.21207058869E+03  0.33574243025E+03  0.00000000000E+00 0. -1.
        -14    1    4    4    0    0 -0.78470251680E+01 -0.23505849901E+01 -0.98237627416E-01  0.81921123292E+01  0.00000000000E+00 0.  1.
        -13    1    3    3    0    0 -0.34728811863E+02 -0.94806099577E+02  0.56513386914E+02  0.11570674047E+03  0.00000000000E+00 0. -1.
         13    1    3    3    0    0  0.59249258230E+02 -0.12299729786E+03  0.86166920131E+02  0.16144208871E+03  0.00000000000E+00 0.  1.
          2    1    1    2  501    0  0.55200758194E+01 -0.39184586962E+02  0.27556893780E+02  0.48221214079E+02  0.00000000000E+00 0. -1.
<scales pt_clust_5="13000.00000" pt_clust_6="13000.00000" pt_clust_7="13000.00000" pt_clust_8="13000.00000" pt_clust_9="13000.00000"></scales>
<clustering>
<clus scale="   80.084">  5  6 -1 -1</clus>
<clus scale="   39.572">  5  9 -1 -1</clus>
<clus scale="   91.729">  7  8 -1 -1</clus>
<clus scale="  237.600">  1  7  2 -1</clus>
<clus scale="  310.503">  2  5  1 -1</clus>
</clustering>
</event>
<event>
 9    1  0.2728138E-005  0.2170032E+03  0.7546771E-02  0.1159649E+00
          3   -1    0    0  502    0 -0.00000000000E+00  0.00000000000E+00  0.95211940208E+02  0.95211940208E+02  0.00000000000E+00 0. -1.
         21   -1    0    0  501  502  0.00000000000E+00 -0.00000000000E+00 -0.30726869299E+03  0.30726869299E+03  0.00000000000E+00 0. -1.
         23    2    1    2    0    0  0.54333904219E+02  0.43901301477E+02 -0.92350665977E+02  0.15465015401E+03  0.10251110774E+03 0.  0.
        -24    2    1    2    0    0  0.42164957836E+02 -0.58443534260E+02 -0.10316164746E+03  0.14884954473E+03  0.79500510028E+02 0.  0.
         11    1    4    4    0    0  0.20052835037E+02 -0.73087985639E+02 -0.94093445909E+02  0.12082030624E+03  0.00000000000E+00 0. -1.
        -12    1    4    4    0    0  0.22112122798E+02  0.14644451379E+02 -0.90682015463E+01  0.28029238487E+02  0.00000000000E+00 0.  1.
        -13    1    3    3    0    0  0.73857198164E+02  0.16367317650E+02 -0.94236760175E+02  0.12084428731E+03  0.00000000000E+00 0. -1.
         13    1    3    3    0    0 -0.19523293945E+02  0.27533983828E+02  0.18860941977E+01  0.33805866698E+02  0.00000000000E+00 0.  1.
          4    1    1    2  501    0 -0.96498862055E+02  0.14542232783E+02 -0.16544439346E+02  0.98980934454E+02  0.00000000000E+00 0. -1.
<scales pt_clust_5="13000.00000" pt_clust_6="13000.00000" pt_clust_7="13000.00000" pt_clust_8="13000.00000" pt_clust_9="13000.00000"></scales>
<clustering>
<clus scale="   79.501">  5  6 -1 -1</clus>
<clus scale="   97.589">  5  9 -1 -1</clus>
<clus scale="  102.511">  7  8 -1 -1</clus>
<clus scale="  124.049">  1  7  2 -1</clus>
<clus scale="  217.003">  2  5  1 -1</clus>
</clustering>
</event>
<event>
 9    1  0.2728138E-005  0.1850275E+03  0.7546771E-02  0.1189515E+00
          1   -1    0    0  502    0 -0.00000000000E+00  0.00000000000E+00  0.12597809199E+03  0.12597809199E+03  0.00000000000E+00 0. -1.
         21   -1    0    0  501  502  0.00000000000E+00 -0.00000000000E+00 -0.20096863276E+03  0.20096863276E+03  0.00000000000E+00 0. -1.
         23    2    1    2    0    0 -0.41457171507E+02  0.67903653788E+01 -0.97177085254E+02  0.14059376806E+03  0.92511705131E+02 0.  0.
        -24    2    1    2    0    0 -0.82321072444E+01 -0.20834969777E+02 -0.49457266035E+02  0.98040381593E+02  0.81633520712E+02 0.  0.
         13    1    4    4    0    0  0.33471468528E+02  0.26400250915E+01 -0.33913986186E+02  0.47722818409E+02  0.00000000000E+00 0. -1.
        -14    1    4    4    0    0 -0.41703575772E+02 -0.23474994869E+02 -0.15543279849E+02  0.50317563183E+02  0.00000000000E+00 0.  1.
        -11    1    3    3    0    0 -0.69567384170E+01  0.47494078958E+02 -0.41166522611E+02  0.63235799428E+02  0.00000000000E+00 0.  1.
         11    1    3    3    0    0 -0.34500433090E+02 -0.40703713579E+02 -0.56010562643E+02  0.77357968627E+02  0.00000000000E+00 0. -1.
          2    1    1    2  501    0  0.49689278752E+02  0.14044604399E+02  0.71643810516E+02  0.88312575100E+02  0.00000000000E+00 0. -1.
<scales pt_clust_5="13000.00000" pt_clust_6="13000.00000" pt_clust_7="13000.00000" pt_clust_8="13000.00000" pt_clust_9="13000.00000"></scales>
<clustering>
<clus scale="   81.634">  5  6 -1 -1</clus>
<clus scale="   51.636">  5  9 -1 -1</clus>
<clus scale="   92.512">  7  8 -1 -1</clus>
<clus scale="  101.603">  1  7  2 -1</clus>
<clus scale="  185.028">  2  5  1 -1</clus>
</clustering>
</event>
<event>
 9    1  0.2728138E-005  0.3742992E+03  0.7546771E-02  0.1067109E+00
          1   -1    0    0  502    0 -0.00000000000E+00  0.00000000000E+00  0.25670916499E+03  0.25670916499E+03  0.00000000000E+00 0. -1.
         21   -1    0    0  501  502  0.00000000000E+00 -0.00000000000E+00 -0.41122651494E+03  0.41122651494E+03  0.00000000000E+00 0. -1.
         23    2    1    2    0    0  0.12871037996E+03  0.19771505948E+03 -0.14958882779E+03  0.29360407037E+03  0.90382111540E+02 0.  0.
        -24    2    1    2    0    0 -0.80311244365E+02  0.42987247738E+02 -0.26199290609E+02  0.12789191588E+03  0.85861166313E+02 0.  0.
         11    1    4    4    0    0 -0.72888272609E+02  0.68663672920E+01  0.12685985271E+02  0.74301961656E+02  0.00000000000E+00 0. -1.
        -12    1    4    4    0    0 -0.74229717558E+01  0.36120880446E+02 -0.38885275880E+02  0.53589954228E+02  0.00000000000E+00 0.  1.
        -11    1    3    3    0    0  0.24239347582E+02  0.25415494134E+02  0.10051734300E+02  0.36531228774E+02  0.00000000000E+00 0.  1.
         11    1    3    3    0    0  0.10447103238E+03  0.17229956534E+03 -0.15964056209E+03  0.25707284160E+03  0.00000000000E+00 0. -1.
          2    1    1    2  501    0 -0.48399135594E+02 -0.24070230722E+03  0.21270768446E+02  0.24643969367E+03  0.00000000000E+00 0. -1.
<scales pt_clust_5="13000.00000" pt_clust_6="13000.00000" pt_clust_7="13000.00000" pt_clust_8="13000.00000" pt_clust_9="13000.00000"></scales>
<clustering>
<clus scale="   85.861">  5  6 -1 -1</clus>
<clus scale="   90.382">  7  8 -1 -1</clus>
<clus scale="  245.520">  5  9 -1 -1</clus>
<clus scale="  252.639">  1  7  2 -1</clus>
<clus scale="  374.299">  2  5  1 -1</clus>
</clustering>
</event>
<event>
 9    1  0.2728138E-005  0.3714960E+03  0.7546771E-02  0.1106805E+00
         21   -1    0    0  501  502  0.00000000000E+00  0.00000000000E+00  0.33280860605E+02  0.33280860605E+02  0.00000000000E+00 0.  1.
          1   -1    0    0  502    0 -0.00000000000E+00 -0.00000000000E+00 -0.15995543741E+04  0.15995543741E+04  0.00000000000E+00 0. -1.
         23    2    1    2    0    0 -0.12245706858E+02  0.62644169526E+01 -0.31471775785E+03  0.32730811482E+03  0.88848942950E+02 0.  0.
        -24    2    1    2    0    0  0.80939208938E+02 -0.14708359938E+03 -0.42201537618E+03  0.46131975168E+03  0.80834366513E+02 0.  0.
         13    1    4    4    0    0  0.60682000156E+02 -0.31532064483E+02 -0.13748663411E+03  0.15355504157E+03  0.00000000000E+00 0. -1.
        -14    1    4    4    0    0  0.20257208782E+02 -0.11555153490E+03 -0.28452874207E+03  0.30776471011E+03  0.00000000000E+00 0.  1.
        -13    1    3    3    0    0  0.38091207631E+02 -0.23494529978E+00 -0.11064334674E+03  0.11701685980E+03  0.00000000000E+00 0.  1.
         13    1    3    3    0    0 -0.50336914489E+02  0.64993622524E+01 -0.20407441111E+03  0.21029125502E+03  0.00000000000E+00 0. -1.
          2    1    1    2  501    0 -0.68693502079E+02  0.14081918243E+03 -0.82954037943E+03  0.84420736817E+03  0.00000000000E+00 0. -1.
<scales pt_clust_5="13000.00000" pt_clust_6="13000.00000" pt_clust_7="13000.00000" pt_clust_8="13000.00000" pt_clust_9="13000.00000"></scales>
<clustering>
<clus scale="   80.834">  5  6 -1 -1</clus>
<clus scale="   88.849">  7  8 -1 -1</clus>
<clus scale="   89.907">  2  7  1 -1</clus>
<clus scale="  163.969">  5  9 -1 -1</clus>
<clus scale="  371.496">  1  5  2 -1</clus>
</clustering>
</event>
<event>
 9    1  0.2728138E-005  0.1955280E+03  0.7546771E-02  0.1185643E+00
         -4   -1    0    0    0  501 -0.00000000000E+00  0.00000000000E+00  0.14261240206E+03  0.14261240206E+03  0.00000000000E+00 0.  1.
         21   -1    0    0  501  502  0.00000000000E+00 -0.00000000000E+00 -0.17160091502E+03  0.17160091502E+03  0.00000000000E+00 0.  1.
         23    2    1    2    0    0 -0.23954747909E+02  0.77041798859E+01 -0.66658599905E+02  0.11508965427E+03  0.90382936679E+02 0.  0.
        -24    2    1    2    0    0  0.68838779398E+02 -0.57598376297E+02  0.52011383455E+02  0.13049655517E+03  0.79169542127E+02 0.  0.
         11    1    4    4    0    0 -0.15966577446E+02 -0.20110473167E+02  0.19490231763E+02  0.32237119296E+02  0.00000000000E+00 0. -1.
        -12    1    4    4    0    0  0.84805356844E+02 -0.37487903130E+02  0.32521151693E+02  0.98259435872E+02  0.00000000000E+00 0.  1.
        -11    1    3    3    0    0  0.10259866118E+02  0.27120099955E+02 -0.69841406232E+02  0.75621337589E+02  0.00000000000E+00 0.  1.
         11    1    3    3    0    0 -0.34214614027E+02 -0.19415920070E+02  0.31828063266E+01  0.39468316677E+02  0.00000000000E+00 0. -1.
         -3    1    1    2    0  502 -0.44884031489E+02  0.49894196412E+02 -0.14341296515E+02  0.68627107647E+02  0.00000000000E+00 0.  1.
<scales pt_clust_5="13000.00000" pt_clust_6="13000.00000" pt_clust_7="13000.00000" pt_clust_8="13000.00000" pt_clust_9="13000.00000"></scales>
<clustering>
<clus scale="   79.170">  5  6 -1 -1</clus>
<clus scale="   67.112">  5  9 -1 -1</clus>
<clus scale="   90.383">  7  8 -1 -1</clus>
<clus scale="   93.820">  1  7  2 -1</clus>
<clus scale="  195.528">  2  5  1 -1</clus>
</clustering>
</event>
<event>
 9    1  0.2728138E-005  0.1727428E+03  0.7546771E-02  0.1199129E+00
          1   -1    0    0  502    0 -0.00000000000E+00  0.00000000000E+00  0.97499694460E+02  0.97499694460E+02  0.00000000000E+00 0. -1.
         21   -1    0    0  501  502  0.00000000000E+00 -0.00000000000E+00 -0.32577147717E+03  0.32577147717E+03  0.00000000000E+00 0. -1.
         23    2    1    2    0    0  0.19386368994E+01  0.25667042555E+02  0.36180530551E+02  0.10739919891E+03  0.97790601535E+02 0.  0.
        -24    2    1    2    0    0  0.34209518391E+02 -0.61359471946E+02 -0.23438364510E+03  0.25684008768E+03  0.78075998906E+02 0.  0.
         11    1    4    4    0    0  0.40593306495E+02 -0.61247971086E+02 -0.23828554742E+03  0.24935743944E+03  0.00000000000E+00 0. -1.
        -12    1    4    4    0    0 -0.63837881044E+01 -0.11150086000E+00  0.39019023220E+01  0.74826482433E+01  0.00000000000E+00 0.  1.
        -13    1    3    3    0    0  0.41154074670E+02  0.21458642571E+02  0.47455259289E+02  0.66378707709E+02  0.00000000000E+00 0. -1.
         13    1    3    3    0    0 -0.39215437771E+02  0.42083999842E+01 -0.11274728739E+02  0.41020491198E+02  0.00000000000E+00 0.  1.
          2    1    1    2  501    0 -0.36148155290E+02  0.35692429391E+02 -0.30068668169E+02  0.59031885047E+02  0.00000000000E+00 0. -1.
<scales pt_clust_5="13000.00000" pt_clust_6="13000.00000" pt_clust_7="13000.00000" pt_clust_8="13000.00000" pt_clust_9="13000.00000"></scales>
<clustering>
<clus scale="   78.076">  5  6 -1 -1</clus>
<clus scale="   50.800">  5  9 -1 -1</clus>
<clus scale="   97.791">  7  8 -1 -1</clus>
<clus scale="  101.121">  1  7  2 -1</clus>
<clus scale="  172.743">  2  5  1 -1</clus>
</clustering>
</event>
<event>
 9    1  0.2728138E-005  0.1607894E+03  0.7546771E-02  0.1213839E+00
          1   -1    0    0  502    0 -0.00000000000E+00  0.00000000000E+00  0.37554073558E+03  0.37554073558E+03  0.00000000000E+00 0. -1.
         21   -1    0    0  501  502  0.00000000000E+00 -0.00000000000E+00 -0.44430967350E+02  0.44430967350E+02  0.00000000000E+00 0. -1.
         23    2    1    2    0    0 -0.22568165980E+02  0.98154626884E+01  0.78330936377E+02  0.12038801781E+03  0.88044726226E+02 0.  0.
        -24    2    1    2    0    0 -0.62449145344E+01 -0.51779848191E+02  0.21109826333E+03  0.23379255310E+03  0.85885560302E+02 0.  0.
         13    1    4    4    0    0 -0.37037341458E+02 -0.14776247608E+02  0.15414686785E+03  0.15922110107E+03  0.00000000000E+00 0. -1.
        -14    1    4    4    0    0  0.30792426923E+02 -0.37003600583E+02  0.56951395480E+02  0.74571452038E+02  0.00000000000E+00 0.  1.
        -13    1    3    3    0    0 -0.51544834170E+02  0.20906039621E+01  0.21020163725E+02  0.55705366326E+02  0.00000000000E+00 0. -1.
         13    1    3    3    0    0  0.28976668190E+02  0.77248587263E+01  0.57310772651E+02  0.64682651489E+02  0.00000000000E+00 0.  1.
          2    1    1    2  501    0  0.28813080514E+02  0.41964385503E+02  0.41680568524E+02  0.65791132015E+02  0.00000000000E+00 0. -1.
<scales pt_clust_5="13000.00000" pt_clust_6="13000.00000" pt_clust_7="13000.00000" pt_clust_8="13000.00000" pt_clust_9="13000.00000"></scales>
<clustering>
<clus scale="   85.886">  5  6 -1 -1</clus>
<clus scale="   50.904">  5  9 -1 -1</clus>
<clus scale="   88.045">  7  8 -1 -1</clus>
<clus scale="   91.420">  1  7  2 -1</clus>
<clus scale="  160.789">  2  5  1 -1</clus>
</clustering>
</event>
<event>
 9    1  0.2728138E-005  0.3957749E+03  0.7546771E-02  0.1073291E+00
         -2   -1    0    0    0  501 -0.00000000000E+00  0.00000000000E+00  0.59129771542E+03  0.59129771542E+03  0.00000000000E+00 0.  1.
         21   -1    0    0  501  502  0.00000000000E+00 -0.00000000000E+00 -0.29751683712E+03  0.29751683712E+03  0.00000000000E+00 0.  1.
         23    2    1    2    0    0  0.15626014142E+03 -0.34726527942E+01  0.43316492473E+03  0.46921275110E+03  0.89997014759E+02 0.  0.
        -24    2    1    2    0    0  0.10306045540E+03  0.27824251247E+02 -0.29246385503E+02  0.13681128420E+03  0.80413493869E+02 0.  0.
         13    1    4    4    0    0  0.10677561583E+03  0.81466270363E+01 -0.39716775924E+02  0.11421393066E+03  0.00000000000E+00 0. -1.
        -14    1    4    4    0    0 -0.37151604287E+01  0.19677624211E+02  0.10470390421E+02  0.22597353543E+02  0.00000000000E+00 0.  1.
        -13    1    3    3    0    0  0.41962328207E+02 -0.16882289412E+02  0.24112618521E+03  0.24533178733E+03  0.00000000000E+00 0.  1.
         13    1    3    3    0    0  0.11429781321E+03  0.13409636618E+02  0.19203873952E+03  0.22388096377E+03  0.00000000000E+00 0. -1.
         -1    1    1    2    0  502 -0.25932059682E+03 -0.24351598453E+02 -0.11013766093E+03  0.28279051723E+03  0.00000000000E+00 0.  1.
<scales pt_clust_5="13000.00000" pt_clust_6="13000.00000" pt_clust_7="13000.00000" pt_clust_8="13000.00000" pt_clust_9="13000.00000"></scales>
<clustering>
<clus scale="   80.413">  5  6 -1 -1</clus>
<clus scale="   89.997">  7  8 -1 -1</clus>
<clus scale="  180.357">  1  7  2 -1</clus>
<clus scale="  165.181">  5  9 -1 -1</clus>
<clus scale="  395.775">  2  5  1 -1</clus>
</clustering>
</event>
<event>
 9    1  0.2728138E-005  0.2084142E+03  0.7546771E-02  0.1159974E+00
         21   -1    0    0  501  502  0.00000000000E+00  0.00000000000E+00  0.21568879626E+03  0.21568879626E+03  0.00000000000E+00 0.  1.
          1   -1    0    0  502    0 -0.00000000000E+00 -0.00000000000E+00 -0.14170786807E+03  0.14170786807E+03  0.00000000000E+00 0. -1.
         23    2    1    2    0    0 -0.86482724003E+02  0.64461518717E+02  0.49626202163E+02  0.14756424345E+03  0.87623610159E+02 0.  0.
        -24    2    1    2    0    0 -0.13377512341E+02  0.40252401275E+01  0.31066005382E+02  0.88557756541E+02  0.81744841786E+02 0.  0.
         13    1    4    4    0    0  0.30778454635E+02  0.14757775189E+02  0.11504812988E+01  0.34153020445E+02  0.00000000000E+00 0. -1.
        -14    1    4    4    0    0 -0.44155966977E+02 -0.10732535062E+02  0.29915524084E+02  0.54404736096E+02  0.00000000000E+00 0.  1.
        -13    1    3    3    0    0 -0.10219248679E+02 -0.20285764843E+02  0.18734099694E+02  0.29443365809E+02  0.00000000000E+00 0. -1.
         13    1    3    3    0    0 -0.76263475324E+02  0.84747283560E+02  0.30892102469E+02  0.11812087764E+03  0.00000000000E+00 0.  1.
          2    1    1    2  501    0  0.99860236344E+02 -0.68486758845E+02 -0.67112793619E+01  0.12127466434E+03  0.00000000000E+00 0. -1.
<scales pt_clust_5="13000.00000" pt_clust_6="13000.00000" pt_clust_7="13000.00000" pt_clust_8="13000.00000" pt_clust_9="13000.00000"></scales>
<clustering>
<clus scale="   81.745">  5  6 -1 -1</clus>
<clus scale="   87.624">  7  8 -1 -1</clus>
<clus scale="  121.089">  5  9 -1 -1</clus>
<clus scale="  138.969">  2  7  1 -1</clus>
<clus scale="  208.414">  1  5  2 -1</clus>
</clustering>
</event>
<event>
 9    1  0.2728138E-005  0.1361532E+03  0.7546771E-02  0.1232195E+00
          1   -1    0    0  502    0 -0.00000000000E+00  0.00000000000E+00  0.31727806498E+02  0.31727806498E+02  0.00000000000E+00 0. -1.
         21   -1    0    0  501  502  0.00000000000E+00 -0.00000000000E+00 -0.45305175302E+03  0.45305175302E+03  0.00000000000E+00 0. -1.
         23    2    1    2    0    0 -0.72622905205E+00  0.52687986888E+02 -0.15913998618E+03  0.18935084808E+03  0.88043495486E+02 0.  0.
        -24    2    1    2    0    0 -0.27549936682E+02 -0.49065616966E+02 -0.14358963031E+03  0.17345626279E+03  0.79389290139E+02 0.  0.
         13    1    4    4    0    0 -0.49351074292E+02 -0.52217708588E+02 -0.12686922222E+03  0.14580129344E+03  0.00000000000E+00 0. -1.
        -14    1    4    4    0    0  0.21801137610E+02  0.31520916220E+01 -0.16720408092E+02  0.27654969344E+02  0.00000000000E+00 0.  1.
        -13    1    3    3    0    0 -0.44220959129E+02  0.25079038747E+02 -0.85676838067E+02  0.99624153657E+02  0.00000000000E+00 0. -1.
         13    1    3    3    0    0  0.43494730077E+02  0.27608948141E+02 -0.73463148110E+02  0.89726694424E+02  0.00000000000E+00 0.  1.
          2    1    1    2  501    0  0.28276165734E+02 -0.36223699223E+01 -0.11859433004E+03  0.12197244865E+03  0.00000000000E+00 0. -1.
<scales pt_clust_5="13000.00000" pt_clust_6="13000.00000" pt_clust_7="13000.00000" pt_clust_8="13000.00000" pt_clust_9="13000.00000"></scales>
<clustering>
<clus scale="   79.389">  5  6 -1 -1</clus>
<clus scale="   28.507">  5  9 -1 -1</clus>
<clus scale="   88.043">  7  8 -1 -1</clus>
<clus scale="  102.607">  1  7  2 -1</clus>
<clus scale="  136.153">  2  5  1 -1</clus>
</clustering>
</event>
<event>
 9    1  0.2728138E-005  0.2259820E+03  0.7546771E-02  0.1152514E+00
         -2   -1    0    0    0  501 -0.00000000000E+00  0.00000000000E+00  0.38671396139E+02  0.38671396139E+02  0.00000000000E+00 0.  1.
         21   -1    0    0  501  502  0.00000000000E+00 -0.00000000000E+00 -0.81924167198E+03  0.81924167198E+03  0.00000000000E+00 0.  1.
         23    2    1    2    0    0 -0.91268329667E+02 -0.38324163291E+02 -0.29745543157E+03  0.32455783437E+03  0.84020262966E+02 0.  0.
        -24    2    1    2    0    0  0.13904505412E+02  0.17315878028E+02 -0.42797630730E+03  0.43605791820E+03  0.80558137484E+02 0.  0.
         11    1    4    4    0    0 -0.20525809223E+02  0.19247551625E+02 -0.57868265237E+02  0.64346819729E+02  0.00000000000E+00 0. -1.
        -12    1    4    4    0    0  0.34430314634E+02 -0.19316735962E+01 -0.37010804206E+03  0.37171109847E+03  0.00000000000E+00 0.  1.
        -11    1    3    3    0    0 -0.33302358581E+02 -0.38079883431E+02 -0.52775355024E+02  0.73105148294E+02  0.00000000000E+00 0. -1.
         11    1    3    3    0    0 -0.57965971086E+02 -0.24427985972E+00 -0.24468007654E+03  0.25145268608E+03  0.00000000000E+00 0.  1.
         -1    1    1    2    0  502  0.77363824255E+02  0.21008285263E+02 -0.55138536975E+02  0.97297315548E+02  0.00000000000E+00 0.  1.
<scales pt_clust_5="13000.00000" pt_clust_6="13000.00000" pt_clust_7="13000.00000" pt_clust_8="13000.00000" pt_clust_9="13000.00000"></scales>
<clustering>
<clus scale="   80.558">  5  6 -1 -1</clus>
<clus scale="   80.166">  5  9 -1 -1</clus>
<clus scale="   84.020">  7  8 -1 -1</clus>
<clus scale="  129.839">  1  7  2 -1</clus>
<clus scale="  225.982">  2  5  1 -1</clus>
</clustering>
</event>
<event>
 9    1  0.2728138E-005  0.6492765E+03  0.7546771E-02  0.1011382E+00
         21   -1    0    0  501  502  0.00000000000E+00  0.00000000000E+00  0.78235809113E+03  0.78235809113E+03  0.00000000000E+00 0. -1.
          1   -1    0    0  502    0 -0.00000000000E+00 -0.00000000000E+00 -0.27520139838E+03  0.27520139838E+03  0.00000000000E+00 0. -1.
         23    2    1    2    0    0 -0.13418633793E+03 -0.18515217642E+03  0.27300057552E+03  0.36735007049E+03  0.90163508876E+02 0.  0.
        -24    2    1    2    0    0 -0.15208957351E+03 -0.84066507603E+02 -0.58569118629E+02  0.20018833681E+03  0.80290799390E+02 0.  0.
         13    1    4    4    0    0 -0.91225430079E+02 -0.78337693130E+02 -0.74100936709E+01  0.12047316193E+03  0.00000000000E+00 0. -1.
        -14    1    4    4    0    0 -0.60864143430E+02 -0.57288144724E+01 -0.51159024958E+02  0.79715174875E+02  0.00000000000E+00 0.  1.
        -13    1    3    3    0    0 -0.15736406865E+02 -0.96404860068E+02  0.11391988938E+03  0.15006422873E+03  0.00000000000E+00 0.  1.
         13    1    3    3    0    0 -0.11844993106E+03 -0.88747316356E+02  0.15908068614E+03  0.21728584176E+03  0.00000000000E+00 0. -1.
          2    1    1    2  501    0  0.28627591144E+03  0.26921868403E+03  0.29272523586E+03  0.49002108221E+03  0.00000000000E+00 0. -1.
<scales pt_clust_5="13000.00000" pt_clust_6="13000.00000" pt_clust_7="13000.00000" pt_clust_8="13000.00000" pt_clust_9="13000.00000"></scales>
<clustering>
<clus scale="   80.291">  5  6 -1 -1</clus>
<clus scale="   90.164">  7  8 -1 -1</clus>
<clus scale="  245.798">  2  7  1 -1</clus>
<clus scale="  296.399">  5  9 -1 -1</clus>
<clus scale="  649.276">  1  5  2 -1</clus>
</clustering>
</event>
<event>
 9    1  0.2728138E-005  0.4391177E+03  0.7546771E-02  0.1068185E+00
          1   -1    0    0  502    0 -0.00000000000E+00  0.00000000000E+00  0.11172112981E+04  0.11172112981E+04  0.00000000000E+00 0. -1.
         21   -1    0    0  501  502  0.00000000000E+00 -0.00000000000E+00 -0.78938346538E+02  0.78938346538E+02  0.00000000000E+00 0. -1.
         23    2    1    2    0    0  0.11544091023E+03  0.10831009796E+01  0.21739393803E+03  0.26520026832E+03  0.98708060265E+02 0.  0.
        -24    2    1    2    0    0  0.38347745646E+02  0.17967291233E+03  0.36028282437E+03  0.41280602115E+03  0.82777971382E+02 0.  0.
         13    1    4    4    0    0  0.23175079902E+02  0.11836385234E+03  0.14582127192E+03  0.18923775842E+03  0.00000000000E+00 0. -1.
        -14    1    4    4    0    0  0.15172665744E+02  0.61309059993E+02  0.21446155245E+03  0.22356826273E+03  0.00000000000E+00 0.  1.
        -13    1    3    3    0    0  0.69568514894E+02 -0.45474077663E+02  0.93327891756E+02  0.12497105818E+03  0.00000000000E+00 0.  1.
         13    1    3    3    0    0  0.45872395340E+02  0.46557178642E+02  0.12406604628E+03  0.14022921014E+03  0.00000000000E+00 0. -1.
          2    1    1    2  501    0 -0.15378865588E+03 -0.18075601331E+03  0.46059618913E+03  0.51814335513E+03  0.00000000000E+00 0. -1.
<scales pt_clust_5="13000.00000" pt_clust_6="13000.00000" pt_clust_7="13000.00000" pt_clust_8="13000.00000" pt_clust_9="13000.00000"></scales>
<clustering>
<clus scale="   82.778">  5  6 -1 -1</clus>
<clus scale="   98.708">  7  8 -1 -1</clus>
<clus scale="  151.892">  1  7  2 -1</clus>
<clus scale="  201.066">  5  9 -1 -1</clus>
<clus scale="  439.118">  2  5  1 -1</clus>
</clustering>
</event>
<event>
 9    1  0.2728138E-005  0.1118810E+03  0.7546771E-02  0.1265484E+00
          1   -1    0    0  502    0 -0.00000000000E+00  0.00000000000E+00  0.43353455431E+03  0.43353455431E+03  0.00000000000E+00 0. -1.
         21   -1    0    0  501  502  0.00000000000E+00 -0.00000000000E+00 -0.42121712973E+02  0.42121712973E+02  0.00000000000E+00 0.  1.
         23    2    1    2    0    0  0.33280900104E+02  0.24484014128E+01  0.33556869964E+02  0.10071860001E+03  0.88907591835E+02 0.  0.
        -24    2    1    2    0    0 -0.21771245986E+02  0.14360130456E+02  0.22555534458E+03  0.24107783487E+03  0.81013014360E+02 0.  0.
         13    1    4    4    0    0 -0.31058939606E+02 -0.62707379810E+01  0.28161609512E+02  0.42391698887E+02  0.00000000000E+00 0. -1.
        -14    1    4    4    0    0  0.92876936197E+01  0.20630868437E+02  0.19739373507E+03  0.19868613598E+03  0.00000000000E+00 0.  1.
        -13    1    3    3    0    0 -0.30582942851E+02  0.24830929888E+01  0.15356892536E+02  0.34312042967E+02  0.00000000000E+00 0. -1.
         13    1    3    3    0    0  0.63863842955E+02 -0.34691576006E-01  0.18199977428E+02  0.66406557047E+02  0.00000000000E+00 0.  1.
          2    1    1    2  501    0 -0.11509654118E+02 -0.16808531869E+02  0.13230062679E+03  0.13385983241E+03  0.00000000000E+00 0. -1.
<scales pt_clust_5="13000.00000" pt_clust_6="13000.00000" pt_clust_7="13000.00000" pt_clust_8="13000.00000" pt_clust_9="13000.00000"></scales>
<clustering>
<clus scale="   81.013">  5  6 -1 -1</clus>
<clus scale="   20.372">  5  9 -1 -1</clus>
<clus scale="   88.908">  7  8 -1 -1</clus>
<clus scale="   94.964">  1  7  2 -1</clus>
<clus scale="  111.881">  2  5  1 -1</clus>
</clustering>
</event>
<event>
 9    1  0.2728138E-005  0.3153479E+03  0.7546771E-02  0.1114694E+00
         -4   -1    0    0    0  501 -0.00000000000E+00  0.00000000000E+00  0.51357515476E+03  0.51357515476E+03  0.00000000000E+00 0.  1.
         21   -1    0    0  501  502  0.00000000000E+00 -0.00000000000E+00 -0.10857863618E+03  0.10857863618E+03  0.00000000000E+00 0. -1.
         23    2    1    2    0    0  0.77568150236E+02 -0.83913603566E+01  0.15892093776E+02  0.12130795163E+03  0.91519547778E+02 0.  0.
        -24    2    1    2    0    0  0.67207891418E+02 -0.39519729355E+02  0.30746300852E+03  0.32786926399E+03  0.82982184755E+02 0.  0.
         13    1    4    4    0    0  0.75087358331E+02 -0.73568764024E+01  0.25412386650E+03  0.26508710745E+03  0.00000000000E+00 0. -1.
        -14    1    4    4    0    0 -0.78794669124E+01 -0.32162852953E+02  0.53339142022E+02  0.62782156546E+02  0.00000000000E+00 0.  1.
        -13    1    3    3    0    0  0.30658082387E+02  0.41328187362E+02  0.12012451254E+02  0.52841613065E+02  0.00000000000E+00 0.  1.
         13    1    3    3    0    0  0.46910067849E+02 -0.49719547718E+02  0.38796425224E+01  0.68466338569E+02  0.00000000000E+00 0. -1.
         -3    1    1    2    0  502 -0.14477604165E+03  0.47911089712E+02  0.81641416285E+02  0.17297657531E+03  0.00000000000E+00 0.  1.
<scales pt_clust_5="13000.00000" pt_clust_6="13000.00000" pt_clust_7="13000.00000" pt_clust_8="13000.00000" pt_clust_9="13000.00000"></scales>
<clustering>
<clus scale="   82.982">  5  6 -1 -1</clus>
<clus scale="   91.520">  7  8 -1 -1</clus>
<clus scale="  120.263">  1  7  2 -1</clus>
<clus scale="  130.759">  5  9 -1 -1</clus>
<clus scale="  315.348">  2  5  1 -1</clus>
</clustering>
</event>
<event>
 9    1  0.2728138E-005  0.1988866E+03  0.7546771E-02  0.1183194E+00
          1   -1    0    0  502    0 -0.00000000000E+00  0.00000000000E+00  0.15893058854E+03  0.15893058854E+03  0.00000000000E+00 0. -1.
         21   -1    0    0  501  502  0.00000000000E+00 -0.00000000000E+00 -0.14656183332E+03  0.14656183332E+03  0.00000000000E+00 0. -1.
         23    2    1    2    0    0 -0.23157796210E+02  0.12005971530E+02  0.44307986375E+02  0.10405759025E+03  0.90467439194E+02 0.  0.
        -24    2    1    2    0    0  0.51517997475E+01 -0.27272075288E+02 -0.93660853450E+02  0.13535284851E+03  0.93689545837E+02 0.  0.
         13    1    4    4    0    0 -0.44201777125E+02 -0.10782974574E+02 -0.47809079806E+02  0.65998316294E+02  0.00000000000E+00 0. -1.
        -14    1    4    4    0    0  0.49353576872E+02 -0.16489100714E+02 -0.45851773644E+02  0.69354532214E+02  0.00000000000E+00 0.  1.
        -11    1    3    3    0    0 -0.45179313077E+02 -0.10853733172E+02  0.53646261408E+02  0.70971087190E+02  0.00000000000E+00 0.  1.
         11    1    3    3    0    0  0.22021516867E+02  0.22859704702E+02 -0.93382750328E+01  0.33086503060E+02  0.00000000000E+00 0. -1.
          2    1    1    2  501    0  0.18005996463E+02  0.15266103758E+02  0.61721622291E+02  0.66081983102E+02  0.00000000000E+00 0. -1.
<scales pt_clust_5="13000.00000" pt_clust_6="13000.00000" pt_clust_7="13000.00000" pt_clust_8="13000.00000" pt_clust_9="13000.00000"></scales>
<clustering>
<clus scale="   90.467">  7  8 -1 -1</clus>
<clus scale="   93.690">  5  6 -1 -1</clus>
<clus scale="   23.607">  5  9 -1 -1</clus>
<clus scale="   94.153">  1  7  2 -1</clus>
<clus scale="  198.887">  2  5  1 -1</clus>
</clustering>
</event>
<event>
 9    1  0.2728138E-005  0.4462597E+03  0.7546771E-02  0.1077917E+00
         21   -1    0    0  501  502  0.00000000000E+00  0.00000000000E+00  0.93693992869E+02  0.93693992869E+02  0.00000000000E+00 0. -1.
          1   -1    0    0  502    0 -0.00000000000E+00 -0.00000000000E+00 -0.82888119656E+03  0.82888119656E+03  0.00000000000E+00 0. -1.
         23    2    1    2    0    0  0.35493486164E+02  0.50280050304E+02 -0.15482896918E+03  0.19047998429E+03  0.92318707200E+02 0.  0.
        -24    2    1    2    0    0 -0.10377698736E+03 -0.22035463805E+03 -0.39948332468E+03  0.47460008880E+03  0.79576931166E+02 0.  0.
         11    1    4    4    0    0 -0.11421113975E+03 -0.21616988142E+03 -0.37499894467E+03  0.44765814030E+03  0.00000000000E+00 0. -1.
        -12    1    4    4    0    0  0.10434152395E+02 -0.41847566367E+01 -0.24484380012E+02  0.26941948499E+02  0.00000000000E+00 0.  1.
        -13    1    3    3    0    0  0.28226831257E+02  0.76372866553E+02 -0.97153515177E+02  0.12676109127E+03  0.00000000000E+00 0. -1.
         13    1    3    3    0    0  0.72666549066E+01 -0.26092816249E+02 -0.57675454002E+02  0.63718893020E+02  0.00000000000E+00 0.  1.
          2    1    1    2  501    0  0.68283501193E+02  0.17007458775E+03 -0.18087490983E+03  0.25749511634E+03  0.00000000000E+00 0. -1.
<scales pt_clust_5="13000.00000" pt_clust_6="13000.00000" pt_clust_7="13000.00000" pt_clust_8="13000.00000" pt_clust_9="13000.00000"></scales>
<clustering>
<clus scale="   79.577">  5  6 -1 -1</clus>
<clus scale="   92.319">  7  8 -1 -1</clus>
<clus scale="  110.953">  2  7  1 -1</clus>
<clus scale="  203.328">  5  9 -1 -1</clus>
<clus scale="  446.260">  1  5  2 -1</clus>
</clustering>
</event>
<event>
 9    1  0.2728138E-005  0.2708758E+03  0.7546771E-02  0.1133217E+00
          3   -1    0    0  502    0 -0.00000000000E+00  0.00000000000E+00  0.16954740827E+03  0.16954740827E+03  0.00000000000E+00 0. -1.
         21   -1    0    0  501  502  0.00000000000E+00 -0.00000000000E+00 -0.22536547600E+03  0.22536547600E+03  0.00000000000E+00 0. -1.
         23    2    1    2    0    0 -0.69595471275E+01  0.63343554676E+02 -0.10286440480E+02  0.12023706995E+03  0.10144112044E+03 0.  0.
        -24    2    1    2    0    0  0.70098174290E+02  0.17377342696E+02 -0.10964841689E+03  0.15379028076E+03  0.80080890683E+02 0.  0.
         11    1    4    4    0    0  0.27223979167E+02  0.91393796900E+01 -0.10617935226E+03  0.10999421871E+03  0.00000000000E+00 0. -1.
        -12    1    4    4    0    0  0.42874195123E+02  0.82379630064E+01 -0.34690646276E+01  0.43796062053E+02  0.00000000000E+00 0.  1.
        -11    1    3    3    0    0 -0.36688007159E+02  0.77653116329E+02 -0.14066761080E+02  0.87028099555E+02  0.00000000000E+00 0. -1.
         11    1    3    3    0    0  0.29728460032E+02 -0.14309561653E+02  0.37803206001E+01  0.33208970390E+02  0.00000000000E+00 0.  1.
          4    1    1    2  501    0 -0.63138627162E+02 -0.80720897372E+02  0.64116789633E+02  0.12088553357E+03  0.00000000000E+00 0. -1.
<scales pt_clust_5="13000.00000" pt_clust_6="13000.00000" pt_clust_7="13000.00000" pt_clust_8="13000.00000" pt_clust_9="13000.00000"></scales>
<clustering>
<clus scale="   80.081">  5  6 -1 -1</clus>
<clus scale="  101.441">  7  8 -1 -1</clus>
<clus scale="  102.481">  5  9 -1 -1</clus>
<clus scale="  119.796">  1  7  2 -1</clus>
<clus scale="  270.876">  2  5  1 -1</clus>
</clustering>
</event>
<event>
 9    1  0.2728138E-005  0.6668920E+03  0.7546771E-02  0.1021405E+00
          1   -1    0    0  502    0 -0.00000000000E+00  0.00000000000E+00  0.25212125780E+03  0.25212125780E+03  0.00000000000E+00 0. -1.
         21   -1    0    0  501  502  0.00000000000E+00 -0.00000000000E+00 -0.71473938254E+03  0.71473938254E+03  0.00000000000E+00 0. -1.
         23    2    1    2    0    0 -0.13866755339E+03 -0.30387583342E+02 -0.24385565773E+02  0.16886768212E+03  0.88145009288E+02 0.  0.
        -24    2    1    2    0    0 -0.19052319859E+03 -0.10630525103E+03  0.19839099647E+01  0.23156377318E+03  0.77575444251E+02 0.  0.
         11    1    4    4    0    0 -0.11512292158E+03 -0.20205618477E+02 -0.40957513425E+01  0.11695438970E+03  0.00000000000E+00 0. -1.
        -12    1    4    4    0    0 -0.75400277015E+02 -0.86099632555E+02  0.60796613071E+01  0.11460938348E+03  0.00000000000E+00 0.  1.
        -11    1    3    3    0    0 -0.72129951115E+02  0.22626409797E+02 -0.34682600549E+02  0.83171912621E+02  0.00000000000E+00 0.  1.
         11    1    3    3    0    0 -0.66537602273E+02 -0.53013993139E+02  0.10297034776E+02  0.85695769499E+02  0.00000000000E+00 0. -1.
          2    1    1    2  501    0  0.32919075198E+03  0.13669283437E+03 -0.44021646892E+03  0.56642918504E+03  0.00000000000E+00 0. -1.
<scales pt_clust_5="13000.00000" pt_clust_6="13000.00000" pt_clust_7="13000.00000" pt_clust_8="13000.00000" pt_clust_9="13000.00000"></scales>
<clustering>
<clus scale="   77.575">  5  6 -1 -1</clus>
<clus scale="   88.145">  7  8 -1 -1</clus>
<clus scale="  167.098">  1  7  2 -1</clus>
<clus scale="  307.552">  5  9 -1 -1</clus>
<clus scale="  666.892">  2  5  1 -1</clus>
</clustering>
</event>
<event>
 9    1  0.2759683E-005  0.3993296E+03  0.7546771E-02  0.1083982E+00
         -4   -1    0    0    0  501 -0.00000000000E+00  0.00000000000E+00  0.56361659557E+03  0.56361659557E+03  0.00000000000E+00 0.  1.
         21   -1    0    0  501  502  0.00000000000E+00 -0.00000000000E+00 -0.18693390454E+03  0.18693390454E+03  0.00000000000E+00 0.  1.
         23    2    1    2    0    0 -0.93577152058E+02 -0.83927646981E+01  0.32156929372E+03  0.34743565033E+03  0.92073875615E+02 0.  0.
        -24    2    1    2    0    0 -0.40458717570E+02  0.14752105585E+03  0.10675200329E+03  0.20314274830E+03  0.80446356242E+02 0.  0.
         11    1    4    4    0    0  0.66608228052E+01  0.21855318654E+02  0.54544819707E+02  0.59136781031E+02  0.00000000000E+00 0. -1.
        -12    1    4    4    0    0 -0.47119540375E+02  0.12566573720E+03  0.52207183580E+02  0.14400596726E+03  0.00000000000E+00 0.  1.
        -11    1    3    3    0    0  0.15357523766E+01  0.21605415131E+02  0.12659809651E+03  0.12843765234E+03  0.00000000000E+00 0. -1.
         11    1    3    3    0    0 -0.95112904434E+02 -0.29998179829E+02  0.19497119721E+03  0.21899799799E+03  0.00000000000E+00 0.  1.
         -3    1    1    2    0  502  0.13403586963E+03 -0.13912829115E+03 -0.51638605970E+02  0.19997210149E+03  0.00000000000E+00 0.  1.
<scales pt_clust_5="13000.00000" pt_clust_6="13000.00000" pt_clust_7="13000.00000" pt_clust_8="13000.00000" pt_clust_9="13000.00000"></scales>
<clustering>
<clus scale="   80.446">  5  6 -1 -1</clus>
<clus scale="   92.074">  7  8 -1 -1</clus>
<clus scale="  131.547">  1  7  2 -1</clus>
<clus scale="  175.735">  5  9 -1 -1</clus>
<clus scale="  399.330">  2  5  1 -1</clus>
</clustering>
</event>
<event>
 9    1  0.2728138E-005  0.1877712E+03  0.7546771E-02  0.1164046E+00
          1   -1    0    0  502    0 -0.00000000000E+00  0.00000000000E+00  0.75118567745E+02  0.75118567745E+02  0.00000000000E+00 0. -1.
         21   -1    0    0  501  502  0.00000000000E+00 -0.00000000000E+00 -0.60941889613E+03  0.60941889613E+03  0.00000000000E+00 0. -1.
         23    2    1    2    0    0 -0.10198267585E+03  0.10699190342E+03 -0.75239239675E+02  0.18855851014E+03  0.89697463657E+02 0.  0.
        -24    2    1    2    0    0  0.52156930439E+02 -0.56760518477E+02 -0.34152974158E+03  0.35879508261E+03  0.78417122311E+02 0.  0.
         11    1    4    4    0    0  0.43849120129E+02 -0.48078023277E+02 -0.34058024739E+03  0.34674074836E+03  0.00000000000E+00 0. -1.
        -12    1    4    4    0    0  0.83078103100E+01 -0.86824952006E+01 -0.94949418724E+00  0.12054334252E+02  0.00000000000E+00 0.  1.
        -13    1    3    3    0    0 -0.29232144950E+01  0.63394827996E+02 -0.38683895882E+02  0.74322898223E+02  0.00000000000E+00 0.  1.
         13    1    3    3    0    0 -0.99059461353E+02  0.43597075428E+02 -0.36555343793E+02  0.11423561191E+03  0.00000000000E+00 0. -1.
          2    1    1    2  501    0  0.49825745409E+02 -0.50231384947E+02 -0.11753134713E+03  0.13718387113E+03  0.00000000000E+00 0. -1.
<scales pt_clust_5="13000.00000" pt_clust_6="13000.00000" pt_clust_7="13000.00000" pt_clust_8="13000.00000" pt_clust_9="13000.00000"></scales>
<clustering>
<clus scale="   78.417">  5  6 -1 -1</clus>
<clus scale="   70.752">  5  9 -1 -1</clus>
<clus scale="   89.697">  7  8 -1 -1</clus>
<clus scale="  172.897">  1  7  2 -1</clus>
<clus scale="  187.771">  2  5  1 -1</clus>
</clustering>
</event>
<event>
 9    1  0.2728138E-005  0.2245661E+03  0.7546771E-02  0.1167645E+00
         21   -1    0    0  501  502  0.00000000000E+00  0.00000000000E+00  0.11400113787E+03  0.11400113787E+03  0.00000000000E+00 0. -1.
          1   -1    0    0  502    0 -0.00000000000E+00 -0.00000000000E+00 -0.23791890384E+03  0.23791890384E+03  0.00000000000E+00 0. -1.
         23    2    1    2    0    0  0.68208236474E+01 -0.25232301824E+02 -0.80865430619E+02  0.12326430829E+03  0.89284260309E+02 0.  0.
        -24    2    1    2    0    0 -0.24058336830E+02  0.69048652555E+02  0.52900364603E+02  0.12177297016E+03  0.81753823733E+02 0.  0.
         11    1    4    4    0    0 -0.47480263525E+02  0.70427724230E+02  0.48788694375E+02  0.97952929836E+02  0.00000000000E+00 0. -1.
        -12    1    4    4    0    0  0.23421926695E+02 -0.13790716754E+01  0.41116702280E+01  0.23820040320E+02  0.00000000000E+00 0.  1.
        -13    1    3    3    0    0 -0.21524849140E+02  0.25054113297E+02 -0.16900361182E+02  0.37103233440E+02  0.00000000000E+00 0. -1.
         13    1    3    3    0    0  0.28345672787E+02 -0.50286415121E+02 -0.63965069437E+02  0.86161074852E+02  0.00000000000E+00 0.  1.
          2    1    1    2  501    0  0.17237513183E+02 -0.43816350731E+02 -0.95952699954E+02  0.10688276325E+03  0.00000000000E+00 0. -1.
<scales pt_clust_5="13000.00000" pt_clust_6="13000.00000" pt_clust_7="13000.00000" pt_clust_8="13000.00000" pt_clust_9="13000.00000"></scales>
<clustering>
<clus scale="   81.754">  5  6 -1 -1</clus>
<clus scale="   47.085">  5  9 -1 -1</clus>
<clus scale="   89.284">  7  8 -1 -1</clus>
<clus scale="   93.032">  2  7  1 -1</clus>
<clus scale="  224.566">  1  5  2 -1</clus>
</clustering>
</event>
<event>
 9    1  0.2728138E-005  0.2371725E+03  0.7546771E-02  0.1154029E+00
         21   -1    0    0  501  502  0.00000000000E+00  0.00000000000E+00  0.73427387441E+02  0.73427387441E+02  0.00000000000E+00 0.  1.
          1   -1    0    0  502    0 -0.00000000000E+00 -0.00000000000E+00 -0.10927422493E+04  0.10927422493E+04  0.00000000000E+00 0. -1.
         23    2    1    2    0    0  0.29276382541E+02 -0.16369973979E+02  0.10978672042E+02  0.10893003419E+03  0.10305405613E+03 0.  0.
        -24    2    1    2    0    0 -0.47458081232E+02  0.10829517454E+03 -0.55651237885E+03  0.57428059855E+03  0.78179688894E+02 0.  0.
         11    1    4    4    0    0 -0.65030229037E+02  0.10180387110E+03 -0.44042579227E+03  0.45669227863E+03  0.00000000000E+00 0. -1.
        -12    1    4    4    0    0  0.17572147805E+02  0.64913034371E+01 -0.11608658659E+03  0.11758831993E+03  0.00000000000E+00 0.  1.
        -11    1    3    3    0    0  0.57182165622E+02  0.14146562193E+02  0.26720346446E+02  0.64683090537E+02  0.00000000000E+00 0.  1.
         11    1    3    3    0    0 -0.27905783081E+02 -0.30516536172E+02 -0.15741674404E+02  0.44246943650E+02  0.00000000000E+00 0. -1.
          2    1    1    2  501    0  0.18181698691E+02 -0.91925200563E+02 -0.47378115504E+03  0.48295900399E+03  0.00000000000E+00 0. -1.
<scales pt_clust_5="13000.00000" pt_clust_6="13000.00000" pt_clust_7="13000.00000" pt_clust_8="13000.00000" pt_clust_9="13000.00000"></scales>
<clustering>
<clus scale="   78.180">  5  6 -1 -1</clus>
<clus scale="   93.706">  5  9 -1 -1</clus>
<clus scale="  103.054">  7  8 -1 -1</clus>
<clus scale="  108.375">  2  7  1 -1</clus>
<clus scale="  237.173">  1  5  2 -1</clus>
</clustering>
</event>
<event>
 9    1  0.2728138E-005  0.2584080E+03  0.7546771E-02  0.1131466E+00
         21   -1    0    0  501  502  0.00000000000E+00  0.00000000000E+00  0.35609069937E+02  0.35609069937E+02  0.00000000000E+00 0. -1.
          1   -1    0    0  502    0 -0.00000000000E+00 -0.00000000000E+00 -0.11371264922E+04  0.11371264922E+04  0.00000000000E+00 0. -1.
         23    2    1    2    0    0 -0.11255039503E+03 -0.25968178549E+02 -0.40009608146E+03  0.42522865388E+03  0.86026716560E+02 0.  0.
        -24    2    1    2    0    0 -0.22083408417E+02 -0.43051303997E+02 -0.40027291951E+03  0.41049011098E+03  0.77088451881E+02 0.  0.
         13    1    4    4    0    0 -0.39053711321E+02  0.20055118327E+01 -0.12295852615E+03  0.12902718163E+03  0.00000000000E+00 0. -1.
        -14    1    4    4    0    0  0.16970302905E+02 -0.45056815830E+02 -0.27731439336E+03  0.28146292935E+03  0.00000000000E+00 0.  1.
        -13    1    3    3    0    0 -0.32688547273E+01  0.21167403625E+02 -0.33171144397E+02  0.39485050438E+02  0.00000000000E+00 0.  1.
         13    1    3    3    0    0 -0.10928154030E+03 -0.47135582174E+02 -0.36692493706E+03  0.38574360344E+03  0.00000000000E+00 0. -1.
          2    1    1    2  501    0  0.13463380345E+03  0.69019482546E+02 -0.30114842127E+03  0.33701679726E+03  0.00000000000E+00 0. -1.
<scales pt_clust_5="13000.00000" pt_clust_6="13000.00000" pt_clust_7="13000.00000" pt_clust_8="13000.00000" pt_clust_9="13000.00000"></scales>
<clustering>
<clus scale="   77.088">  5  6 -1 -1</clus>
<clus scale="   86.027">  7  8 -1 -1</clus>
<clus scale="  144.023">  2  7  1 -1</clus>
<clus scale="  102.719">  5  9 -1 -1</clus>
<clus scale="  258.408">  1  5  2 -1</clus>
</clustering>
</event>
<event>
 9    1  0.2728138E-005  0.3175046E+03  0.7546771E-02  0.1114992E+00
          1   -1    0    0  502    0 -0.00000000000E+00  0.00000000000E+00  0.27278509569E+03  0.27278509569E+03  0.00000000000E+00 0. -1.
         21   -1    0    0  501  502  0.00000000000E+00 -0.00000000000E+00 -0.20622690256E+03  0.20622690256E+03  0.00000000000E+00 0. -1.
         23    2    1    2    0    0  0.69381108057E+02  0.26476958074E+02  0.10753765296E+03  0.15887371867E+03  0.90342372212E+02 0.  0.
        -24    2    1    2    0    0  0.41819505392E+02  0.49963123279E+02  0.84622128620E+02  0.13578963845E+03  0.83861412695E+02 0.  0.
         11    1    4    4    0    0  0.63714950339E+02  0.39932056580E+02  0.40216241975E+02  0.85273150276E+02  0.00000000000E+00 0. -1.
        -12    1    4    4    0    0 -0.21895444948E+02  0.10031066698E+02  0.44405886646E+02  0.50516488174E+02  0.00000000000E+00 0.  1.
        -11    1    3    3    0    0  0.20135701747E+02  0.46094746280E+02  0.15452228620E+02  0.52620751503E+02  0.00000000000E+00 0.  1.
         11    1    3    3    0    0  0.49245406310E+02 -0.19617788206E+02  0.92085424335E+02  0.10625296717E+03  0.00000000000E+00 0. -1.
          2    1    1    2  501    0 -0.11120061345E+03 -0.76440081352E+02 -0.12560158844E+03  0.18434864113E+03  0.00000000000E+00 0. -1.
<scales pt_clust_5="13000.00000" pt_clust_6="13000.00000" pt_clust_7="13000.00000" pt_clust_8="13000.00000" pt_clust_9="13000.00000"></scales>
<clustering>
<clus scale="   83.861">  5  6 -1 -1</clus>
<clus scale="   90.342">  7  8 -1 -1</clus>
<clus scale="  116.947">  1  7  2 -1</clus>
<clus scale="  119.808">  5  9 -1 -1</clus>
<clus scale="  317.505">  2  5  1 -1</clus>
</clustering>
</event>
<event>
 9    1  0.2728138E-005  0.4542881E+03  0.7546771E-02  0.1069402E+00
         21   -1    0    0  501  502  0.00000000000E+00  0.00000000000E+00  0.75339750253E+02  0.75339750253E+02  0.00000000000E+00 0. -1.
          1   -1    0    0  502    0 -0.00000000000E+00 -0.00000000000E+00 -0.12913713405E+04  0.12913713405E+04  0.00000000000E+00 0. -1.
         23    2    1    2    0    0 -0.80787118253E+01 -0.93783320171E+02 -0.51143271098E+03  0.52835717033E+03  0.93473551605E+02 0.  0.
        -24    2    1    2    0    0 -0.13830094272E+03  0.20629442010E+02 -0.64371468989E+03  0.66375329712E+03  0.81529827796E+02 0.  0.
         11    1    4    4    0    0 -0.56664924921E+02  0.49499064967E+02 -0.29259114187E+03  0.30211032331E+03  0.00000000000E+00 0. -1.
        -12    1    4    4    0    0 -0.81636017796E+02 -0.28869622957E+02 -0.35112354802E+03  0.36164297381E+03  0.00000000000E+00 0.  1.
        -13    1    3    3    0    0  0.37691963754E+02 -0.40532982034E+02 -0.14391915859E+03  0.15419575536E+03  0.00000000000E+00 0.  1.
         13    1    3    3    0    0 -0.45770675579E+02 -0.53250338137E+02 -0.36751355240E+03  0.37416141497E+03  0.00000000000E+00 0. -1.
          2    1    1    2  501    0  0.14637965454E+03  0.73153878161E+02 -0.60884189425E+02  0.17460062335E+03  0.00000000000E+00 0. -1.
<scales pt_clust_5="13000.00000" pt_clust_6="13000.00000" pt_clust_7="13000.00000" pt_clust_8="13000.00000" pt_clust_9="13000.00000"></scales>
<clustering>
<clus scale="   81.530">  5  6 -1 -1</clus>
<clus scale="   93.474">  7  8 -1 -1</clus>
<clus scale="  132.657">  2  7  1 -1</clus>
<clus scale="  156.620">  5  9 -1 -1</clus>
<clus scale="  454.288">  1  5  2 -1</clus>
</clustering>
</event>
<event>
 9    1  0.2728138E-005  0.1377425E+03  0.7546771E-02  0.1227848E+00
          3   -1    0    0  502    0 -0.00000000000E+00  0.00000000000E+00  0.41659519140E+02  0.41659519140E+02  0.00000000000E+00 0. -1.
         21   -1    0    0  501  502  0.00000000000E+00 -0.00000000000E+00 -0.36695439943E+03  0.36695439943E+03  0.00000000000E+00 0.  1.
         23    2    1    2    0    0 -0.50659208538E+02 -0.27988559264E+02 -0.12399618268E+03  0.16469968998E+03  0.91658167676E+02 0.  0.
        -24    2    1    2    0    0 -0.10441670087E+01  0.21328683692E+02 -0.14056863840E+03  0.16387840488E+03  0.81489793534E+02 0.  0.
         11    1    4    4    0    0 -0.30275418359E+02  0.33756915473E+02 -0.48089311702E+02  0.66096234378E+02  0.00000000000E+00 0. -1.
        -12    1    4    4    0    0  0.29231251350E+02 -0.12428231781E+02 -0.92479326698E+02  0.97782170497E+02  0.00000000000E+00 0.  1.
        -11    1    3    3    0    0 -0.10123327021E+01  0.30053023266E+02 -0.50061736829E+02  0.58398514701E+02  0.00000000000E+00 0. -1.
         11    1    3    3    0    0 -0.49646875836E+02 -0.58041582531E+02 -0.73934445854E+02  0.10630117528E+03  0.00000000000E+00 0.  1.
          4    1    1    2  501    0  0.51703375547E+02  0.66598755727E+01 -0.60730059205E+02  0.80035823708E+02  0.00000000000E+00 0. -1.
<scales pt_clust_5="13000.00000" pt_clust_6="13000.00000" pt_clust_7="13000.00000" pt_clust_8="13000.00000" pt_clust_9="13000.00000"></scales>
<clustering>
<clus scale="   81.490">  5  6 -1 -1</clus>
<clus scale="   52.131">  5  9 -1 -1</clus>
<clus scale="   91.658">  7  8 -1 -1</clus>
<clus scale="  108.402">  1  7  2 -1</clus>
<clus scale="  137.742">  2  5  1 -1</clus>
</clustering>
</event>
<event>
 9    1  0.2728138E-005  0.1945823E+03  0.7546771E-02  0.1172387E+00
         21   -1    0    0  501  502  0.00000000000E+00  0.00000000000E+00  0.34623587734E+02  0.34623587734E+02  0.00000000000E+00 0. -1.
          1   -1    0    0  502    0 -0.00000000000E+00 -0.00000000000E+00 -0.86043250990E+03  0.86043250990E+03  0.00000000000E+00 0. -1.
         23    2    1    2    0    0  0.77876224272E+02 -0.47310241351E+02 -0.49409520685E+03  0.51048328669E+03  0.90333533731E+02 0.  0.
        -24    2    1    2    0    0 -0.28727728681E+02  0.71706472971E+02 -0.30287413257E+03  0.32258513257E+03  0.79757926998E+02 0.  0.
         13    1    4    4    0    0 -0.19394560972E+02  0.87198775905E+02 -0.21411797488E+03  0.23200491952E+03  0.00000000000E+00 0. -1.
        -14    1    4    4    0    0 -0.93331677092E+01 -0.15492302934E+02 -0.88756157689E+02  0.90580213057E+02  0.00000000000E+00 0.  1.
        -13    1    3    3    0    0  0.60625744919E+02  0.15789274462E+02 -0.22595096201E+03  0.23447519990E+03  0.00000000000E+00 0.  1.
         13    1    3    3    0    0  0.17250479353E+02 -0.63099515813E+02 -0.26814424484E+03  0.27600808679E+03  0.00000000000E+00 0. -1.
          2    1    1    2  501    0 -0.49148495591E+02 -0.24396231620E+02 -0.28839582746E+02  0.61987678365E+02  0.00000000000E+00 0. -1.
<scales pt_clust_5="13000.00000" pt_clust_6="13000.00000" pt_clust_7="13000.00000" pt_clust_8="13000.00000" pt_clust_9="13000.00000"></scales>
<clustering>
<clus scale="   79.758">  5  6 -1 -1</clus>
<clus scale="   54.870">  5  9 -1 -1</clus>
<clus scale="   90.334">  7  8 -1 -1</clus>
<clus scale="  128.309">  2  7  1 -1</clus>
<clus scale="  194.582">  1  5  2 -1</clus>
</clustering>
</event>
<event>
 9    1  0.2728138E-005  0.3033356E+03  0.7546771E-02  0.1093519E+00
         21   -1    0    0  501  502  0.00000000000E+00  0.00000000000E+00  0.70420675783E+02  0.70420675783E+02  0.00000000000E+00 0.  1.
         -2   -1    0    0    0  501 -0.00000000000E+00 -0.00000000000E+00 -0.10244058863E+04  0.10244058863E+04  0.00000000000E+00 0.  1.
         23    2    1    2    0    0 -0.21310196911E+03  0.22378022244E+02 -0.44300732450E+03  0.50059522710E+03  0.91797966888E+02 0.  0.
        -24    2    1    2    0    0  0.21252933571E+01 -0.33101984499E+02 -0.17943433895E+03  0.20110631075E+03  0.84538795694E+02 0.  0.
         11    1    4    4    0    0  0.76040795091E+01  0.23643472300E+02 -0.10181490622E+03  0.10480033844E+03  0.00000000000E+00 0. -1.
        -12    1    4    4    0    0 -0.54787861519E+01 -0.56745456799E+02 -0.77619432728E+02  0.96305972307E+02  0.00000000000E+00 0.  1.
        -11    1    3    3    0    0 -0.10088225380E+03  0.14210339331E+02 -0.11404618921E+03  0.15292382466E+03  0.00000000000E+00 0.  1.
         11    1    3    3    0    0 -0.11221971531E+03  0.81676829138E+01 -0.32896113529E+03  0.34767140245E+03  0.00000000000E+00 0. -1.
         -1    1    1    2    0  502  0.21097667575E+03  0.10723962255E+02 -0.33154354710E+03  0.39312502426E+03  0.00000000000E+00 0.  1.
<scales pt_clust_5="13000.00000" pt_clust_6="13000.00000" pt_clust_7="13000.00000" pt_clust_8="13000.00000" pt_clust_9="13000.00000"></scales>
<clustering>
<clus scale="   84.539">  5  6 -1 -1</clus>
<clus scale="   91.798">  7  8 -1 -1</clus>
<clus scale="  211.249">  5  9 -1 -1</clus>
<clus scale="  233.110">  2  7  1 -1</clus>
<clus scale="  303.336">  1  5  2 -1</clus>
</clustering>
</event>
<event>
 9    1  0.2728138E-005  0.2077682E+03  0.7546771E-02  0.1166128E+00
         21   -1    0    0  501  502  0.00000000000E+00  0.00000000000E+00  0.53951363223E+03  0.53951363223E+03  0.00000000000E+00 0. -1.
          3   -1    0    0  502    0 -0.00000000000E+00 -0.00000000000E+00 -0.96097720939E+02  0.96097720939E+02  0.00000000000E+00 0. -1.
         23    2    1    2    0    0  0.69505246630E+02 -0.47668223867E+02 -0.24100800714E+02  0.12400651206E+03  0.87712755983E+02 0.  0.
        -24    2    1    2    0    0  0.35006921489E+02  0.53948641855E+01  0.16465024858E+03  0.18843627072E+03  0.84521799863E+02 0.  0.
         13    1    4    4    0    0  0.88427311684E+01 -0.24735350933E+02  0.13793592345E+03  0.14041492249E+03  0.00000000000E+00 0. -1.
        -14    1    4    4    0    0  0.26164190320E+02  0.30130215118E+02  0.26714325132E+02  0.48021348226E+02  0.00000000000E+00 0.  1.
        -13    1    3    3    0    0  0.36573526726E+02 -0.45012481700E+02 -0.54149618826E+02  0.79346881382E+02  0.00000000000E+00 0. -1.
         13    1    3    3    0    0  0.32931719903E+02 -0.26557421665E+01  0.30048818112E+02  0.44659630676E+02  0.00000000000E+00 0.  1.
          4    1    1    2  501    0 -0.10451216812E+03  0.42273359681E+02  0.30286646342E+03  0.32316857039E+03  0.00000000000E+00 0. -1.
<scales pt_clust_5="13000.00000" pt_clust_6="13000.00000" pt_clust_7="13000.00000" pt_clust_8="13000.00000" pt_clust_9="13000.00000"></scales>
<clustering>
<clus scale="   84.522">  5  6 -1 -1</clus>
<clus scale="   87.713">  7  8 -1 -1</clus>
<clus scale="  112.738">  5  9 -1 -1</clus>
<clus scale="  121.642">  2  7  1 -1</clus>
<clus scale="  207.768">  1  5  2 -1</clus>
</clustering>
</event>
<event>
 9    1  0.2728138E-005  0.1864719E+03  0.7546771E-02  0.1182980E+00
         21   -1    0    0  501  502  0.00000000000E+00  0.00000000000E+00  0.20226159676E+03  0.20226159676E+03  0.00000000000E+00 0. -1.
          1   -1    0    0  502    0 -0.00000000000E+00 -0.00000000000E+00 -0.18677292316E+03  0.18677292316E+03  0.00000000000E+00 0. -1.
         23    2    1    2    0    0 -0.48471573907E+02  0.52207043237E+02 -0.11418380112E+03  0.16190743975E+03  0.90005609637E+02 0.  0.
        -24    2    1    2    0    0  0.40748411923E+02  0.26638458873E+02  0.11049550372E+03  0.14561624254E+03  0.81392832506E+02 0.  0.
         11    1    4    4    0    0  0.43284743235E+02  0.26621092987E+02  0.12288102774E+03  0.13297367622E+03  0.00000000000E+00 0. -1.
        -12    1    4    4    0    0 -0.25363313120E+01  0.17365885620E-01 -0.12385524015E+02  0.12642566323E+02  0.00000000000E+00 0.  1.
        -13    1    3    3    0    0  0.79891714530E+01 -0.18926961354E+02 -0.76623399757E+01  0.21926426533E+02  0.00000000000E+00 0.  1.
         13    1    3    3    0    0 -0.56460745360E+02  0.71134004590E+02 -0.10652146115E+03  0.13998101322E+03  0.00000000000E+00 0. -1.
          2    1    1    2  501    0  0.77231619842E+01 -0.78845502109E+02  0.19176970998E+02  0.81510837626E+02  0.00000000000E+00 0. -1.
<scales pt_clust_5="13000.00000" pt_clust_6="13000.00000" pt_clust_7="13000.00000" pt_clust_8="13000.00000" pt_clust_9="13000.00000"></scales>
<clustering>
<clus scale="   81.393">  5  6 -1 -1</clus>
<clus scale="   79.223">  5  9 -1 -1</clus>
<clus scale="   90.006">  7  8 -1 -1</clus>
<clus scale="  114.787">  2  7  1 -1</clus>
<clus scale="  186.472">  1  5  2 -1</clus>
</clustering>
</event>
<event>
 9    1  0.2728138E-005  0.3942125E+03  0.7546771E-02  0.1053805E+00
         21   -1    0    0  501  502  0.00000000000E+00  0.00000000000E+00  0.13707760792E+03  0.13707760792E+03  0.00000000000E+00 0. -1.
          1   -1    0    0  502    0 -0.00000000000E+00 -0.00000000000E+00 -0.98381739972E+03  0.98381739972E+03  0.00000000000E+00 0. -1.
         23    2    1    2    0    0 -0.23735872471E+03 -0.18437611944E+03 -0.52705065349E+03  0.61334736426E+03  0.89882591686E+02 0.  0.
        -24    2    1    2    0    0  0.91677098429E+02  0.65845852503E+02 -0.21592842348E+01  0.13863333267E+03  0.80462238045E+02 0.  0.
         13    1    4    4    0    0 -0.51820304691E+01  0.36820065632E+02  0.35864177257E+01  0.37355495781E+02  0.00000000000E+00 0. -1.
        -14    1    4    4    0    0  0.96859128899E+02  0.29025786871E+02 -0.57457019605E+01  0.10127783689E+03  0.00000000000E+00 0.  1.
        -13    1    3    3    0    0 -0.36744175374E+02 -0.67827208890E+02 -0.18059735634E+03  0.19638245799E+03  0.00000000000E+00 0.  1.
         13    1    3    3    0    0 -0.20061454934E+03 -0.11654891055E+03 -0.34645329715E+03  0.41696490627E+03  0.00000000000E+00 0. -1.
          2    1    1    2  501    0  0.14568162628E+03  0.11853026694E+03 -0.31752985407E+03  0.36891431071E+03  0.00000000000E+00 0. -1.
<scales pt_clust_5="13000.00000" pt_clust_6="13000.00000" pt_clust_7="13000.00000" pt_clust_8="13000.00000" pt_clust_9="13000.00000"></scales>
<clustering>
<clus scale="   80.462">  5  6 -1 -1</clus>
<clus scale="   89.883">  7  8 -1 -1</clus>
<clus scale="  187.810">  5  9 -1 -1</clus>
<clus scale="  313.708">  2  7  1 -1</clus>
<clus scale="  394.212">  1  5  2 -1</clus>
</clustering>
</event>
<event>
 9    1  0.2728138E-005  0.4341185E+03  0.7546771E-02  0.1060581E+00
         21   -1    0    0  501  502  0.00000000000E+00  0.00000000000E+00  0.39171665368E+03  0.39171665368E+03  0.00000000000E+00 0. -1.
         -2   -1    0    0    0  501 -0.00000000000E+00 -0.00000000000E+00 -0.27201334494E+03  0.27201334494E+03  0.00000000000E+00 0.  1.
         23    2    1    2    0    0  0.11256601364E+02  0.16758888211E+03  0.12259656664E+03  0.22960189987E+03  0.97336374452E+02 0.  0.
        -24    2    1    2    0    0 -0.13016678070E+03  0.45431798357E+02 -0.60191721699E+02  0.18352770966E+03  0.10512819676E+03 0.  0.
         11    1    4    4    0    0 -0.23044384656E+02  0.46457666924E+02  0.13395333148E+02  0.53561118643E+02  0.00000000000E+00 0. -1.
        -12    1    4    4    0    0 -0.10712239604E+03 -0.10258685666E+01 -0.73587054847E+02  0.12996659102E+03  0.00000000000E+00 0.  1.
        -13    1    3    3    0    0 -0.20792566119E+02  0.89525444609E+02  0.11148771299E+03  0.14448752952E+03  0.00000000000E+00 0. -1.
         13    1    3    3    0    0  0.32049167483E+02  0.78063437504E+02  0.11108853647E+02  0.85114370353E+02  0.00000000000E+00 0.  1.
         -1    1    1    2    0  502  0.11891017933E+03 -0.21302068047E+03  0.57298463802E+02  0.25060038909E+03  0.00000000000E+00 0.  1.
<scales pt_clust_5="13000.00000" pt_clust_6="13000.00000" pt_clust_7="13000.00000" pt_clust_8="13000.00000" pt_clust_9="13000.00000"></scales>
<clustering>
<clus scale="   97.336">  7  8 -1 -1</clus>
<clus scale="  105.128">  5  6 -1 -1</clus>
<clus scale="  194.132">  2  7  1 -1</clus>
<clus scale="  186.118">  5  9 -1 -1</clus>
<clus scale="  434.118">  1  5  2 -1</clus>
</clustering>
</event>
<event>
 9    1  0.2728138E-005  0.3221222E+03  0.7546771E-02  0.1113233E+00
         21   -1    0    0  501  502  0.00000000000E+00  0.00000000000E+00  0.40830054886E+03  0.40830054886E+03  0.00000000000E+00 0. -1.
          1   -1    0    0  502    0 -0.00000000000E+00 -0.00000000000E+00 -0.13203525504E+03  0.13203525504E+03  0.00000000000E+00 0. -1.
         23    2    1    2    0    0 -0.49167361917E+02  0.55363947043E+02  0.15916340138E+03  0.19758870221E+03  0.90695704361E+02 0.  0.
        -24    2    1    2    0    0 -0.74551442602E+02  0.81597642796E+02  0.40501229715E+02  0.14291596995E+03  0.81046480208E+02 0.  0.
         11    1    4    4    0    0 -0.43017750404E+02  0.93321698232E+02  0.24387966755E+02  0.10561363138E+03  0.00000000000E+00 0. -1.
        -12    1    4    4    0    0 -0.31533692198E+02 -0.11724055436E+02  0.16113262960E+02  0.37302338570E+02  0.00000000000E+00 0.  1.
        -11    1    3    3    0    0 -0.45788965483E+02  0.79403054781E+02  0.13621826233E+03  0.16418553365E+03  0.00000000000E+00 0. -1.
         11    1    3    3    0    0 -0.33783964343E+01 -0.24039107737E+02  0.22945139053E+02  0.33403168554E+02  0.00000000000E+00 0.  1.
          2    1    1    2  501    0  0.12371880452E+03 -0.13696158984E+03  0.76600662725E+02  0.19983113174E+03  0.00000000000E+00 0. -1.
<scales pt_clust_5="13000.00000" pt_clust_6="13000.00000" pt_clust_7="13000.00000" pt_clust_8="13000.00000" pt_clust_9="13000.00000"></scales>
<clustering>
<clus scale="   81.046">  5  6 -1 -1</clus>
<clus scale="   90.696">  7  8 -1 -1</clus>
<clus scale="  117.083">  2  7  1 -1</clus>
<clus scale="  144.131">  5  9 -1 -1</clus>
<clus scale="  322.122">  1  5  2 -1</clus>
</clustering>
</event>
<event>
 9    1  0.2728138E-005  0.2057754E+03  0.7546771E-02  0.1172538E+00
         21   -1    0    0  501  502  0.00000000000E+00  0.00000000000E+00  0.42332715457E+02  0.42332715457E+02  0.00000000000E+00 0. -1.
          1   -1    0    0  502    0 -0.00000000000E+00 -0.00000000000E+00 -0.66492202211E+03  0.66492202211E+03  0.00000000000E+00 0. -1.
         23    2    1    2    0    0 -0.37595073528E+02  0.44187702681E+02 -0.34611439559E+03  0.36260722465E+03  0.91229830179E+02 0.  0.
        -24    2    1    2    0    0  0.92300162901E+02  0.18865759771E+02 -0.15557581818E+03  0.19772924791E+03  0.77574372797E+02 0.  0.
         13    1    4    4    0    0  0.85310675622E+02  0.38104958056E+01 -0.69601101993E+02  0.11016689454E+03  0.00000000000E+00 0. -1.
        -14    1    4    4    0    0  0.69894872790E+01  0.15055263966E+02 -0.85974716182E+02  0.87562353372E+02  0.00000000000E+00 0.  1.
        -11    1    3    3    0    0 -0.53780099258E+02 -0.32570784981E+01 -0.12936479756E+03  0.14013621403E+03  0.00000000000E+00 0.  1.
         11    1    3    3    0    0  0.16185025730E+02  0.47444781179E+02 -0.21674959803E+03  0.22247101062E+03  0.00000000000E+00 0. -1.
          2    1    1    2  501    0 -0.54705089374E+02 -0.63053462453E+02 -0.12089909289E+03  0.14691826500E+03  0.00000000000E+00 0. -1.
<scales pt_clust_5="13000.00000" pt_clust_6="13000.00000" pt_clust_7="13000.00000" pt_clust_8="13000.00000" pt_clust_9="13000.00000"></scales>
<clustering>
<clus scale="   77.574">  5  6 -1 -1</clus>
<clus scale="   83.477">  5  9 -1 -1</clus>
<clus scale="   91.230">  7  8 -1 -1</clus>
<clus scale="  108.115">  2  7  1 -1</clus>
<clus scale="  205.775">  1  5  2 -1</clus>
</clustering>
</event>
<event>
 9    1  0.2728138E-005  0.3129124E+03  0.7546771E-02  0.1104235E+00
         21   -1    0    0  501  502  0.00000000000E+00  0.00000000000E+00  0.16668288840E+03  0.16668288840E+03  0.00000000000E+00 0.  1.
         -2   -1    0    0    0  501 -0.00000000000E+00 -0.00000000000E+00 -0.45712564800E+03  0.45712564800E+03  0.00000000000E+00 0.  1.
         23    2    1    2    0    0  0.10775876328E+03 -0.73310873707E+02 -0.26491867178E+03  0.30985688776E+03  0.94036976622E+02 0.  0.
        -24    2    1    2    0    0  0.54771906222E+02  0.26299832435E+02 -0.90769145850E+02  0.13261446511E+03  0.75205821721E+02 0.  0.
         13    1    4    4    0    0  0.79675087375E+01 -0.24333916997E+02 -0.37842905186E+02  0.45691423537E+02  0.00000000000E+00 0. -1.
        -14    1    4    4    0    0  0.46804397484E+02  0.50633749432E+02 -0.52926240664E+02  0.86923041573E+02  0.00000000000E+00 0.  1.
        -11    1    3    3    0    0  0.52941154564E+02 -0.56914436486E+02 -0.63202252104E+02  0.10018255137E+03  0.00000000000E+00 0. -1.
         11    1    3    3    0    0  0.54817608714E+02 -0.16396437221E+02 -0.20171641967E+03  0.20967433640E+03  0.00000000000E+00 0.  1.
         -1    1    1    2    0  502 -0.16253066950E+03  0.47011041272E+02  0.65245058028E+02  0.18133718352E+03  0.00000000000E+00 0.  1.
<scales pt_clust_5="13000.00000" pt_clust_6="13000.00000" pt_clust_7="13000.00000" pt_clust_8="13000.00000" pt_clust_9="13000.00000"></scales>
<clustering>
<clus scale="   75.206">  5  6 -1 -1</clus>
<clus scale="   94.037">  7  8 -1 -1</clus>
<clus scale="  160.715">  2  7  1 -1</clus>
<clus scale="  127.581">  5  9 -1 -1</clus>
<clus scale="  312.912">  1  5  2 -1</clus>
</clustering>
</event>
<event>
 9    1  0.2728138E-005  0.6355051E+03  0.7546771E-02  0.9928876E-01
         21   -1    0    0  501  502  0.00000000000E+00  0.00000000000E+00  0.14312412972E+03  0.14312412972E+03  0.00000000000E+00 0. -1.
          1   -1    0    0  502    0 -0.00000000000E+00 -0.00000000000E+00 -0.22533967709E+04  0.22533967709E+04  0.00000000000E+00 0. -1.
         23    2    1    2    0    0 -0.43613163219E+03  0.14415518153E+03 -0.11833646921E+04  0.12726770274E+04  0.91451105574E+02 0.  0.
        -24    2    1    2    0    0 -0.47628887951E+02  0.45684978577E+02 -0.24988784400E+03  0.27036877106E+03  0.79370709656E+02 0.  0.
         11    1    4    4    0    0 -0.53340511859E+02  0.27708988671E+02 -0.24294431261E+03  0.25026972907E+03  0.00000000000E+00 0. -1.
        -12    1    4    4    0    0  0.57116239079E+01  0.17975989906E+02 -0.69435313858E+01  0.20099041989E+02  0.00000000000E+00 0.  1.
        -13    1    3    3    0    0 -0.25496923423E+03  0.12636152922E+03 -0.66701808742E+03  0.72518251179E+03  0.00000000000E+00 0. -1.
         13    1    3    3    0    0 -0.18116239796E+03  0.17793652314E+02 -0.51634660468E+03  0.54749451564E+03  0.00000000000E+00 0.  1.
          2    1    1    2  501    0  0.48376052014E+03 -0.18984016011E+03 -0.67702010506E+03  0.85347510209E+03  0.00000000000E+00 0. -1.
<scales pt_clust_5="13000.00000" pt_clust_6="13000.00000" pt_clust_7="13000.00000" pt_clust_8="13000.00000" pt_clust_9="13000.00000"></scales>
<clustering>
<clus scale="   79.371">  5  6 -1 -1</clus>
<clus scale="   91.451">  7  8 -1 -1</clus>
<clus scale="  468.353">  2  7  1 -1</clus>
<clus scale="  178.370">  5  9 -1 -1</clus>
<clus scale="  635.505">  1  5  2 -1</clus>
</clustering>
</event>
<event>
 9    1  0.2728138E-005  0.3483876E+03  0.7546771E-02  0.1066130E+00
         21   -1    0    0  501  502  0.00000000000E+00  0.00000000000E+00  0.29921354707E+03  0.29921354707E+03  0.00000000000E+00 0. -1.
          1   -1    0    0  502    0 -0.00000000000E+00 -0.00000000000E+00 -0.53909186405E+03  0.53909186405E+03  0.00000000000E+00 0. -1.
         23    2    1    2    0    0  0.40627753662E+02 -0.30609763669E+03  0.11421261942E+03  0.34156172642E+03  0.90958853125E+02 0.  0.
        -24    2    1    2    0    0  0.13821947251E+02  0.19133685276E+03 -0.28298616706E+03  0.35117344158E+03  0.80254457041E+02 0.  0.
         13    1    4    4    0    0  0.36382050160E+01  0.16566868118E+03 -0.18048978388E+03  0.24502226540E+03  0.00000000000E+00 0. -1.
        -14    1    4    4    0    0  0.10183742235E+02  0.25668171580E+02 -0.10249638319E+03  0.10615117618E+03  0.00000000000E+00 0.  1.
        -11    1    3    3    0    0  0.22024525350E+02 -0.95295101367E+01  0.14932496050E+02  0.28264301134E+02  0.00000000000E+00 0.  1.
         11    1    3    3    0    0  0.18603228313E+02 -0.29656812656E+03  0.99280123373E+02  0.31329742528E+03  0.00000000000E+00 0. -1.
          2    1    1    2  501    0 -0.54449700913E+02  0.11476078394E+03 -0.71104769344E+02  0.14557024312E+03  0.00000000000E+00 0. -1.
<scales pt_clust_5="13000.00000" pt_clust_6="13000.00000" pt_clust_7="13000.00000" pt_clust_8="13000.00000" pt_clust_9="13000.00000"></scales>
<clustering>
<clus scale="   80.254">  5  6 -1 -1</clus>
<clus scale="   90.959">  7  8 -1 -1</clus>
<clus scale="  127.023">  5  9 -1 -1</clus>
<clus scale="  321.901">  2  7  1 -1</clus>
<clus scale="  348.388">  1  5  2 -1</clus>
</clustering>
</event>
<event>
 9    1  0.2728138E-005  0.1794789E+03  0.7546771E-02  0.1182359E+00
          1   -1    0    0  502    0 -0.00000000000E+00  0.00000000000E+00  0.52401923894E+03  0.52401923894E+03  0.00000000000E+00 0. -1.
         21   -1    0    0  501  502  0.00000000000E+00 -0.00000000000E+00 -0.68310637841E+02  0.68310637841E+02  0.00000000000E+00 0. -1.
         23    2    1    2    0    0 -0.38181131355E+02 -0.85351742591E+02  0.37210168584E+03  0.39433291258E+03  0.91082723854E+02 0.  0.
        -24    2    1    2    0    0 -0.14640342178E+01  0.86787274146E+02  0.16575917811E+02  0.12010630672E+03  0.81342421358E+02 0.  0.
         11    1    4    4    0    0  0.54537468571E+01  0.33579371024E+02  0.47310233672E+02  0.58271568738E+02  0.00000000000E+00 0. -1.
        -12    1    4    4    0    0 -0.69177810750E+01  0.53207903122E+02 -0.30734315861E+02  0.61834737980E+02  0.00000000000E+00 0.  1.
        -13    1    3    3    0    0 -0.24515826675E+02  0.62962599412E+01  0.27005430922E+02  0.37012996989E+02  0.00000000000E+00 0.  1.
         13    1    3    3    0    0 -0.13665304679E+02 -0.91648002532E+02  0.34509625492E+03  0.35731991560E+03  0.00000000000E+00 0. -1.
          2    1    1    2  501    0  0.39645165572E+02 -0.14355315551E+01  0.67030997443E+02  0.77890657478E+02  0.00000000000E+00 0. -1.
<scales pt_clust_5="13000.00000" pt_clust_6="13000.00000" pt_clust_7="13000.00000" pt_clust_8="13000.00000" pt_clust_9="13000.00000"></scales>
<clustering>
<clus scale="   81.342">  5  6 -1 -1</clus>
<clus scale="   39.671">  5  9 -1 -1</clus>
<clus scale="   91.083">  7  8 -1 -1</clus>
<clus scale="  130.533">  1  7  2 -1</clus>
<clus scale="  179.479">  2  5  1 -1</clus>
</clustering>
</event>
<event>
 9    1  0.2728138E-005  0.1616908E+03  0.7546771E-02  0.1202848E+00
         21   -1    0    0  501  502  0.00000000000E+00  0.00000000000E+00  0.22750175407E+03  0.22750175407E+03  0.00000000000E+00 0.  1.
          1   -1    0    0  502    0 -0.00000000000E+00 -0.00000000000E+00 -0.12513862222E+03  0.12513862222E+03  0.00000000000E+00 0. -1.
         23    2    1    2    0    0 -0.27980295416E+02 -0.59320803076E+02  0.14607731284E+03  0.18514461710E+03  0.92941343353E+02 0.  0.
        -24    2    1    2    0    0  0.25387485142E+02 -0.86580081286E+01  0.18561140966E+00  0.86532599600E+02  0.82270109004E+02 0.  0.
         11    1    4    4    0    0  0.48922523314E+02 -0.25404810061E+02 -0.97606851421E+01  0.55982931650E+02  0.00000000000E+00 0. -1.
        -12    1    4    4    0    0 -0.23535038173E+02  0.16746801933E+02  0.99462965517E+01  0.30549667950E+02  0.00000000000E+00 0.  1.
        -11    1    3    3    0    0  0.20762509124E+02  0.54780219395E+01  0.72639614671E+02  0.75746974389E+02  0.00000000000E+00 0. -1.
         11    1    3    3    0    0 -0.48742804540E+02 -0.64798825016E+02  0.73437698173E+02  0.10939764271E+03  0.00000000000E+00 0.  1.
          2    1    1    2  501    0  0.25928102748E+01  0.67978811205E+02 -0.43899792407E+02  0.80963159593E+02  0.00000000000E+00 0. -1.
<scales pt_clust_5="13000.00000" pt_clust_6="13000.00000" pt_clust_7="13000.00000" pt_clust_8="13000.00000" pt_clust_9="13000.00000"></scales>
<clustering>
<clus scale="   82.270">  5  6 -1 -1</clus>
<clus scale="   68.028">  5  9 -1 -1</clus>
<clus scale="   92.941">  7  8 -1 -1</clus>
<clus scale="  113.754">  2  7  1 -1</clus>
<clus scale="  161.691">  1  5  2 -1</clus>
</clustering>
</event>
<event>
 9    1  0.2728138E-005  0.1584548E+03  0.7546771E-02  0.1206842E+00
          1   -1    0    0  502    0 -0.00000000000E+00  0.00000000000E+00  0.28250520598E+03  0.28250520598E+03  0.00000000000E+00 0. -1.
         21   -1    0    0  501  502  0.00000000000E+00 -0.00000000000E+00 -0.71487894769E+02  0.71487894769E+02  0.00000000000E+00 0. -1.
         23    2    1    2    0    0 -0.40205173122E+02  0.50210869073E+02  0.14447460037E+03  0.18213307930E+03  0.90343572570E+02 0.  0.
        -24    2    1    2    0    0  0.57869775963E+02 -0.75108013578E+02  0.40255283061E+02  0.13157435579E+03  0.81860849094E+02 0.  0.
         11    1    4    4    0    0  0.78608714678E+02 -0.58448774062E+02  0.25793680407E+02  0.10129611622E+03  0.00000000000E+00 0. -1.
        -12    1    4    4    0    0 -0.20738938715E+02 -0.16659239516E+02  0.14461602653E+02  0.30278239572E+02  0.00000000000E+00 0.  1.
        -13    1    3    3    0    0  0.41790008672E+00  0.55580620467E+02  0.36115496314E+02  0.66285059297E+02  0.00000000000E+00 0. -1.
         13    1    3    3    0    0 -0.40623073209E+02 -0.53697513946E+01  0.10835910406E+03  0.11584802000E+03  0.00000000000E+00 0.  1.
          2    1    1    2  501    0 -0.17664602841E+02  0.24897144505E+02  0.26287427783E+02  0.40285665658E+02  0.00000000000E+00 0. -1.
<scales pt_clust_5="13000.00000" pt_clust_6="13000.00000" pt_clust_7="13000.00000" pt_clust_8="13000.00000" pt_clust_9="13000.00000"></scales>
<clustering>
<clus scale="   81.861">  5  6 -1 -1</clus>
<clus scale="   30.527">  5  9 -1 -1</clus>
<clus scale="   90.344">  7  8 -1 -1</clus>
<clus scale="  110.903">  1  7  2 -1</clus>
<clus scale="  158.455">  2  5  1 -1</clus>
</clustering>
</event>
<event>
 9    1  0.2728138E-005  0.2894097E+03  0.7546771E-02  0.1133092E+00
          1   -1    0    0  502    0 -0.00000000000E+00  0.00000000000E+00  0.83122970231E+02  0.83122970231E+02  0.00000000000E+00 0. -1.
         21   -1    0    0  501  502  0.00000000000E+00 -0.00000000000E+00 -0.76727620031E+03  0.76727620031E+03  0.00000000000E+00 0. -1.
         23    2    1    2    0    0 -0.12665856213E+02  0.28258769510E+02  0.93173132696E+01  0.98960962036E+02  0.93527951505E+02 0.  0.
        -24    2    1    2    0    0 -0.67945093305E+02  0.77897212113E+00 -0.83079091697E+02  0.13506247904E+03  0.81991434103E+02 0.  0.
         13    1    4    4    0    0 -0.52001586856E+02  0.38589898959E+02 -0.43210684988E+02  0.77849268683E+02  0.00000000000E+00 0. -1.
        -14    1    4    4    0    0 -0.15943506448E+02 -0.37810926838E+02 -0.39868406708E+02  0.57213210360E+02  0.00000000000E+00 0.  1.
        -11    1    3    3    0    0 -0.47554222654E+02  0.34966112112E+02 -0.77756307882E+01  0.59535649174E+02  0.00000000000E+00 0. -1.
         11    1    3    3    0    0  0.34888366441E+02 -0.67073426019E+01  0.17092944058E+02  0.39425312862E+02  0.00000000000E+00 0.  1.
          2    1    1    2  501    0  0.80610949518E+02 -0.29037741631E+02 -0.61039145165E+03  0.61637572946E+03  0.00000000000E+00 0. -1.
<scales pt_clust_5="13000.00000" pt_clust_6="13000.00000" pt_clust_7="13000.00000" pt_clust_8="13000.00000" pt_clust_9="13000.00000"></scales>
<clustering>
<clus scale="   81.991">  5  6 -1 -1</clus>
<clus scale="   85.682">  5  9 -1 -1</clus>
<clus scale="   93.528">  7  8 -1 -1</clus>
<clus scale="   98.521">  1  7  2 -1</clus>
<clus scale="  289.410">  2  5  1 -1</clus>
</clustering>
</event>
<event>
 9    1  0.2728138E-005  0.2202915E+03  0.7546771E-02  0.1169378E+00
         21   -1    0    0  501  502  0.00000000000E+00  0.00000000000E+00  0.35326015777E+02  0.35326015777E+02  0.00000000000E+00 0. -1.
          1   -1    0    0  502    0 -0.00000000000E+00 -0.00000000000E+00 -0.81955279995E+03  0.81955279995E+03  0.00000000000E+00 0. -1.
         23    2    1    2    0    0  0.28662010965E+01  0.18720285239E+02 -0.40848261307E+03  0.41931939396E+03  0.92801103357E+02 0.  0.
        -24    2    1    2    0    0 -0.31982096689E+02 -0.70037771025E+02 -0.85812784740E+02  0.13968541391E+03  0.78867210907E+02 0.  0.
         13    1    4    4    0    0 -0.47524900079E+02 -0.73007938909E+02 -0.87864000600E+02  0.12372896942E+03  0.00000000000E+00 0. -1.
        -14    1    4    4    0    0  0.15542803390E+02  0.29701678834E+01  0.20512158601E+01  0.15956444497E+02  0.00000000000E+00 0.  1.
        -11    1    3    3    0    0 -0.39148167870E+02  0.32072659994E+02 -0.21399488267E+03  0.21989780439E+03  0.00000000000E+00 0.  1.
         11    1    3    3    0    0  0.42014368967E+02 -0.13352374756E+02 -0.19448773040E+03  0.19942158957E+03  0.00000000000E+00 0. -1.
          2    1    1    2  501    0  0.29115895593E+02  0.51317485786E+02 -0.28993138637E+03  0.29587400786E+03  0.00000000000E+00 0. -1.
<scales pt_clust_5="13000.00000" pt_clust_6="13000.00000" pt_clust_7="13000.00000" pt_clust_8="13000.00000" pt_clust_9="13000.00000"></scales>
<clustering>
<clus scale="   78.867">  5  6 -1 -1</clus>
<clus scale="   59.002">  5  9 -1 -1</clus>
<clus scale="   92.801">  7  8 -1 -1</clus>
<clus scale="   94.714">  2  7  1 -1</clus>
<clus scale="  220.291">  1  5  2 -1</clus>
</clustering>
</event>
<event>
 9    1  0.2728138E-005  0.3656520E+03  0.7546771E-02  0.1089358E+00
         21   -1    0    0  501  502  0.00000000000E+00  0.00000000000E+00  0.86123593711E+02  0.86123593711E+02  0.00000000000E+00 0. -1.
          1   -1    0    0  502    0 -0.00000000000E+00 -0.00000000000E+00 -0.81666987993E+03  0.81666987993E+03  0.00000000000E+00 0. -1.
         23    2    1    2    0    0  0.71550094485E+02 -0.94863699532E+02 -0.11916502144E+03  0.19041126631E+03  0.89093268506E+02 0.  0.
        -24    2    1    2    0    0 -0.18860387444E+03 -0.12802434153E+01 -0.26914270466E+03  0.33811962945E+03  0.79460857484E+02 0.  0.
         13    1    4    4    0    0 -0.17167700603E+03  0.23111138651E+02 -0.21242532086E+03  0.27410150687E+03  0.00000000000E+00 0. -1.
        -14    1    4    4    0    0 -0.16926868415E+02 -0.24391382066E+02 -0.56717383799E+02  0.64018122578E+02  0.00000000000E+00 0.  1.
        -13    1    3    3    0    0  0.63113592725E+02 -0.17905446188E+02 -0.29453485986E+02  0.71912713942E+02  0.00000000000E+00 0. -1.
         13    1    3    3    0    0  0.84365017605E+01 -0.76958253344E+02 -0.89711535450E+02  0.11849855237E+03  0.00000000000E+00 0.  1.
          2    1    1    2  501    0  0.11705377996E+03  0.96143942947E+02 -0.34223856012E+03  0.37426257788E+03  0.00000000000E+00 0. -1.
<scales pt_clust_5="13000.00000" pt_clust_6="13000.00000" pt_clust_7="13000.00000" pt_clust_8="13000.00000" pt_clust_9="13000.00000"></scales>
<clustering>
<clus scale="   79.461">  5  6 -1 -1</clus>
<clus scale="   89.093">  7  8 -1 -1</clus>
<clus scale="  148.513">  2  7  1 -1</clus>
<clus scale="  162.094">  5  9 -1 -1</clus>
<clus scale="  365.652">  1  5  2 -1</clus>
</clustering>
</event>
<event>
 9    1  0.2728138E-005  0.5645748E+03  0.7546771E-02  0.1050217E+00
         21   -1    0    0  501  502  0.00000000000E+00  0.00000000000E+00  0.34539327239E+03  0.34539327239E+03  0.00000000000E+00 0. -1.
          1   -1    0    0  502    0 -0.00000000000E+00 -0.00000000000E+00 -0.46446753329E+03  0.46446753329E+03  0.00000000000E+00 0. -1.
         23    2    1    2    0    0  0.51266270563E+02  0.53597186503E+02 -0.20707838112E+03  0.23846824979E+03  0.92112764219E+02 0.  0.
        -24    2    1    2    0    0  0.11037931560E+03  0.18714558724E+03  0.14829348600E+03  0.27521492968E+03  0.80902629084E+02 0.  0.
         11    1    4    4    0    0  0.12044606437E+03  0.17568758321E+03  0.14899319734E+03  0.25994682951E+03  0.00000000000E+00 0. -1.
        -12    1    4    4    0    0 -0.10066748767E+02  0.11458004028E+02 -0.69971133487E+00  0.15268100177E+02  0.00000000000E+00 0.  1.
        -13    1    3    3    0    0 -0.13149416480E+02 -0.17757726104E+02 -0.36476717219E+02  0.42647331561E+02  0.00000000000E+00 0.  1.
         13    1    3    3    0    0  0.64415687043E+02  0.71354912607E+02 -0.17060166390E+03  0.19582091823E+03  0.00000000000E+00 0. -1.
          2    1    1    2  501    0 -0.16164558616E+03 -0.24074277374E+03 -0.60289365787E+02  0.29617762620E+03  0.00000000000E+00 0. -1.
<scales pt_clust_5="13000.00000" pt_clust_6="13000.00000" pt_clust_7="13000.00000" pt_clust_8="13000.00000" pt_clust_9="13000.00000"></scales>
<clustering>
<clus scale="   80.903">  5  6 -1 -1</clus>
<clus scale="   92.113">  7  8 -1 -1</clus>
<clus scale="  118.261">  2  7  1 -1</clus>
<clus scale="  236.274">  5  9 -1 -1</clus>
<clus scale="  564.575">  1  5  2 -1</clus>
</clustering>
</event>
<event>
 9    1  0.2728138E-005  0.5373445E+03  0.7546771E-02  0.1023385E+00
         21   -1    0    0  501  502  0.00000000000E+00  0.00000000000E+00  0.23014869027E+04  0.23014869027E+04  0.00000000000E+00 0. -1.
          1   -1    0    0  502    0 -0.00000000000E+00 -0.00000000000E+00 -0.17734012358E+03  0.17734012358E+03  0.00000000000E+00 0. -1.
         23    2    1    2    0    0 -0.10068335478E+03  0.26844114310E+03  0.13922398443E+02  0.30126279169E+03  0.91474866735E+02 0.  0.
        -24    2    1    2    0    0 -0.83995645165E+01  0.87097581009E+02  0.21224528748E+03  0.24349300896E+03  0.81143342619E+02 0.  0.
         13    1    4    4    0    0  0.13966574416E+02  0.60846243020E+02  0.57241628882E+02  0.84699082449E+02  0.00000000000E+00 0. -1.
        -14    1    4    4    0    0 -0.22366138932E+02  0.26251337989E+02  0.15500365860E+03  0.15879392651E+03  0.00000000000E+00 0.  1.
        -11    1    3    3    0    0 -0.87781254185E+01  0.13271927792E+03  0.30665044332E+02  0.13649837787E+03  0.00000000000E+00 0.  1.
         11    1    3    3    0    0 -0.91905229362E+02  0.13572186517E+03 -0.16742645889E+02  0.16476441382E+03  0.00000000000E+00 0. -1.
          2    1    1    2  501    0  0.10908291930E+03 -0.35553872410E+03  0.18979790932E+04  0.19340712256E+04  0.00000000000E+00 0. -1.
<scales pt_clust_5="13000.00000" pt_clust_6="13000.00000" pt_clust_7="13000.00000" pt_clust_8="13000.00000" pt_clust_9="13000.00000"></scales>
<clustering>
<clus scale="   81.143">  5  6 -1 -1</clus>
<clus scale="   91.475">  7  8 -1 -1</clus>
<clus scale="  300.941">  2  7  1 -1</clus>
<clus scale="  218.722">  5  9 -1 -1</clus>
<clus scale="  537.344">  1  5  2 -1</clus>
</clustering>
</event>
<event>
 9    1  0.2728138E-005  0.1958644E+03  0.7546771E-02  0.1181607E+00
          1   -1    0    0  502    0 -0.00000000000E+00  0.00000000000E+00  0.34656281654E+03  0.34656281654E+03  0.00000000000E+00 0. -1.
         21   -1    0    0  501  502  0.00000000000E+00 -0.00000000000E+00 -0.76423532470E+02  0.76423532470E+02  0.00000000000E+00 0. -1.
         23    2    1    2    0    0 -0.32590154328E+02 -0.28025990711E+02  0.18091046796E+03  0.20775470528E+03  0.92659839376E+02 0.  0.
        -24    2    1    2    0    0 -0.45147317465E+02 -0.31037354829E+02  0.31415025031E+02  0.10176787090E+03  0.79800990469E+02 0.  0.
         11    1    4    4    0    0 -0.25562632085E+01 -0.25154923081E+02 -0.21778564456E+02  0.33370803206E+02  0.00000000000E+00 0. -1.
        -12    1    4    4    0    0 -0.42591054257E+02 -0.58824317471E+01  0.53193589487E+02  0.68397067689E+02  0.00000000000E+00 0.  1.
        -13    1    3    3    0    0 -0.60006146520E+02 -0.25261619781E+02  0.16127031172E+03  0.17391664813E+03  0.00000000000E+00 0.  1.
         13    1    3    3    0    0  0.27415992192E+02 -0.27643709301E+01  0.19640156241E+02  0.33838057150E+02  0.00000000000E+00 0. -1.
          2    1    1    2  501    0  0.77737471793E+02  0.59063345540E+02  0.57813791074E+02  0.11346377283E+03  0.00000000000E+00 0. -1.
<scales pt_clust_5="13000.00000" pt_clust_6="13000.00000" pt_clust_7="13000.00000" pt_clust_8="13000.00000" pt_clust_9="13000.00000"></scales>
<clustering>
<clus scale="   79.801">  5  6 -1 -1</clus>
<clus scale="   92.660">  7  8 -1 -1</clus>
<clus scale="   97.630">  5  9 -1 -1</clus>
<clus scale="  102.144">  1  7  2 -1</clus>
<clus scale="  195.864">  2  5  1 -1</clus>
</clustering>
</event>
<event>
 9    1  0.2728138E-005  0.1373681E+03  0.7546771E-02  0.1234732E+00
         21   -1    0    0  501  502  0.00000000000E+00  0.00000000000E+00  0.26340466669E+03  0.26340466669E+03  0.00000000000E+00 0. -1.
          1   -1    0    0  502    0 -0.00000000000E+00 -0.00000000000E+00 -0.68092650942E+02  0.68092650942E+02  0.00000000000E+00 0. -1.
         23    2    1    2    0    0 -0.21292922076E+02 -0.99454082412E+01  0.26466345443E+01  0.94875400078E+02  0.91880559369E+02 0.  0.
        -24    2    1    2    0    0 -0.53703701814E+01  0.45253433706E+02  0.14373915327E+03  0.17065705118E+03  0.79913520729E+02 0.  0.
         11    1    4    4    0    0  0.18791406963E+02  0.60352229706E+02  0.92611664376E+02  0.11212684328E+03  0.00000000000E+00 0. -1.
        -12    1    4    4    0    0 -0.24161777144E+02 -0.15098796000E+02  0.51127488897E+02  0.58530207896E+02  0.00000000000E+00 0.  1.
        -11    1    3    3    0    0  0.23600911425E+02  0.15331353972E+02  0.25994388566E+02  0.38311377835E+02  0.00000000000E+00 0.  1.
         11    1    3    3    0    0 -0.44893833501E+02 -0.25276762213E+02 -0.23347754022E+02  0.56564022243E+02  0.00000000000E+00 0. -1.
          2    1    1    2  501    0  0.26663292257E+02 -0.35308025464E+02  0.48926227928E+02  0.65964866372E+02  0.00000000000E+00 0. -1.
<scales pt_clust_5="13000.00000" pt_clust_6="13000.00000" pt_clust_7="13000.00000" pt_clust_8="13000.00000" pt_clust_9="13000.00000"></scales>
<clustering>
<clus scale="   79.914">  5  6 -1 -1</clus>
<clus scale="   44.245">  5  9 -1 -1</clus>
<clus scale="   91.881">  7  8 -1 -1</clus>
<clus scale="   94.838">  2  7  1 -1</clus>
<clus scale="  137.368">  1  5  2 -1</clus>
</clustering>
</event>
<event>
 9    1  0.2728138E-005  0.4164047E+03  0.7546771E-02  0.1089718E+00
          1   -1    0    0  502    0 -0.00000000000E+00  0.00000000000E+00  0.73659668225E+03  0.73659668225E+03  0.00000000000E+00 0. -1.
         21   -1    0    0  501  502  0.00000000000E+00 -0.00000000000E+00 -0.91874160604E+02  0.91874160604E+02  0.00000000000E+00 0. -1.
         23    2    1    2    0    0 -0.24992822775E+02 -0.36081718517E+02  0.16971986342E+03  0.19679021652E+03  0.89414907465E+02 0.  0.
        -24    2    1    2    0    0 -0.41775413526E+02  0.17655175668E+03  0.42404437113E+03  0.46801457603E+03  0.79424849558E+02 0.  0.
         13    1    4    4    0    0 -0.31010036010E+02  0.18115595318E+03  0.37533889951E+03  0.41792151320E+03  0.00000000000E+00 0. -1.
        -14    1    4    4    0    0 -0.10765377516E+02 -0.46041964998E+01  0.48705471618E+02  0.50093062833E+02  0.00000000000E+00 0.  1.
        -13    1    3    3    0    0  0.20771576784E+02 -0.20749014106E+01  0.36322949086E+01  0.21188609777E+02  0.00000000000E+00 0. -1.
         13    1    3    3    0    0 -0.45764399559E+02 -0.34006817106E+02  0.16608756851E+03  0.17560160674E+03  0.00000000000E+00 0.  1.
          2    1    1    2  501    0  0.66768236301E+02 -0.14047003816E+03  0.50958287101E+02  0.16366605031E+03  0.00000000000E+00 0. -1.
<scales pt_clust_5="13000.00000" pt_clust_6="13000.00000" pt_clust_7="13000.00000" pt_clust_8="13000.00000" pt_clust_9="13000.00000"></scales>
<clustering>
<clus scale="   79.425">  5  6 -1 -1</clus>
<clus scale="   89.415">  7  8 -1 -1</clus>
<clus scale="   99.607">  1  7  2 -1</clus>
<clus scale="  159.940">  5  9 -1 -1</clus>
<clus scale="  416.405">  2  5  1 -1</clus>
</clustering>
</event>
<event>
 9    1  0.2878875E-005  0.1318784E+03  0.7546771E-02  0.1239859E+00
         -2   -1    0    0    0  501 -0.00000000000E+00  0.00000000000E+00  0.72688918241E+02  0.72688918241E+02  0.00000000000E+00 0.  1.
         21   -1    0    0  501  502  0.00000000000E+00 -0.00000000000E+00 -0.18988232652E+03  0.18988232652E+03  0.00000000000E+00 0.  1.
         23    2    1    2    0    0  0.62234645965E+01  0.27002357642E+02 -0.19592255729E+02  0.98504504326E+02  0.92473899334E+02 0.  0.
        -24    2    1    2    0    0  0.21701436302E+02 -0.34398855544E+01 -0.10000459187E+03  0.12745025915E+03  0.75893774536E+02 0.  0.
         13    1    4    4    0    0 -0.19482209050E+02 -0.50978948295E+01 -0.94771639838E+00  0.20160435698E+02  0.00000000000E+00 0. -1.
        -14    1    4    4    0    0  0.41183645352E+02  0.16580092752E+01 -0.99056875472E+02  0.10728982346E+03  0.00000000000E+00 0.  1.
        -13    1    3    3    0    0 -0.19411287448E+02 -0.28854363911E+02 -0.10839129382E+02  0.36426077511E+02  0.00000000000E+00 0. -1.
         13    1    3    3    0    0  0.25634752044E+02  0.55856721553E+02 -0.87531263468E+01  0.62078426815E+02  0.00000000000E+00 0.  1.
         -1    1    1    2    0  502 -0.27924900899E+02 -0.23562472088E+02  0.24034393163E+01  0.36616481284E+02  0.00000000000E+00 0.  1.
<scales pt_clust_5="13000.00000" pt_clust_6="13000.00000" pt_clust_7="13000.00000" pt_clust_8="13000.00000" pt_clust_9="13000.00000"></scales>
<clustering>
<clus scale="   75.894">  5  6 -1 -1</clus>
<clus scale="   36.538">  5  9 -1 -1</clus>
<clus scale="   92.474">  7  8 -1 -1</clus>
<clus scale="   96.536">  1  7  2 -1</clus>
<clus scale="  131.878">  2  5  1 -1</clus>
</clustering>
</event>
<event>
 9    1  0.2728138E-005  0.1319224E+03  0.7546771E-02  0.1239961E+00
          1   -1    0    0  502    0 -0.00000000000E+00  0.00000000000E+00  0.11953656273E+03  0.11953656273E+03  0.00000000000E+00 0. -1.
         21   -1    0    0  501  502  0.00000000000E+00 -0.00000000000E+00 -0.11344598526E+03  0.11344598526E+03  0.00000000000E+00 0.  1.
         23    2    1    2    0    0  0.15612122650E+02  0.77253190737E+01 -0.20516731982E+02  0.98403733068E+02  0.94651674376E+02 0.  0.
        -24    2    1    2    0    0  0.14518040595E+02 -0.34066031503E+01 -0.19484674408E+02  0.79343418469E+02  0.75454271382E+02 0.  0.
         11    1    4    4    0    0  0.40558933058E+02 -0.14953214569E+02  0.25903114379E+01  0.43305142767E+02  0.00000000000E+00 0. -1.
        -12    1    4    4    0    0 -0.26040892463E+02  0.11546611418E+02 -0.22074985846E+02  0.36038275702E+02  0.00000000000E+00 0.  1.
        -11    1    3    3    0    0  0.67271098414E+01 -0.38743076348E+02 -0.30847815381E+02  0.49978672306E+02  0.00000000000E+00 0.  1.
         11    1    3    3    0    0  0.88850128082E+01  0.46468395421E+02  0.10331083399E+02  0.48425060762E+02  0.00000000000E+00 0. -1.
          2    1    1    2  501    0 -0.30130163245E+02 -0.43187159234E+01  0.46091983861E+02  0.55235396447E+02  0.00000000000E+00 0. -1.
<scales pt_clust_5="13000.00000" pt_clust_6="13000.00000" pt_clust_7="13000.00000" pt_clust_8="13000.00000" pt_clust_9="13000.00000"></scales>
<clustering>
<clus scale="   75.454">  5  6 -1 -1</clus>
<clus scale="   30.438">  5  9 -1 -1</clus>
<clus scale="   94.652">  7  8 -1 -1</clus>
<clus scale="   96.241">  1  7  2 -1</clus>
<clus scale="  131.922">  2  5  1 -1</clus>
</clustering>
</event>
<event>
 9    1  0.2728138E-005  0.3126412E+03  0.7546771E-02  0.1121866E+00
          1   -1    0    0  502    0 -0.00000000000E+00  0.00000000000E+00  0.16109742880E+04  0.16109742880E+04  0.00000000000E+00 0. -1.
         21   -1    0    0  501  502  0.00000000000E+00 -0.00000000000E+00 -0.27485717611E+02  0.27485717611E+02  0.00000000000E+00 0.  1.
         23    2    1    2    0    0  0.35126295024E+02 -0.38625220548E+01  0.29185522453E+03  0.30952765440E+03  0.96845862459E+02 0.  0.
        -24    2    1    2    0    0 -0.54936663838E+02  0.14202732587E+03  0.75933153101E+03  0.77863498994E+03  0.80611880309E+02 0.  0.
         11    1    4    4    0    0 -0.69094176121E+02  0.70473294729E+02  0.47003481152E+03  0.48028451410E+03  0.00000000000E+00 0. -1.
        -12    1    4    4    0    0  0.14157512283E+02  0.71554031146E+02  0.28929671949E+03  0.29835047584E+03  0.00000000000E+00 0.  1.
        -11    1    3    3    0    0  0.15749557626E+01 -0.32994434707E+02  0.32310684875E+02  0.46207072666E+02  0.00000000000E+00 0.  1.
         11    1    3    3    0    0  0.33551339262E+02  0.29131912652E+02  0.25954453966E+03  0.26332058174E+03  0.00000000000E+00 0. -1.
          2    1    1    2  501    0  0.19810368813E+02 -0.13816480382E+03  0.53230181486E+03  0.55029736128E+03  0.00000000000E+00 0. -1.
<scales pt_clust_5="13000.00000" pt_clust_6="13000.00000" pt_clust_7="13000.00000" pt_clust_8="13000.00000" pt_clust_9="13000.00000"></scales>
<clustering>
<clus scale="   80.612">  5  6 -1 -1</clus>
<clus scale="   96.846">  7  8 -1 -1</clus>
<clus scale="  103.092">  1  7  2 -1</clus>
<clus scale="  143.913">  5  9 -1 -1</clus>
<clus scale="  312.641">  2  5  1 -1</clus>
</clustering>
</event>
<event>
 9    1  0.2728138E-005  0.8487591E+03  0.7546771E-02  0.9927562E-01
         21   -1    0    0  501  502  0.00000000000E+00  0.00000000000E+00  0.88362861500E+02  0.88362861500E+02  0.00000000000E+00 0. -1.
          1   -1    0    0  502    0 -0.00000000000E+00 -0.00000000000E+00 -0.32502575889E+04  0.32502575889E+04  0.00000000000E+00 0. -1.
         23    2    1    2    0    0 -0.11155556237E+03 -0.12531754533E+03 -0.35496497699E+03  0.40617325066E+03  0.10405500471E+03 0.  0.
        -24    2    1    2    0    0  0.36825313516E+03  0.29714623426E+03 -0.11369088432E+04  0.12340984215E+04  0.80814231225E+02 0.  0.
         11    1    4    4    0    0  0.23154657030E+03  0.17088415278E+03 -0.59095026977E+03  0.65729554177E+03  0.00000000000E+00 0. -1.
        -12    1    4    4    0    0  0.13670656486E+03  0.12626208148E+03 -0.54595857347E+03  0.57680287971E+03  0.00000000000E+00 0.  1.
        -13    1    3    3    0    0 -0.35368428656E+02 -0.10827946324E+03 -0.16222780318E+03  0.19822519525E+03  0.00000000000E+00 0. -1.
         13    1    3    3    0    0 -0.76187133715E+02 -0.17038082082E+02 -0.19273717381E+03  0.20794805542E+03  0.00000000000E+00 0.  1.
          2    1    1    2  501    0 -0.25669757279E+03 -0.17182868893E+03 -0.16700209072E+04  0.16983487783E+04  0.00000000000E+00 0. -1.
<scales pt_clust_5="13000.00000" pt_clust_6="13000.00000" pt_clust_7="13000.00000" pt_clust_8="13000.00000" pt_clust_9="13000.00000"></scales>
<clustering>
<clus scale="   80.814">  5  6 -1 -1</clus>
<clus scale="  104.055">  7  8 -1 -1</clus>
<clus scale="  197.425">  2  7  1 -1</clus>
<clus scale="  404.971">  5  9 -1 -1</clus>
<clus scale="  848.759">  1  5  2 -1</clus>
</clustering>
</event>
<event>
 9    1  0.3244531E-005  0.3029540E+03  0.7546771E-02  0.1130076E+00
         21   -1    0    0  501  502  0.00000000000E+00  0.00000000000E+00  0.61581814602E+02  0.61581814602E+02  0.00000000000E+00 0.  1.
         -4   -1    0    0    0  501 -0.00000000000E+00 -0.00000000000E+00 -0.69331893746E+03  0.69331893746E+03  0.00000000000E+00 0.  1.
         23    2    1    2    0    0  0.13725701336E+02  0.17783956818E+02 -0.25631703836E+03  0.27248873336E+03  0.89705193021E+02 0.  0.
        -24    2    1    2    0    0  0.99671381999E+02  0.73029327967E+02 -0.11758855771E+03  0.18646768711E+03  0.75335664175E+02 0.  0.
         13    1    4    4    0    0  0.15890673563E+02  0.22770681753E+02 -0.74840596645E+02  0.79825637235E+02  0.00000000000E+00 0. -1.
        -14    1    4    4    0    0  0.83780708436E+02  0.50258646213E+02 -0.42747961069E+02  0.10664204987E+03  0.00000000000E+00 0.  1.
        -11    1    3    3    0    0  0.17075516017E+02 -0.28224570757E+02 -0.42757352178E+02  0.54003618461E+02  0.00000000000E+00 0. -1.
         11    1    3    3    0    0 -0.33498146812E+01  0.46008527576E+02 -0.21355968618E+03  0.21848511489E+03  0.00000000000E+00 0.  1.
         -3    1    1    2    0  502 -0.11339708334E+03 -0.90813284785E+02 -0.25783152679E+03  0.29594433160E+03  0.00000000000E+00 0.  1.
<scales pt_clust_5="13000.00000" pt_clust_6="13000.00000" pt_clust_7="13000.00000" pt_clust_8="13000.00000" pt_clust_9="13000.00000"></scales>
<clustering>
<clus scale="   75.336">  5  6 -1 -1</clus>
<clus scale="   89.705">  7  8 -1 -1</clus>
<clus scale="   92.475">  2  7  1 -1</clus>
<clus scale="  131.231">  5  9 -1 -1</clus>
<clus scale="  302.954">  1  5  2 -1</clus>
</clustering>
</event>
<event>
 9    1  0.2728138E-005  0.1427333E+03  0.7546771E-02  0.1224704E+00
         21   -1    0    0  501  502  0.00000000000E+00  0.00000000000E+00  0.19176316166E+03  0.19176316166E+03  0.00000000000E+00 0. -1.
         -4   -1    0    0    0  501 -0.00000000000E+00 -0.00000000000E+00 -0.91555344861E+02  0.91555344861E+02  0.00000000000E+00 0.  1.
         23    2    1    2    0    0  0.41902407476E+02  0.19580758102E+02 -0.78499840725E+01  0.10429533119E+03  0.93148676949E+02 0.  0.
        -24    2    1    2    0    0  0.47179161995E+01 -0.29798959243E-01  0.30045278084E+02  0.86062709032E+02  0.80509698358E+02 0.  0.
         11    1    4    4    0    0  0.18156664486E+02  0.34617035114E+02  0.29371643188E+02  0.48894754411E+02  0.00000000000E+00 0. -1.
        -12    1    4    4    0    0 -0.13438748287E+02 -0.34646834073E+02  0.67363489590E+00  0.37167954622E+02  0.00000000000E+00 0.  1.
        -11    1    3    3    0    0  0.96531041747E+01  0.54203509753E+02 -0.13376992312E+02  0.56658157516E+02  0.00000000000E+00 0.  1.
         11    1    3    3    0    0  0.32249303301E+02 -0.34622751651E+02  0.55270082398E+01  0.47637173672E+02  0.00000000000E+00 0. -1.
         -3    1    1    2    0  502 -0.46620323676E+02 -0.19550959142E+02  0.78012522784E+02  0.92960466297E+02  0.00000000000E+00 0.  1.
<scales pt_clust_5="13000.00000" pt_clust_6="13000.00000" pt_clust_7="13000.00000" pt_clust_8="13000.00000" pt_clust_9="13000.00000"></scales>
<clustering>
<clus scale="   80.510">  5  6 -1 -1</clus>
<clus scale="   50.554">  5  9 -1 -1</clus>
<clus scale="   93.149">  7  8 -1 -1</clus>
<clus scale="  103.999">  2  7  1 -1</clus>
<clus scale="  142.733">  1  5  2 -1</clus>
</clustering>
</event>
<event>
 9    1  0.2728138E-005  0.1673504E+03  0.7546771E-02  0.1195877E+00
         -2   -1    0    0    0  501 -0.00000000000E+00  0.00000000000E+00  0.71663445182E+02  0.71663445182E+02  0.00000000000E+00 0.  1.
         21   -1    0    0  501  502  0.00000000000E+00 -0.00000000000E+00 -0.28967444551E+03  0.28967444551E+03  0.00000000000E+00 0.  1.
         23    2    1    2    0    0  0.37961852054E+00  0.79764932368E+02 -0.10860216757E+03  0.16139680758E+03  0.88836423563E+02 0.  0.
        -24    2    1    2    0    0  0.27895856670E+02 -0.93795188985E+01 -0.37958208900E+02  0.95735514272E+02  0.82814907328E+02 0.  0.
         11    1    4    4    0    0 -0.18383689745E+02  0.24362867756E+02 -0.11099847953E+02  0.32476391402E+02  0.00000000000E+00 0. -1.
        -12    1    4    4    0    0  0.46279546415E+02 -0.33742386654E+02 -0.26858360947E+02  0.63259122870E+02  0.00000000000E+00 0.  1.
        -13    1    3    3    0    0 -0.18850597865E+02  0.20626454749E+02  0.81576732738E+01  0.29109161936E+02  0.00000000000E+00 0. -1.
         13    1    3    3    0    0  0.19230216385E+02  0.59138477619E+02 -0.11675984084E+03  0.13228764565E+03  0.00000000000E+00 0.  1.
         -1    1    1    2    0  502 -0.28275475190E+02 -0.70385413470E+02 -0.71450623855E+02  0.10420556883E+03  0.00000000000E+00 0.  1.
<scales pt_clust_5="13000.00000" pt_clust_6="13000.00000" pt_clust_7="13000.00000" pt_clust_8="13000.00000" pt_clust_9="13000.00000"></scales>
<clustering>
<clus scale="   82.815">  5  6 -1 -1</clus>
<clus scale="   75.853">  5  9 -1 -1</clus>
<clus scale="   88.836">  7  8 -1 -1</clus>
<clus scale="  119.392">  1  7  2 -1</clus>
<clus scale="  167.350">  2  5  1 -1</clus>
</clustering>
</event>
<event>
 9    1  0.2728138E-005  0.7486414E+03  0.7546771E-02  0.1012104E+00
         21   -1    0    0  501  502  0.00000000000E+00  0.00000000000E+00  0.38286499033E+03  0.38286499033E+03  0.00000000000E+00 0. -1.
          3   -1    0    0  502    0 -0.00000000000E+00 -0.00000000000E+00 -0.55453873432E+03  0.55453873432E+03  0.00000000000E+00 0. -1.
         23    2    1    2    0    0  0.89073964974E+02  0.88330841707E+02 -0.98517351935E+02  0.18519645788E+03  0.94103934812E+02 0.  0.
        -24    2    1    2    0    0  0.27253543543E+03  0.55019449448E+02 -0.18629288855E+03  0.34710168636E+03  0.92042582365E+02 0.  0.
         11    1    4    4    0    0  0.14727782401E+03 -0.15565571709E+02 -0.10883127484E+03  0.18378599199E+03  0.00000000000E+00 0. -1.
        -12    1    4    4    0    0  0.12525761142E+03  0.70585021157E+02 -0.77461613713E+02  0.16331569437E+03  0.00000000000E+00 0.  1.
        -11    1    3    3    0    0  0.54767524219E+02  0.19229216153E+02 -0.90658078236E+02  0.10764818444E+03  0.00000000000E+00 0.  1.
         11    1    3    3    0    0  0.34306440755E+02  0.69101625553E+02 -0.78592736988E+01  0.77548273446E+02  0.00000000000E+00 0. -1.
          4    1    1    2  501    0 -0.36160940040E+03 -0.14335029115E+03  0.11313649650E+03  0.40510558040E+03  0.00000000000E+00 0. -1.
<scales pt_clust_5="13000.00000" pt_clust_6="13000.00000" pt_clust_7="13000.00000" pt_clust_8="13000.00000" pt_clust_9="13000.00000"></scales>
<clustering>
<clus scale="   92.043">  5  6 -1 -1</clus>
<clus scale="   94.104">  7  8 -1 -1</clus>
<clus scale="  156.819">  2  7  1 -1</clus>
<clus scale="  348.616">  5  9 -1 -1</clus>
<clus scale="  748.641">  1  5  2 -1</clus>
</clustering>
</event>
<event>
 9    1  0.2728138E-005  0.3216061E+03  0.7546771E-02  0.1099638E+00
          1   -1    0    0  502    0 -0.00000000000E+00  0.00000000000E+00  0.12295364115E+03  0.12295364115E+03  0.00000000000E+00 0. -1.
         21   -1    0    0  501  502  0.00000000000E+00 -0.00000000000E+00 -0.62032432417E+03  0.62032432417E+03  0.00000000000E+00 0.  1.
         23    2    1    2    0    0 -0.10234325923E+02 -0.13772105218E+03 -0.35374009554E+03  0.39105609773E+03  0.93386223501E+02 0.  0.
        -24    2    1    2    0    0  0.95588078816E+02 -0.35786139727E+02 -0.68722258230E+02  0.14485440010E+03  0.76435069469E+02 0.  0.
         11    1    4    4    0    0  0.67824844835E+02  0.89479450825E+01 -0.60968158094E+02  0.91637282803E+02  0.00000000000E+00 0. -1.
        -12    1    4    4    0    0  0.27763233982E+02 -0.44734084810E+02 -0.77541001356E+01  0.53217117301E+02  0.00000000000E+00 0.  1.
        -13    1    3    3    0    0 -0.50968869033E+02 -0.65543889650E+02 -0.19621125446E+03  0.21305558772E+03  0.00000000000E+00 0.  1.
         13    1    3    3    0    0  0.40734543110E+02 -0.72177162531E+02 -0.15752884108E+03  0.17800051002E+03  0.00000000000E+00 0. -1.
          2    1    1    2  501    0 -0.85353752894E+02  0.17350719191E+03 -0.74908329250E+02  0.20736746748E+03  0.00000000000E+00 0. -1.
<scales pt_clust_5="13000.00000" pt_clust_6="13000.00000" pt_clust_7="13000.00000" pt_clust_8="13000.00000" pt_clust_9="13000.00000"></scales>
<clustering>
<clus scale="   76.435">  5  6 -1 -1</clus>
<clus scale="   93.386">  7  8 -1 -1</clus>
<clus scale="  166.712">  1  7  2 -1</clus>
<clus scale="  125.864">  5  9 -1 -1</clus>
<clus scale="  321.606">  2  5  1 -1</clus>
</clustering>
</event>
<event>
 9    1  0.2728138E-005  0.6476282E+03  0.7546771E-02  0.1023104E+00
          1   -1    0    0  502    0 -0.00000000000E+00  0.00000000000E+00  0.35774277881E+03  0.35774277881E+03  0.00000000000E+00 0. -1.
         21   -1    0    0  501  502  0.00000000000E+00 -0.00000000000E+00 -0.49453625936E+03  0.49453625936E+03  0.00000000000E+00 0. -1.
         23    2    1    2    0    0  0.42294344430E+02 -0.14028230029E+03 -0.10752053565E+03  0.20398963919E+03  0.92645409828E+02 0.  0.
        -24    2    1    2    0    0 -0.66046680165E+02 -0.14297219077E+03  0.21169086818E+03  0.27564903701E+03  0.79788198610E+02 0.  0.
         13    1    4    4    0    0 -0.61632842733E+01 -0.97795713788E+02  0.92093839328E+02  0.13447402333E+03  0.00000000000E+00 0. -1.
        -14    1    4    4    0    0 -0.59883395892E+02 -0.45176476978E+02  0.11959702886E+03  0.14117501368E+03  0.00000000000E+00 0.  1.
        -13    1    3    3    0    0  0.44068855337E+02 -0.46183668743E+02 -0.38219375537E+01  0.63949999812E+02  0.00000000000E+00 0.  1.
         13    1    3    3    0    0 -0.17745109075E+01 -0.94098631551E+02 -0.10369859810E+03  0.14003963937E+03  0.00000000000E+00 0. -1.
          2    1    1    2  501    0  0.23752335736E+02  0.28325449106E+03 -0.24096381308E+03  0.37264036198E+03  0.00000000000E+00 0. -1.
<scales pt_clust_5="13000.00000" pt_clust_6="13000.00000" pt_clust_7="13000.00000" pt_clust_8="13000.00000" pt_clust_9="13000.00000"></scales>
<clustering>
<clus scale="   79.788">  5  6 -1 -1</clus>
<clus scale="   92.645">  7  8 -1 -1</clus>
<clus scale="  173.353">  1  7  2 -1</clus>
<clus scale="  255.521">  5  9 -1 -1</clus>
<clus scale="  647.628">  2  5  1 -1</clus>
</clustering>
</event>
<event>
 9    1  0.2728138E-005  0.2804240E+03  0.7546771E-02  0.1135841E+00
         21   -1    0    0  501  502  0.00000000000E+00  0.00000000000E+00  0.92482551050E+02  0.92482551050E+02  0.00000000000E+00 0. -1.
          1   -1    0    0  502    0 -0.00000000000E+00 -0.00000000000E+00 -0.49525468166E+03  0.49525468166E+03  0.00000000000E+00 0. -1.
         23    2    1    2    0    0 -0.33969252402E+02  0.23863002260E+02 -0.54609186874E+01  0.10143091249E+03  0.92385363505E+02 0.  0.
        -24    2    1    2    0    0  0.51510406256E+02 -0.12129127131E+03 -0.33581245701E+03  0.36976423964E+03  0.81183078212E+02 0.  0.
         11    1    4    4    0    0  0.66675682792E+02 -0.12232934203E+03 -0.30867073189E+03  0.33865577704E+03  0.00000000000E+00 0. -1.
        -12    1    4    4    0    0 -0.15165276535E+02  0.10380707153E+01 -0.27141725121E+02  0.31108462606E+02  0.00000000000E+00 0.  1.
        -13    1    3    3    0    0 -0.61559347070E+02 -0.10097484840E+01 -0.14388541522E+02  0.63226599868E+02  0.00000000000E+00 0.  1.
         13    1    3    3    0    0  0.27590094669E+02  0.24872750744E+02  0.89276228347E+01  0.38204312621E+02  0.00000000000E+00 0. -1.
          2    1    1    2  501    0 -0.17541153855E+02  0.97428269050E+02 -0.61498754908E+02  0.11654208057E+03  0.00000000000E+00 0. -1.
<scales pt_clust_5="13000.00000" pt_clust_6="13000.00000" pt_clust_7="13000.00000" pt_clust_8="13000.00000" pt_clust_9="13000.00000"></scales>
<clustering>
<clus scale="   81.183">  5  6 -1 -1</clus>
<clus scale="   92.385">  7  8 -1 -1</clus>
<clus scale="   98.995">  5  9 -1 -1</clus>
<clus scale="  101.284">  2  7  1 -1</clus>
<clus scale="  280.424">  1  5  2 -1</clus>
</clustering>
</event>
<event>
 9    1  0.2728138E-005  0.2101293E+03  0.7546771E-02  0.1169192E+00
          1   -1    0    0  502    0 -0.00000000000E+00  0.00000000000E+00  0.20534704310E+03  0.20534704310E+03  0.00000000000E+00 0. -1.
         21   -1    0    0  501  502  0.00000000000E+00 -0.00000000000E+00 -0.13488659277E+03  0.13488659277E+03  0.00000000000E+00 0. -1.
         23    2    1    2    0    0 -0.59857204481E+02  0.79073995596E+01  0.70113256419E+02  0.13010401395E+03  0.91464604219E+02 0.  0.
        -24    2    1    2    0    0  0.46582118396E+02 -0.34120149256E+02 -0.76623763624E+02  0.12774112478E+03  0.84335730671E+02 0.  0.
         11    1    4    4    0    0 -0.23561160200E+02  0.13564900193E+01 -0.18163740895E+02  0.29780695398E+02  0.00000000000E+00 0. -1.
        -12    1    4    4    0    0  0.70143278596E+02 -0.35476639275E+02 -0.58460022729E+02  0.97960429378E+02  0.00000000000E+00 0.  1.
        -11    1    3    3    0    0  0.70470938755E+01 -0.28743257034E+02  0.54330859741E+01  0.30089113982E+02  0.00000000000E+00 0.  1.
         11    1    3    3    0    0 -0.66904298356E+02  0.36650656594E+02  0.64680170445E+02  0.10001489997E+03  0.00000000000E+00 0. -1.
          2    1    1    2  501    0  0.13275086084E+02  0.26212749696E+02  0.76970957536E+02  0.82388497141E+02  0.00000000000E+00 0. -1.
<scales pt_clust_5="13000.00000" pt_clust_6="13000.00000" pt_clust_7="13000.00000" pt_clust_8="13000.00000" pt_clust_9="13000.00000"></scales>
<clustering>
<clus scale="   84.336">  5  6 -1 -1</clus>
<clus scale="   29.383">  5  9 -1 -1</clus>
<clus scale="   91.465">  7  8 -1 -1</clus>
<clus scale="  109.596">  1  7  2 -1</clus>
<clus scale="  210.129">  2  5  1 -1</clus>
</clustering>
</event>
<event>
 9    1  0.2728138E-005  0.1302626E+03  0.7546771E-02  0.1231831E+00
         21   -1    0    0  501  502  0.00000000000E+00  0.00000000000E+00  0.10971429149E+03  0.10971429149E+03  0.00000000000E+00 0.  1.
          1   -1    0    0  502    0 -0.00000000000E+00 -0.00000000000E+00 -0.31068827021E+03  0.31068827021E+03  0.00000000000E+00 0. -1.
         23    2    1    2    0    0 -0.19103553290E+02 -0.72788176333E+02 -0.25374213799E+03  0.27985785109E+03  0.90952074546E+02 0.  0.
        -24    2    1    2    0    0  0.27738151887E+02  0.33785944174E+02  0.34309751845E+02  0.96539674412E+02  0.78942096312E+02 0.  0.
         11    1    4    4    0    0 -0.20187911910E+02 -0.91676632956E+01 -0.26408299088E+01  0.22328721867E+02  0.00000000000E+00 0. -1.
        -12    1    4    4    0    0  0.47926063797E+02  0.42953607470E+02  0.36950581754E+02  0.74210952545E+02  0.00000000000E+00 0.  1.
        -11    1    3    3    0    0  0.33427845650E+02 -0.14942436909E+02 -0.11421524334E+03  0.11994089835E+03  0.00000000000E+00 0.  1.
         11    1    3    3    0    0 -0.52531398940E+02 -0.57845739424E+02 -0.13952689465E+03  0.15991695274E+03  0.00000000000E+00 0. -1.
          2    1    1    2  501    0 -0.86345985969E+01  0.39002232159E+02  0.18458407427E+02  0.44005036201E+02  0.00000000000E+00 0. -1.
<scales pt_clust_5="13000.00000" pt_clust_6="13000.00000" pt_clust_7="13000.00000" pt_clust_8="13000.00000" pt_clust_9="13000.00000"></scales>
<clustering>
<clus scale="   78.942">  5  6 -1 -1</clus>
<clus scale="   39.947">  5  9 -1 -1</clus>
<clus scale="   90.952">  7  8 -1 -1</clus>
<clus scale="  118.048">  2  7  1 -1</clus>
<clus scale="  130.263">  1  5  2 -1</clus>
</clustering>
</event>
<event>
 9    1  0.2728138E-005  0.2149511E+03  0.7546771E-02  0.1146934E+00
          1   -1    0    0  502    0 -0.00000000000E+00  0.00000000000E+00  0.63869022578E+03  0.63869022578E+03  0.00000000000E+00 0. -1.
         21   -1    0    0  501  502  0.00000000000E+00 -0.00000000000E+00 -0.79279286252E+02  0.79279286252E+02  0.00000000000E+00 0. -1.
         23    2    1    2    0    0  0.14553378387E+03 -0.10838006457E+02  0.43905201221E+03  0.47161557804E+03  0.91416844137E+02 0.  0.
        -24    2    1    2    0    0 -0.28257484448E+02 -0.55529237989E+01  0.11448006657E+02  0.85468938919E+02  0.79652760614E+02 0.  0.
         11    1    4    4    0    0 -0.39182950903E+02 -0.31180916934E+02 -0.90425582931E+01  0.50885371992E+02  0.00000000000E+00 0. -1.
        -12    1    4    4    0    0  0.10925466455E+02  0.25627993135E+02  0.20490564950E+02  0.34583566926E+02  0.00000000000E+00 0.  1.
        -11    1    3    3    0    0  0.87395736031E+02 -0.46143260968E+02  0.20016171403E+03  0.22323065867E+03  0.00000000000E+00 0. -1.
         11    1    3    3    0    0  0.58138047839E+02  0.35305254512E+02  0.23889029819E+03  0.24838491937E+03  0.00000000000E+00 0.  1.
          2    1    1    2  501    0 -0.11727629942E+03  0.16390930255E+02  0.10891092066E+03  0.16088499507E+03  0.00000000000E+00 0. -1.
<scales pt_clust_5="13000.00000" pt_clust_6="13000.00000" pt_clust_7="13000.00000" pt_clust_8="13000.00000" pt_clust_9="13000.00000"></scales>
<clustering>
<clus scale="   79.653">  5  6 -1 -1</clus>
<clus scale="   91.417">  7  8 -1 -1</clus>
<clus scale="  118.416">  5  9 -1 -1</clus>
<clus scale="  172.205">  1  7  2 -1</clus>
<clus scale="  214.951">  2  5  1 -1</clus>
</clustering>
</event>
<event>
 9    1  0.2728138E-005  0.5656545E+03  0.7546771E-02  0.1058363E+00
         21   -1    0    0  501  502  0.00000000000E+00  0.00000000000E+00  0.13389871239E+03  0.13389871239E+03  0.00000000000E+00 0. -1.
          1   -1    0    0  502    0 -0.00000000000E+00 -0.00000000000E+00 -0.99703161825E+03  0.99703161825E+03  0.00000000000E+00 0. -1.
         23    2    1    2    0    0  0.78599384330E+01  0.68038673638E+01 -0.36645848971E+03  0.37816845160E+03  0.92798070360E+02 0.  0.
        -24    2    1    2    0    0  0.23648701915E+03 -0.14137297318E+03 -0.29252409873E+03  0.40708626227E+03  0.65088008261E+02 0.  0.
         13    1    4    4    0    0  0.11647435384E+03 -0.90598160551E+02 -0.11612718464E+03  0.18777599636E+03  0.00000000000E+00 0. -1.
        -14    1    4    4    0    0  0.12001266532E+03 -0.50774812631E+02 -0.17639691409E+03  0.21931026591E+03  0.00000000000E+00 0.  1.
        -11    1    3    3    0    0 -0.36240571382E+02 -0.10566316876E+02 -0.88759097654E+02  0.96453115464E+02  0.00000000000E+00 0.  1.
         11    1    3    3    0    0  0.44100509815E+02  0.17370184240E+02 -0.27769939206E+03  0.28171533614E+03  0.00000000000E+00 0. -1.
          2    1    1    2  501    0 -0.24434695759E+03  0.13456910582E+03 -0.20415031743E+03  0.34567561677E+03  0.00000000000E+00 0. -1.
<scales pt_clust_5="13000.00000" pt_clust_6="13000.00000" pt_clust_7="13000.00000" pt_clust_8="13000.00000" pt_clust_9="13000.00000"></scales>
<clustering>
<clus scale="   65.088">  5  6 -1 -1</clus>
<clus scale="   92.798">  7  8 -1 -1</clus>
<clus scale="   93.379">  2  7  1 -1</clus>
<clus scale="  277.400">  5  9 -1 -1</clus>
<clus scale="  565.654">  1  5  2 -1</clus>
</clustering>
</event>
<event>
 9    1  0.2728138E-005  0.3397825E+03  0.7546771E-02  0.1110285E+00
         21   -1    0    0  501  502  0.00000000000E+00  0.00000000000E+00  0.92298839302E+02  0.92298839302E+02  0.00000000000E+00 0. -1.
          1   -1    0    0  502    0 -0.00000000000E+00 -0.00000000000E+00 -0.54391239789E+03  0.54391239789E+03  0.00000000000E+00 0. -1.
         23    2    1    2    0    0  0.46152076579E+02 -0.29745827566E+02 -0.12548229930E+03  0.16524017824E+03  0.92432032521E+02 0.  0.
        -24    2    1    2    0    0  0.86033717540E+02 -0.16327258285E+02 -0.36865162029E+01  0.11945089488E+03  0.81157537971E+02 0.  0.
         11    1    4    4    0    0  0.64695731678E+02  0.45667595910E+01 -0.37034220806E+02  0.74685517346E+02  0.00000000000E+00 0. -1.
        -12    1    4    4    0    0  0.21337985862E+02 -0.20894017876E+02  0.33347704603E+02  0.44765377536E+02  0.00000000000E+00 0.  1.
        -11    1    3    3    0    0  0.97618124216E+01  0.31691892806E+02 -0.23089807779E+02  0.40408022405E+02  0.00000000000E+00 0. -1.
         11    1    3    3    0    0  0.36390264157E+02 -0.61437720372E+02 -0.10239249152E+03  0.12483215583E+03  0.00000000000E+00 0.  1.
          2    1    1    2  501    0 -0.13218579412E+03  0.46073085850E+02 -0.32244474308E+03  0.35152016407E+03  0.00000000000E+00 0. -1.
<scales pt_clust_5="13000.00000" pt_clust_6="13000.00000" pt_clust_7="13000.00000" pt_clust_8="13000.00000" pt_clust_9="13000.00000"></scales>
<clustering>
<clus scale="   81.158">  5  6 -1 -1</clus>
<clus scale="   92.432">  7  8 -1 -1</clus>
<clus scale="  107.511">  2  7  1 -1</clus>
<clus scale="   95.484">  5  9 -1 -1</clus>
<clus scale="  339.782">  1  5  2 -1</clus>
</clustering>
</event>
<event>
 9    1  0.2728138E-005  0.3494057E+03  0.7546771E-02  0.1106335E+00
         21   -1    0    0  501  502  0.00000000000E+00  0.00000000000E+00  0.55397181650E+02  0.55397181650E+02  0.00000000000E+00 0. -1.
          1   -1    0    0  502    0 -0.00000000000E+00 -0.00000000000E+00 -0.10401947802E+04  0.10401947802E+04  0.00000000000E+00 0. -1.
         23    2    1    2    0    0 -0.55225882515E+02 -0.24551422150E+02 -0.11732969501E+03  0.16039951424E+03  0.91154135438E+02 0.  0.
        -24    2    1    2    0    0 -0.76253608246E+02 -0.59367449833E+02 -0.12832322752E+03  0.17976933064E+03  0.80691106367E+02 0.  0.
         13    1    4    4    0    0  0.93406187169E+01 -0.30521336953E+02 -0.16213932180E+02  0.35800708990E+02  0.00000000000E+00 0. -1.
        -14    1    4    4    0    0 -0.85594226963E+02 -0.28846112880E+02 -0.11210929534E+03  0.14396862165E+03  0.00000000000E+00 0.  1.
        -13    1    3    3    0    0  0.23628569653E+02 -0.41376657811E+01 -0.47070355901E+02  0.52830369927E+02  0.00000000000E+00 0.  1.
         13    1    3    3    0    0 -0.78854452168E+02 -0.20413756369E+02 -0.70259339106E+02  0.10756914431E+03  0.00000000000E+00 0. -1.
          2    1    1    2  501    0  0.13147949076E+03  0.83918871983E+02 -0.73914467598E+03  0.75542311693E+03  0.00000000000E+00 0. -1.
<scales pt_clust_5="13000.00000" pt_clust_6="13000.00000" pt_clust_7="13000.00000" pt_clust_8="13000.00000" pt_clust_9="13000.00000"></scales>
<clustering>
<clus scale="   80.691">  5  6 -1 -1</clus>
<clus scale="   91.154">  7  8 -1 -1</clus>
<clus scale="  109.370">  2  7  1 -1</clus>
<clus scale="  106.693">  5  9 -1 -1</clus>
<clus scale="  349.406">  1  5  2 -1</clus>
</clustering>
</event>
<event>
 9    1  0.2728138E-005  0.2584303E+03  0.7546771E-02  0.1128722E+00
         21   -1    0    0  501  502  0.00000000000E+00  0.00000000000E+00  0.35578894815E+03  0.35578894815E+03  0.00000000000E+00 0. -1.
          1   -1    0    0  502    0 -0.00000000000E+00 -0.00000000000E+00 -0.24520993125E+03  0.24520993125E+03  0.00000000000E+00 0. -1.
         23    2    1    2    0    0 -0.89709003433E+02  0.89211660298E+02 -0.16327646925E+03  0.22445801284E+03  0.87839447211E+02 0.  0.
        -24    2    1    2    0    0  0.88481193701E+02  0.13612637431E+02  0.23416253073E+03  0.26631439773E+03  0.89872365631E+02 0.  0.
         13    1    4    4    0    0  0.94529862443E+02  0.24509952296E+02  0.23431431056E+03  0.25385001239E+03  0.00000000000E+00 0. -1.
        -14    1    4    4    0    0 -0.60486687417E+01 -0.10897314865E+02 -0.15177983466E+00  0.12464385341E+02  0.00000000000E+00 0.  1.
        -13    1    3    3    0    0 -0.27553489064E+02  0.75231798601E+02 -0.49840316930E+02  0.94356109881E+02  0.00000000000E+00 0.  1.
         13    1    3    3    0    0 -0.62155514369E+02  0.13979861697E+02 -0.11343615232E+03  0.13010190296E+03  0.00000000000E+00 0. -1.
          2    1    1    2  501    0  0.12278097325E+01 -0.10282429773E+03  0.39692955431E+02  0.11022646883E+03  0.00000000000E+00 0. -1.
<scales pt_clust_5="13000.00000" pt_clust_6="13000.00000" pt_clust_7="13000.00000" pt_clust_8="13000.00000" pt_clust_9="13000.00000"></scales>
<clustering>
<clus scale="   87.839">  7  8 -1 -1</clus>
<clus scale="   89.872">  5  6 -1 -1</clus>
<clus scale="  102.832">  5  9 -1 -1</clus>
<clus scale="  154.020">  2  7  1 -1</clus>
<clus scale="  258.430">  1  5  2 -1</clus>
</clustering>
</event>
<event>
 9    1  0.2728138E-005  0.1862043E+03  0.7546771E-02  0.1176873E+00
         21   -1    0    0  501  502  0.00000000000E+00  0.00000000000E+00  0.64052191462E+02  0.64052191462E+02  0.00000000000E+00 0. -1.
          1   -1    0    0  502    0 -0.00000000000E+00 -0.00000000000E+00 -0.39717267165E+03  0.39717267165E+03  0.00000000000E+00 0. -1.
         23    2    1    2    0    0  0.89476542535E+02  0.33568911085E+02 -0.12515138098E+03  0.18207759284E+03  0.91413665265E+02 0.  0.
        -24    2    1    2    0    0  0.40039464211E+01 -0.37506801924E+02 -0.12231992300E+03  0.15230133938E+03  0.82527223607E+02 0.  0.
         13    1    4    4    0    0 -0.51553059530E+01 -0.41131839261E+02 -0.14326330082E+02  0.43859424461E+02  0.00000000000E+00 0. -1.
        -14    1    4    4    0    0  0.91592523740E+01  0.36250373373E+01 -0.10799359292E+03  0.10844191492E+03  0.00000000000E+00 0.  1.
        -11    1    3    3    0    0 -0.47534444702E+01  0.28177685621E+02 -0.45532939506E+01  0.28936303964E+02  0.00000000000E+00 0.  1.
         11    1    3    3    0    0  0.94229987005E+02  0.53912254643E+01 -0.12059808703E+03  0.15314128887E+03  0.00000000000E+00 0. -1.
          2    1    1    2  501    0 -0.93480488956E+02  0.39378908384E+01 -0.85649176212E+02  0.12684593090E+03  0.00000000000E+00 0. -1.
<scales pt_clust_5="13000.00000" pt_clust_6="13000.00000" pt_clust_7="13000.00000" pt_clust_8="13000.00000" pt_clust_9="13000.00000"></scales>
<clustering>
<clus scale="   82.527">  5  6 -1 -1</clus>
<clus scale="   91.414">  7  8 -1 -1</clus>
<clus scale="   93.563">  5  9 -1 -1</clus>
<clus scale="  132.247">  2  7  1 -1</clus>
<clus scale="  186.204">  1  5  2 -1</clus>
</clustering>
</event>
<event>
 9    1  0.2728138E-005  0.1773375E+03  0.7546771E-02  0.1199175E+00
          1   -1    0    0  502    0 -0.00000000000E+00  0.00000000000E+00  0.52721218942E+03  0.52721218942E+03  0.00000000000E+00 0. -1.
         21   -1    0    0  501  502  0.00000000000E+00 -0.00000000000E+00 -0.35027795406E+02  0.35027795406E+02  0.00000000000E+00 0.  1.
         23    2    1    2    0    0  0.54966883219E+01 -0.18069444982E+02  0.19415880842E+03  0.21544346240E+03  0.91441370195E+02 0.  0.
        -24    2    1    2    0    0 -0.13901964485E+01  0.52818906881E+02  0.75696487423E+02  0.12173071810E+03  0.79351370192E+02 0.  0.
         13    1    4    4    0    0 -0.10473661758E+02  0.58812487858E+02  0.87325796800E+02  0.10580359685E+03  0.00000000000E+00 0. -1.
        -14    1    4    4    0    0  0.90834653097E+01 -0.59935809770E+01 -0.11629309377E+02  0.15927121257E+02  0.00000000000E+00 0.  1.
        -13    1    3    3    0    0  0.16125631337E+02  0.35279280090E+02  0.87553830357E+02  0.95761875503E+02  0.00000000000E+00 0. -1.
         13    1    3    3    0    0 -0.10628943015E+02 -0.53348725072E+02  0.10660497806E+03  0.11968158690E+03  0.00000000000E+00 0.  1.
          2    1    1    2  501    0 -0.41064918733E+01 -0.34749461899E+02  0.22232909817E+03  0.22506580432E+03  0.00000000000E+00 0. -1.
<scales pt_clust_5="13000.00000" pt_clust_6="13000.00000" pt_clust_7="13000.00000" pt_clust_8="13000.00000" pt_clust_9="13000.00000"></scales>
<clustering>
<clus scale="   79.351">  5  6 -1 -1</clus>
<clus scale="   34.991">  5  9 -1 -1</clus>
<clus scale="   91.441">  7  8 -1 -1</clus>
<clus scale="   93.372">  1  7  2 -1</clus>
<clus scale="  177.337">  2  5  1 -1</clus>
</clustering>
</event>
<event>
 9    1  0.2728138E-005  0.1174037E+03  0.7546771E-02  0.1258253E+00
         21   -1    0    0  501  502  0.00000000000E+00  0.00000000000E+00  0.12549418228E+03  0.12549418228E+03  0.00000000000E+00 0.  1.
          1   -1    0    0  502    0 -0.00000000000E+00 -0.00000000000E+00 -0.11579462734E+03  0.11579462734E+03  0.00000000000E+00 0. -1.
         23    2    1    2    0    0  0.24121383941E+02  0.15847566396E+02 -0.52659605034E+02  0.10835167448E+03  0.90189050536E+02 0.  0.
        -24    2    1    2    0    0  0.74956978773E+01  0.14968826110E+01  0.48425232106E+02  0.94276766283E+02  0.80527507176E+02 0.  0.
         11    1    4    4    0    0  0.12732227680E+02  0.39935837301E+02  0.22012306762E+02  0.47344718519E+02  0.00000000000E+00 0. -1.
        -12    1    4    4    0    0 -0.52365298032E+01 -0.38438954690E+02  0.26412925344E+02  0.46932047764E+02  0.00000000000E+00 0.  1.
        -11    1    3    3    0    0 -0.22313817982E+02  0.26470896606E+02  0.33993313939E+01  0.34787501980E+02  0.00000000000E+00 0.  1.
         11    1    3    3    0    0  0.46435201923E+02 -0.10623330210E+02 -0.56058936428E+02  0.73564172501E+02  0.00000000000E+00 0. -1.
          2    1    1    2  501    0 -0.31617081818E+02 -0.17344449007E+02  0.13933927877E+02  0.38660368857E+02  0.00000000000E+00 0. -1.
<scales pt_clust_5="13000.00000" pt_clust_6="13000.00000" pt_clust_7="13000.00000" pt_clust_8="13000.00000" pt_clust_9="13000.00000"></scales>
<clustering>
<clus scale="   80.528">  5  6 -1 -1</clus>
<clus scale="   36.062">  5  9 -1 -1</clus>
<clus scale="   90.189">  7  8 -1 -1</clus>
<clus scale="   94.695">  2  7  1 -1</clus>
<clus scale="  117.404">  1  5  2 -1</clus>
</clustering>
</event>
<event>
 9    1  0.2728138E-005  0.5604215E+03  0.7546771E-02  0.1010812E+00
         21   -1    0    0  501  502  0.00000000000E+00  0.00000000000E+00  0.11362806035E+03  0.11362806035E+03  0.00000000000E+00 0. -1.
          1   -1    0    0  502    0 -0.00000000000E+00 -0.00000000000E+00 -0.20200204283E+04  0.20200204283E+04  0.00000000000E+00 0. -1.
         23    2    1    2    0    0  0.32753268422E+03  0.18838586528E+03 -0.92591994508E+03  0.10043131190E+04  0.92467307173E+02 0.  0.
        -24    2    1    2    0    0 -0.52751789248E+02 -0.33240501810E+02 -0.65596659108E+00  0.99959387744E+02  0.78126606714E+02 0.  0.
         11    1    4    4    0    0 -0.23211609785E+02 -0.40980449523E+02  0.30676693888E+02  0.56207078022E+02  0.00000000000E+00 0. -1.
        -12    1    4    4    0    0 -0.29540179463E+02  0.77399477123E+01 -0.31332660479E+02  0.43752309722E+02  0.00000000000E+00 0.  1.
        -13    1    3    3    0    0  0.21125736088E+03  0.70680061336E+02 -0.49970475322E+03  0.54711076025E+03  0.00000000000E+00 0.  1.
         13    1    3    3    0    0  0.11627532334E+03  0.11770580395E+03 -0.42621519186E+03  0.45720235878E+03  0.00000000000E+00 0. -1.
          2    1    1    2  501    0 -0.27478089497E+03 -0.15514536347E+03 -0.97981645630E+03  0.10293759819E+04  0.00000000000E+00 0. -1.
<scales pt_clust_5="13000.00000" pt_clust_6="13000.00000" pt_clust_7="13000.00000" pt_clust_8="13000.00000" pt_clust_9="13000.00000"></scales>
<clustering>
<clus scale="   78.127">  5  6 -1 -1</clus>
<clus scale="   92.467">  7  8 -1 -1</clus>
<clus scale="  315.555">  5  9 -1 -1</clus>
<clus scale="  388.995">  2  7  1 -1</clus>
<clus scale="  560.421">  1  5  2 -1</clus>
</clustering>
</event>
<event>
 9    1  0.2728138E-005  0.3621114E+03  0.7546771E-02  0.1084998E+00
          1   -1    0    0  502    0 -0.00000000000E+00  0.00000000000E+00  0.85572245335E+02  0.85572245335E+02  0.00000000000E+00 0. -1.
         21   -1    0    0  501  502  0.00000000000E+00 -0.00000000000E+00 -0.89267374985E+03  0.89267374985E+03  0.00000000000E+00 0.  1.
         23    2    1    2    0    0 -0.55006528374E+02  0.13412489725E+03 -0.38852766857E+03  0.42477631242E+03  0.92010652200E+02 0.  0.
        -24    2    1    2    0    0 -0.99083931166E+01  0.68503169275E+02 -0.25770146173E+02  0.10674066079E+03  0.77062362914E+02 0.  0.
         11    1    4    4    0    0 -0.31424323259E+02  0.62472208480E+02  0.33792068533E+01  0.70012027278E+02  0.00000000000E+00 0. -1.
        -12    1    4    4    0    0  0.21515930142E+02  0.60309607946E+01 -0.29149353027E+02  0.36728633515E+02  0.00000000000E+00 0.  1.
        -13    1    3    3    0    0 -0.41041941639E+02  0.96636621728E+02 -0.15105976869E+03  0.18396230959E+03  0.00000000000E+00 0. -1.
         13    1    3    3    0    0 -0.13964586735E+02  0.37488275527E+02 -0.23746789988E+03  0.24081400283E+03  0.00000000000E+00 0.  1.
          2    1    1    2  501    0  0.64914921490E+02 -0.20262806653E+03 -0.39280368977E+03  0.44672902198E+03  0.00000000000E+00 0. -1.
<scales pt_clust_5="13000.00000" pt_clust_6="13000.00000" pt_clust_7="13000.00000" pt_clust_8="13000.00000" pt_clust_9="13000.00000"></scales>
<clustering>
<clus scale="   77.062">  5  6 -1 -1</clus>
<clus scale="   92.011">  7  8 -1 -1</clus>
<clus scale="  171.701">  1  7  2 -1</clus>
<clus scale="  155.071">  5  9 -1 -1</clus>
<clus scale="  362.111">  2  5  1 -1</clus>
</clustering>
</event>
<event>
 9    1  0.2728138E-005  0.2303081E+03  0.7546771E-02  0.1156559E+00
         21   -1    0    0  501  502  0.00000000000E+00  0.00000000000E+00  0.71507530676E+03  0.71507530676E+03  0.00000000000E+00 0.  1.
          1   -1    0    0  502    0 -0.00000000000E+00 -0.00000000000E+00 -0.41405063837E+02  0.41405063837E+02  0.00000000000E+00 0. -1.
         23    2    1    2    0    0  0.62467028768E+02 -0.23171172103E+02  0.26229339483E+03  0.28502228041E+03  0.89447428466E+02 0.  0.
        -24    2    1    2    0    0  0.43225606958E+02  0.58042755723E+02  0.27365614677E+03  0.29438761788E+03  0.80863887528E+02 0.  0.
         11    1    4    4    0    0  0.52663431391E+02  0.73289517010E+02  0.23639476592E+03  0.25303611534E+03  0.00000000000E+00 0. -1.
        -12    1    4    4    0    0 -0.94378244326E+01 -0.15246761286E+02  0.37261380847E+02  0.41351502540E+02  0.00000000000E+00 0.  1.
        -11    1    3    3    0    0  0.81006543554E+02 -0.36020564340E+02  0.19991031008E+03  0.21868624381E+03  0.00000000000E+00 0.  1.
         11    1    3    3    0    0 -0.18539514786E+02  0.12849392238E+02  0.62383084743E+02  0.66336036598E+02  0.00000000000E+00 0. -1.
          2    1    1    2  501    0 -0.10569263573E+03 -0.34871583621E+02  0.13772070133E+03  0.17707047231E+03  0.00000000000E+00 0. -1.
<scales pt_clust_5="13000.00000" pt_clust_6="13000.00000" pt_clust_7="13000.00000" pt_clust_8="13000.00000" pt_clust_9="13000.00000"></scales>
<clustering>
<clus scale="   80.864">  5  6 -1 -1</clus>
<clus scale="   89.447">  7  8 -1 -1</clus>
<clus scale="  111.297">  5  9 -1 -1</clus>
<clus scale="  111.534">  2  7  1 -1</clus>
<clus scale="  230.308">  1  5  2 -1</clus>
</clustering>
</event>
<event>
 9    1  0.2728138E-005  0.3666298E+03  0.7546771E-02  0.1098176E+00
         21   -1    0    0  501  502  0.00000000000E+00  0.00000000000E+00  0.87895080180E+02  0.87895080180E+02  0.00000000000E+00 0. -1.
          1   -1    0    0  502    0 -0.00000000000E+00 -0.00000000000E+00 -0.78638804523E+03  0.78638804523E+03  0.00000000000E+00 0. -1.
         23    2    1    2    0    0 -0.67002157743E+02 -0.31203967774E+02 -0.45546794557E+02  0.12544660381E+03  0.90550334990E+02 0.  0.
        -24    2    1    2    0    0  0.12261566759E+03  0.30490978272E+02 -0.67320718344E+03  0.68964294529E+03  0.80219564017E+02 0.  0.
         11    1    4    4    0    0  0.13201755113E+03  0.28997295013E+02 -0.56185305862E+03  0.57788263203E+03  0.00000000000E+00 0. -1.
        -12    1    4    4    0    0 -0.94018835399E+01  0.14936832594E+01 -0.11135412482E+03  0.11176031325E+03  0.00000000000E+00 0.  1.
        -13    1    3    3    0    0  0.11352691282E+02  0.17516393303E+02  0.31624635706E+01  0.21111816822E+02  0.00000000000E+00 0.  1.
         13    1    3    3    0    0 -0.78354849025E+02 -0.48720361077E+02 -0.48709258128E+02  0.10433478699E+03  0.00000000000E+00 0. -1.
          2    1    1    2  501    0 -0.55613509843E+02  0.71298950174E+00  0.20261012946E+02  0.59193576313E+02  0.00000000000E+00 0. -1.
<scales pt_clust_5="13000.00000" pt_clust_6="13000.00000" pt_clust_7="13000.00000" pt_clust_8="13000.00000" pt_clust_9="13000.00000"></scales>
<clustering>
<clus scale="   80.220">  5  6 -1 -1</clus>
<clus scale="   55.618">  5  9 -1 -1</clus>
<clus scale="   90.550">  7  8 -1 -1</clus>
<clus scale="  116.886">  2  7  1 -1</clus>
<clus scale="  366.630">  1  5  2 -1</clus>
</clustering>
</event>
<event>
 9    1  0.2728138E-005  0.2820222E+03  0.7546771E-02  0.1130918E+00
          1   -1    0    0  502    0 -0.00000000000E+00  0.00000000000E+00  0.64403111309E+03  0.64403111309E+03  0.00000000000E+00 0. -1.
         21   -1    0    0  501  502  0.00000000000E+00 -0.00000000000E+00 -0.65050872886E+02  0.65050872886E+02  0.00000000000E+00 0.  1.
         23    2    1    2    0    0 -0.15582002624E+02  0.63509968705E+02  0.87182055842E+02  0.14215875581E+03  0.91280261072E+02 0.  0.
        -24    2    1    2    0    0  0.70102663657E+02 -0.10114507272E+03  0.12203659920E+03  0.19127374808E+03  0.80919750203E+02 0.  0.
         13    1    4    4    0    0  0.81147202735E+02 -0.63341803075E+02  0.10866156119E+03  0.14968095206E+03  0.00000000000E+00 0. -1.
        -14    1    4    4    0    0 -0.11044539078E+02 -0.37803269641E+02  0.13375038008E+02  0.41592796020E+02  0.00000000000E+00 0.  1.
        -13    1    3    3    0    0  0.39889917637E+01  0.83903082370E+02  0.66509102116E+02  0.10714056165E+03  0.00000000000E+00 0.  1.
         13    1    3    3    0    0 -0.19570994387E+02 -0.20393113666E+02  0.20672953726E+02  0.35018194157E+02  0.00000000000E+00 0. -1.
          2    1    1    2  501    0 -0.54520661033E+02  0.37635104011E+02  0.36976158516E+03  0.37564948209E+03  0.00000000000E+00 0. -1.
<scales pt_clust_5="13000.00000" pt_clust_6="13000.00000" pt_clust_7="13000.00000" pt_clust_8="13000.00000" pt_clust_9="13000.00000"></scales>
<clustering>
<clus scale="   80.920">  5  6 -1 -1</clus>
<clus scale="   66.249">  5  9 -1 -1</clus>
<clus scale="   91.280">  7  8 -1 -1</clus>
<clus scale="  112.287">  1  7  2 -1</clus>
<clus scale="  282.022">  2  5  1 -1</clus>
</clustering>
</event>
<event>
 9    1  0.2728138E-005  0.1519095E+03  0.7546771E-02  0.1216695E+00
          3   -1    0    0  502    0 -0.00000000000E+00  0.00000000000E+00  0.21820488346E+03  0.21820488346E+03  0.00000000000E+00 0. -1.
         21   -1    0    0  501  502  0.00000000000E+00 -0.00000000000E+00 -0.11783511479E+03  0.11783511479E+03  0.00000000000E+00 0. -1.
         23    2    1    2    0    0  0.36285599103E+02 -0.27396720360E+02 -0.57350851686E+02  0.11705985502E+03  0.91360081439E+02 0.  0.
        -24    2    1    2    0    0 -0.12317829238E+02  0.20111388029E+02  0.29047250287E+02  0.87890989506E+02  0.79529154664E+02 0.  0.
         11    1    4    4    0    0 -0.24540424294E+02  0.46217516827E+02  0.98225326199E+01  0.53242590407E+02  0.00000000000E+00 0. -1.
        -12    1    4    4    0    0  0.12222595056E+02 -0.26106128798E+02  0.19224717667E+02  0.34648399099E+02  0.00000000000E+00 0.  1.
        -13    1    3    3    0    0  0.19074269626E+02 -0.42937741368E+02  0.80509354463E+01  0.47668595082E+02  0.00000000000E+00 0.  1.
         13    1    3    3    0    0  0.17211329478E+02  0.15541021008E+02 -0.65401787133E+02  0.69391259943E+02  0.00000000000E+00 0. -1.
          4    1    1    2  501    0 -0.23967769866E+02  0.72853323305E+01  0.12867337007E+03  0.13108915372E+03  0.00000000000E+00 0. -1.
<scales pt_clust_5="13000.00000" pt_clust_6="13000.00000" pt_clust_7="13000.00000" pt_clust_8="13000.00000" pt_clust_9="13000.00000"></scales>
<clustering>
<clus scale="   79.529">  5  6 -1 -1</clus>
<clus scale="   25.051">  5  9 -1 -1</clus>
<clus scale="   91.360">  7  8 -1 -1</clus>
<clus scale="  102.049">  1  7  2 -1</clus>
<clus scale="  151.910">  2  5  1 -1</clus>
</clustering>
</event>
<event>
 9    1  0.2728138E-005  0.1837225E+03  0.7546771E-02  0.1169925E+00
         21   -1    0    0  501  502  0.00000000000E+00  0.00000000000E+00  0.38417278947E+03  0.38417278947E+03  0.00000000000E+00 0. -1.
          1   -1    0    0  502    0 -0.00000000000E+00 -0.00000000000E+00 -0.22170680848E+03  0.22170680848E+03  0.00000000000E+00 0. -1.
         23    2    1    2    0    0 -0.64107200240E+02  0.11615819274E+03 -0.16480589478E+03  0.23056530180E+03  0.91634690893E+02 0.  0.
        -24    2    1    2    0    0  0.17365031213E+02 -0.60774584417E+02  0.14858085417E+03  0.18248624933E+03  0.85028621932E+02 0.  0.
         11    1    4    4    0    0 -0.20190000781E+02  0.32947245208E+00  0.82594743628E+02  0.85027268323E+02  0.00000000000E+00 0. -1.
        -12    1    4    4    0    0  0.37555031993E+02 -0.61104056869E+02  0.65986110542E+02  0.97458981004E+02  0.00000000000E+00 0.  1.
        -11    1    3    3    0    0 -0.40575345178E+02  0.73142514184E+01 -0.14933900976E+02  0.43850636352E+02  0.00000000000E+00 0.  1.
         11    1    3    3    0    0 -0.23531855063E+02  0.10884394132E+03 -0.14987199381E+03  0.18671466545E+03  0.00000000000E+00 0. -1.
          2    1    1    2  501    0  0.46742169028E+02 -0.55383608326E+02  0.17869102160E+03  0.19282804681E+03  0.00000000000E+00 0. -1.
<scales pt_clust_5="13000.00000" pt_clust_6="13000.00000" pt_clust_7="13000.00000" pt_clust_8="13000.00000" pt_clust_9="13000.00000"></scales>
<clustering>
<clus scale="   85.029">  5  6 -1 -1</clus>
<clus scale="   72.472">  5  9 -1 -1</clus>
<clus scale="   91.635">  7  8 -1 -1</clus>
<clus scale="  161.243">  2  7  1 -1</clus>
<clus scale="  183.722">  1  5  2 -1</clus>
</clustering>
</event>
<event>
 9    1  0.2728138E-005  0.2490523E+03  0.7546771E-02  0.1145436E+00
          1   -1    0    0  502    0 -0.00000000000E+00  0.00000000000E+00  0.77481852023E+03  0.77481852023E+03  0.00000000000E+00 0. -1.
         21   -1    0    0  501  502  0.00000000000E+00 -0.00000000000E+00 -0.42758826337E+02  0.42758826337E+02  0.00000000000E+00 0. -1.
         23    2    1    2    0    0  0.67506893721E+02 -0.15768194675E+02  0.21721057106E+03  0.24565369223E+03  0.91430233870E+02 0.  0.
        -24    2    1    2    0    0  0.61646824579E+02 -0.15427639090E+02  0.13586712416E+03  0.17032532476E+03  0.80700048321E+02 0.  0.
         11    1    4    4    0    0  0.65978799535E+02  0.13642519841E+02  0.65055963741E+02  0.93656813708E+02  0.00000000000E+00 0. -1.
        -12    1    4    4    0    0 -0.43319749553E+01 -0.29070158931E+02  0.70811160421E+02  0.76668511055E+02  0.00000000000E+00 0.  1.
        -13    1    3    3    0    0 -0.10315124035E+01 -0.35824280379E+02  0.35636283674E+02  0.50540951679E+02  0.00000000000E+00 0. -1.
         13    1    3    3    0    0  0.68538406125E+02  0.20056085704E+02  0.18157428738E+03  0.19511274055E+03  0.00000000000E+00 0.  1.
          2    1    1    2  501    0 -0.12915371830E+03  0.31195833765E+02  0.37898199867E+03  0.40159832957E+03  0.00000000000E+00 0. -1.
<scales pt_clust_5="13000.00000" pt_clust_6="13000.00000" pt_clust_7="13000.00000" pt_clust_8="13000.00000" pt_clust_9="13000.00000"></scales>
<clustering>
<clus scale="   80.700">  5  6 -1 -1</clus>
<clus scale="   91.430">  7  8 -1 -1</clus>
<clus scale="  114.740">  1  7  2 -1</clus>
<clus scale="   83.078">  5  9 -1 -1</clus>
<clus scale="  249.052">  2  5  1 -1</clus>
</clustering>
</event>
<event>
 9    1  0.2728138E-005  0.3745161E+03  0.7546771E-02  0.1098140E+00
         21   -1    0    0  501  502  0.00000000000E+00  0.00000000000E+00  0.84116281840E+02  0.84116281840E+02  0.00000000000E+00 0. -1.
          1   -1    0    0  502    0 -0.00000000000E+00 -0.00000000000E+00 -0.69847845887E+03  0.69847845887E+03  0.00000000000E+00 0. -1.
         23    2    1    2    0    0  0.26447805225E+02  0.42423747027E+02 -0.12461754061E+03  0.16606241349E+03  0.97713525338E+02 0.  0.
        -24    2    1    2    0    0 -0.18910642589E+02 -0.13561958550E+03 -0.49794643490E+03  0.52267316343E+03  0.80537564947E+02 0.  0.
         11    1    4    4    0    0 -0.39630626806E+02 -0.13103147100E+03 -0.41208296853E+03  0.43422598486E+03  0.00000000000E+00 0. -1.
        -12    1    4    4    0    0  0.20719984218E+02 -0.45881145015E+01 -0.85863466361E+02  0.88447178566E+02  0.00000000000E+00 0.  1.
        -13    1    3    3    0    0  0.48536732397E+02 -0.11217727962E+02 -0.42271081181E+02  0.65333728783E+02  0.00000000000E+00 0. -1.
         13    1    3    3    0    0 -0.22088927173E+02  0.53641474989E+02 -0.82346459429E+02  0.10072868471E+03  0.00000000000E+00 0.  1.
          2    1    1    2  501    0 -0.75371626361E+01  0.93195838471E+02  0.82017984780E+01  0.93859163789E+02  0.00000000000E+00 0. -1.
<scales pt_clust_5="13000.00000" pt_clust_6="13000.00000" pt_clust_7="13000.00000" pt_clust_8="13000.00000" pt_clust_9="13000.00000"></scales>
<clustering>
<clus scale="   80.538">  5  6 -1 -1</clus>
<clus scale="   93.500">  5  9 -1 -1</clus>
<clus scale="   97.714">  7  8 -1 -1</clus>
<clus scale="  109.760">  2  7  1 -1</clus>
<clus scale="  374.516">  1  5  2 -1</clus>
</clustering>
</event>
<event>
 9    1  0.2728138E-005  0.1211026E+03  0.7546771E-02  0.1254164E+00
         21   -1    0    0  501  502  0.00000000000E+00  0.00000000000E+00  0.92737512472E+02  0.92737512472E+02  0.00000000000E+00 0.  1.
          1   -1    0    0  502    0 -0.00000000000E+00 -0.00000000000E+00 -0.15208998838E+03  0.15208998838E+03  0.00000000000E+00 0. -1.
         23    2    1    2    0    0 -0.70963273802E+01 -0.15980493943E+02 -0.78625990690E+02  0.12220081406E+03  0.91898087553E+02 0.  0.
        -24    2    1    2    0    0 -0.74241985327E+01  0.37419620271E+02  0.29148415097E+02  0.94913955663E+02  0.81876017073E+02 0.  0.
         11    1    4    4    0    0 -0.37038213652E+02  0.18675419714E+01 -0.49809532684E+01  0.37418269321E+02  0.00000000000E+00 0. -1.
        -12    1    4    4    0    0  0.29614015119E+02  0.35552078299E+02  0.34129368365E+02  0.57495686341E+02  0.00000000000E+00 0.  1.
        -11    1    3    3    0    0 -0.12032735559E+02 -0.48668489572E+02 -0.18223131514E+02  0.53343145056E+02  0.00000000000E+00 0. -1.
         11    1    3    3    0    0  0.49364081788E+01  0.32687995629E+02 -0.60402859176E+02  0.68857669004E+02  0.00000000000E+00 0.  1.
          2    1    1    2  501    0  0.14520525913E+02 -0.21439126327E+02 -0.98749003142E+01  0.27712731130E+02  0.00000000000E+00 0. -1.
<scales pt_clust_5="13000.00000" pt_clust_6="13000.00000" pt_clust_7="13000.00000" pt_clust_8="13000.00000" pt_clust_9="13000.00000"></scales>
<clustering>
<clus scale="   81.876">  5  6 -1 -1</clus>
<clus scale="   25.894">  5  9 -1 -1</clus>
<clus scale="   91.898">  7  8 -1 -1</clus>
<clus scale="   93.547">  2  7  1 -1</clus>
<clus scale="  121.103">  1  5  2 -1</clus>
</clustering>
</event>
<event>
 9    1  0.2728138E-005  0.1389016E+03  0.7546771E-02  0.1232149E+00
          1   -1    0    0  502    0 -0.00000000000E+00  0.00000000000E+00  0.38149527347E+03  0.38149527347E+03  0.00000000000E+00 0. -1.
         21   -1    0    0  501  502  0.00000000000E+00 -0.00000000000E+00 -0.36386825309E+02  0.36386825309E+02  0.00000000000E+00 0. -1.
         23    2    1    2    0    0 -0.43470914211E+01 -0.30058721238E+02  0.13975297335E+03  0.16996170010E+03  0.91834971643E+02 0.  0.
        -24    2    1    2    0    0  0.14014485430E+01 -0.21896971693E+02  0.10267234176E+03  0.13280351610E+03  0.81324797564E+02 0.  0.
         13    1    4    4    0    0  0.39123455243E+02 -0.10019484411E+02  0.30879806185E+02  0.50838934372E+02  0.00000000000E+00 0. -1.
        -14    1    4    4    0    0 -0.37722006700E+02 -0.11877487282E+02  0.71792535577E+02  0.81964581730E+02  0.00000000000E+00 0.  1.
        -11    1    3    3    0    0  0.22273289310E+01 -0.59994690618E+02  0.61614432082E+02  0.86027101179E+02  0.00000000000E+00 0. -1.
         11    1    3    3    0    0 -0.65744203521E+01  0.29935969380E+02  0.78138541263E+02  0.83934598924E+02  0.00000000000E+00 0.  1.
          2    1    1    2  501    0  0.29456428781E+01  0.51955692931E+02  0.10268313306E+03  0.11511688258E+03  0.00000000000E+00 0. -1.
<scales pt_clust_5="13000.00000" pt_clust_6="13000.00000" pt_clust_7="13000.00000" pt_clust_8="13000.00000" pt_clust_9="13000.00000"></scales>
<clustering>
<clus scale="   81.325">  5  6 -1 -1</clus>
<clus scale="   52.039">  5  9 -1 -1</clus>
<clus scale="   91.835">  7  8 -1 -1</clus>
<clus scale="   96.727">  1  7  2 -1</clus>
<clus scale="  138.902">  2  5  1 -1</clus>
</clustering>
</event>
<event>
 9    1  0.2728138E-005  0.2968083E+03  0.7546771E-02  0.1122932E+00
         21   -1    0    0  501  502  0.00000000000E+00  0.00000000000E+00  0.27382810842E+03  0.27382810842E+03  0.00000000000E+00 0. -1.
          3   -1    0    0  502    0 -0.00000000000E+00 -0.00000000000E+00 -0.15698641353E+03  0.15698641353E+03  0.00000000000E+00 0. -1.
         23    2    1    2    0    0 -0.70841519055E+02 -0.14412885026E+02  0.23349349602E+02  0.11962968197E+03  0.92411128144E+02 0.  0.
        -24    2    1    2    0    0  0.57880658254E+02 -0.11021112370E+03  0.12256558628E+02  0.16185841734E+03  0.10271933433E+03 0.  0.
         13    1    4    4    0    0  0.73154070729E+02 -0.73721678321E+02 -0.25749527188E+02  0.10700206572E+03  0.00000000000E+00 0. -1.
        -14    1    4    4    0    0 -0.15273412475E+02 -0.36489445383E+02  0.38006085816E+02  0.54856351611E+02  0.00000000000E+00 0.  1.
        -11    1    3    3    0    0  0.14968488060E+02 -0.13655941103E+02  0.26978197435E+02  0.33739642841E+02  0.00000000000E+00 0.  1.
         11    1    3    3    0    0 -0.85810007114E+02 -0.75694392330E+00 -0.36288478326E+01  0.85890039130E+02  0.00000000000E+00 0. -1.
          4    1    1    2  501    0  0.12960860801E+02  0.12462400873E+03  0.81235786667E+02  0.14932642265E+03  0.00000000000E+00 0. -1.
<scales pt_clust_5="13000.00000" pt_clust_6="13000.00000" pt_clust_7="13000.00000" pt_clust_8="13000.00000" pt_clust_9="13000.00000"></scales>
<clustering>
<clus scale="   92.411">  7  8 -1 -1</clus>
<clus scale="  102.719">  5  6 -1 -1</clus>
<clus scale="  117.329">  2  7  1 -1</clus>
<clus scale="  120.468">  5  9 -1 -1</clus>
<clus scale="  296.808">  1  5  2 -1</clus>
</clustering>
</event>
<event>
 9    1  0.2728138E-005  0.3668996E+03  0.7546771E-02  0.1098727E+00
         21   -1    0    0  501  502  0.00000000000E+00  0.00000000000E+00  0.60878228547E+03  0.60878228547E+03  0.00000000000E+00 0. -1.
          1   -1    0    0  502    0 -0.00000000000E+00 -0.00000000000E+00 -0.17392386362E+03  0.17392386362E+03  0.00000000000E+00 0. -1.
         23    2    1    2    0    0 -0.64740008502E+02  0.16947494605E+02 -0.87424152404E+02  0.14443162023E+03  0.93482748267E+02 0.  0.
        -24    2    1    2    0    0 -0.45153476756E+02 -0.76757144674E+02  0.21596674688E+02  0.12219300201E+03  0.80834507855E+02 0.  0.
         11    1    4    4    0    0 -0.58416017058E+02 -0.85561385499E+02  0.23282898371E+02  0.10618509827E+03  0.00000000000E+00 0. -1.
        -12    1    4    4    0    0  0.13262540303E+02  0.88042408252E+01 -0.16862236836E+01  0.16007903739E+02  0.00000000000E+00 0.  1.
        -13    1    3    3    0    0 -0.38227651511E+02 -0.33477669446E+02 -0.16428321842E+02  0.53404095818E+02  0.00000000000E+00 0.  1.
         13    1    3    3    0    0 -0.26512356992E+02  0.50425164051E+02 -0.70995830562E+02  0.91027524409E+02  0.00000000000E+00 0. -1.
          2    1    1    2  501    0  0.10989348526E+03  0.59809650069E+02  0.50068589956E+03  0.51608152686E+03  0.00000000000E+00 0. -1.
<scales pt_clust_5="13000.00000" pt_clust_6="13000.00000" pt_clust_7="13000.00000" pt_clust_8="13000.00000" pt_clust_9="13000.00000"></scales>
<clustering>
<clus scale="   80.835">  5  6 -1 -1</clus>
<clus scale="   93.483">  7  8 -1 -1</clus>
<clus scale="  114.967">  2  7  1 -1</clus>
<clus scale="  118.799">  5  9 -1 -1</clus>
<clus scale="  366.900">  1  5  2 -1</clus>
</clustering>
</event>
<event>
 9    1  0.2728138E-005  0.1745287E+03  0.7546771E-02  0.1199725E+00
         -2   -1    0    0    0  501 -0.00000000000E+00  0.00000000000E+00  0.24963391605E+03  0.24963391605E+03  0.00000000000E+00 0.  1.
         21   -1    0    0  501  502  0.00000000000E+00 -0.00000000000E+00 -0.73797604160E+02  0.73797604160E+02  0.00000000000E+00 0. -1.
         23    2    1    2    0    0  0.12540504640E+02 -0.36028456824E+02  0.57733482100E+02  0.11269817869E+03  0.88951731670E+02 0.  0.
        -24    2    1    2    0    0  0.28301945187E+02 -0.17505769783E+02  0.14937634902E+02  0.87538063354E+02  0.79575923006E+02 0.  0.
         13    1    4    4    0    0  0.13040367071E+02 -0.19794796269E+02 -0.31030637350E+02  0.39048503006E+02  0.00000000000E+00 0. -1.
        -14    1    4    4    0    0  0.15261578116E+02  0.22890264869E+01  0.45968272252E+02  0.48489560347E+02  0.00000000000E+00 0.  1.
        -11    1    3    3    0    0  0.46487973244E+02 -0.41412208665E+02  0.40241930901E+02  0.74131745464E+02  0.00000000000E+00 0. -1.
         11    1    3    3    0    0 -0.33947468604E+02  0.53837518408E+01  0.17491551199E+02  0.38566433227E+02  0.00000000000E+00 0.  1.
         -1    1    1    2    0  502 -0.40842449827E+02  0.53534226607E+02  0.10316519489E+03  0.12319527817E+03  0.00000000000E+00 0.  1.
<scales pt_clust_5="13000.00000" pt_clust_6="13000.00000" pt_clust_7="13000.00000" pt_clust_8="13000.00000" pt_clust_9="13000.00000"></scales>
<clustering>
<clus scale="   79.576">  5  6 -1 -1</clus>
<clus scale="   67.335">  5  9 -1 -1</clus>
<clus scale="   88.952">  7  8 -1 -1</clus>
<clus scale="   96.787">  1  7  2 -1</clus>
<clus scale="  174.529">  2  5  1 -1</clus>
</clustering>
</event>
<event>
 9    1  0.2728138E-005  0.2855361E+03  0.7546771E-02  0.1119739E+00
         21   -1    0    0  501  502  0.00000000000E+00  0.00000000000E+00  0.11967186808E+03  0.11967186808E+03  0.00000000000E+00 0. -1.
          1   -1    0    0  502    0 -0.00000000000E+00 -0.00000000000E+00 -0.42647157344E+03  0.42647157344E+03  0.00000000000E+00 0. -1.
         23    2    1    2    0    0 -0.74379583822E+02  0.82887819462E+02 -0.19004192166E+03  0.23765800256E+03  0.89233856180E+02 0.  0.
        -24    2    1    2    0    0 -0.53929112808E+02 -0.69287582239E+02  0.19764437173E+02  0.12063867994E+03  0.80336416773E+02 0.  0.
         13    1    4    4    0    0 -0.45892919906E+02 -0.87232268606E+02  0.21548953718E+02  0.10089591761E+03  0.00000000000E+00 0. -1.
        -14    1    4    4    0    0 -0.80361929028E+01  0.17944686367E+02 -0.17845165447E+01  0.19742762331E+02  0.00000000000E+00 0.  1.
        -11    1    3    3    0    0 -0.24694616065E+01  0.61171506386E+02 -0.12111597979E+03  0.13570973434E+03  0.00000000000E+00 0.  1.
         11    1    3    3    0    0 -0.71910122216E+02  0.21716313076E+02 -0.68925941869E+02  0.10194826822E+03  0.00000000000E+00 0. -1.
          2    1    1    2  501    0  0.12830869663E+03 -0.13600237223E+02 -0.13652222087E+03  0.18784675902E+03  0.00000000000E+00 0. -1.
<scales pt_clust_5="13000.00000" pt_clust_6="13000.00000" pt_clust_7="13000.00000" pt_clust_8="13000.00000" pt_clust_9="13000.00000"></scales>
<clustering>
<clus scale="   80.336">  5  6 -1 -1</clus>
<clus scale="   89.234">  7  8 -1 -1</clus>
<clus scale="  129.028">  5  9 -1 -1</clus>
<clus scale="  142.707">  2  7  1 -1</clus>
<clus scale="  285.536">  1  5  2 -1</clus>
</clustering>
</event>
<event>
 9    1  0.2728138E-005  0.1930176E+03  0.7546771E-02  0.1160275E+00
          1   -1    0    0  502    0 -0.00000000000E+00  0.00000000000E+00  0.69790613930E+03  0.69790613930E+03  0.00000000000E+00 0. -1.
         21   -1    0    0  501  502  0.00000000000E+00 -0.00000000000E+00 -0.52415320368E+02  0.52415320368E+02  0.00000000000E+00 0. -1.
         23    2    1    2    0    0 -0.41501406970E+02  0.13822734094E+03  0.41364019882E+03  0.44864201543E+03  0.96707183604E+02 0.  0.
        -24    2    1    2    0    0  0.19106724562E+02 -0.66251783846E+02  0.18450454413E+03  0.21266453802E+03  0.80186739189E+02 0.  0.
         13    1    4    4    0    0  0.48772051057E+02 -0.25405187525E+02  0.10391724837E+03  0.11757096166E+03  0.00000000000E+00 0. -1.
        -14    1    4    4    0    0 -0.29665326496E+02 -0.40846596321E+02  0.80587295758E+02  0.95093576359E+02  0.00000000000E+00 0.  1.
        -11    1    3    3    0    0 -0.51316765978E+02  0.25561770526E+02  0.10045668921E+03  0.11566486498E+03  0.00000000000E+00 0.  1.
         11    1    3    3    0    0  0.98153590087E+01  0.11266557041E+03  0.31318350961E+03  0.33297715045E+03  0.00000000000E+00 0. -1.
          2    1    1    2  501    0  0.22394682408E+02 -0.71975557090E+02  0.47346075980E+02  0.89014906220E+02  0.00000000000E+00 0. -1.
<scales pt_clust_5="13000.00000" pt_clust_6="13000.00000" pt_clust_7="13000.00000" pt_clust_8="13000.00000" pt_clust_9="13000.00000"></scales>
<clustering>
<clus scale="   80.187">  5  6 -1 -1</clus>
<clus scale="   75.379">  5  9 -1 -1</clus>
<clus scale="   96.707">  7  8 -1 -1</clus>
<clus scale="  173.728">  1  7  2 -1</clus>
<clus scale="  193.018">  2  5  1 -1</clus>
</clustering>
</event>
<event>
 9    1  0.2728138E-005  0.1481733E+03  0.7546771E-02  0.1218438E+00
         21   -1    0    0  501  502  0.00000000000E+00  0.00000000000E+00  0.79556671601E+02  0.79556671601E+02  0.00000000000E+00 0. -1.
         -2   -1    0    0    0  501 -0.00000000000E+00 -0.00000000000E+00 -0.25129023641E+03  0.25129023641E+03  0.00000000000E+00 0.  1.
         23    2    1    2    0    0 -0.18712856872E+02 -0.51014075597E+02 -0.26538136627E+01  0.10602858179E+03  0.91007749709E+02 0.  0.
        -24    2    1    2    0    0 -0.12864991091E+02 -0.10648271117E+01 -0.12250403636E+03  0.14814584226E+03  0.82300120300E+02 0.  0.
         11    1    4    4    0    0 -0.45665915931E+02  0.11348423569E+02 -0.57642918603E+02  0.74410138155E+02  0.00000000000E+00 0. -1.
        -12    1    4    4    0    0  0.32800924839E+02 -0.12413250680E+02 -0.64861117761E+02  0.73735704106E+02  0.00000000000E+00 0.  1.
        -11    1    3    3    0    0 -0.31341329020E+02 -0.73668799706E+02 -0.19515583535E+01  0.80082329729E+02  0.00000000000E+00 0. -1.
         11    1    3    3    0    0  0.12628472148E+02  0.22654724109E+02 -0.70225530916E+00  0.25946252056E+02  0.00000000000E+00 0.  1.
         -1    1    1    2    0  502  0.31577847963E+02  0.52078902709E+02 -0.46575714779E+02  0.76672483959E+02  0.00000000000E+00 0.  1.
<scales pt_clust_5="13000.00000" pt_clust_6="13000.00000" pt_clust_7="13000.00000" pt_clust_8="13000.00000" pt_clust_9="13000.00000"></scales>
<clustering>
<clus scale="   82.300">  5  6 -1 -1</clus>
<clus scale="   60.905">  5  9 -1 -1</clus>
<clus scale="   91.008">  7  8 -1 -1</clus>
<clus scale="  105.995">  2  7  1 -1</clus>
<clus scale="  148.173">  1  5  2 -1</clus>
</clustering>
</event>
<event>
 9    1  0.2728138E-005  0.2250922E+03  0.7546771E-02  0.1163532E+00
          1   -1    0    0  502    0 -0.00000000000E+00  0.00000000000E+00  0.62696352844E+03  0.62696352844E+03  0.00000000000E+00 0. -1.
         21   -1    0    0  501  502  0.00000000000E+00 -0.00000000000E+00 -0.86173365138E+02  0.86173365138E+02  0.00000000000E+00 0. -1.
         23    2    1    2    0    0  0.28692096143E+02 -0.36840545915E+02  0.46448902216E+03  0.47546407939E+03  0.90197432756E+02 0.  0.
        -24    2    1    2    0    0  0.73440204408E+02  0.75927130246E+01  0.71028851627E+02  0.13130439979E+03  0.82125725118E+02 0.  0.
         13    1    4    4    0    0  0.36720153389E+02 -0.12843323183E+02 -0.98768947683E+01  0.40135690670E+02  0.00000000000E+00 0. -1.
        -14    1    4    4    0    0  0.36720051019E+02  0.20436036208E+02  0.80905746395E+02  0.91168709120E+02  0.00000000000E+00 0.  1.
        -11    1    3    3    0    0 -0.14187154808E+02 -0.52771256379E+02  0.28835574674E+03  0.29348784904E+03  0.00000000000E+00 0. -1.
         11    1    3    3    0    0  0.42879250950E+02  0.15930710464E+02  0.17613327543E+03  0.18197623034E+03  0.00000000000E+00 0.  1.
          2    1    1    2  501    0 -0.10213230055E+03  0.29247832890E+02  0.52722895082E+01  0.10636841440E+03  0.00000000000E+00 0. -1.
<scales pt_clust_5="13000.00000" pt_clust_6="13000.00000" pt_clust_7="13000.00000" pt_clust_8="13000.00000" pt_clust_9="13000.00000"></scales>
<clustering>
<clus scale="   82.126">  5  6 -1 -1</clus>
<clus scale="   90.197">  7  8 -1 -1</clus>
<clus scale="  101.568">  1  7  2 -1</clus>
<clus scale="   93.338">  5  9 -1 -1</clus>
<clus scale="  225.092">  2  5  1 -1</clus>
</clustering>
</event>
<event>
 9    1  0.2728138E-005  0.3564486E+03  0.7546771E-02  0.1070961E+00
         21   -1    0    0  501  502  0.00000000000E+00  0.00000000000E+00  0.61996945464E+03  0.61996945464E+03  0.00000000000E+00 0. -1.
          1   -1    0    0  502    0 -0.00000000000E+00 -0.00000000000E+00 -0.21581785212E+03  0.21581785212E+03  0.00000000000E+00 0. -1.
         23    2    1    2    0    0 -0.24502166397E+03 -0.27578348978E+02  0.40064629923E+03  0.47932150412E+03  0.91844793431E+02 0.  0.
        -24    2    1    2    0    0  0.12020330219E+03 -0.10323146634E+03 -0.23645629574E+01  0.17556448548E+03  0.75575974381E+02 0.  0.
         13    1    4    4    0    0  0.12585481234E+03 -0.78602058749E+02 -0.11173073620E+02  0.14880374660E+03  0.00000000000E+00 0. -1.
        -14    1    4    4    0    0 -0.56515101484E+01 -0.24629407592E+02  0.88085106626E+01  0.26760738880E+02  0.00000000000E+00 0.  1.
        -11    1    3    3    0    0 -0.84089228457E+02 -0.10166534219E+02  0.65297804014E+02  0.10694933366E+03  0.00000000000E+00 0.  1.
         11    1    3    3    0    0 -0.16093243551E+03 -0.17411814759E+02  0.33534849522E+03  0.37237217047E+03  0.00000000000E+00 0. -1.
          2    1    1    2  501    0  0.12481836178E+03  0.13080981532E+03  0.58698662437E+01  0.18090131716E+03  0.00000000000E+00 0. -1.
<scales pt_clust_5="13000.00000" pt_clust_6="13000.00000" pt_clust_7="13000.00000" pt_clust_8="13000.00000" pt_clust_9="13000.00000"></scales>
<clustering>
<clus scale="   75.576">  5  6 -1 -1</clus>
<clus scale="   91.845">  7  8 -1 -1</clus>
<clus scale="  180.806">  5  9 -1 -1</clus>
<clus scale="  263.119">  2  7  1 -1</clus>
<clus scale="  356.449">  1  5  2 -1</clus>
</clustering>
</event>
<event>
 9    1  0.2728138E-005  0.2432535E+03  0.7546771E-02  0.1128456E+00
          1   -1    0    0  502    0 -0.00000000000E+00  0.00000000000E+00  0.31111625189E+03  0.31111625189E+03  0.00000000000E+00 0. -1.
         21   -1    0    0  501  502  0.00000000000E+00 -0.00000000000E+00 -0.14801133990E+03  0.14801133990E+03  0.00000000000E+00 0. -1.
         23    2    1    2    0    0 -0.13047108882E+03 -0.95924885348E+02  0.73246952315E+02  0.19980790927E+03  0.91289626666E+02 0.  0.
        -24    2    1    2    0    0  0.39445781753E+02  0.18294918155E+02  0.10703461572E+03  0.13846002901E+03  0.76315771256E+02 0.  0.
         13    1    4    4    0    0  0.46997824492E+02  0.90675453688E+01  0.22148618606E+02  0.52740659762E+02  0.00000000000E+00 0. -1.
        -14    1    4    4    0    0 -0.75520427391E+01  0.92273727862E+01  0.84885997110E+02  0.85719369243E+02  0.00000000000E+00 0.  1.
        -13    1    3    3    0    0 -0.13931684915E+03 -0.72261640560E+02  0.48063679942E+02  0.16413727938E+03  0.00000000000E+00 0. -1.
         13    1    3    3    0    0  0.88457603230E+01 -0.23663244788E+02  0.25183272373E+02  0.35670629894E+02  0.00000000000E+00 0.  1.
          2    1    1    2  501    0  0.91025307071E+02  0.77629967193E+02 -0.17176656048E+02  0.12085965351E+03  0.00000000000E+00 0. -1.
<scales pt_clust_5="13000.00000" pt_clust_6="13000.00000" pt_clust_7="13000.00000" pt_clust_8="13000.00000" pt_clust_9="13000.00000"></scales>
<clustering>
<clus scale="   76.316">  5  6 -1 -1</clus>
<clus scale="   91.290">  7  8 -1 -1</clus>
<clus scale="  119.633">  5  9 -1 -1</clus>
<clus scale="  185.898">  1  7  2 -1</clus>
<clus scale="  243.253">  2  5  1 -1</clus>
</clustering>
</event>
<event>
 9    1  0.2728138E-005  0.2856242E+03  0.7546771E-02  0.1137480E+00
         21   -1    0    0  501  502  0.00000000000E+00  0.00000000000E+00  0.84341162864E+02  0.84341162864E+02  0.00000000000E+00 0. -1.
         -2   -1    0    0    0  501 -0.00000000000E+00 -0.00000000000E+00 -0.42321633736E+03  0.42321633736E+03  0.00000000000E+00 0.  1.
         23    2    1    2    0    0  0.17006244399E+02 -0.51310387004E+01 -0.88184884613E+02  0.12752220193E+03  0.90386936027E+02 0.  0.
        -24    2    1    2    0    0  0.39294858380E+02  0.11211467916E+03 -0.20530997013E+03  0.25090479485E+03  0.81775577422E+02 0.  0.
         13    1    4    4    0    0 -0.19812247554E+02  0.66029931223E+02 -0.10695925634E+03  0.12725077402E+03  0.00000000000E+00 0. -1.
        -14    1    4    4    0    0  0.59107105934E+02  0.46084747934E+02 -0.98350713791E+02  0.12365402083E+03  0.00000000000E+00 0.  1.
        -11    1    3    3    0    0  0.53735580341E+02  0.31611466495E+01 -0.59131404906E+02  0.79962669346E+02  0.00000000000E+00 0.  1.
         11    1    3    3    0    0 -0.36729335942E+02 -0.82921853499E+01 -0.29053479707E+02  0.47559532585E+02  0.00000000000E+00 0. -1.
         -1    1    1    2    0  502 -0.56301102780E+02 -0.10698364046E+03 -0.45380319749E+02  0.12913050345E+03  0.00000000000E+00 0.  1.
<scales pt_clust_5="13000.00000" pt_clust_6="13000.00000" pt_clust_7="13000.00000" pt_clust_8="13000.00000" pt_clust_9="13000.00000"></scales>
<clustering>
<clus scale="   81.776">  5  6 -1 -1</clus>
<clus scale="   90.387">  7  8 -1 -1</clus>
<clus scale="   92.116">  2  7  1 -1</clus>
<clus scale="  120.056">  5  9 -1 -1</clus>
<clus scale="  285.624">  1  5  2 -1</clus>
</clustering>
</event>
<event>
 9    1  0.2728138E-005  0.3040115E+03  0.7546771E-02  0.1123316E+00
         21   -1    0    0  501  502  0.00000000000E+00  0.00000000000E+00  0.21715505190E+03  0.21715505190E+03  0.00000000000E+00 0. -1.
          1   -1    0    0  502    0 -0.00000000000E+00 -0.00000000000E+00 -0.36527786795E+03  0.36527786795E+03  0.00000000000E+00 0. -1.
         23    2    1    2    0    0 -0.54573003463E+02  0.30294668900E+02 -0.24133001906E+03  0.26445399336E+03  0.88316231998E+02 0.  0.
        -24    2    1    2    0    0 -0.39780532994E+02  0.61287092146E+02  0.13876887099E+03  0.17881832004E+03  0.85910380967E+02 0.  0.
         11    1    4    4    0    0 -0.42385045366E+02  0.70141279089E+02  0.14577412121E+03  0.16723153266E+03  0.00000000000E+00 0. -1.
        -12    1    4    4    0    0  0.26045123719E+01 -0.88541869426E+01 -0.70052502194E+01  0.11586787378E+02  0.00000000000E+00 0.  1.
        -13    1    3    3    0    0 -0.27122939605E+02 -0.23665045665E+02 -0.15426772243E+03  0.15841154763E+03  0.00000000000E+00 0.  1.
         13    1    3    3    0    0 -0.27450063858E+02  0.53959714565E+02 -0.87062296630E+02  0.10604244573E+03  0.00000000000E+00 0. -1.
          2    1    1    2  501    0  0.94353536457E+02 -0.91581761046E+02 -0.45561667966E+02  0.13916060644E+03  0.00000000000E+00 0. -1.
<scales pt_clust_5="13000.00000" pt_clust_6="13000.00000" pt_clust_7="13000.00000" pt_clust_8="13000.00000" pt_clust_9="13000.00000"></scales>
<clustering>
<clus scale="   85.910">  5  6 -1 -1</clus>
<clus scale="   88.316">  7  8 -1 -1</clus>
<clus scale="  108.147">  2  7  1 -1</clus>
<clus scale="   83.052">  5  9 -1 -1</clus>
<clus scale="  304.012">  1  5  2 -1</clus>
</clustering>
</event>
<event>
 9    1  0.2728138E-005  0.5846076E+03  0.7546771E-02  0.1046020E+00
          1   -1    0    0  502    0 -0.00000000000E+00  0.00000000000E+00  0.43895176763E+03  0.43895176763E+03  0.00000000000E+00 0. -1.
         21   -1    0    0  501  502  0.00000000000E+00 -0.00000000000E+00 -0.32697842898E+03  0.32697842898E+03  0.00000000000E+00 0. -1.
         23    2    1    2    0    0 -0.19955103237E+02  0.76044757497E+02  0.13521269546E+03  0.18086090192E+03  0.90813994202E+02 0.  0.
        -24    2    1    2    0    0 -0.10507913115E+03  0.85754141082E+02  0.21649610445E+03  0.26997322246E+03  0.87290211882E+02 0.  0.
         13    1    4    4    0    0 -0.53503810921E+02  0.72907067643E+02  0.19034873071E+03  0.21073855266E+03  0.00000000000E+00 0. -1.
        -14    1    4    4    0    0 -0.51575320233E+02  0.12847073439E+02  0.26147373735E+02  0.59234669800E+02  0.00000000000E+00 0.  1.
        -11    1    3    3    0    0  0.20972696610E+02  0.53956794709E+02  0.11769891019E+03  0.13116487014E+03  0.00000000000E+00 0.  1.
         11    1    3    3    0    0 -0.40927799847E+02  0.22087962788E+02  0.17513785264E+02  0.49696031780E+02  0.00000000000E+00 0. -1.
          2    1    1    2  501    0  0.12503423439E+03 -0.16179889858E+03 -0.23973546125E+03  0.31509607223E+03  0.00000000000E+00 0. -1.
<scales pt_clust_5="13000.00000" pt_clust_6="13000.00000" pt_clust_7="13000.00000" pt_clust_8="13000.00000" pt_clust_9="13000.00000"></scales>
<clustering>
<clus scale="   87.290">  5  6 -1 -1</clus>
<clus scale="   90.814">  7  8 -1 -1</clus>
<clus scale="  120.117">  1  7  2 -1</clus>
<clus scale="  194.817">  5  9 -1 -1</clus>
<clus scale="  584.608">  2  5  1 -1</clus>
</clustering>
</event>
<event>
 9    1  0.2728138E-005  0.4146850E+03  0.7546771E-02  0.1053212E+00
         21   -1    0    0  501  502  0.00000000000E+00  0.00000000000E+00  0.47116553020E+02  0.47116553020E+02  0.00000000000E+00 0. -1.
          1   -1    0    0  502    0 -0.00000000000E+00 -0.00000000000E+00 -0.27447561692E+04  0.27447561692E+04  0.00000000000E+00 0. -1.
         23    2    1    2    0    0  0.15963756442E+03  0.20346543580E+03 -0.14905642911E+04  0.15155520366E+04  0.90739925517E+02 0.  0.
        -24    2    1    2    0    0 -0.24929267244E+02  0.52945620665E+02 -0.14776187761E+03  0.17812310089E+03  0.80433571864E+02 0.  0.
         11    1    4    4    0    0 -0.51828920484E+02  0.50499416607E+02 -0.10405018579E+03  0.12673937525E+03  0.00000000000E+00 0. -1.
        -12    1    4    4    0    0  0.26899653240E+02  0.24462040583E+01 -0.43711691813E+02  0.51383725633E+02  0.00000000000E+00 0.  1.
        -11    1    3    3    0    0  0.10100064490E+03  0.18798256679E+03 -0.11697385614E+04  0.11890445231E+04  0.00000000000E+00 0.  1.
         11    1    3    3    0    0  0.58636919529E+02  0.15482869008E+02 -0.32082572965E+03  0.32650751350E+03  0.00000000000E+00 0. -1.
          2    1    1    2  501    0 -0.13470829718E+03 -0.25641105646E+03 -0.10593134475E+04  0.10981975848E+04  0.00000000000E+00 0. -1.
<scales pt_clust_5="13000.00000" pt_clust_6="13000.00000" pt_clust_7="13000.00000" pt_clust_8="13000.00000" pt_clust_9="13000.00000"></scales>
<clustering>
<clus scale="   80.434">  5  6 -1 -1</clus>
<clus scale="   90.740">  7  8 -1 -1</clus>
<clus scale="  274.073">  2  7  1 -1</clus>
<clus scale="   79.745">  5  9 -1 -1</clus>
<clus scale="  414.685">  1  5  2 -1</clus>
</clustering>
</event>
<event>
 9    1  0.2728138E-005  0.1264077E+03  0.7546771E-02  0.1239703E+00
          1   -1    0    0  502    0 -0.00000000000E+00  0.00000000000E+00  0.10912974993E+03  0.10912974993E+03  0.00000000000E+00 0. -1.
         21   -1    0    0  501  502  0.00000000000E+00 -0.00000000000E+00 -0.30809771698E+03  0.30809771698E+03  0.00000000000E+00 0.  1.
         23    2    1    2    0    0  0.24135558556E+02  0.11119371885E+02 -0.25594680708E+03  0.27857143885E+03  0.10671041593E+03 0.  0.
        -24    2    1    2    0    0 -0.24670996301E+02  0.18609451281E+02  0.15560912987E+02  0.87670399696E+02  0.80554250256E+02 0.  0.
         11    1    4    4    0    0 -0.35995791482E+02  0.36305047461E+02  0.32587919388E+02  0.60627765633E+02  0.00000000000E+00 0. -1.
        -12    1    4    4    0    0  0.11324795181E+02 -0.17695596180E+02 -0.17027006402E+02  0.27042634063E+02  0.00000000000E+00 0.  1.
        -11    1    3    3    0    0 -0.22069180835E+02  0.39486610687E+02 -0.59279044610E+02  0.74567059055E+02  0.00000000000E+00 0.  1.
         11    1    3    3    0    0  0.46204739390E+02 -0.28367238802E+02 -0.19666776247E+03  0.20400437979E+03  0.00000000000E+00 0. -1.
          2    1    1    2  501    0  0.53543774510E+00 -0.29728823167E+02  0.41417927039E+02  0.50985628374E+02  0.00000000000E+00 0. -1.
<scales pt_clust_5="13000.00000" pt_clust_6="13000.00000" pt_clust_7="13000.00000" pt_clust_8="13000.00000" pt_clust_9="13000.00000"></scales>
<clustering>
<clus scale="   80.554">  5  6 -1 -1</clus>
<clus scale="   29.734">  5  9 -1 -1</clus>
<clus scale="  106.710">  7  8 -1 -1</clus>
<clus scale="  109.969">  1  7  2 -1</clus>
<clus scale="  126.408">  2  5  1 -1</clus>
</clustering>
</event>
<event>
 9    1  0.2728138E-005  0.2451021E+03  0.7546771E-02  0.1156839E+00
         21   -1    0    0  501  502  0.00000000000E+00  0.00000000000E+00  0.53949912797E+02  0.53949912797E+02  0.00000000000E+00 0. -1.
          1   -1    0    0  502    0 -0.00000000000E+00 -0.00000000000E+00 -0.65979124382E+03  0.65979124382E+03  0.00000000000E+00 0. -1.
         23    2    1    2    0    0  0.82831464873E+01 -0.29407908353E+02 -0.33975674770E+03  0.35197321306E+03  0.86700977601E+02 0.  0.
        -24    2    1    2    0    0 -0.51638110297E+02  0.10674760195E+03 -0.21430314047E+03  0.25909175879E+03  0.84505375584E+02 0.  0.
         11    1    4    4    0    0 -0.32517115974E+02  0.98804575086E+02 -0.10483380281E+03  0.14768152593E+03  0.00000000000E+00 0. -1.
        -12    1    4    4    0    0 -0.19120994323E+02  0.79430268664E+01 -0.10946933766E+03  0.11141023286E+03  0.00000000000E+00 0.  1.
        -13    1    3    3    0    0 -0.14264482827E+02  0.26737808062E+02 -0.14059043123E+03  0.14381952303E+03  0.00000000000E+00 0. -1.
         13    1    3    3    0    0  0.22547629315E+02 -0.56145716415E+02 -0.19916631646E+03  0.20815369003E+03  0.00000000000E+00 0.  1.
          2    1    1    2  501    0  0.43354963810E+02 -0.77339693600E+02 -0.51781442860E+02  0.10267618476E+03  0.00000000000E+00 0. -1.
<scales pt_clust_5="13000.00000" pt_clust_6="13000.00000" pt_clust_7="13000.00000" pt_clust_8="13000.00000" pt_clust_9="13000.00000"></scales>
<clustering>
<clus scale="   84.505">  5  6 -1 -1</clus>
<clus scale="   86.701">  7  8 -1 -1</clus>
<clus scale="   88.663">  5  9 -1 -1</clus>
<clus scale="   91.927">  2  7  1 -1</clus>
<clus scale="  245.102">  1  5  2 -1</clus>
</clustering>
</event>
<event>
 9    1  0.2728138E-005  0.4023774E+03  0.7546771E-02  0.1084945E+00
         21   -1    0    0  501  502  0.00000000000E+00  0.00000000000E+00  0.67826973827E+02  0.67826973827E+02  0.00000000000E+00 0. -1.
          1   -1    0    0  502    0 -0.00000000000E+00 -0.00000000000E+00 -0.10282910062E+04  0.10282910062E+04  0.00000000000E+00 0. -1.
         23    2    1    2    0    0 -0.33689929521E+02 -0.75726222274E+02 -0.20839197142E+03  0.24317018008E+03  0.93994950081E+02 0.  0.
        -24    2    1    2    0    0 -0.41264836514E+02 -0.14393096526E+03 -0.33920727825E+03  0.37931838174E+03  0.80012171680E+02 0.  0.
         13    1    4    4    0    0  0.23454843058E+01 -0.89837971561E+02 -0.12378494712E+03  0.15296756376E+03  0.00000000000E+00 0. -1.
        -14    1    4    4    0    0 -0.43610320819E+02 -0.54092993699E+02 -0.21542233113E+03  0.22635081798E+03  0.00000000000E+00 0.  1.
        -11    1    3    3    0    0 -0.58275886529E+02 -0.38964748035E+02 -0.17254291099E+03  0.18624013175E+03  0.00000000000E+00 0. -1.
         11    1    3    3    0    0  0.24585957008E+02 -0.36761474238E+02 -0.35849060424E+02  0.56930048335E+02  0.00000000000E+00 0.  1.
          2    1    1    2  501    0  0.74954766035E+02  0.21965718753E+03 -0.41286478273E+03  0.47362941822E+03  0.00000000000E+00 0. -1.
<scales pt_clust_5="13000.00000" pt_clust_6="13000.00000" pt_clust_7="13000.00000" pt_clust_8="13000.00000" pt_clust_9="13000.00000"></scales>
<clustering>
<clus scale="   80.012">  5  6 -1 -1</clus>
<clus scale="   93.995">  7  8 -1 -1</clus>
<clus scale="  125.318">  2  7  1 -1</clus>
<clus scale="  186.545">  5  9 -1 -1</clus>
<clus scale="  402.377">  1  5  2 -1</clus>
</clustering>
</event>
<event>
 9    1  0.2728138E-005  0.2455783E+03  0.7546771E-02  0.1139254E+00
         -2   -1    0    0    0  501 -0.00000000000E+00  0.00000000000E+00  0.25817576127E+03  0.25817576127E+03  0.00000000000E+00 0.  1.
         21   -1    0    0  501  502  0.00000000000E+00 -0.00000000000E+00 -0.14424932707E+03  0.14424932707E+03  0.00000000000E+00 0. -1.
         23    2    1    2    0    0  0.90167230905E+02  0.53314226804E+02  0.23980382245E+02  0.14089311081E+03  0.91122300406E+02 0.  0.
        -24    2    1    2    0    0 -0.15480435642E+03 -0.49821098415E+02  0.33977084561E+02  0.17595928767E+03  0.57971527727E+02 0.  0.
         13    1    4    4    0    0 -0.84190107649E+02 -0.22671240223E+01  0.34002448347E+02  0.90825550210E+02  0.00000000000E+00 0. -1.
        -14    1    4    4    0    0 -0.70614248771E+02 -0.47553974393E+02 -0.25363786771E-01  0.85133737456E+02  0.00000000000E+00 0.  1.
        -13    1    3    3    0    0  0.73694612885E+02  0.79031500055E+02  0.15258493400E+02  0.10913155176E+03  0.00000000000E+00 0.  1.
         13    1    3    3    0    0  0.16472618019E+02 -0.25717273251E+02  0.87218888454E+01  0.31761559044E+02  0.00000000000E+00 0. -1.
         -1    1    1    2    0  502  0.64637125516E+02 -0.34931283890E+01  0.55968967394E+02  0.85572689873E+02  0.00000000000E+00 0.  1.
<scales pt_clust_5="13000.00000" pt_clust_6="13000.00000" pt_clust_7="13000.00000" pt_clust_8="13000.00000" pt_clust_9="13000.00000"></scales>
<clustering>
<clus scale="   57.972">  5  6 -1 -1</clus>
<clus scale="   64.731">  5  9 -1 -1</clus>
<clus scale="   91.122">  7  8 -1 -1</clus>
<clus scale="  138.837">  1  7  2 -1</clus>
<clus scale="  245.578">  2  5  1 -1</clus>
</clustering>
</event>
<event>
 9    1  0.2728138E-005  0.2688228E+03  0.7546771E-02  0.1122724E+00
          1   -1    0    0  502    0 -0.00000000000E+00  0.00000000000E+00  0.76756075606E+03  0.76756075606E+03  0.00000000000E+00 0. -1.
         21   -1    0    0  501  502  0.00000000000E+00 -0.00000000000E+00 -0.63114241191E+02  0.63114241191E+02  0.00000000000E+00 0. -1.
         23    2    1    2    0    0 -0.12623195331E+03 -0.39711431915E+02  0.17099952367E+03  0.23332133701E+03  0.87672717238E+02 0.  0.
        -24    2    1    2    0    0 -0.24099677305E+02 -0.42669774328E+02  0.24259863118E+03  0.25974585401E+03  0.78818200537E+02 0.  0.
         13    1    4    4    0    0 -0.21658681746E+01 -0.51604277663E+02  0.22329851582E+03  0.22919406542E+03  0.00000000000E+00 0. -1.
        -14    1    4    4    0    0 -0.21933809131E+02  0.89345033353E+01  0.19300115367E+02  0.30551788589E+02  0.00000000000E+00 0.  1.
        -11    1    3    3    0    0 -0.10773629320E+03 -0.58679998775E+02  0.16591431075E+03  0.20634439571E+03  0.00000000000E+00 0. -1.
         11    1    3    3    0    0 -0.18495660108E+02  0.18968566861E+02  0.50852129224E+01  0.26976941303E+02  0.00000000000E+00 0.  1.
          2    1    1    2  501    0  0.15033163061E+03  0.82381206242E+02  0.29084836002E+03  0.33760780624E+03  0.00000000000E+00 0. -1.
<scales pt_clust_5="13000.00000" pt_clust_6="13000.00000" pt_clust_7="13000.00000" pt_clust_8="13000.00000" pt_clust_9="13000.00000"></scales>
<clustering>
<clus scale="   78.818">  5  6 -1 -1</clus>
<clus scale="   87.673">  7  8 -1 -1</clus>
<clus scale="  158.739">  1  7  2 -1</clus>
<clus scale="  100.328">  5  9 -1 -1</clus>
<clus scale="  268.823">  2  5  1 -1</clus>
</clustering>
</event>
<event>
 9    1  0.2728138E-005  0.2882134E+03  0.7546771E-02  0.1097108E+00
         21   -1    0    0  501  502  0.00000000000E+00  0.00000000000E+00  0.11525369088E+03  0.11525369088E+03  0.00000000000E+00 0.  1.
          1   -1    0    0  502    0 -0.00000000000E+00 -0.00000000000E+00 -0.15036002922E+04  0.15036002922E+04  0.00000000000E+00 0. -1.
         23    2    1    2    0    0 -0.23321194049E+03  0.97066845000E+01 -0.53329947615E+02  0.25308078209E+03  0.81998597793E+02 0.  0.
        -24    2    1    2    0    0  0.86025528999E+02  0.27347487303E+02 -0.82313298452E+03  0.83186146470E+03  0.79355589241E+02 0.  0.
         13    1    4    4    0    0  0.42046469733E+02 -0.22477452427E+02 -0.22175231431E+03  0.22681981921E+03  0.00000000000E+00 0. -1.
        -14    1    4    4    0    0  0.43979059266E+02  0.49824939730E+02 -0.60138067021E+03  0.60504164549E+03  0.00000000000E+00 0.  1.
        -13    1    3    3    0    0 -0.36226157476E+02  0.23657292190E+02  0.12300831276E+02  0.44981245085E+02  0.00000000000E+00 0.  1.
         13    1    3    3    0    0 -0.19698578301E+03 -0.13950607690E+02 -0.65630778891E+02  0.20809953700E+03  0.00000000000E+00 0. -1.
          2    1    1    2  501    0  0.14718641149E+03 -0.37054171803E+02 -0.51188366918E+03  0.53391173629E+03  0.00000000000E+00 0. -1.
<scales pt_clust_5="13000.00000" pt_clust_6="13000.00000" pt_clust_7="13000.00000" pt_clust_8="13000.00000" pt_clust_9="13000.00000"></scales>
<clustering>
<clus scale="   79.356">  5  6 -1 -1</clus>
<clus scale="   81.999">  7  8 -1 -1</clus>
<clus scale="  151.779">  5  9 -1 -1</clus>
<clus scale="  247.398">  2  7  1 -1</clus>
<clus scale="  288.213">  1  5  2 -1</clus>
</clustering>
</event>
<event>
 9    1  0.2728138E-005  0.3481442E+03  0.7546771E-02  0.1082531E+00
          1   -1    0    0  502    0 -0.00000000000E+00  0.00000000000E+00  0.13168784249E+03  0.13168784249E+03  0.00000000000E+00 0. -1.
         21   -1    0    0  501  502  0.00000000000E+00 -0.00000000000E+00 -0.73944937606E+03  0.73944937606E+03  0.00000000000E+00 0.  1.
         23    2    1    2    0    0  0.70672970380E+02  0.17281978130E+03 -0.43718440908E+03  0.48345058316E+03  0.87936984646E+02 0.  0.
        -24    2    1    2    0    0  0.73300430389E+02  0.17403929879E+02 -0.68959462766E+02  0.12838073573E+03  0.77784033905E+02 0.  0.
         11    1    4    4    0    0  0.85401146182E+02 -0.18505706543E+01 -0.51898254855E+02  0.99951034201E+02  0.00000000000E+00 0. -1.
        -12    1    4    4    0    0 -0.12100715793E+02  0.19254500533E+02 -0.17061207910E+02  0.28429701526E+02  0.00000000000E+00 0.  1.
        -11    1    3    3    0    0  0.48369803729E+02  0.83755984202E+02 -0.32164888506E+03  0.33587603080E+03  0.00000000000E+00 0.  1.
         11    1    3    3    0    0  0.22303166651E+02  0.89063797099E+02 -0.11553552402E+03  0.14757455237E+03  0.00000000000E+00 0. -1.
          2    1    1    2  501    0 -0.14397340077E+03 -0.19022371118E+03 -0.10161766173E+03  0.25930589966E+03  0.00000000000E+00 0. -1.
<scales pt_clust_5="13000.00000" pt_clust_6="13000.00000" pt_clust_7="13000.00000" pt_clust_8="13000.00000" pt_clust_9="13000.00000"></scales>
<clustering>
<clus scale="   77.784">  5  6 -1 -1</clus>
<clus scale="   87.937">  7  8 -1 -1</clus>
<clus scale="  206.384">  1  7  2 -1</clus>
<clus scale="  113.001">  5  9 -1 -1</clus>
<clus scale="  348.144">  2  5  1 -1</clus>
</clustering>
</event>
<event>
 9    1  0.2728138E-005  0.1772647E+03  0.7546771E-02  0.1194729E+00
          3   -1    0    0  502    0 -0.00000000000E+00  0.00000000000E+00  0.83243243972E+02  0.83243243972E+02  0.00000000000E+00 0. -1.
         21   -1    0    0  501  502  0.00000000000E+00 -0.00000000000E+00 -0.40261433164E+03  0.40261433164E+03  0.00000000000E+00 0. -1.
         23    2    1    2    0    0  0.21758358992E+02 -0.42967084278E+02  0.18166106048E+02  0.10460419169E+03  0.91062796971E+02 0.  0.
        -24    2    1    2    0    0  0.29136656464E+02 -0.27362872850E+02 -0.20081216565E+03  0.21929555372E+03  0.78532429252E+02 0.  0.
         13    1    4    4    0    0  0.38999827160E+02 -0.45273929561E+02 -0.18182407984E+03  0.19139151294E+03  0.00000000000E+00 0. -1.
        -14    1    4    4    0    0 -0.98631706963E+01  0.17911056710E+02 -0.18988085816E+02  0.27904040776E+02  0.00000000000E+00 0.  1.
        -13    1    3    3    0    0  0.37902219832E+02  0.14055567822E+02  0.20436862284E+02  0.45296827648E+02  0.00000000000E+00 0.  1.
         13    1    3    3    0    0 -0.16143860840E+02 -0.57022652100E+02 -0.22707562363E+01  0.59307364039E+02  0.00000000000E+00 0. -1.
          4    1    1    2  501    0 -0.50895015456E+02  0.70329957128E+02 -0.13672502806E+03  0.16195783021E+03  0.00000000000E+00 0. -1.
<scales pt_clust_5="13000.00000" pt_clust_6="13000.00000" pt_clust_7="13000.00000" pt_clust_8="13000.00000" pt_clust_9="13000.00000"></scales>
<clustering>
<clus scale="   78.532">  5  6 -1 -1</clus>
<clus scale="   86.814">  5  9 -1 -1</clus>
<clus scale="   91.063">  7  8 -1 -1</clus>
<clus scale="  103.015">  1  7  2 -1</clus>
<clus scale="  177.265">  2  5  1 -1</clus>
</clustering>
</event>
<event>
 9    1  0.2728138E-005  0.3154827E+03  0.7546771E-02  0.1101600E+00
          1   -1    0    0  502    0 -0.00000000000E+00  0.00000000000E+00  0.21259104685E+03  0.21259104685E+03  0.00000000000E+00 0. -1.
         21   -1    0    0  501  502  0.00000000000E+00 -0.00000000000E+00 -0.30425063931E+03  0.30425063931E+03  0.00000000000E+00 0. -1.
         23    2    1    2    0    0 -0.10353306525E+03  0.95115721422E+02 -0.11023200797E+03  0.20081281403E+03  0.91698389503E+02 0.  0.
        -24    2    1    2    0    0 -0.97592690397E+01 -0.74860477103E+02 -0.10147640150E+03  0.14972449336E+03  0.80128830549E+02 0.  0.
         11    1    4    4    0    0  0.34373990875E+02 -0.45701718906E+02 -0.51760282530E+02  0.77131998594E+02  0.00000000000E+00 0. -1.
        -12    1    4    4    0    0 -0.44133259914E+02 -0.29158758197E+02 -0.49716118972E+02  0.72592494763E+02  0.00000000000E+00 0.  1.
        -13    1    3    3    0    0  0.16930104668E+01  0.29500097178E+02  0.67775651814E+01  0.30315959621E+02  0.00000000000E+00 0.  1.
         13    1    3    3    0    0 -0.10522607571E+03  0.65615624244E+02 -0.11700957315E+03  0.17049685441E+03  0.00000000000E+00 0. -1.
          2    1    1    2  501    0  0.11329233429E+03 -0.20255244319E+02  0.12004881702E+03  0.16630437877E+03  0.00000000000E+00 0. -1.
<scales pt_clust_5="13000.00000" pt_clust_6="13000.00000" pt_clust_7="13000.00000" pt_clust_8="13000.00000" pt_clust_9="13000.00000"></scales>
<clustering>
<clus scale="   80.129">  5  6 -1 -1</clus>
<clus scale="   91.698">  7  8 -1 -1</clus>
<clus scale="  115.089">  5  9 -1 -1</clus>
<clus scale="  167.853">  1  7  2 -1</clus>
<clus scale="  315.483">  2  5  1 -1</clus>
</clustering>
</event>
<event>
 9    1  0.2728138E-005  0.2095747E+03  0.7546771E-02  0.1176843E+00
          1   -1    0    0  502    0 -0.00000000000E+00  0.00000000000E+00  0.73107964749E+03  0.73107964749E+03  0.00000000000E+00 0. -1.
         21   -1    0    0  501  502  0.00000000000E+00 -0.00000000000E+00 -0.31309164091E+02  0.31309164091E+02  0.00000000000E+00 0. -1.
         23    2    1    2    0    0  0.87884096466E+01 -0.17434343745E+02  0.22751716302E+03  0.24572183504E+03  0.90741215897E+02 0.  0.
        -24    2    1    2    0    0  0.81672599608E+02  0.48073278779E+00  0.29376622674E+03  0.31584799906E+03  0.82405812334E+02 0.  0.
         13    1    4    4    0    0  0.79454358205E+02  0.14498479773E+02  0.14154675250E+03  0.16296835306E+03  0.00000000000E+00 0. -1.
        -14    1    4    4    0    0  0.22182414029E+01 -0.14017746986E+02  0.15221947424E+03  0.15287964601E+03  0.00000000000E+00 0.  1.
        -11    1    3    3    0    0  0.18688351217E+02 -0.52796002375E+02  0.13206342594E+03  0.14344832104E+03  0.00000000000E+00 0. -1.
         11    1    3    3    0    0 -0.98999415707E+01  0.35361658630E+02  0.95453737082E+02  0.10227351401E+03  0.00000000000E+00 0.  1.
          2    1    1    2  501    0 -0.90461009254E+02  0.16953610957E+02  0.17848709364E+03  0.20081897748E+03  0.00000000000E+00 0. -1.
<scales pt_clust_5="13000.00000" pt_clust_6="13000.00000" pt_clust_7="13000.00000" pt_clust_8="13000.00000" pt_clust_9="13000.00000"></scales>
<clustering>
<clus scale="   82.406">  5  6 -1 -1</clus>
<clus scale="   90.741">  7  8 -1 -1</clus>
<clus scale="   92.036">  5  9 -1 -1</clus>
<clus scale="   92.818">  1  7  2 -1</clus>
<clus scale="  209.575">  2  5  1 -1</clus>
</clustering>
</event>
<event>
 9    1  0.2728138E-005  0.1739432E+03  0.7546771E-02  0.1203048E+00
         21   -1    0    0  501  502  0.00000000000E+00  0.00000000000E+00  0.41327781605E+02  0.41327781605E+02  0.00000000000E+00 0. -1.
          1   -1    0    0  502    0 -0.00000000000E+00 -0.00000000000E+00 -0.42487583905E+03  0.42487583905E+03  0.00000000000E+00 0. -1.
         23    2    1    2    0    0  0.12131615276E+02 -0.32713657335E+01 -0.12557179678E+03  0.15506378064E+03  0.90103396148E+02 0.  0.
        -24    2    1    2    0    0  0.65630004186E+01 -0.55868415760E+02 -0.94059185286E+02  0.13588057489E+03  0.80324637822E+02 0.  0.
         11    1    4    4    0    0 -0.18370961106E+02 -0.11200305936E+02  0.69878049260E+01  0.22622300562E+02  0.00000000000E+00 0. -1.
        -12    1    4    4    0    0  0.24933961524E+02 -0.44668109824E+02 -0.10104699021E+03  0.11325827433E+03  0.00000000000E+00 0.  1.
        -13    1    3    3    0    0 -0.30629242591E+02 -0.24042679289E+02 -0.81113440408E+02  0.89975503021E+02  0.00000000000E+00 0.  1.
         13    1    3    3    0    0  0.42760857866E+02  0.20771313556E+02 -0.44458356372E+02  0.65088277620E+02  0.00000000000E+00 0. -1.
          2    1    1    2  501    0 -0.18694615694E+02  0.59139781493E+02 -0.16391707538E+03  0.17525926512E+03  0.00000000000E+00 0. -1.
<scales pt_clust_5="13000.00000" pt_clust_6="13000.00000" pt_clust_7="13000.00000" pt_clust_8="13000.00000" pt_clust_9="13000.00000"></scales>
<clustering>
<clus scale="   80.325">  5  6 -1 -1</clus>
<clus scale="   62.024">  5  9 -1 -1</clus>
<clus scale="   90.103">  7  8 -1 -1</clus>
<clus scale="   90.975">  2  7  1 -1</clus>
<clus scale="  173.943">  1  5  2 -1</clus>
</clustering>
</event>
<event>
 9    1  0.2728138E-005  0.2069605E+03  0.7546771E-02  0.1174754E+00
          1   -1    0    0  502    0 -0.00000000000E+00  0.00000000000E+00  0.48193672741E+03  0.48193672741E+03  0.00000000000E+00 0. -1.
         21   -1    0    0  501  502  0.00000000000E+00 -0.00000000000E+00 -0.33135135500E+03  0.33135135500E+03  0.00000000000E+00 0. -1.
         23    2    1    2    0    0  0.28051101389E+02 -0.36815600920E+02  0.44337124040E+03  0.45474072900E+03  0.89826616499E+02 0.  0.
        -24    2    1    2    0    0 -0.62841756693E+02 -0.14790502594E+02 -0.60839392864E+02  0.11839584512E+03  0.78411090194E+02 0.  0.
         13    1    4    4    0    0 -0.13880620078E+02 -0.20131687878E+02  0.14468199148E+02  0.28412765742E+02  0.00000000000E+00 0. -1.
        -14    1    4    4    0    0 -0.48961136615E+02  0.53411852836E+01 -0.75307592012E+02  0.89983079373E+02  0.00000000000E+00 0.  1.
        -11    1    3    3    0    0 -0.10210982048E+02  0.25342493400E+02  0.14668131458E+03  0.14920426995E+03  0.00000000000E+00 0.  1.
         11    1    3    3    0    0  0.38262083437E+02 -0.62158094320E+02  0.29668992583E+03  0.30553645904E+03  0.00000000000E+00 0. -1.
          2    1    1    2  501    0  0.34790655304E+02  0.51606103514E+02 -0.23194647512E+03  0.24015150830E+03  0.00000000000E+00 0. -1.
<scales pt_clust_5="13000.00000" pt_clust_6="13000.00000" pt_clust_7="13000.00000" pt_clust_8="13000.00000" pt_clust_9="13000.00000"></scales>
<clustering>
<clus scale="   78.411">  5  6 -1 -1</clus>
<clus scale="   62.238">  5  9 -1 -1</clus>
<clus scale="   89.827">  7  8 -1 -1</clus>
<clus scale="  101.050">  1  7  2 -1</clus>
<clus scale="  206.960">  2  5  1 -1</clus>
</clustering>
</event>
<event>
 9    1  0.2728138E-005  0.2070031E+03  0.7546771E-02  0.1177002E+00
         21   -1    0    0  501  502  0.00000000000E+00  0.00000000000E+00  0.17234434326E+03  0.17234434326E+03  0.00000000000E+00 0. -1.
          1   -1    0    0  502    0 -0.00000000000E+00 -0.00000000000E+00 -0.13369881950E+03  0.13369881950E+03  0.00000000000E+00 0. -1.
         23    2    1    2    0    0 -0.28608391517E+02  0.22309715942E+02  0.32153984353E+01  0.96029856931E+02  0.88855113216E+02 0.  0.
        -24    2    1    2    0    0  0.14481464619E+02  0.54250561176E+02 -0.35358578226E+02  0.10478932260E+03  0.81103248222E+02 0.  0.
         13    1    4    4    0    0  0.35746972325E+02  0.64001532358E+02 -0.17527294116E+02  0.75374055309E+02  0.00000000000E+00 0. -1.
        -14    1    4    4    0    0 -0.21265507706E+02 -0.97509711826E+01 -0.17831284110E+02  0.29415267295E+02  0.00000000000E+00 0.  1.
        -11    1    3    3    0    0 -0.55885003937E+01  0.44066794544E+02 -0.27225086844E+02  0.52099127360E+02  0.00000000000E+00 0.  1.
         11    1    3    3    0    0 -0.23019891124E+02 -0.21757078602E+02  0.30440485279E+02  0.43930729571E+02  0.00000000000E+00 0. -1.
          2    1    1    2  501    0  0.14126926899E+02 -0.76560277118E+02  0.70788703553E+02  0.10522398323E+03  0.00000000000E+00 0. -1.
<scales pt_clust_5="13000.00000" pt_clust_6="13000.00000" pt_clust_7="13000.00000" pt_clust_8="13000.00000" pt_clust_9="13000.00000"></scales>
<clustering>
<clus scale="   81.103">  5  6 -1 -1</clus>
<clus scale="   77.853">  5  9 -1 -1</clus>
<clus scale="   88.855">  7  8 -1 -1</clus>
<clus scale="   95.976">  2  7  1 -1</clus>
<clus scale="  207.003">  1  5  2 -1</clus>
</clustering>
</event>
<event>
 9    1  0.2728138E-005  0.2269468E+03  0.7546771E-02  0.1160084E+00
         21   -1    0    0  501  502  0.00000000000E+00  0.00000000000E+00  0.65640804945E+02  0.65640804945E+02  0.00000000000E+00 0.  1.
         -2   -1    0    0    0  501 -0.00000000000E+00 -0.00000000000E+00 -0.46488622032E+03  0.46488622032E+03  0.00000000000E+00 0.  1.
         23    2    1    2    0    0  0.50682788676E+02 -0.25807669581E+02 -0.61821312699E+02  0.12388237017E+03  0.91050458857E+02 0.  0.
        -24    2    1    2    0    0  0.33823825214E+02  0.71802767412E+02 -0.10711099309E+03  0.15704288174E+03  0.83006104014E+02 0.  0.
         13    1    4    4    0    0  0.19353849056E+02 -0.55265074633E+01  0.43715681465E+01  0.20596707652E+02  0.00000000000E+00 0. -1.
        -14    1    4    4    0    0  0.14469976158E+02  0.77329274876E+02 -0.11148256124E+03  0.13644617409E+03  0.00000000000E+00 0.  1.
        -11    1    3    3    0    0  0.68987673085E+02 -0.40726490743E+02 -0.33051696382E+02  0.86662337377E+02  0.00000000000E+00 0.  1.
         11    1    3    3    0    0 -0.18304884409E+02  0.14918821162E+02 -0.28769616317E+02  0.37220032793E+02  0.00000000000E+00 0. -1.
         -1    1    1    2    0  502 -0.84506613890E+02 -0.45995097831E+02 -0.23031310958E+03  0.24960177336E+03  0.00000000000E+00 0.  1.
<scales pt_clust_5="13000.00000" pt_clust_6="13000.00000" pt_clust_7="13000.00000" pt_clust_8="13000.00000" pt_clust_9="13000.00000"></scales>
<clustering>
<clus scale="   83.006">  5  6 -1 -1</clus>
<clus scale="   91.050">  7  8 -1 -1</clus>
<clus scale="   96.213">  5  9 -1 -1</clus>
<clus scale="  107.354">  2  7  1 -1</clus>
<clus scale="  226.947">  1  5  2 -1</clus>
</clustering>
</event>
<event>
 9    1  0.2728138E-005  0.2659782E+03  0.7546771E-02  0.1145318E+00
          1   -1    0    0  502    0 -0.00000000000E+00  0.00000000000E+00  0.56437075441E+03  0.56437075441E+03  0.00000000000E+00 0. -1.
         21   -1    0    0  501  502  0.00000000000E+00 -0.00000000000E+00 -0.20768923467E+03  0.20768923467E+03  0.00000000000E+00 0. -1.
         23    2    1    2    0    0  0.19933130240E+02 -0.17870348720E+02  0.47257879372E+03  0.48192794289E+03  0.90593304475E+02 0.  0.
        -24    2    1    2    0    0 -0.89656556616E+02  0.41765758424E+02  0.26488904550E+02  0.12980060626E+03  0.79773796453E+02 0.  0.
         13    1    4    4    0    0 -0.16233845626E+02  0.17611254766E+02  0.44409175597E+02  0.50456604280E+02  0.00000000000E+00 0. -1.
        -14    1    4    4    0    0 -0.73422710991E+02  0.24154503658E+02 -0.17920271046E+02  0.79344001982E+02  0.00000000000E+00 0.  1.
        -11    1    3    3    0    0  0.39055524677E+02  0.24887182586E+02  0.19490341668E+03  0.20032984725E+03  0.00000000000E+00 0. -1.
         11    1    3    3    0    0 -0.19122394437E+02 -0.42757531307E+02  0.27767537704E+03  0.28159809564E+03  0.00000000000E+00 0.  1.
          2    1    1    2  501    0  0.69723426376E+02 -0.23895409704E+02 -0.14238617854E+03  0.16033143993E+03  0.00000000000E+00 0. -1.
<scales pt_clust_5="13000.00000" pt_clust_6="13000.00000" pt_clust_7="13000.00000" pt_clust_8="13000.00000" pt_clust_9="13000.00000"></scales>
<clustering>
<clus scale="   79.774">  5  6 -1 -1</clus>
<clus scale="   73.704">  5  9 -1 -1</clus>
<clus scale="   90.593">  7  8 -1 -1</clus>
<clus scale="   94.466">  1  7  2 -1</clus>
<clus scale="  265.978">  2  5  1 -1</clus>
</clustering>
</event>
<event>
 9    1  0.2728138E-005  0.3237851E+03  0.7546771E-02  0.1086222E+00
          1   -1    0    0  502    0 -0.00000000000E+00  0.00000000000E+00  0.74296890097E+03  0.74296890097E+03  0.00000000000E+00 0. -1.
         21   -1    0    0  501  502  0.00000000000E+00 -0.00000000000E+00 -0.11295026461E+03  0.11295026461E+03  0.00000000000E+00 0. -1.
         23    2    1    2    0    0  0.62530267153E+02  0.20223246588E+03  0.14912740544E+03  0.27618375172E+03  0.96075371944E+02 0.  0.
        -24    2    1    2    0    0 -0.54230645841E+00  0.27039473935E+02  0.11808732610E+03  0.14610561436E+03  0.81675006672E+02 0.  0.
         13    1    4    4    0    0  0.15876572158E+02 -0.25954369103E+02  0.38007594166E+02  0.48685439644E+02  0.00000000000E+00 0. -1.
        -14    1    4    4    0    0 -0.16418878617E+02  0.52993843038E+02  0.80079731930E+02  0.97420174712E+02  0.00000000000E+00 0.  1.
        -13    1    3    3    0    0  0.56114971254E+02  0.47205312259E+02  0.72557142514E+02  0.10315895712E+03  0.00000000000E+00 0.  1.
         13    1    3    3    0    0  0.64152958991E+01  0.15502715362E+03  0.76570262924E+02  0.17302479460E+03  0.00000000000E+00 0. -1.
          2    1    1    2  501    0 -0.61987960695E+02 -0.22927193982E+03  0.36280390482E+03  0.43362979950E+03  0.00000000000E+00 0. -1.
<scales pt_clust_5="13000.00000" pt_clust_6="13000.00000" pt_clust_7="13000.00000" pt_clust_8="13000.00000" pt_clust_9="13000.00000"></scales>
<clustering>
<clus scale="   81.675">  5  6 -1 -1</clus>
<clus scale="   96.075">  7  8 -1 -1</clus>
<clus scale="  232.462">  1  7  2 -1</clus>
<clus scale="   78.860">  5  9 -1 -1</clus>
<clus scale="  323.785">  2  5  1 -1</clus>
</clustering>
</event>
<event>
 9    1  0.2728138E-005  0.1665570E+03  0.7546771E-02  0.1206023E+00
          1   -1    0    0  502    0 -0.00000000000E+00  0.00000000000E+00  0.16829792427E+03  0.16829792427E+03  0.00000000000E+00 0. -1.
         21   -1    0    0  501  502  0.00000000000E+00 -0.00000000000E+00 -0.15027820114E+03  0.15027820114E+03  0.00000000000E+00 0. -1.
         23    2    1    2    0    0  0.29666672031E+02  0.46469150787E+01 -0.79507421592E+02  0.12556634834E+03  0.92432529435E+02 0.  0.
        -24    2    1    2    0    0  0.29670088231E+02  0.38526075552E+02  0.57440708458E+02  0.10939350707E+03  0.79391005581E+02 0.  0.
         11    1    4    4    0    0  0.94386569669E+01  0.44075831504E+02 -0.32373080667E+01  0.45191230694E+02  0.00000000000E+00 0. -1.
        -12    1    4    4    0    0  0.20231431264E+02 -0.55497559520E+01  0.60678016525E+02  0.64202276373E+02  0.00000000000E+00 0.  1.
        -13    1    3    3    0    0  0.16715860282E+02 -0.36565621280E+02 -0.64883975282E+01  0.40725470495E+02  0.00000000000E+00 0.  1.
         13    1    3    3    0    0  0.12950811749E+02  0.41212536358E+02 -0.73019024064E+02  0.84840877844E+02  0.00000000000E+00 0. -1.
          2    1    1    2  501    0 -0.59336760262E+02 -0.43172990631E+02  0.40086436263E+02  0.83616270011E+02  0.00000000000E+00 0. -1.
<scales pt_clust_5="13000.00000" pt_clust_6="13000.00000" pt_clust_7="13000.00000" pt_clust_8="13000.00000" pt_clust_9="13000.00000"></scales>
<clustering>
<clus scale="   79.391">  5  6 -1 -1</clus>
<clus scale="   73.381">  5  9 -1 -1</clus>
<clus scale="   92.433">  7  8 -1 -1</clus>
<clus scale="   97.188">  1  7  2 -1</clus>
<clus scale="  166.557">  2  5  1 -1</clus>
</clustering>
</event>
<event>
 9    1  0.2728138E-005  0.2930683E+03  0.7546771E-02  0.1106081E+00
         21   -1    0    0  501  502  0.00000000000E+00  0.00000000000E+00  0.14347062794E+03  0.14347062794E+03  0.00000000000E+00 0. -1.
          1   -1    0    0  502    0 -0.00000000000E+00 -0.00000000000E+00 -0.44915684850E+03  0.44915684850E+03  0.00000000000E+00 0. -1.
         23    2    1    2    0    0 -0.12278851768E+03  0.10320875212E+03 -0.27538064281E+02  0.18857865835E+03  0.95260163820E+02 0.  0.
        -24    2    1    2    0    0  0.17571489867E+02  0.55557302409E+02 -0.12612207670E+03  0.16034979905E+03  0.80061905533E+02 0.  0.
         11    1    4    4    0    0  0.35570837956E+02  0.42651778048E+02 -0.32939786238E+02  0.64571574249E+02  0.00000000000E+00 0. -1.
        -12    1    4    4    0    0 -0.17999348089E+02  0.12905524361E+02 -0.93182290460E+02  0.95778224801E+02  0.00000000000E+00 0.  1.
        -13    1    3    3    0    0 -0.13859135505E+01  0.27378573397E+02  0.24008966049E+02  0.36440876614E+02  0.00000000000E+00 0.  1.
         13    1    3    3    0    0 -0.12140260413E+03  0.75830178726E+02 -0.51547030331E+02  0.15213778173E+03  0.00000000000E+00 0. -1.
          2    1    1    2  501    0  0.10521702781E+03 -0.15876605453E+03 -0.15202607958E+03  0.24369901905E+03  0.00000000000E+00 0. -1.
<scales pt_clust_5="13000.00000" pt_clust_6="13000.00000" pt_clust_7="13000.00000" pt_clust_8="13000.00000" pt_clust_9="13000.00000"></scales>
<clustering>
<clus scale="   80.062">  5  6 -1 -1</clus>
<clus scale="   95.260">  7  8 -1 -1</clus>
<clus scale="  186.557">  2  7  1 -1</clus>
<clus scale="  104.576">  5  9 -1 -1</clus>
<clus scale="  293.068">  1  5  2 -1</clus>
</clustering>
</event>
<event>
 9    1  0.2728138E-005  0.1908055E+03  0.7546771E-02  0.1184502E+00
         21   -1    0    0  501  502  0.00000000000E+00  0.00000000000E+00  0.30934529254E+02  0.30934529254E+02  0.00000000000E+00 0. -1.
          1   -1    0    0  502    0 -0.00000000000E+00 -0.00000000000E+00 -0.71576551774E+03  0.71576551774E+03  0.00000000000E+00 0. -1.
         23    2    1    2    0    0  0.21049032932E+02 -0.43172186340E+02 -0.29563440989E+03  0.31324797570E+03  0.91747972768E+02 0.  0.
        -24    2    1    2    0    0  0.48341103005E+02  0.22498031624E+02 -0.13744777155E+03  0.17149811830E+03  0.87616727919E+02 0.  0.
         13    1    4    4    0    0  0.61410945523E+02  0.35519698596E+02 -0.63262554747E+02  0.95053164342E+02  0.00000000000E+00 0. -1.
        -14    1    4    4    0    0 -0.13069842518E+02 -0.13021666972E+02 -0.74185216801E+02  0.76444953960E+02  0.00000000000E+00 0.  1.
        -11    1    3    3    0    0 -0.28072581245E+02  0.10870156967E+02 -0.73894949411E+02  0.79791563957E+02  0.00000000000E+00 0.  1.
         11    1    3    3    0    0  0.49121614176E+02 -0.54042343307E+02 -0.22173946048E+03  0.23345641174E+03  0.00000000000E+00 0. -1.
          2    1    1    2  501    0 -0.69390135936E+02  0.20674154716E+02 -0.25174880704E+03  0.26195395299E+03  0.00000000000E+00 0. -1.
<scales pt_clust_5="13000.00000" pt_clust_6="13000.00000" pt_clust_7="13000.00000" pt_clust_8="13000.00000" pt_clust_9="13000.00000"></scales>
<clustering>
<clus scale="   87.617">  5  6 -1 -1</clus>
<clus scale="   72.405">  5  9 -1 -1</clus>
<clus scale="   91.748">  7  8 -1 -1</clus>
<clus scale="  103.560">  2  7  1 -1</clus>
<clus scale="  190.805">  1  5  2 -1</clus>
</clustering>
</event>
<event>
 9    1  0.2728138E-005  0.3832999E+03  0.7546771E-02  0.1094398E+00
          1   -1    0    0  502    0 -0.00000000000E+00  0.00000000000E+00  0.80555464206E+03  0.80555464206E+03  0.00000000000E+00 0. -1.
         21   -1    0    0  501  502  0.00000000000E+00 -0.00000000000E+00 -0.78783263904E+02  0.78783263904E+02  0.00000000000E+00 0.  1.
         23    2    1    2    0    0  0.58547799523E+02 -0.27780141457E+02  0.10659689398E+03  0.15527331670E+03  0.92451738684E+02 0.  0.
        -24    2    1    2    0    0 -0.16538099562E+03 -0.10310494265E+03  0.39250448592E+03  0.44555468620E+03  0.80484184883E+02 0.  0.
         11    1    4    4    0    0 -0.10107918692E+03 -0.17115506389E+02  0.17049523458E+03  0.19894362921E+03  0.00000000000E+00 0. -1.
        -12    1    4    4    0    0 -0.64301808694E+02 -0.85989436258E+02  0.22200925134E+03  0.24661105699E+03  0.00000000000E+00 0.  1.
        -11    1    3    3    0    0 -0.19390024203E+02 -0.74554878586E+01 -0.10835848288E+01  0.20802199256E+02  0.00000000000E+00 0.  1.
         11    1    3    3    0    0  0.77937823727E+02 -0.20324653598E+02  0.10768047881E+03  0.13447111745E+03  0.00000000000E+00 0. -1.
          2    1    1    2  501    0  0.10683319609E+03  0.13088508410E+03  0.22766999825E+03  0.28350990306E+03  0.00000000000E+00 0. -1.
<scales pt_clust_5="13000.00000" pt_clust_6="13000.00000" pt_clust_7="13000.00000" pt_clust_8="13000.00000" pt_clust_9="13000.00000"></scales>
<clustering>
<clus scale="   80.484">  5  6 -1 -1</clus>
<clus scale="   92.452">  7  8 -1 -1</clus>
<clus scale="  112.902">  1  7  2 -1</clus>
<clus scale="  176.441">  5  9 -1 -1</clus>
<clus scale="  383.300">  2  5  1 -1</clus>
</clustering>
</event>
<event>
 9    1  0.2728138E-005  0.2766273E+03  0.7546771E-02  0.1124576E+00
         21   -1    0    0  501  502  0.00000000000E+00  0.00000000000E+00  0.62124352502E+02  0.62124352502E+02  0.00000000000E+00 0.  1.
          1   -1    0    0  502    0 -0.00000000000E+00 -0.00000000000E+00 -0.91444122720E+03  0.91444122720E+03  0.00000000000E+00 0. -1.
         23    2    1    2    0    0 -0.17360516678E+02 -0.10831841582E+03 -0.90231012591E+02  0.16582669224E+03  0.85572130284E+02 0.  0.
        -24    2    1    2    0    0  0.71487287635E+02 -0.17442758813E+02 -0.16549298173E+03  0.19863706154E+03  0.81572502024E+02 0.  0.
         13    1    4    4    0    0  0.60734765290E+02 -0.18068417505E+02 -0.17382849084E+03  0.18501763065E+03  0.00000000000E+00 0. -1.
        -14    1    4    4    0    0  0.10752522346E+02  0.62565869149E+00  0.83355091066E+01  0.13619430886E+02  0.00000000000E+00 0.  1.
        -13    1    3    3    0    0  0.26879073443E+02 -0.13295147439E+02 -0.38897249861E+02  0.49114576058E+02  0.00000000000E+00 0. -1.
         13    1    3    3    0    0 -0.44239590121E+02 -0.95023268383E+02 -0.51333762730E+02  0.11671211618E+03  0.00000000000E+00 0.  1.
          2    1    1    2  501    0 -0.54126770957E+02  0.12576117464E+03 -0.59659288037E+03  0.61210182592E+03  0.00000000000E+00 0. -1.
<scales pt_clust_5="13000.00000" pt_clust_6="13000.00000" pt_clust_7="13000.00000" pt_clust_8="13000.00000" pt_clust_9="13000.00000"></scales>
<clustering>
<clus scale="   81.573">  5  6 -1 -1</clus>
<clus scale="   85.572">  7  8 -1 -1</clus>
<clus scale="  136.915">  5  9 -1 -1</clus>
<clus scale="  139.129">  2  7  1 -1</clus>
<clus scale="  276.627">  1  5  2 -1</clus>
</clustering>
</event>
<event>
 9    1  0.2728138E-005  0.1985992E+03  0.7546771E-02  0.1170865E+00
         21   -1    0    0  501  502  0.00000000000E+00  0.00000000000E+00  0.91318015796E+02  0.91318015796E+02  0.00000000000E+00 0. -1.
          1   -1    0    0  502    0 -0.00000000000E+00 -0.00000000000E+00 -0.53100677110E+03  0.53100677110E+03  0.00000000000E+00 0. -1.
         23    2    1    2    0    0 -0.82045459001E+02 -0.23770104140E+02 -0.40097224207E+03  0.41998688797E+03  0.91179887920E+02 0.  0.
        -24    2    1    2    0    0  0.79872051830E+02  0.71997922344E+02 -0.61882704459E+02  0.14879055014E+03  0.82133508471E+02 0.  0.
         13    1    4    4    0    0  0.67306119946E+02  0.83754258839E+01 -0.46213631443E+02  0.82072902179E+02  0.00000000000E+00 0. -1.
        -14    1    4    4    0    0  0.12565931884E+02  0.63622496461E+02 -0.15669073016E+02  0.66717647959E+02  0.00000000000E+00 0.  1.
        -11    1    3    3    0    0 -0.29413773265E+02 -0.55534184794E+02 -0.18170820166E+03  0.19226826646E+03  0.00000000000E+00 0.  1.
         11    1    3    3    0    0 -0.52631685736E+02  0.31764080653E+02 -0.21926404041E+03  0.22771862151E+03  0.00000000000E+00 0. -1.
          2    1    1    2  501    0  0.21734071709E+01 -0.48227818204E+02  0.23166191219E+02  0.53547348796E+02  0.00000000000E+00 0. -1.
<scales pt_clust_5="13000.00000" pt_clust_6="13000.00000" pt_clust_7="13000.00000" pt_clust_8="13000.00000" pt_clust_9="13000.00000"></scales>
<clustering>
<clus scale="   82.134">  5  6 -1 -1</clus>
<clus scale="   48.277">  5  9 -1 -1</clus>
<clus scale="   91.180">  7  8 -1 -1</clus>
<clus scale="  124.941">  2  7  1 -1</clus>
<clus scale="  198.599">  1  5  2 -1</clus>
</clustering>
</event>
<event>
 9    1  0.2728138E-005  0.2412662E+03  0.7546771E-02  0.1157760E+00
          1   -1    0    0  502    0 -0.00000000000E+00  0.00000000000E+00  0.79094489130E+02  0.79094489130E+02  0.00000000000E+00 0. -1.
         21   -1    0    0  501  502  0.00000000000E+00 -0.00000000000E+00 -0.47048019169E+03  0.47048019169E+03  0.00000000000E+00 0. -1.
         23    2    1    2    0    0 -0.36458774242E+01 -0.24682402319E+02 -0.25620675280E+03  0.27301953326E+03  0.90968411854E+02 0.  0.
        -24    2    1    2    0    0  0.10431220487E+03 -0.12335548254E+02 -0.63084370712E+02  0.14732022010E+03  0.81794911734E+02 0.  0.
         11    1    4    4    0    0  0.11737672298E+03 -0.99648631013E+01 -0.47942562946E+02  0.12718129948E+03  0.00000000000E+00 0. -1.
        -12    1    4    4    0    0 -0.13064518107E+02 -0.23706851524E+01 -0.15141807766E+02  0.20138920624E+02  0.00000000000E+00 0.  1.
        -13    1    3    3    0    0  0.33724940570E+01  0.19857505036E+02 -0.95784248246E+01  0.22303372941E+02  0.00000000000E+00 0.  1.
         13    1    3    3    0    0 -0.70183714812E+01 -0.44539907356E+02 -0.24662832798E+03  0.25071616032E+03  0.00000000000E+00 0. -1.
          2    1    1    2  501    0 -0.10066632745E+03  0.37017950573E+02 -0.72094579045E+02  0.12923492746E+03  0.00000000000E+00 0. -1.
<scales pt_clust_5="13000.00000" pt_clust_6="13000.00000" pt_clust_7="13000.00000" pt_clust_8="13000.00000" pt_clust_9="13000.00000"></scales>
<clustering>
<clus scale="   81.795">  5  6 -1 -1</clus>
<clus scale="   90.968">  7  8 -1 -1</clus>
<clus scale="   94.328">  1  7  2 -1</clus>
<clus scale="  105.659">  5  9 -1 -1</clus>
<clus scale="  241.266">  2  5  1 -1</clus>
</clustering>
</event>
<event>
 9    1  0.2728138E-005  0.3066317E+03  0.7546771E-02  0.1110036E+00
          1   -1    0    0  502    0 -0.00000000000E+00  0.00000000000E+00  0.13778456990E+03  0.13778456990E+03  0.00000000000E+00 0. -1.
         21   -1    0    0  501  502  0.00000000000E+00 -0.00000000000E+00 -0.39117526363E+03  0.39117526363E+03  0.00000000000E+00 0. -1.
         23    2    1    2    0    0  0.11226282414E+03  0.28001111503E+02 -0.13663304210E+03  0.20085107411E+03  0.91025061646E+02 0.  0.
        -24    2    1    2    0    0  0.48711147955E+02  0.23281552987E+02 -0.12480836663E+03  0.15897169849E+03  0.82341155541E+02 0.  0.
         11    1    4    4    0    0  0.47036146563E+02  0.20577369735E+02 -0.21575082330E+02  0.55689419159E+02  0.00000000000E+00 0. -1.
        -12    1    4    4    0    0  0.16750013922E+01  0.27041832513E+01 -0.10323328430E+03  0.10328227933E+03  0.00000000000E+00 0.  1.
        -13    1    3    3    0    0 -0.15338601292E+01  0.22611685815E+02 -0.58421819878E+02  0.62663786194E+02  0.00000000000E+00 0.  1.
         13    1    3    3    0    0  0.11379668427E+03  0.53894256882E+01 -0.78211222225E+02  0.13818728792E+03  0.00000000000E+00 0. -1.
          2    1    1    2  501    0 -0.16097397209E+03 -0.51282664490E+02  0.80507150079E+01  0.16913706093E+03  0.00000000000E+00 0. -1.
<scales pt_clust_5="13000.00000" pt_clust_6="13000.00000" pt_clust_7="13000.00000" pt_clust_8="13000.00000" pt_clust_9="13000.00000"></scales>
<clustering>
<clus scale="   82.341">  5  6 -1 -1</clus>
<clus scale="   91.025">  7  8 -1 -1</clus>
<clus scale="  147.216">  1  7  2 -1</clus>
<clus scale="   72.410">  5  9 -1 -1</clus>
<clus scale="  306.632">  2  5  1 -1</clus>
</clustering>
</event>
<event>
 9    1  0.2728138E-005  0.2329939E+03  0.7546771E-02  0.1150917E+00
         -4   -1    0    0    0  501 -0.00000000000E+00  0.00000000000E+00  0.11950638691E+03  0.11950638691E+03  0.00000000000E+00 0.  1.
         21   -1    0    0  501  502  0.00000000000E+00 -0.00000000000E+00 -0.26525872800E+03  0.26525872800E+03  0.00000000000E+00 0. -1.
         23    2    1    2    0    0 -0.51123266421E+02 -0.61277950336E+02 -0.46536298439E+02  0.13152617285E+03  0.93621212908E+02 0.  0.
        -24    2    1    2    0    0 -0.16244690450E+02  0.10771315636E+03 -0.13997485502E+02  0.13509973410E+03  0.78676518304E+02 0.  0.
         13    1    4    4    0    0  0.82514088964E+01  0.10264162916E+03  0.58914823808E+01  0.10314116225E+03  0.00000000000E+00 0. -1.
        -14    1    4    4    0    0 -0.24496099347E+02  0.50715272026E+01 -0.19888967883E+02  0.31958571852E+02  0.00000000000E+00 0.  1.
        -13    1    3    3    0    0  0.22164811250E+02 -0.39689599199E+01 -0.29226686243E+02  0.36894859931E+02  0.00000000000E+00 0.  1.
         13    1    3    3    0    0 -0.73288077671E+02 -0.57308990416E+02 -0.17309612196E+02  0.94631312924E+02  0.00000000000E+00 0. -1.
         -3    1    1    2    0  502  0.67367956872E+02 -0.46435206027E+02 -0.85218557151E+02  0.11813920795E+03  0.00000000000E+00 0.  1.
<scales pt_clust_5="13000.00000" pt_clust_6="13000.00000" pt_clust_7="13000.00000" pt_clust_8="13000.00000" pt_clust_9="13000.00000"></scales>
<clustering>
<clus scale="   78.677">  5  6 -1 -1</clus>
<clus scale="   81.821">  5  9 -1 -1</clus>
<clus scale="   93.621">  7  8 -1 -1</clus>
<clus scale="  123.018">  1  7  2 -1</clus>
<clus scale="  232.994">  2  5  1 -1</clus>
</clustering>
</event>
<event>
 9    1  0.2728138E-005  0.2020152E+03  0.7546771E-02  0.1178780E+00
         21   -1    0    0  501  502  0.00000000000E+00  0.00000000000E+00  0.17599527895E+03  0.17599527895E+03  0.00000000000E+00 0. -1.
          1   -1    0    0  502    0 -0.00000000000E+00 -0.00000000000E+00 -0.15669947931E+03  0.15669947931E+03  0.00000000000E+00 0. -1.
         23    2    1    2    0    0  0.16518267141E+02  0.32396559602E+02 -0.59703612492E+02  0.11578223288E+03  0.92296337322E+02 0.  0.
        -24    2    1    2    0    0  0.41136153934E+02  0.40140040554E+02  0.72954885952E+01  0.99750060042E+02  0.81200026530E+02 0.  0.
         13    1    4    4    0    0 -0.14288364934E+01  0.52775797283E+02  0.14543016358E+02  0.54761534651E+02  0.00000000000E+00 0. -1.
        -14    1    4    4    0    0  0.42564990427E+02 -0.12635756729E+02 -0.72475277627E+01  0.44988525391E+02  0.00000000000E+00 0.  1.
        -11    1    3    3    0    0 -0.24409825644E+02  0.46952378656E+02 -0.46321900985E+02  0.70328400809E+02  0.00000000000E+00 0.  1.
         11    1    3    3    0    0  0.40928092785E+02 -0.14555819053E+02 -0.13381711506E+02  0.45453832073E+02  0.00000000000E+00 0. -1.
          2    1    1    2  501    0 -0.57654421075E+02 -0.72536600157E+02  0.71703923541E+02  0.11716246533E+03  0.00000000000E+00 0. -1.
<scales pt_clust_5="13000.00000" pt_clust_6="13000.00000" pt_clust_7="13000.00000" pt_clust_8="13000.00000" pt_clust_9="13000.00000"></scales>
<clustering>
<clus scale="   81.200">  5  6 -1 -1</clus>
<clus scale="   92.296">  7  8 -1 -1</clus>
<clus scale="   92.659">  5  9 -1 -1</clus>
<clus scale="   99.202">  2  7  1 -1</clus>
<clus scale="  202.015">  1  5  2 -1</clus>
</clustering>
</event>
<event>
 9    1  0.2728138E-005  0.3709912E+03  0.7546771E-02  0.1066707E+00
          1   -1    0    0  502    0 -0.00000000000E+00  0.00000000000E+00  0.15034898373E+03  0.15034898373E+03  0.00000000000E+00 0. -1.
         21   -1    0    0  501  502  0.00000000000E+00 -0.00000000000E+00 -0.72344005302E+03  0.72344005302E+03  0.00000000000E+00 0.  1.
         23    2    1    2    0    0 -0.22137995282E+03  0.10047210787E+03 -0.36159212535E+03  0.44674542909E+03  0.98635112037E+02 0.  0.
        -24    2    1    2    0    0  0.18665386912E+03 -0.12630970578E+03 -0.26568738938E+03  0.35769038154E+03  0.80986489881E+02 0.  0.
         11    1    4    4    0    0  0.16080380550E+03 -0.13642484603E+03 -0.24374878622E+03  0.32230897174E+03  0.00000000000E+00 0. -1.
        -12    1    4    4    0    0  0.25850063621E+02  0.10115140251E+02 -0.21938603153E+02  0.35381409806E+02  0.00000000000E+00 0.  1.
        -13    1    3    3    0    0 -0.21790581935E+03  0.73717658159E+02 -0.28947615959E+03  0.36974813887E+03  0.00000000000E+00 0.  1.
         13    1    3    3    0    0 -0.34741334700E+01  0.26754449712E+02 -0.72115965762E+02  0.76997290215E+02  0.00000000000E+00 0. -1.
          2    1    1    2  501    0  0.34726083700E+02  0.25837597908E+02  0.54188445432E+02  0.69353226119E+02  0.00000000000E+00 0. -1.
<scales pt_clust_5="13000.00000" pt_clust_6="13000.00000" pt_clust_7="13000.00000" pt_clust_8="13000.00000" pt_clust_9="13000.00000"></scales>
<clustering>
<clus scale="   80.986">  5  6 -1 -1</clus>
<clus scale="   43.284">  5  9 -1 -1</clus>
<clus scale="   98.635">  7  8 -1 -1</clus>
<clus scale="  262.360">  1  7  2 -1</clus>
<clus scale="  370.991">  2  5  1 -1</clus>
</clustering>
</event>
<event>
 9    1  0.2728138E-005  0.3015810E+03  0.7546771E-02  0.1101271E+00
          1   -1    0    0  502    0 -0.00000000000E+00  0.00000000000E+00  0.76370315493E+03  0.76370315493E+03  0.00000000000E+00 0. -1.
         21   -1    0    0  501  502  0.00000000000E+00 -0.00000000000E+00 -0.12821568871E+03  0.12821568871E+03  0.00000000000E+00 0. -1.
         23    2    1    2    0    0 -0.24398413795E+02 -0.16987450391E+03  0.59618024975E+01  0.19388327465E+03  0.90014173471E+02 0.  0.
        -24    2    1    2    0    0 -0.64520442985E+01 -0.38407668503E+02  0.16303744525E+03  0.18623045756E+03  0.81140599539E+02 0.  0.
         13    1    4    4    0    0  0.24969819092E+02 -0.48282912572E+02  0.78315388392E+02  0.95331167888E+02  0.00000000000E+00 0. -1.
        -14    1    4    4    0    0 -0.31421863391E+02  0.98752440689E+01  0.84722056860E+02  0.90899289672E+02  0.00000000000E+00 0.  1.
        -11    1    3    3    0    0 -0.56871990372E+02 -0.10265143672E+03 -0.91653070219E+01  0.11771042266E+03  0.00000000000E+00 0. -1.
         11    1    3    3    0    0  0.32473576578E+02 -0.67223067185E+02  0.15127109519E+02  0.76172851988E+02  0.00000000000E+00 0.  1.
          2    1    1    2  501    0  0.30850458093E+02  0.20828217241E+03  0.46648821848E+03  0.51180511143E+03  0.00000000000E+00 0. -1.
<scales pt_clust_5="13000.00000" pt_clust_6="13000.00000" pt_clust_7="13000.00000" pt_clust_8="13000.00000" pt_clust_9="13000.00000"></scales>
<clustering>
<clus scale="   81.141">  5  6 -1 -1</clus>
<clus scale="   90.014">  7  8 -1 -1</clus>
<clus scale="  193.792">  1  7  2 -1</clus>
<clus scale="   84.091">  5  9 -1 -1</clus>
<clus scale="  301.581">  2  5  1 -1</clus>
</clustering>
</event>
<event>
 9    1  0.2728138E-005  0.2014782E+03  0.7546771E-02  0.1175019E+00
         21   -1    0    0  501  502  0.00000000000E+00  0.00000000000E+00  0.39777151657E+03  0.39777151657E+03  0.00000000000E+00 0.  1.
          1   -1    0    0  502    0 -0.00000000000E+00 -0.00000000000E+00 -0.60705299334E+02  0.60705299334E+02  0.00000000000E+00 0. -1.
         23    2    1    2    0    0 -0.57044254246E+02 -0.11653045683E+02  0.13000399585E+03  0.16956810806E+03  0.91991651350E+02 0.  0.
        -24    2    1    2    0    0  0.18131573322E+02  0.84767326935E+02  0.13318664371E+03  0.17792449349E+03  0.80026181045E+02 0.  0.
         13    1    4    4    0    0 -0.83739778614E+00  0.29333683047E+02 -0.31671472603E+01  0.29516046787E+02  0.00000000000E+00 0. -1.
        -14    1    4    4    0    0  0.18968971108E+02  0.55433643887E+02  0.13635379097E+03  0.14840844670E+03  0.00000000000E+00 0.  1.
        -11    1    3    3    0    0 -0.58981571363E+02  0.30361321660E+02  0.71747255104E+02  0.97715424721E+02  0.00000000000E+00 0.  1.
         11    1    3    3    0    0  0.19373171166E+01 -0.42014367342E+02  0.58256740748E+02  0.71852683342E+02  0.00000000000E+00 0. -1.
          2    1    1    2  501    0  0.38912680924E+02 -0.73114281252E+02  0.73875577676E+02  0.11098421436E+03  0.00000000000E+00 0. -1.
<scales pt_clust_5="13000.00000" pt_clust_6="13000.00000" pt_clust_7="13000.00000" pt_clust_8="13000.00000" pt_clust_9="13000.00000"></scales>
<clustering>
<clus scale="   80.026">  5  6 -1 -1</clus>
<clus scale="   82.825">  5  9 -1 -1</clus>
<clus scale="   91.992">  7  8 -1 -1</clus>
<clus scale="  108.868">  2  7  1 -1</clus>
<clus scale="  201.478">  1  5  2 -1</clus>
</clustering>
</event>
<event>
 9    1  0.2728138E-005  0.4129120E+03  0.7546771E-02  0.1091018E+00
         21   -1    0    0  501  502  0.00000000000E+00  0.00000000000E+00  0.48277246232E+02  0.48277246232E+02  0.00000000000E+00 0.  1.
          1   -1    0    0  502    0 -0.00000000000E+00 -0.00000000000E+00 -0.13633765028E+04  0.13633765028E+04  0.00000000000E+00 0. -1.
         23    2    1    2    0    0 -0.10678825568E+02  0.31781388930E+02 -0.21358931894E+03  0.23529475739E+03  0.92839278830E+02 0.  0.
        -24    2    1    2    0    0 -0.11215112422E+03  0.98318649674E+02 -0.22393471926E+03  0.28072989402E+03  0.80112941331E+02 0.  0.
         11    1    4    4    0    0 -0.42877828547E+02  0.35598832613E+02 -0.25283797229E+02  0.61196858307E+02  0.00000000000E+00 0. -1.
        -12    1    4    4    0    0 -0.69273295671E+02  0.62719817061E+02 -0.19865092203E+03  0.21953303571E+03  0.00000000000E+00 0.  1.
        -11    1    3    3    0    0  0.37955963234E+02  0.65561719945E+01 -0.52293362765E+02  0.64947935498E+02  0.00000000000E+00 0.  1.
         11    1    3    3    0    0 -0.48634788802E+02  0.25225216936E+02 -0.16129595617E+03  0.17034682189E+03  0.00000000000E+00 0. -1.
          2    1    1    2  501    0  0.12282994979E+03 -0.13010003860E+03 -0.87757521841E+03  0.89562909766E+03  0.00000000000E+00 0. -1.
<scales pt_clust_5="13000.00000" pt_clust_6="13000.00000" pt_clust_7="13000.00000" pt_clust_8="13000.00000" pt_clust_9="13000.00000"></scales>
<clustering>
<clus scale="   80.113">  5  6 -1 -1</clus>
<clus scale="   92.839">  7  8 -1 -1</clus>
<clus scale="   98.708">  2  7  1 -1</clus>
<clus scale="  155.611">  5  9 -1 -1</clus>
<clus scale="  412.912">  1  5  2 -1</clus>
</clustering>
</event>
<event>
 9    1  0.2728138E-005  0.1992245E+03  0.7546771E-02  0.1181140E+00
          1   -1    0    0  502    0 -0.00000000000E+00  0.00000000000E+00  0.55257494641E+03  0.55257494641E+03  0.00000000000E+00 0. -1.
         21   -1    0    0  501  502  0.00000000000E+00 -0.00000000000E+00 -0.86934003207E+02  0.86934003207E+02  0.00000000000E+00 0. -1.
         23    2    1    2    0    0 -0.15405981317E+02 -0.36040316040E+02  0.42501268400E+03  0.43618396993E+03  0.89913432955E+02 0.  0.
        -24    2    1    2    0    0  0.64298323477E+02  0.69144453812E+02  0.64047529797E+02  0.13980484671E+03  0.80796529596E+02 0.  0.
         13    1    4    4    0    0  0.78205765883E+02  0.67593670404E+02  0.37805715517E+02  0.11006506358E+03  0.00000000000E+00 0. -1.
        -14    1    4    4    0    0 -0.13907442407E+02  0.15507834073E+01  0.26241814280E+02  0.29739783122E+02  0.00000000000E+00 0.  1.
        -11    1    3    3    0    0 -0.37724847185E+02 -0.54365023490E+02  0.34059804709E+03  0.34696649630E+03  0.00000000000E+00 0.  1.
         11    1    3    3    0    0  0.22318865868E+02  0.18324707449E+02  0.84414636910E+02  0.89217473632E+02  0.00000000000E+00 0. -1.
          2    1    1    2  501    0 -0.48892342159E+02 -0.33104137771E+02 -0.23419270587E+02  0.63520132983E+02  0.00000000000E+00 0. -1.
<scales pt_clust_5="13000.00000" pt_clust_6="13000.00000" pt_clust_7="13000.00000" pt_clust_8="13000.00000" pt_clust_9="13000.00000"></scales>
<clustering>
<clus scale="   80.797">  5  6 -1 -1</clus>
<clus scale="   59.045">  5  9 -1 -1</clus>
<clus scale="   89.913">  7  8 -1 -1</clus>
<clus scale="   98.085">  1  7  2 -1</clus>
<clus scale="  199.224">  2  5  1 -1</clus>
</clustering>
</event>
<event>
 9    1  0.2728138E-005  0.1758310E+03  0.7546771E-02  0.1192805E+00
          3   -1    0    0  502    0 -0.00000000000E+00  0.00000000000E+00  0.29696789370E+03  0.29696789370E+03  0.00000000000E+00 0. -1.
         21   -1    0    0  501  502  0.00000000000E+00 -0.00000000000E+00 -0.16806656427E+03  0.16806656427E+03  0.00000000000E+00 0. -1.
         23    2    1    2    0    0  0.40390955730E+02  0.50659128400E+02  0.23510965559E+03  0.25961598607E+03  0.89028835095E+02 0.  0.
        -24    2    1    2    0    0 -0.57544311672E+02 -0.21897250420E+02 -0.12980577926E+03  0.16445113079E+03  0.80023725889E+02 0.  0.
         13    1    4    4    0    0 -0.63825022923E+02 -0.34441846458E+02 -0.13164639190E+03  0.15030185241E+03  0.00000000000E+00 0. -1.
        -14    1    4    4    0    0  0.62807112507E+01  0.12544596038E+02  0.18406126387E+01  0.14149278372E+02  0.00000000000E+00 0.  1.
        -11    1    3    3    0    0 -0.19793154061E+02  0.38070100128E+02  0.58068126886E+02  0.72201169184E+02  0.00000000000E+00 0.  1.
         11    1    3    3    0    0  0.60184109791E+02  0.12589028272E+02  0.17704152870E+03  0.18741481689E+03  0.00000000000E+00 0. -1.
          4    1    1    2  501    0  0.17153355942E+02 -0.28761877980E+02  0.23597453099E+02  0.40967341112E+02  0.00000000000E+00 0. -1.
<scales pt_clust_5="13000.00000" pt_clust_6="13000.00000" pt_clust_7="13000.00000" pt_clust_8="13000.00000" pt_clust_9="13000.00000"></scales>
<clustering>
<clus scale="   80.024">  5  6 -1 -1</clus>
<clus scale="   33.489">  5  9 -1 -1</clus>
<clus scale="   89.029">  7  8 -1 -1</clus>
<clus scale="  110.109">  1  7  2 -1</clus>
<clus scale="  175.831">  2  5  1 -1</clus>
</clustering>
</event>
<event>
 9    1  0.2728138E-005  0.2327364E+03  0.7546771E-02  0.1163695E+00
         -4   -1    0    0    0  501 -0.00000000000E+00  0.00000000000E+00  0.53892019690E+02  0.53892019690E+02  0.00000000000E+00 0.  1.
         21   -1    0    0  501  502  0.00000000000E+00 -0.00000000000E+00 -0.61552404519E+03  0.61552404519E+03  0.00000000000E+00 0. -1.
         23    2    1    2    0    0 -0.70109027023E+01  0.73542861536E+01 -0.43367893072E+02  0.10129286941E+03  0.90973803712E+02 0.  0.
        -24    2    1    2    0    0  0.84385767474E+02 -0.35487948115E+02 -0.43132822020E+03  0.44838921755E+03  0.81415629088E+02 0.  0.
         13    1    4    4    0    0  0.56125907270E+02  0.18657418993E+02 -0.25545357176E+03  0.26221125849E+03  0.00000000000E+00 0. -1.
        -14    1    4    4    0    0  0.28259860204E+02 -0.54145367108E+02 -0.17587464844E+03  0.18617795907E+03  0.00000000000E+00 0.  1.
        -13    1    3    3    0    0  0.37839746029E+02  0.10611608636E+02 -0.70406615454E+00  0.39305830694E+02  0.00000000000E+00 0. -1.
         13    1    3    3    0    0 -0.44850648731E+02 -0.32573224826E+01 -0.42663826917E+02  0.61987038714E+02  0.00000000000E+00 0.  1.
         -3    1    1    2    0  502 -0.77374864772E+02  0.28133661961E+02 -0.86935912223E+02  0.11973397792E+03  0.00000000000E+00 0.  1.
<scales pt_clust_5="13000.00000" pt_clust_6="13000.00000" pt_clust_7="13000.00000" pt_clust_8="13000.00000" pt_clust_9="13000.00000"></scales>
<clustering>
<clus scale="   81.416">  5  6 -1 -1</clus>
<clus scale="   82.331">  5  9 -1 -1</clus>
<clus scale="   90.974">  7  8 -1 -1</clus>
<clus scale="   91.539">  1  7  2 -1</clus>
<clus scale="  232.736">  2  5  1 -1</clus>
</clustering>
</event>
<event>
 9    1  0.2728138E-005  0.3029355E+03  0.7546771E-02  0.1097372E+00
         -2   -1    0    0    0  501 -0.00000000000E+00  0.00000000000E+00  0.43429863250E+03  0.43429863250E+03  0.00000000000E+00 0.  1.
         21   -1    0    0  501  502  0.00000000000E+00 -0.00000000000E+00 -0.18065358697E+03  0.18065358697E+03  0.00000000000E+00 0.  1.
         23    2    1    2    0    0  0.88056085795E+01 -0.19120262197E+03 -0.12159740994E+02  0.21193600135E+03  0.90183302091E+02 0.  0.
        -24    2    1    2    0    0 -0.96914841125E+02  0.53010734013E+02  0.11819739666E+03  0.18245290228E+03  0.84355276198E+02 0.  0.
         11    1    4    4    0    0 -0.75646718650E+02  0.31907994048E+02  0.12699892574E+03  0.15122590144E+03  0.00000000000E+00 0. -1.
        -12    1    4    4    0    0 -0.21268122474E+02  0.21102739964E+02 -0.88015290775E+01  0.31227000844E+02  0.00000000000E+00 0.  1.
        -13    1    3    3    0    0  0.36434158017E+02 -0.33162991479E+02 -0.14917415552E+02  0.51475830843E+02  0.00000000000E+00 0. -1.
         13    1    3    3    0    0 -0.27628549437E+02 -0.15803963049E+03  0.27576745583E+01  0.16046017050E+03  0.00000000000E+00 0.  1.
         -1    1    1    2    0  502  0.88109232545E+02  0.13819188796E+03  0.14760738986E+03  0.22056331585E+03  0.00000000000E+00 0.  1.
<scales pt_clust_5="13000.00000" pt_clust_6="13000.00000" pt_clust_7="13000.00000" pt_clust_8="13000.00000" pt_clust_9="13000.00000"></scales>
<clustering>
<clus scale="   84.355">  5  6 -1 -1</clus>
<clus scale="   90.183">  7  8 -1 -1</clus>
<clus scale="  163.891">  5  9 -1 -1</clus>
<clus scale="  211.587">  1  7  2 -1</clus>
<clus scale="  302.935">  2  5  1 -1</clus>
</clustering>
</event>
<event>
 9    1  0.2728138E-005  0.1616665E+03  0.7546771E-02  0.1206458E+00
         21   -1    0    0  501  502  0.00000000000E+00  0.00000000000E+00  0.51102271257E+03  0.51102271257E+03  0.00000000000E+00 0. -1.
          1   -1    0    0  502    0 -0.00000000000E+00 -0.00000000000E+00 -0.55093094296E+02  0.55093094296E+02  0.00000000000E+00 0. -1.
         23    2    1    2    0    0  0.88325577164E+01 -0.51725862145E+02  0.28416075346E+02  0.10905576512E+03  0.91280379473E+02 0.  0.
        -24    2    1    2    0    0  0.17854788671E+02 -0.94567112090E+01  0.14889699347E+03  0.17055925053E+03  0.80696470869E+02 0.  0.
         13    1    4    4    0    0  0.19498476596E+02 -0.35208591330E+02  0.13576634728E+03  0.14160627297E+03  0.00000000000E+00 0. -1.
        -14    1    4    4    0    0 -0.16436879251E+01  0.25751880121E+02  0.13130646196E+02  0.28952977555E+02  0.00000000000E+00 0.  1.
        -13    1    3    3    0    0  0.32218732028E+02 -0.61774611757E+02 -0.16129434449E+01  0.69690393439E+02  0.00000000000E+00 0. -1.
         13    1    3    3    0    0 -0.23386174312E+02  0.10048749612E+02  0.30029018791E+02  0.39365371677E+02  0.00000000000E+00 0.  1.
          2    1    1    2  501    0 -0.26687346387E+02  0.61182573354E+02  0.27861654945E+03  0.28650079122E+03  0.00000000000E+00 0. -1.
<scales pt_clust_5="13000.00000" pt_clust_6="13000.00000" pt_clust_7="13000.00000" pt_clust_8="13000.00000" pt_clust_9="13000.00000"></scales>
<clustering>
<clus scale="   80.696">  5  6 -1 -1</clus>
<clus scale="   66.750">  5  9 -1 -1</clus>
<clus scale="   91.280">  7  8 -1 -1</clus>
<clus scale="  105.289">  2  7  1 -1</clus>
<clus scale="  161.666">  1  5  2 -1</clus>
</clustering>
</event>
<event>
 9    1  0.2873433E-005  0.3938475E+03  0.7546771E-02  0.1078825E+00
         21   -1    0    0  501  502  0.00000000000E+00  0.00000000000E+00  0.13057128037E+03  0.13057128037E+03  0.00000000000E+00 0. -1.
         -2   -1    0    0    0  501 -0.00000000000E+00 -0.00000000000E+00 -0.62992034981E+03  0.62992034981E+03  0.00000000000E+00 0.  1.
         23    2    1    2    0    0 -0.10527762586E+03  0.74781546329E+02 -0.55236509037E+02  0.16689930526E+03  0.90159015010E+02 0.  0.
        -24    2    1    2    0    0 -0.11940985788E+03  0.17731039307E+02 -0.21203014995E+03  0.25757850214E+03  0.82563892613E+02 0.  0.
         13    1    4    4    0    0 -0.48580711407E+02  0.44061968640E+02 -0.65393426557E+02  0.92616644498E+02  0.00000000000E+00 0. -1.
        -14    1    4    4    0    0 -0.70829146476E+02 -0.26330929333E+02 -0.14663672339E+03  0.16496185764E+03  0.00000000000E+00 0.  1.
        -13    1    3    3    0    0  0.15114541988E+02  0.17661942189E+02 -0.15141803450E+02  0.27742887253E+02  0.00000000000E+00 0.  1.
         13    1    3    3    0    0 -0.12039216785E+03  0.57119604140E+02 -0.40094705587E+02  0.13915641801E+03  0.00000000000E+00 0. -1.
         -1    1    1    2    0  502  0.22468748375E+03 -0.92512585636E+02 -0.23208241046E+03  0.33601382278E+03  0.00000000000E+00 0.  1.
<scales pt_clust_5="13000.00000" pt_clust_6="13000.00000" pt_clust_7="13000.00000" pt_clust_8="13000.00000" pt_clust_9="13000.00000"></scales>
<clustering>
<clus scale="   82.564">  5  6 -1 -1</clus>
<clus scale="   90.159">  7  8 -1 -1</clus>
<clus scale="  157.494">  2  7  1 -1</clus>
<clus scale="  174.833">  5  9 -1 -1</clus>
<clus scale="  393.848">  1  5  2 -1</clus>
</clustering>
</event>
<event>
 9    1  0.2728138E-005  0.1705350E+03  0.7546771E-02  0.1197837E+00
         -2   -1    0    0    0  501 -0.00000000000E+00  0.00000000000E+00  0.82159758741E+02  0.82159758741E+02  0.00000000000E+00 0.  1.
         21   -1    0    0  501  502  0.00000000000E+00 -0.00000000000E+00 -0.23673403867E+03  0.23673403867E+03  0.00000000000E+00 0.  1.
         23    2    1    2    0    0 -0.11364193569E+02  0.57042630538E+02 -0.52909298776E+02  0.12035420176E+03  0.91119335988E+02 0.  0.
        -24    2    1    2    0    0  0.62395974047E+02 -0.45047452500E+02 -0.94111489294E+02  0.14557562531E+03  0.80079708493E+02 0.  0.
         11    1    4    4    0    0  0.19319241058E+02  0.10128233012E+02  0.67229524546E+01  0.22825693170E+02  0.00000000000E+00 0. -1.
        -12    1    4    4    0    0  0.43076732989E+02 -0.55175685512E+02 -0.10083444175E+03  0.12274993214E+03  0.00000000000E+00 0.  1.
        -13    1    3    3    0    0  0.29615003584E+02  0.52226631141E+02 -0.10073335800E+02  0.60878087451E+02  0.00000000000E+00 0.  1.
         13    1    3    3    0    0 -0.40979197153E+02  0.48159993971E+01 -0.42835962976E+02  0.59476114311E+02  0.00000000000E+00 0. -1.
         -1    1    1    2    0  502 -0.51031780478E+02 -0.11995178038E+02 -0.75534918574E+01  0.52963970340E+02  0.00000000000E+00 0.  1.
<scales pt_clust_5="13000.00000" pt_clust_6="13000.00000" pt_clust_7="13000.00000" pt_clust_8="13000.00000" pt_clust_9="13000.00000"></scales>
<clustering>
<clus scale="   80.080">  5  6 -1 -1</clus>
<clus scale="   52.423">  5  9 -1 -1</clus>
<clus scale="   91.119">  7  8 -1 -1</clus>
<clus scale="  108.101">  1  7  2 -1</clus>
<clus scale="  170.535">  2  5  1 -1</clus>
</clustering>
</event>
<event>
 9    1  0.2728138E-005  0.2721694E+03  0.7546771E-02  0.1113816E+00
          1   -1    0    0  502    0 -0.00000000000E+00  0.00000000000E+00  0.10249533345E+04  0.10249533345E+04  0.00000000000E+00 0. -1.
         21   -1    0    0  501  502  0.00000000000E+00 -0.00000000000E+00 -0.53711670430E+02  0.53711670430E+02  0.00000000000E+00 0. -1.
         23    2    1    2    0    0 -0.17569821907E+03  0.31340509898E+02  0.48644304769E+03  0.52269209431E+03  0.68761144978E+02 0.  0.
        -24    2    1    2    0    0  0.11680282866E+03  0.60535672135E+02  0.21515941117E+03  0.26508598960E+03  0.81667259557E+02 0.  0.
         11    1    4    4    0    0  0.81581142290E+02  0.73525933026E+02  0.11938507623E+03  0.16221695975E+03  0.00000000000E+00 0. -1.
        -12    1    4    4    0    0  0.35221686369E+02 -0.12990260891E+02  0.95774334940E+02  0.10286902985E+03  0.00000000000E+00 0.  1.
        -11    1    3    3    0    0 -0.97459890838E+02  0.53799587334E+01  0.17347592148E+03  0.19905092215E+03  0.00000000000E+00 0. -1.
         11    1    3    3    0    0 -0.78238328229E+02  0.25960551165E+02  0.31296712622E+03  0.32364117216E+03  0.00000000000E+00 0.  1.
          2    1    1    2  501    0  0.58895390408E+02 -0.91876182033E+02  0.26963920518E+03  0.29088692100E+03  0.00000000000E+00 0. -1.
<scales pt_clust_5="13000.00000" pt_clust_6="13000.00000" pt_clust_7="13000.00000" pt_clust_8="13000.00000" pt_clust_9="13000.00000"></scales>
<clustering>
<clus scale="   68.761">  7  8 -1 -1</clus>
<clus scale="   81.667">  5  6 -1 -1</clus>
<clus scale="  109.133">  5  9 -1 -1</clus>
<clus scale="  191.259">  1  7  2 -1</clus>
<clus scale="  272.169">  2  5  1 -1</clus>
</clustering>
</event>
<event>
 9    1  0.2728138E-005  0.3608035E+03  0.7546771E-02  0.1076840E+00
          1   -1    0    0  502    0 -0.00000000000E+00  0.00000000000E+00  0.53764218295E+03  0.53764218295E+03  0.00000000000E+00 0. -1.
         21   -1    0    0  501  502  0.00000000000E+00 -0.00000000000E+00 -0.15987143501E+03  0.15987143501E+03  0.00000000000E+00 0.  1.
         23    2    1    2    0    0  0.16515439219E+03 -0.63790531747E+02  0.82750956107E+02  0.23144939931E+03  0.12399959073E+03 0.  0.
        -24    2    1    2    0    0  0.39771704316E+02 -0.13392172351E+00 -0.12453404106E+02  0.91069809357E+02  0.80974171828E+02 0.  0.
         11    1    4    4    0    0  0.28594031864E+02  0.18387914505E+02  0.28756224658E+02  0.44527008822E+02  0.00000000000E+00 0. -1.
        -12    1    4    4    0    0  0.11177672452E+02 -0.18521836229E+02 -0.41209628764E+02  0.46542800535E+02  0.00000000000E+00 0.  1.
        -11    1    3    3    0    0  0.14169046985E+03 -0.26428897590E+02  0.10846276823E+03  0.18038527647E+03  0.00000000000E+00 0.  1.
         11    1    3    3    0    0  0.23463922343E+02 -0.37361634157E+02 -0.25711812123E+02  0.51064122838E+02  0.00000000000E+00 0. -1.
          2    1    1    2  501    0 -0.20492609651E+03  0.63924453470E+02  0.30747319594E+03  0.37499440930E+03  0.00000000000E+00 0. -1.
<scales pt_clust_5="13000.00000" pt_clust_6="13000.00000" pt_clust_7="13000.00000" pt_clust_8="13000.00000" pt_clust_9="13000.00000"></scales>
<clustering>
<clus scale="   80.974">  5  6 -1 -1</clus>
<clus scale="  124.000">  7  8 -1 -1</clus>
<clus scale="  214.665">  5  9 -1 -1</clus>
<clus scale="  216.151">  1  7  2 -1</clus>
<clus scale="  360.804">  2  5  1 -1</clus>
</clustering>
</event>
<event>
 9    1  0.2728138E-005  0.3767230E+03  0.7546771E-02  0.1055762E+00
         21   -1    0    0  501  502  0.00000000000E+00  0.00000000000E+00  0.10387875963E+04  0.10387875963E+04  0.00000000000E+00 0. -1.
          1   -1    0    0  502    0 -0.00000000000E+00 -0.00000000000E+00 -0.17004053716E+03  0.17004053716E+03  0.00000000000E+00 0. -1.
         23    2    1    2    0    0  0.23986739212E+03  0.22265452163E+03  0.10290861808E+03  0.35534776219E+03  0.92576706646E+02 0.  0.
        -24    2    1    2    0    0 -0.71842960025E+02 -0.71142741964E+02  0.42707947241E+03  0.44611607732E+03  0.79999862778E+02 0.  0.
         11    1    4    4    0    0 -0.79131573516E+02 -0.78732153951E+02  0.41648209713E+03  0.43118197461E+03  0.00000000000E+00 0. -1.
        -12    1    4    4    0    0  0.72886134911E+01  0.75894119867E+01  0.10597375277E+02  0.14934102708E+02  0.00000000000E+00 0.  1.
        -11    1    3    3    0    0  0.14756309945E+03  0.13035361419E+03  0.10827730134E+03  0.22470181805E+03  0.00000000000E+00 0. -1.
         11    1    3    3    0    0  0.92304292670E+02  0.92300907444E+02 -0.53686832538E+01  0.13064594414E+03  0.00000000000E+00 0.  1.
          2    1    1    2  501    0 -0.16802443209E+03 -0.15151177967E+03  0.33875896867E+03  0.40736429398E+03  0.00000000000E+00 0. -1.
<scales pt_clust_5="13000.00000" pt_clust_6="13000.00000" pt_clust_7="13000.00000" pt_clust_8="13000.00000" pt_clust_9="13000.00000"></scales>
<clustering>
<clus scale="   80.000">  5  6 -1 -1</clus>
<clus scale="   92.577">  7  8 -1 -1</clus>
<clus scale="  226.248">  5  9 -1 -1</clus>
<clus scale="  340.120">  2  7  1 -1</clus>
<clus scale="  376.723">  1  5  2 -1</clus>
</clustering>
</event>
<event>
 9    1  0.2728138E-005  0.5462286E+03  0.7546771E-02  0.1044796E+00
          1   -1    0    0  502    0 -0.00000000000E+00  0.00000000000E+00  0.10972961148E+04  0.10972961148E+04  0.00000000000E+00 0. -1.
         21   -1    0    0  501  502  0.00000000000E+00 -0.00000000000E+00 -0.11172843679E+03  0.11172843679E+03  0.00000000000E+00 0. -1.
         23    2    1    2    0    0  0.50312115079E+02  0.11156143350E+03  0.18349334503E+03  0.23861800165E+03  0.91057567902E+02 0.  0.
        -24    2    1    2    0    0  0.13313877089E+03 -0.14406643090E+03  0.79538102037E+02  0.22423672514E+03  0.73991421136E+02 0.  0.
         11    1    4    4    0    0  0.83008373290E+02 -0.12444333894E+03  0.81534481567E+02  0.17036550803E+03  0.00000000000E+00 0. -1.
        -12    1    4    4    0    0  0.50130397604E+02 -0.19623091954E+02 -0.19963795305E+01  0.53871217110E+02  0.00000000000E+00 0.  1.
        -11    1    3    3    0    0  0.72023350081E+02  0.10124285547E+03  0.17143416942E+03  0.21172423853E+03  0.00000000000E+00 0. -1.
         11    1    3    3    0    0 -0.21711235002E+02  0.10318578031E+02  0.12059175616E+02  0.26893763114E+02  0.00000000000E+00 0.  1.
          2    1    1    2  501    0 -0.18345088597E+03  0.32504997399E+02  0.72253623098E+03  0.74616982484E+03  0.00000000000E+00 0. -1.
<scales pt_clust_5="13000.00000" pt_clust_6="13000.00000" pt_clust_7="13000.00000" pt_clust_8="13000.00000" pt_clust_9="13000.00000"></scales>
<clustering>
<clus scale="   73.991">  5  6 -1 -1</clus>
<clus scale="   91.058">  7  8 -1 -1</clus>
<clus scale="  152.541">  1  7  2 -1</clus>
<clus scale="  188.966">  5  9 -1 -1</clus>
<clus scale="  546.229">  2  5  1 -1</clus>
</clustering>
</event>
<event>
 9    1  0.2728138E-005  0.2061881E+03  0.7546771E-02  0.1177961E+00
         21   -1    0    0  501  502  0.00000000000E+00  0.00000000000E+00  0.75907140642E+02  0.75907140642E+02  0.00000000000E+00 0. -1.
          1   -1    0    0  502    0 -0.00000000000E+00 -0.00000000000E+00 -0.30316762577E+03  0.30316762577E+03  0.00000000000E+00 0. -1.
         23    2    1    2    0    0  0.23425027107E+02  0.12602038731E+02 -0.51235920613E+02  0.10796926489E+03  0.91239790253E+02 0.  0.
        -24    2    1    2    0    0 -0.52396723369E+02 -0.57490012525E+02 -0.18482979800E+03  0.21695920421E+03  0.82817413031E+02 0.  0.
         11    1    4    4    0    0 -0.53454869906E+02 -0.70967540028E+01 -0.13798590976E+03  0.14814823092E+03  0.00000000000E+00 0. -1.
        -12    1    4    4    0    0  0.10581465362E+01 -0.50393258522E+02 -0.46843888244E+02  0.68810973284E+02  0.00000000000E+00 0.  1.
        -13    1    3    3    0    0  0.10285616579E+02  0.52243416633E+02 -0.30049778056E+02  0.61140474738E+02  0.00000000000E+00 0.  1.
         13    1    3    3    0    0  0.13139410528E+02 -0.39641377902E+02 -0.21186142557E+02  0.46828790156E+02  0.00000000000E+00 0. -1.
          2    1    1    2  501    0  0.28971696262E+02  0.44887973794E+02  0.88052334871E+01  0.54146297310E+02  0.00000000000E+00 0. -1.
<scales pt_clust_5="13000.00000" pt_clust_6="13000.00000" pt_clust_7="13000.00000" pt_clust_8="13000.00000" pt_clust_9="13000.00000"></scales>
<clustering>
<clus scale="   82.817">  5  6 -1 -1</clus>
<clus scale="   53.426">  5  9 -1 -1</clus>
<clus scale="   91.240">  7  8 -1 -1</clus>
<clus scale="   95.038">  2  7  1 -1</clus>
<clus scale="  206.188">  1  5  2 -1</clus>
</clustering>
</event>
<event>
 9    1  0.2728138E-005  0.1569434E+03  0.7546771E-02  0.1213848E+00
          1   -1    0    0  502    0 -0.00000000000E+00  0.00000000000E+00  0.18339107928E+03  0.18339107928E+03  0.00000000000E+00 0. -1.
         21   -1    0    0  501  502  0.00000000000E+00 -0.00000000000E+00 -0.10051641168E+03  0.10051641168E+03  0.00000000000E+00 0. -1.
         23    2    1    2    0    0 -0.34351864282E+02 -0.43362441376E+01  0.80337957468E+02  0.12694356688E+03  0.91987108715E+02 0.  0.
        -24    2    1    2    0    0 -0.13912450658E+02 -0.42738290819E+02  0.33522535968E+00  0.89507994214E+02  0.77404462834E+02 0.  0.
         11    1    4    4    0    0 -0.43857037920E+02 -0.21241078049E+02 -0.12787204600E+02  0.50379914383E+02  0.00000000000E+00 0. -1.
        -12    1    4    4    0    0  0.29944587262E+02 -0.21497212771E+02  0.13122429959E+02  0.39128079830E+02  0.00000000000E+00 0.  1.
        -13    1    3    3    0    0 -0.15162448754E+02  0.43365193497E+02  0.46656897471E+02  0.65477522409E+02  0.00000000000E+00 0.  1.
         13    1    3    3    0    0 -0.19189415528E+02 -0.47701437634E+02  0.33681059997E+02  0.61466044473E+02  0.00000000000E+00 0. -1.
          2    1    1    2  501    0  0.48264314940E+02  0.47074534957E+02  0.22014847673E+01  0.67455929860E+02  0.00000000000E+00 0. -1.
<scales pt_clust_5="13000.00000" pt_clust_6="13000.00000" pt_clust_7="13000.00000" pt_clust_8="13000.00000" pt_clust_9="13000.00000"></scales>
<clustering>
<clus scale="   77.404">  5  6 -1 -1</clus>
<clus scale="   67.420">  5  9 -1 -1</clus>
<clus scale="   91.987">  7  8 -1 -1</clus>
<clus scale="   98.288">  1  7  2 -1</clus>
<clus scale="  156.943">  2  5  1 -1</clus>
</clustering>
</event>
<event>
 9    1  0.2728138E-005  0.3106849E+03  0.7546771E-02  0.1111991E+00
         21   -1    0    0  501  502  0.00000000000E+00  0.00000000000E+00  0.54881044241E+03  0.54881044241E+03  0.00000000000E+00 0. -1.
          1   -1    0    0  502    0 -0.00000000000E+00 -0.00000000000E+00 -0.90694244009E+02  0.90694244009E+02  0.00000000000E+00 0. -1.
         23    2    1    2    0    0  0.96642081085E+02  0.22081197526E+02  0.15699670979E+03  0.20684081250E+03  0.91147593012E+02 0.  0.
        -24    2    1    2    0    0  0.83337526937E+02  0.13107278824E+02  0.17413647637E+03  0.20960429988E+03  0.80582293164E+02 0.  0.
         11    1    4    4    0    0  0.40545951446E+02  0.46082770255E+02  0.77169799337E+02  0.98604126804E+02  0.00000000000E+00 0. -1.
        -12    1    4    4    0    0  0.42791575490E+02 -0.32975491431E+02  0.96966677036E+02  0.11100017308E+03  0.00000000000E+00 0.  1.
        -11    1    3    3    0    0  0.52123510620E+02  0.23962898948E+02  0.16865172327E+02  0.59795609562E+02  0.00000000000E+00 0.  1.
         11    1    3    3    0    0  0.44518570465E+02 -0.18817014220E+01  0.14013153746E+03  0.14704520294E+03  0.00000000000E+00 0. -1.
          2    1    1    2  501    0 -0.17997960802E+03 -0.35188476350E+02  0.12698301224E+03  0.22305957404E+03  0.00000000000E+00 0. -1.
<scales pt_clust_5="13000.00000" pt_clust_6="13000.00000" pt_clust_7="13000.00000" pt_clust_8="13000.00000" pt_clust_9="13000.00000"></scales>
<clustering>
<clus scale="   80.582">  5  6 -1 -1</clus>
<clus scale="   91.148">  7  8 -1 -1</clus>
<clus scale="  134.667">  2  7  1 -1</clus>
<clus scale="  111.043">  5  9 -1 -1</clus>
<clus scale="  310.685">  1  5  2 -1</clus>
</clustering>
</event>
<event>
 9    1  0.2728138E-005  0.3233298E+03  0.7546771E-02  0.1121552E+00
         -2   -1    0    0    0  501 -0.00000000000E+00  0.00000000000E+00  0.28879390925E+03  0.28879390925E+03  0.00000000000E+00 0.  1.
         21   -1    0    0  501  502  0.00000000000E+00 -0.00000000000E+00 -0.15486117997E+03  0.15486117997E+03  0.00000000000E+00 0. -1.
         23    2    1    2    0    0 -0.20804601901E+02 -0.29212053219E+02  0.61606631742E+02  0.11233462492E+03  0.86818865271E+02 0.  0.
        -24    2    1    2    0    0 -0.51966703747E+02  0.15401986332E+03  0.32491727866E+02  0.18145576067E+03  0.73809376826E+02 0.  0.
         13    1    4    4    0    0 -0.64154549298E+02  0.12663049387E+03  0.70382278313E+01  0.14212890214E+03  0.00000000000E+00 0. -1.
        -14    1    4    4    0    0  0.12187845551E+02  0.27389369447E+02  0.25453500034E+02  0.39326858531E+02  0.00000000000E+00 0.  1.
        -11    1    3    3    0    0  0.29077350124E+02 -0.21461861551E+02  0.49925668690E+01  0.36483277202E+02  0.00000000000E+00 0. -1.
         11    1    3    3    0    0 -0.49881952025E+02 -0.77501916679E+01  0.56614064873E+02  0.75851347714E+02  0.00000000000E+00 0.  1.
         -1    1    1    2    0  502  0.72771305648E+02 -0.12480781010E+03  0.39834369666E+02  0.14986470363E+03  0.00000000000E+00 0.  1.
<scales pt_clust_5="13000.00000" pt_clust_6="13000.00000" pt_clust_7="13000.00000" pt_clust_8="13000.00000" pt_clust_9="13000.00000"></scales>
<clustering>
<clus scale="   73.809">  5  6 -1 -1</clus>
<clus scale="   86.819">  7  8 -1 -1</clus>
<clus scale="   93.935">  1  7  2 -1</clus>
<clus scale="  152.186">  5  9 -1 -1</clus>
<clus scale="  323.330">  2  5  1 -1</clus>
</clustering>
</event>
<event>
 9    1  0.2728138E-005  0.1535981E+03  0.7546771E-02  0.1214808E+00
          1   -1    0    0  502    0 -0.00000000000E+00  0.00000000000E+00  0.68058872189E+03  0.68058872189E+03  0.00000000000E+00 0. -1.
         21   -1    0    0  501  502  0.00000000000E+00 -0.00000000000E+00 -0.24982947664E+02  0.24982947664E+02  0.00000000000E+00 0.  1.
         23    2    1    2    0    0  0.14299210745E+02  0.42172124705E+02  0.20128380794E+03  0.22598766184E+03  0.92586696855E+02 0.  0.
        -24    2    1    2    0    0  0.11640929406E+02 -0.45591116216E+02  0.44164372014E+03  0.45050964961E+03  0.75469912776E+02 0.  0.
         11    1    4    4    0    0 -0.48974639848E+01 -0.60757120393E+02  0.23993000449E+03  0.24755165095E+03  0.00000000000E+00 0. -1.
        -12    1    4    4    0    0  0.16538393391E+02  0.15166004178E+02  0.20171371565E+03  0.20295799866E+03  0.00000000000E+00 0.  1.
        -13    1    3    3    0    0  0.51889860932E+02  0.23617011750E+02  0.84735581110E+02  0.10212952373E+03  0.00000000000E+00 0. -1.
         13    1    3    3    0    0 -0.37590650187E+02  0.18555112955E+02  0.11654822683E+03  0.12385813811E+03  0.00000000000E+00 0.  1.
          2    1    1    2  501    0 -0.25940140151E+02  0.34189915108E+01  0.12678246145E+02  0.29074358107E+02  0.00000000000E+00 0. -1.
<scales pt_clust_5="13000.00000" pt_clust_6="13000.00000" pt_clust_7="13000.00000" pt_clust_8="13000.00000" pt_clust_9="13000.00000"></scales>
<clustering>
<clus scale="   75.470">  5  6 -1 -1</clus>
<clus scale="   26.164">  5  9 -1 -1</clus>
<clus scale="   92.587">  7  8 -1 -1</clus>
<clus scale="  102.739">  1  7  2 -1</clus>
<clus scale="  153.598">  2  5  1 -1</clus>
</clustering>
</event>
<event>
 9    1  0.2728138E-005  0.2388669E+03  0.7546771E-02  0.1143069E+00
         21   -1    0    0  501  502  0.00000000000E+00  0.00000000000E+00  0.84480384623E+02  0.84480384623E+02  0.00000000000E+00 0. -1.
          1   -1    0    0  502    0 -0.00000000000E+00 -0.00000000000E+00 -0.50462041332E+03  0.50462041332E+03  0.00000000000E+00 0. -1.
         23    2    1    2    0    0  0.63273011795E+02 -0.79282814014E+02 -0.28040706510E+03  0.31236501645E+03  0.93029794821E+02 0.  0.
        -24    2    1    2    0    0 -0.88654430226E+01 -0.36083379733E+02 -0.11751499957E+03  0.14726308118E+03  0.80597975054E+02 0.  0.
         13    1    4    4    0    0 -0.43809122298E+02 -0.29481019972E+02 -0.76831146321E+02  0.93227650299E+02  0.00000000000E+00 0. -1.
        -14    1    4    4    0    0  0.34943679276E+02 -0.66023597604E+01 -0.40683853248E+02  0.54035430884E+02  0.00000000000E+00 0.  1.
        -11    1    3    3    0    0  0.32866691333E+01 -0.25341753672E+02 -0.58684750057E+01  0.26219185190E+02  0.00000000000E+00 0.  1.
         11    1    3    3    0    0  0.59986342661E+02 -0.53941060343E+02 -0.27453859009E+03  0.28614583126E+03  0.00000000000E+00 0. -1.
          2    1    1    2  501    0 -0.54407568772E+02  0.11536619375E+03 -0.22217964026E+02  0.12947270031E+03  0.00000000000E+00 0. -1.
<scales pt_clust_5="13000.00000" pt_clust_6="13000.00000" pt_clust_7="13000.00000" pt_clust_8="13000.00000" pt_clust_9="13000.00000"></scales>
<clustering>
<clus scale="   80.598">  5  6 -1 -1</clus>
<clus scale="   93.030">  7  8 -1 -1</clus>
<clus scale="  127.552">  5  9 -1 -1</clus>
<clus scale="  137.636">  2  7  1 -1</clus>
<clus scale="  238.867">  1  5  2 -1</clus>
</clustering>
</event>
<event>
 9    1  0.2728138E-005  0.2484846E+03  0.7546771E-02  0.1116842E+00
          1   -1    0    0  502    0 -0.00000000000E+00  0.00000000000E+00  0.98552688423E+03  0.98552688423E+03  0.00000000000E+00 0. -1.
         21   -1    0    0  501  502  0.00000000000E+00 -0.00000000000E+00 -0.60867026649E+02  0.60867026649E+02  0.00000000000E+00 0. -1.
         23    2    1    2    0    0  0.21086410517E+03 -0.41562507636E+02  0.35086956240E+03  0.42111005054E+03  0.89627629438E+02 0.  0.
        -24    2    1    2    0    0 -0.83776509452E+02  0.16997270132E+02  0.24860114847E+03  0.27528001890E+03  0.81664845916E+02 0.  0.
         11    1    4    4    0    0 -0.74774040227E+02 -0.75722482242E+01  0.10390599844E+03  0.12823787485E+03  0.00000000000E+00 0. -1.
        -12    1    4    4    0    0 -0.90024692249E+01  0.24569518356E+02  0.14469515003E+03  0.14704214405E+03  0.00000000000E+00 0.  1.
        -13    1    3    3    0    0  0.26657985906E+02 -0.23857458670E+02  0.17508378466E+02  0.39829258884E+02  0.00000000000E+00 0.  1.
         13    1    3    3    0    0  0.18420611927E+03 -0.17705048965E+02  0.33336118393E+03  0.38128079166E+03  0.00000000000E+00 0. -1.
          2    1    1    2  501    0 -0.12708759572E+03  0.24565237504E+02  0.32518914672E+03  0.35000384144E+03  0.00000000000E+00 0. -1.
<scales pt_clust_5="13000.00000" pt_clust_6="13000.00000" pt_clust_7="13000.00000" pt_clust_8="13000.00000" pt_clust_9="13000.00000"></scales>
<clustering>
<clus scale="   81.665">  5  6 -1 -1</clus>
<clus scale="   89.628">  7  8 -1 -1</clus>
<clus scale="  129.440">  5  9 -1 -1</clus>
<clus scale="  232.861">  1  7  2 -1</clus>
<clus scale="  248.485">  2  5  1 -1</clus>
</clustering>
</event>
<event>
 9    1  0.2728138E-005  0.3778805E+03  0.7546771E-02  0.1096496E+00
         21   -1    0    0  501  502  0.00000000000E+00  0.00000000000E+00  0.90524855329E+02  0.90524855329E+02  0.00000000000E+00 0. -1.
          1   -1    0    0  502    0 -0.00000000000E+00 -0.00000000000E+00 -0.69533489767E+03  0.69533489767E+03  0.00000000000E+00 0. -1.
         23    2    1    2    0    0 -0.41092909322E+02 -0.50061933017E+02 -0.72381148841E+02  0.13296299604E+03  0.90803652322E+02 0.  0.
        -24    2    1    2    0    0 -0.15723570889E+03  0.32157906589E+02 -0.20073011068E+03  0.26601321183E+03  0.68653131238E+02 0.  0.
         13    1    4    4    0    0 -0.69271566627E+02 -0.26262619126E+01 -0.41466957033E+02  0.80777198021E+02  0.00000000000E+00 0. -1.
        -14    1    4    4    0    0 -0.87964142262E+02  0.34784168501E+02 -0.15926315365E+03  0.18523601381E+03  0.00000000000E+00 0.  1.
        -13    1    3    3    0    0 -0.30208720182E+02 -0.81450494173E+01  0.15555281023E+02  0.34941027070E+02  0.00000000000E+00 0.  1.
         13    1    3    3    0    0 -0.10884189140E+02 -0.41916883600E+02 -0.87936429863E+02  0.98021968972E+02  0.00000000000E+00 0. -1.
          2    1    1    2  501    0  0.19832861821E+03  0.17904026429E+02 -0.33169878282E+03  0.38688354512E+03  0.00000000000E+00 0. -1.
<scales pt_clust_5="13000.00000" pt_clust_6="13000.00000" pt_clust_7="13000.00000" pt_clust_8="13000.00000" pt_clust_9="13000.00000"></scales>
<clustering>
<clus scale="   68.653">  5  6 -1 -1</clus>
<clus scale="   90.804">  7  8 -1 -1</clus>
<clus scale="  111.535">  2  7  1 -1</clus>
<clus scale="  173.863">  5  9 -1 -1</clus>
<clus scale="  377.880">  1  5  2 -1</clus>
</clustering>
</event>
<event>
 9    1  0.2728138E-005  0.2660804E+03  0.7546771E-02  0.1120468E+00
          1   -1    0    0  502    0 -0.00000000000E+00  0.00000000000E+00  0.81787630180E+02  0.81787630180E+02  0.00000000000E+00 0. -1.
         21   -1    0    0  501  502  0.00000000000E+00 -0.00000000000E+00 -0.59908321865E+03  0.59908321865E+03  0.00000000000E+00 0.  1.
         23    2    1    2    0    0 -0.14085938138E+03  0.45696930166E+02 -0.16328109814E+03  0.23801077643E+03  0.89771030609E+02 0.  0.
        -24    2    1    2    0    0  0.38122626024E+01  0.45029981760E+02 -0.17612641305E+03  0.20066706392E+03  0.84879470829E+02 0.  0.
         11    1    4    4    0    0 -0.13214167122E+02 -0.15625739001E+02 -0.95647621138E+01  0.22588993036E+02  0.00000000000E+00 0. -1.
        -12    1    4    4    0    0  0.17026429724E+02  0.60655720761E+02 -0.16656165093E+03  0.17807807089E+03  0.00000000000E+00 0.  1.
        -13    1    3    3    0    0 -0.78682115608E+02 -0.16306263155E+02 -0.10661587891E+03  0.13350548742E+03  0.00000000000E+00 0.  1.
         13    1    3    3    0    0 -0.62177265777E+02  0.62003193321E+02 -0.56665219232E+02  0.10450528902E+03  0.00000000000E+00 0. -1.
          2    1    1    2  501    0  0.13704711878E+03 -0.90726911926E+02 -0.17788807728E+03  0.24219300847E+03  0.00000000000E+00 0. -1.
<scales pt_clust_5="13000.00000" pt_clust_6="13000.00000" pt_clust_7="13000.00000" pt_clust_8="13000.00000" pt_clust_9="13000.00000"></scales>
<clustering>
<clus scale="   84.879">  5  6 -1 -1</clus>
<clus scale="   89.771">  7  8 -1 -1</clus>
<clus scale="  164.357">  5  9 -1 -1</clus>
<clus scale="  173.172">  1  7  2 -1</clus>
<clus scale="  266.080">  2  5  1 -1</clus>
</clustering>
</event>
<event>
 9    1  0.2728138E-005  0.1495401E+03  0.7546771E-02  0.1220461E+00
         21   -1    0    0  501  502  0.00000000000E+00  0.00000000000E+00  0.35921367917E+02  0.35921367917E+02  0.00000000000E+00 0. -1.
          1   -1    0    0  502    0 -0.00000000000E+00 -0.00000000000E+00 -0.44239682531E+03  0.44239682531E+03  0.00000000000E+00 0. -1.
         23    2    1    2    0    0 -0.86324364982E+01  0.16172800593E+02 -0.20326626826E+03  0.22601636423E+03  0.97108921570E+02 0.  0.
        -24    2    1    2    0    0  0.64321180543E+01  0.87205899833E+01 -0.46328341246E+02  0.93443015174E+02  0.80423013186E+02 0.  0.
         13    1    4    4    0    0  0.33205122190E+02 -0.66102357774E+01  0.43269699801E+01  0.34132067413E+02  0.00000000000E+00 0. -1.
        -14    1    4    4    0    0 -0.26773004136E+02  0.15330825761E+02 -0.50655311226E+02  0.59310947761E+02  0.00000000000E+00 0.  1.
        -11    1    3    3    0    0 -0.30407410755E+02 -0.16806975436E+02 -0.23469024362E+02  0.41927081423E+02  0.00000000000E+00 0.  1.
         11    1    3    3    0    0  0.21774974257E+02  0.32979776030E+02 -0.17979724390E+03  0.18408928281E+03  0.00000000000E+00 0. -1.
          2    1    1    2  501    0  0.22003184439E+01 -0.24893390576E+02 -0.15688084788E+03  0.15885881382E+03  0.00000000000E+00 0. -1.
<scales pt_clust_5="13000.00000" pt_clust_6="13000.00000" pt_clust_7="13000.00000" pt_clust_8="13000.00000" pt_clust_9="13000.00000"></scales>
<clustering>
<clus scale="   80.423">  5  6 -1 -1</clus>
<clus scale="   24.990">  5  9 -1 -1</clus>
<clus scale="   97.109">  7  8 -1 -1</clus>
<clus scale="   98.824">  2  7  1 -1</clus>
<clus scale="  149.540">  1  5  2 -1</clus>
</clustering>
</event>
<event>
 9    1  0.2728138E-005  0.1690708E+03  0.7546771E-02  0.1197019E+00
         21   -1    0    0  501  502  0.00000000000E+00  0.00000000000E+00  0.19083840129E+03  0.19083840129E+03  0.00000000000E+00 0. -1.
          3   -1    0    0  502    0 -0.00000000000E+00 -0.00000000000E+00 -0.13483283549E+03  0.13483283549E+03  0.00000000000E+00 0. -1.
         23    2    1    2    0    0 -0.25240887888E+02 -0.63222033492E+02  0.10014128759E+03  0.15093457839E+03  0.90104614384E+02 0.  0.
        -24    2    1    2    0    0 -0.33988299184E+02  0.14842192305E+02 -0.17751612886E+01  0.87311703597E+02  0.79023333475E+02 0.  0.
         13    1    4    4    0    0 -0.45536292721E+02  0.36833451604E+01 -0.30129497817E+02  0.54725749195E+02  0.00000000000E+00 0. -1.
        -14    1    4    4    0    0  0.11547993536E+02  0.11158847145E+02  0.28354336528E+02  0.32585954402E+02  0.00000000000E+00 0.  1.
        -11    1    3    3    0    0  0.60740683721E+01 -0.34804589137E+02 -0.67617058056E+01  0.35971855623E+02  0.00000000000E+00 0.  1.
         11    1    3    3    0    0 -0.31314956260E+02 -0.28417444355E+02  0.10690299339E+03  0.11496272276E+03  0.00000000000E+00 0. -1.
          4    1    1    2  501    0  0.59229187073E+02  0.48379841187E+02 -0.42360560504E+02  0.87424954795E+02  0.00000000000E+00 0. -1.
<scales pt_clust_5="13000.00000" pt_clust_6="13000.00000" pt_clust_7="13000.00000" pt_clust_8="13000.00000" pt_clust_9="13000.00000"></scales>
<clustering>
<clus scale="   79.023">  5  6 -1 -1</clus>
<clus scale="   76.477">  5  9 -1 -1</clus>
<clus scale="   90.105">  7  8 -1 -1</clus>
<clus scale="  112.929">  2  7  1 -1</clus>
<clus scale="  169.071">  1  5  2 -1</clus>
</clustering>
</event>
<event>
 9    1  0.2728138E-005  0.2576411E+03  0.7546771E-02  0.1116773E+00
          1   -1    0    0  502    0 -0.00000000000E+00  0.00000000000E+00  0.13066275791E+04  0.13066275791E+04  0.00000000000E+00 0. -1.
         21   -1    0    0  501  502  0.00000000000E+00 -0.00000000000E+00 -0.41975907604E+02  0.41975907604E+02  0.00000000000E+00 0. -1.
         23    2    1    2    0    0 -0.12993843182E+03  0.13611450729E+03  0.51401074003E+03  0.55497842637E+03  0.91557947307E+02 0.  0.
        -24    2    1    2    0    0  0.13054692226E+03 -0.48022262813E+02  0.37451318202E+03  0.40731857877E+03  0.79370425604E+02 0.  0.
         13    1    4    4    0    0  0.11712199762E+03 -0.45026591048E+02  0.22872780808E+03  0.26088573441E+03  0.00000000000E+00 0. -1.
        -14    1    4    4    0    0  0.13424924639E+02 -0.29956717649E+01  0.14578537394E+03  0.14643284436E+03  0.00000000000E+00 0.  1.
        -13    1    3    3    0    0 -0.25923703454E+02 -0.11434478119E+02  0.82384852678E+02  0.87120890958E+02  0.00000000000E+00 0.  1.
         13    1    3    3    0    0 -0.10401472837E+03  0.14754898541E+03  0.43162588735E+03  0.46785753541E+03  0.00000000000E+00 0. -1.
          2    1    1    2  501    0 -0.60849043841E+00 -0.88092244480E+02  0.37612774945E+03  0.38630648158E+03  0.00000000000E+00 0. -1.
<scales pt_clust_5="13000.00000" pt_clust_6="13000.00000" pt_clust_7="13000.00000" pt_clust_8="13000.00000" pt_clust_9="13000.00000"></scales>
<clustering>
<clus scale="   79.370">  5  6 -1 -1</clus>
<clus scale="   88.094">  5  9 -1 -1</clus>
<clus scale="   91.558">  7  8 -1 -1</clus>
<clus scale="  209.270">  1  7  2 -1</clus>
<clus scale="  257.641">  2  5  1 -1</clus>
</clustering>
</event>
<event>
 9    1  0.2728138E-005  0.3083619E+03  0.7546771E-02  0.1109118E+00
         21   -1    0    0  501  502  0.00000000000E+00  0.00000000000E+00  0.27476937137E+03  0.27476937137E+03  0.00000000000E+00 0. -1.
          1   -1    0    0  502    0 -0.00000000000E+00 -0.00000000000E+00 -0.20472658533E+03  0.20472658533E+03  0.00000000000E+00 0. -1.
         23    2    1    2    0    0  0.52334504270E+02 -0.10086791236E+03 -0.37616559765E+02  0.15288061229E+03  0.95101209062E+02 0.  0.
        -24    2    1    2    0    0 -0.10066049065E+03 -0.32769974895E+02  0.12789334627E+03  0.18307475557E+03  0.77157322886E+02 0.  0.
         11    1    4    4    0    0 -0.62552096843E+02 -0.44430583529E+02  0.12002501824E+03  0.14245296267E+03  0.00000000000E+00 0. -1.
        -12    1    4    4    0    0 -0.38108393804E+02  0.11660608634E+02  0.78683280348E+01  0.40621792896E+02  0.00000000000E+00 0.  1.
        -11    1    3    3    0    0  0.70622144506E+02 -0.65940809831E+02  0.24734398404E+01  0.96652964778E+02  0.00000000000E+00 0. -1.
         11    1    3    3    0    0 -0.18287640236E+02 -0.34927102526E+02 -0.40089999606E+02  0.56227647511E+02  0.00000000000E+00 0.  1.
          2    1    1    2  501    0  0.48325986377E+02  0.13363788725E+03 -0.20234000467E+02  0.14354058884E+03  0.00000000000E+00 0. -1.
<scales pt_clust_5="13000.00000" pt_clust_6="13000.00000" pt_clust_7="13000.00000" pt_clust_8="13000.00000" pt_clust_9="13000.00000"></scales>
<clustering>
<clus scale="   77.157">  5  6 -1 -1</clus>
<clus scale="   95.101">  7  8 -1 -1</clus>
<clus scale="  142.107">  5  9 -1 -1</clus>
<clus scale="  148.181">  2  7  1 -1</clus>
<clus scale="  308.362">  1  5  2 -1</clus>
</clustering>
</event>
<event>
 9    1  0.2728138E-005  0.1165021E+04  0.7546771E-02  0.9702415E-01
         21   -1    0    0  501  502  0.00000000000E+00  0.00000000000E+00  0.32687615290E+03  0.32687615290E+03  0.00000000000E+00 0. -1.
          1   -1    0    0  502    0 -0.00000000000E+00 -0.00000000000E+00 -0.15718306257E+04  0.15718306257E+04  0.00000000000E+00 0. -1.
         23    2    1    2    0    0 -0.12758286640E+03 -0.21010213096E+02 -0.47792251999E+03  0.50385481232E+03  0.93492887078E+02 0.  0.
        -24    2    1    2    0    0 -0.37089869411E+03 -0.86603056705E+02  0.88395048754E+02  0.39895044653E+03  0.79258081083E+02 0.  0.
         13    1    4    4    0    0 -0.28801431667E+03 -0.33494026625E+02  0.55969567789E+02  0.29530778680E+03  0.00000000000E+00 0. -1.
        -14    1    4    4    0    0 -0.82884377447E+02 -0.53109030081E+02  0.32425480964E+02  0.10364265973E+03  0.00000000000E+00 0.  1.
        -13    1    3    3    0    0 -0.85164949732E+02  0.31852313709E+02 -0.24763710895E+03  0.26380253274E+03  0.00000000000E+00 0.  1.
         13    1    3    3    0    0 -0.42417916670E+02 -0.52862526805E+02 -0.23028541104E+03  0.24005227958E+03  0.00000000000E+00 0. -1.
          2    1    1    2  501    0  0.49848156052E+03  0.10761326980E+03 -0.85542700154E+03  0.99590151972E+03  0.00000000000E+00 0. -1.
<scales pt_clust_5="13000.00000" pt_clust_6="13000.00000" pt_clust_7="13000.00000" pt_clust_8="13000.00000" pt_clust_9="13000.00000"></scales>
<clustering>
<clus scale="   79.258">  5  6 -1 -1</clus>
<clus scale="   93.493">  7  8 -1 -1</clus>
<clus scale="  159.561">  2  7  1 -1</clus>
<clus scale="  399.411">  5  9 -1 -1</clus>
<clus scale=" 1165.021">  1  5  2 -1</clus>
</clustering>
</event>
<event>
 9    1  0.2728138E-005  0.2607733E+03  0.7546771E-02  0.1119935E+00
          1   -1    0    0  502    0 -0.00000000000E+00  0.00000000000E+00  0.31839960311E+03  0.31839960311E+03  0.00000000000E+00 0. -1.
         21   -1    0    0  501  502  0.00000000000E+00 -0.00000000000E+00 -0.28492593977E+03  0.28492593977E+03  0.00000000000E+00 0. -1.
         23    2    1    2    0    0  0.12910314053E+03 -0.98522776210E+02  0.21576922299E+03  0.28515206185E+03  0.91547705941E+02 0.  0.
        -24    2    1    2    0    0  0.23040161141E+02  0.23444972363E+02 -0.44460757577E+02  0.99580952486E+02  0.82819631604E+02 0.  0.
         11    1    4    4    0    0  0.18982566887E+02 -0.27472249087E+02 -0.33578666180E+02  0.47355983127E+02  0.00000000000E+00 0. -1.
        -12    1    4    4    0    0  0.40575942538E+01  0.50917221450E+02 -0.10882091398E+02  0.52224969359E+02  0.00000000000E+00 0.  1.
        -13    1    3    3    0    0  0.56041296692E+02 -0.57312626289E+01  0.26971494487E+02  0.62457472099E+02  0.00000000000E+00 0.  1.
         13    1    3    3    0    0  0.73061843836E+02 -0.92791513582E+02  0.18879772850E+03  0.22269458975E+03  0.00000000000E+00 0. -1.
          2    1    1    2  501    0 -0.15214330167E+03  0.75077803847E+02 -0.13783480207E+03  0.21859252854E+03  0.00000000000E+00 0. -1.
<scales pt_clust_5="13000.00000" pt_clust_6="13000.00000" pt_clust_7="13000.00000" pt_clust_8="13000.00000" pt_clust_9="13000.00000"></scales>
<clustering>
<clus scale="   82.820">  5  6 -1 -1</clus>
<clus scale="   91.548">  7  8 -1 -1</clus>
<clus scale="  169.659">  5  9 -1 -1</clus>
<clus scale="  186.428">  1  7  2 -1</clus>
<clus scale="  260.773">  2  5  1 -1</clus>
</clustering>
</event>
<event>
 9    1  0.2728138E-005  0.1814356E+03  0.7546771E-02  0.1187911E+00
         21   -1    0    0  501  502  0.00000000000E+00  0.00000000000E+00  0.13729880182E+03  0.13729880182E+03  0.00000000000E+00 0. -1.
          1   -1    0    0  502    0 -0.00000000000E+00 -0.00000000000E+00 -0.17193709602E+03  0.17193709602E+03  0.00000000000E+00 0. -1.
         23    2    1    2    0    0  0.50535161689E+02 -0.44598700484E+02 -0.58812073111E+02  0.12619698145E+03  0.89016692435E+02 0.  0.
        -24    2    1    2    0    0  0.31542411875E+02  0.43890481367E+02 -0.34016524093E+01  0.96450036798E+02  0.79810652533E+02 0.  0.
         13    1    4    4    0    0  0.32770391006E+02  0.20145800891E+02  0.34523699253E+02  0.51687886689E+02  0.00000000000E+00 0. -1.
        -14    1    4    4    0    0 -0.12279791316E+01  0.23744680476E+02 -0.37925351662E+02  0.44762150109E+02  0.00000000000E+00 0.  1.
        -13    1    3    3    0    0  0.24921976897E+02  0.14047445881E+02  0.11758894834E+02  0.30930685022E+02  0.00000000000E+00 0.  1.
         13    1    3    3    0    0  0.25613184792E+02 -0.58646146365E+02 -0.70570967945E+02  0.95266296429E+02  0.00000000000E+00 0. -1.
          2    1    1    2  501    0 -0.82077573564E+02  0.70821911726E+00  0.27575431316E+02  0.86588879590E+02  0.00000000000E+00 0. -1.
<scales pt_clust_5="13000.00000" pt_clust_6="13000.00000" pt_clust_7="13000.00000" pt_clust_8="13000.00000" pt_clust_9="13000.00000"></scales>
<clustering>
<clus scale="   79.811">  5  6 -1 -1</clus>
<clus scale="   82.081">  5  9 -1 -1</clus>
<clus scale="   89.017">  7  8 -1 -1</clus>
<clus scale="  111.655">  2  7  1 -1</clus>
<clus scale="  181.436">  1  5  2 -1</clus>
</clustering>
</event>
<event>
 9    1  0.2728138E-005  0.5222266E+03  0.7546771E-02  0.1018419E+00
         21   -1    0    0  501  502  0.00000000000E+00  0.00000000000E+00  0.12523455479E+03  0.12523455479E+03  0.00000000000E+00 0.  1.
          1   -1    0    0  502    0 -0.00000000000E+00 -0.00000000000E+00 -0.21689538364E+04  0.21689538364E+04  0.00000000000E+00 0. -1.
         23    2    1    2    0    0 -0.95626746933E+02  0.35697626406E+03 -0.33439190808E+03  0.50686616752E+03  0.92297539238E+02 0.  0.
        -24    2    1    2    0    0  0.94167686329E+02  0.36566302962E+02 -0.43159430348E+03  0.45035562752E+03  0.79636052045E+02 0.  0.
         11    1    4    4    0    0  0.82364248278E+02  0.14208051914E+02 -0.40549219118E+03  0.41401649151E+03  0.00000000000E+00 0. -1.
        -12    1    4    4    0    0  0.11803438051E+02  0.22358251048E+02 -0.26102112297E+02  0.36339136012E+02  0.00000000000E+00 0.  1.
        -11    1    3    3    0    0 -0.26284382361E+02  0.58506001435E+02 -0.10903117639E+03  0.12649750347E+03  0.00000000000E+00 0. -1.
         11    1    3    3    0    0 -0.69342364571E+02  0.29847026263E+03 -0.22536073169E+03  0.38036866405E+03  0.00000000000E+00 0.  1.
          2    1    1    2  501    0  0.14590606038E+01 -0.39354256703E+03 -0.12777330700E+04  0.13369665961E+04  0.00000000000E+00 0. -1.
<scales pt_clust_5="13000.00000" pt_clust_6="13000.00000" pt_clust_7="13000.00000" pt_clust_8="13000.00000" pt_clust_9="13000.00000"></scales>
<clustering>
<clus scale="   79.636">  5  6 -1 -1</clus>
<clus scale="   92.298">  7  8 -1 -1</clus>
<clus scale="  380.914">  2  7  1 -1</clus>
<clus scale="  144.692">  5  9 -1 -1</clus>
<clus scale="  522.227">  1  5  2 -1</clus>
</clustering>
</event>
<event>
 9    1  0.2728138E-005  0.2501532E+03  0.7546771E-02  0.1124446E+00
         21   -1    0    0  501  502  0.00000000000E+00  0.00000000000E+00  0.70125649855E+02  0.70125649855E+02  0.00000000000E+00 0. -1.
          1   -1    0    0  502    0 -0.00000000000E+00 -0.00000000000E+00 -0.68674357180E+03  0.68674357180E+03  0.00000000000E+00 0. -1.
         23    2    1    2    0    0 -0.15632139269E+03 -0.52292384384E+02 -0.26619673405E+03  0.32632115208E+03  0.91945210862E+02 0.  0.
        -24    2    1    2    0    0  0.16195058990E+02  0.68591164906E+02 -0.12013347072E+03  0.16048609090E+03  0.79728958019E+02 0.  0.
         13    1    4    4    0    0  0.74593052632E+01  0.46448510152E+02 -0.10372393583E+02  0.48173559958E+02  0.00000000000E+00 0. -1.
        -14    1    4    4    0    0  0.87357537272E+01  0.22142654754E+02 -0.10976107714E+03  0.11231253094E+03  0.00000000000E+00 0.  1.
        -11    1    3    3    0    0 -0.57015585891E+02  0.21279338908E+02 -0.12252253185E+03  0.13680408660E+03  0.00000000000E+00 0.  1.
         11    1    3    3    0    0 -0.99305806798E+02 -0.73571723291E+02 -0.14367420219E+03  0.18951706548E+03  0.00000000000E+00 0. -1.
          2    1    1    2  501    0  0.14012633370E+03 -0.16298780523E+02 -0.23028771718E+03  0.27006197868E+03  0.00000000000E+00 0. -1.
<scales pt_clust_5="13000.00000" pt_clust_6="13000.00000" pt_clust_7="13000.00000" pt_clust_8="13000.00000" pt_clust_9="13000.00000"></scales>
<clustering>
<clus scale="   79.729">  5  6 -1 -1</clus>
<clus scale="   91.945">  7  8 -1 -1</clus>
<clus scale="  141.071">  5  9 -1 -1</clus>
<clus scale="  188.745">  2  7  1 -1</clus>
<clus scale="  250.153">  1  5  2 -1</clus>
</clustering>
</event>
<event>
 9    1  0.2728138E-005  0.1818241E+03  0.7546771E-02  0.1193594E+00
         21   -1    0    0  501  502  0.00000000000E+00  0.00000000000E+00  0.63351646948E+02  0.63351646948E+02  0.00000000000E+00 0. -1.
         -4   -1    0    0    0  501 -0.00000000000E+00 -0.00000000000E+00 -0.30887971244E+03  0.30887971244E+03  0.00000000000E+00 0.  1.
         23    2    1    2    0    0 -0.27383211619E+02 -0.20142002492E+02 -0.90249517187E+02  0.13312585396E+03  0.91771330481E+02 0.  0.
        -24    2    1    2    0    0 -0.50299484528E+02 -0.94976684985E+01 -0.10526735945E+03  0.14207854841E+03  0.80528585620E+02 0.  0.
         11    1    4    4    0    0 -0.25642443272E+02  0.35490776419E+02 -0.54415164812E+02  0.69843684534E+02  0.00000000000E+00 0. -1.
        -12    1    4    4    0    0 -0.24657041256E+02 -0.44988444918E+02 -0.50852194639E+02  0.72234863876E+02  0.00000000000E+00 0.  1.
        -11    1    3    3    0    0  0.18227185797E+02 -0.36161576163E+02 -0.69673687239E+02  0.80587297921E+02  0.00000000000E+00 0.  1.
         11    1    3    3    0    0 -0.45610397416E+02  0.16019573672E+02 -0.20575829948E+02  0.52538556043E+02  0.00000000000E+00 0. -1.
         -3    1    1    2    0  502  0.77682696147E+02  0.29639670990E+02 -0.50011188857E+02  0.97026957017E+02  0.00000000000E+00 0.  1.
<scales pt_clust_5="13000.00000" pt_clust_6="13000.00000" pt_clust_7="13000.00000" pt_clust_8="13000.00000" pt_clust_9="13000.00000"></scales>
<clustering>
<clus scale="   80.529">  5  6 -1 -1</clus>
<clus scale="   83.145">  5  9 -1 -1</clus>
<clus scale="   91.771">  7  8 -1 -1</clus>
<clus scale="   97.865">  2  7  1 -1</clus>
<clus scale="  181.824">  1  5  2 -1</clus>
</clustering>
</event>
<event>
 9    1  0.2728138E-005  0.3016954E+03  0.7546771E-02  0.1105745E+00
         21   -1    0    0  501  502  0.00000000000E+00  0.00000000000E+00  0.12517561390E+03  0.12517561390E+03  0.00000000000E+00 0. -1.
          1   -1    0    0  502    0 -0.00000000000E+00 -0.00000000000E+00 -0.45737735517E+03  0.45737735517E+03  0.00000000000E+00 0. -1.
         23    2    1    2    0    0 -0.39327884785E+02 -0.14213155244E+03 -0.15946111515E+03  0.23490453383E+03  0.89466373865E+02 0.  0.
        -24    2    1    2    0    0  0.10719514418E+03  0.17882078315E+02 -0.15319413907E+03  0.20472901083E+03  0.81455239058E+02 0.  0.
         13    1    4    4    0    0  0.93390505346E+02  0.17712348169E+02 -0.16237317011E+03  0.18815036576E+03  0.00000000000E+00 0. -1.
        -14    1    4    4    0    0  0.13804638830E+02  0.16973014562E+00  0.91790310342E+01  0.16578645068E+02  0.00000000000E+00 0.  1.
        -13    1    3    3    0    0  0.21291213479E+02 -0.40640258993E+01 -0.21355355054E+02  0.30428330013E+02  0.00000000000E+00 0.  1.
         13    1    3    3    0    0 -0.60619098263E+02 -0.13806752654E+03 -0.13810576009E+03  0.20447620382E+03  0.00000000000E+00 0. -1.
          2    1    1    2  501    0 -0.67867259392E+02  0.12424947412E+03 -0.19546487051E+02  0.14291942441E+03  0.00000000000E+00 0. -1.
<scales pt_clust_5="13000.00000" pt_clust_6="13000.00000" pt_clust_7="13000.00000" pt_clust_8="13000.00000" pt_clust_9="13000.00000"></scales>
<clustering>
<clus scale="   81.455">  5  6 -1 -1</clus>
<clus scale="   89.466">  7  8 -1 -1</clus>
<clus scale="  141.577">  5  9 -1 -1</clus>
<clus scale="  172.489">  2  7  1 -1</clus>
<clus scale="  301.695">  1  5  2 -1</clus>
</clustering>
</event>
<event>
 9    1  0.2728138E-005  0.1249396E+03  0.7546771E-02  0.1238923E+00
         21   -1    0    0  501  502  0.00000000000E+00  0.00000000000E+00  0.28339103584E+02  0.28339103584E+02  0.00000000000E+00 0. -1.
          1   -1    0    0  502    0 -0.00000000000E+00 -0.00000000000E+00 -0.51538261910E+03  0.51538261910E+03  0.00000000000E+00 0. -1.
         23    2    1    2    0    0 -0.57116851073E+02 -0.29964922397E+02 -0.25961776586E+03  0.28423690483E+03  0.96067697295E+02 0.  0.
        -24    2    1    2    0    0  0.46381388994E+02 -0.10070719909E+02 -0.13156873636E+03  0.15504981511E+03  0.66913826184E+02 0.  0.
         11    1    4    4    0    0  0.44116233109E+02  0.20605991692E+02 -0.60866514383E+02  0.77946016514E+02  0.00000000000E+00 0. -1.
        -12    1    4    4    0    0  0.22651558853E+01 -0.30676711601E+02 -0.70702221973E+02  0.77103798595E+02  0.00000000000E+00 0.  1.
        -11    1    3    3    0    0  0.78593643099E+01  0.24191746030E+02 -0.28886213865E+02  0.38489265189E+02  0.00000000000E+00 0.  1.
         11    1    3    3    0    0 -0.64976215383E+02 -0.54156668427E+02 -0.23073155200E+03  0.24574763964E+03  0.00000000000E+00 0. -1.
          2    1    1    2  501    0  0.10735462079E+02  0.40035642305E+02 -0.95857013299E+02  0.10443500275E+03  0.00000000000E+00 0. -1.
<scales pt_clust_5="13000.00000" pt_clust_6="13000.00000" pt_clust_7="13000.00000" pt_clust_8="13000.00000" pt_clust_9="13000.00000"></scales>
<clustering>
<clus scale="   66.914">  5  6 -1 -1</clus>
<clus scale="   41.450">  5  9 -1 -1</clus>
<clus scale="   96.068">  7  8 -1 -1</clus>
<clus scale="  115.712">  2  7  1 -1</clus>
<clus scale="  124.940">  1  5  2 -1</clus>
</clustering>
</event>
<event>
 9    1  0.2728138E-005  0.1878056E+03  0.7546771E-02  0.1165486E+00
         21   -1    0    0  501  502  0.00000000000E+00  0.00000000000E+00  0.96690731055E+02  0.96690731055E+02  0.00000000000E+00 0. -1.
          1   -1    0    0  502    0 -0.00000000000E+00 -0.00000000000E+00 -0.32989617996E+03  0.32989617996E+03  0.00000000000E+00 0. -1.
         23    2    1    2    0    0  0.25196540111E+02 -0.13829534529E+03 -0.13372022024E+03  0.21405864926E+03  0.90440808598E+02 0.  0.
        -24    2    1    2    0    0 -0.36469725860E+02  0.10728497949E+03 -0.39422781859E+02  0.14399925315E+03  0.79633670330E+02 0.  0.
         13    1    4    4    0    0 -0.43577024929E+02  0.10812850907E+03 -0.53452512953E+02  0.12824937706E+03  0.00000000000E+00 0. -1.
        -14    1    4    4    0    0  0.71072990682E+01 -0.84352958482E+00  0.14029731094E+02  0.15749876088E+02  0.00000000000E+00 0.  1.
        -11    1    3    3    0    0  0.28772477046E+02 -0.16495667379E+01 -0.12709146380E+02  0.31497601615E+02  0.00000000000E+00 0.  1.
         11    1    3    3    0    0 -0.35759369344E+01 -0.13664577855E+03 -0.12101107386E+03  0.18256104764E+03  0.00000000000E+00 0. -1.
          2    1    1    2  501    0  0.11273185749E+02  0.31010365802E+02 -0.60062446811E+02  0.68529008609E+02  0.00000000000E+00 0. -1.
<scales pt_clust_5="13000.00000" pt_clust_6="13000.00000" pt_clust_7="13000.00000" pt_clust_8="13000.00000" pt_clust_9="13000.00000"></scales>
<clustering>
<clus scale="   79.634">  5  6 -1 -1</clus>
<clus scale="   32.996">  5  9 -1 -1</clus>
<clus scale="   90.441">  7  8 -1 -1</clus>
<clus scale="  167.153">  2  7  1 -1</clus>
<clus scale="  187.806">  1  5  2 -1</clus>
</clustering>
</event>
<event>
 9    1  0.2728138E-005  0.2617409E+03  0.7546771E-02  0.1133655E+00
         21   -1    0    0  501  502  0.00000000000E+00  0.00000000000E+00  0.13525539254E+03  0.13525539254E+03  0.00000000000E+00 0.  1.
          3   -1    0    0  502    0 -0.00000000000E+00 -0.00000000000E+00 -0.38169952483E+03  0.38169952483E+03  0.00000000000E+00 0. -1.
         23    2    1    2    0    0  0.66123215875E+02  0.62934332854E+02  0.31579905728E+02  0.13510984508E+03  0.94468883040E+02 0.  0.
        -24    2    1    2    0    0 -0.15454955527E+02 -0.10357721803E+02 -0.29466435589E+03  0.30695533458E+03  0.83954492087E+02 0.  0.
         11    1    4    4    0    0 -0.60473262178E+01 -0.45224802054E+02 -0.11546546297E+03  0.12415363875E+03  0.00000000000E+00 0. -1.
        -12    1    4    4    0    0 -0.94076293093E+01  0.34867080252E+02 -0.17919889292E+03  0.18280169583E+03  0.00000000000E+00 0.  1.
        -11    1    3    3    0    0  0.52076221521E+02 -0.13209656145E+02  0.16727982353E+02  0.56269470026E+02  0.00000000000E+00 0.  1.
         11    1    3    3    0    0  0.14046994354E+02  0.76143988999E+02  0.14851923376E+02  0.78840375056E+02  0.00000000000E+00 0. -1.
          4    1    1    2  501    0 -0.50668260348E+02 -0.52576611051E+02  0.16640317875E+02  0.74889737717E+02  0.00000000000E+00 0. -1.
<scales pt_clust_5="13000.00000" pt_clust_6="13000.00000" pt_clust_7="13000.00000" pt_clust_8="13000.00000" pt_clust_9="13000.00000"></scales>
<clustering>
<clus scale="   83.954">  5  6 -1 -1</clus>
<clus scale="   73.018">  5  9 -1 -1</clus>
<clus scale="   94.469">  7  8 -1 -1</clus>
<clus scale="  131.367">  2  7  1 -1</clus>
<clus scale="  261.741">  1  5  2 -1</clus>
</clustering>
</event>
<event>
 9    1  0.2728138E-005  0.2046433E+03  0.7546771E-02  0.1175904E+00
         21   -1    0    0  501  502  0.00000000000E+00  0.00000000000E+00  0.17194773855E+03  0.17194773855E+03  0.00000000000E+00 0. -1.
          1   -1    0    0  502    0 -0.00000000000E+00 -0.00000000000E+00 -0.16049514198E+03  0.16049514198E+03  0.00000000000E+00 0. -1.
         23    2    1    2    0    0  0.23139455865E+02  0.40023062688E+02  0.65127395895E+02  0.12087762071E+03  0.90733353993E+02 0.  0.
        -24    2    1    2    0    0  0.32233526147E+02 -0.67734915314E+02  0.22287856663E+02  0.11356301996E+03  0.82296974358E+02 0.  0.
         13    1    4    4    0    0  0.15019662828E+02 -0.60719729994E+02 -0.21380514890E+02  0.66102967400E+02  0.00000000000E+00 0. -1.
        -14    1    4    4    0    0  0.17213863319E+02 -0.70151853197E+01  0.43668371553E+02  0.47460052565E+02  0.00000000000E+00 0.  1.
        -13    1    3    3    0    0  0.43951496275E+02 -0.53982999425E+01  0.53740306330E+02  0.69634016052E+02  0.00000000000E+00 0. -1.
         13    1    3    3    0    0 -0.20812040410E+02  0.45421362630E+02  0.11387089565E+02  0.51243604654E+02  0.00000000000E+00 0.  1.
          2    1    1    2  501    0 -0.55372982012E+02  0.27711852626E+02 -0.75962655982E+02  0.98002239856E+02  0.00000000000E+00 0. -1.
<scales pt_clust_5="13000.00000" pt_clust_6="13000.00000" pt_clust_7="13000.00000" pt_clust_8="13000.00000" pt_clust_9="13000.00000"></scales>
<clustering>
<clus scale="   82.297">  5  6 -1 -1</clus>
<clus scale="   61.920">  5  9 -1 -1</clus>
<clus scale="   90.733">  7  8 -1 -1</clus>
<clus scale="  101.832">  2  7  1 -1</clus>
<clus scale="  204.643">  1  5  2 -1</clus>
</clustering>
</event>
<event>
 9    1  0.2728138E-005  0.3101979E+03  0.7546771E-02  0.1106590E+00
          1   -1    0    0  502    0 -0.00000000000E+00  0.00000000000E+00  0.12832494652E+03  0.12832494652E+03  0.00000000000E+00 0. -1.
         21   -1    0    0  501  502  0.00000000000E+00 -0.00000000000E+00 -0.50028733225E+03  0.50028733225E+03  0.00000000000E+00 0. -1.
         23    2    1    2    0    0  0.11684616768E+03  0.49692457275E+02 -0.25204624784E+03  0.29604255296E+03  0.89395273370E+02 0.  0.
        -24    2    1    2    0    0  0.68156781511E+02  0.25364829653E+02 -0.40701785317E+02  0.11778005849E+03  0.83227311624E+02 0.  0.
         13    1    4    4    0    0  0.44664481783E+02  0.45598026837E+02 -0.54417814014E+02  0.83877258339E+02  0.00000000000E+00 0. -1.
        -14    1    4    4    0    0  0.23492299728E+02 -0.20233197184E+02  0.13716028696E+02  0.33902800150E+02  0.00000000000E+00 0.  1.
        -13    1    3    3    0    0 -0.42558478872E+01  0.26379148862E+02 -0.80121714678E+02  0.84459818251E+02  0.00000000000E+00 0.  1.
         13    1    3    3    0    0  0.12110201557E+03  0.23313308412E+02 -0.17192453316E+03  0.21158273471E+03  0.00000000000E+00 0. -1.
          2    1    1    2  501    0 -0.18500294920E+03 -0.75057286928E+02 -0.79214352573E+02  0.21478966732E+03  0.00000000000E+00 0. -1.
<scales pt_clust_5="13000.00000" pt_clust_6="13000.00000" pt_clust_7="13000.00000" pt_clust_8="13000.00000" pt_clust_9="13000.00000"></scales>
<clustering>
<clus scale="   83.227">  5  6 -1 -1</clus>
<clus scale="   89.395">  7  8 -1 -1</clus>
<clus scale="  155.287">  1  7  2 -1</clus>
<clus scale="  118.717">  5  9 -1 -1</clus>
<clus scale="  310.198">  2  5  1 -1</clus>
</clustering>
</event>
<event>
 9    1  0.2728138E-005  0.1612495E+03  0.7546771E-02  0.1212685E+00
          1   -1    0    0  502    0 -0.00000000000E+00  0.00000000000E+00  0.14793562760E+03  0.14793562760E+03  0.00000000000E+00 0. -1.
         21   -1    0    0  501  502  0.00000000000E+00 -0.00000000000E+00 -0.11050257863E+03  0.11050257863E+03  0.00000000000E+00 0.  1.
         23    2    1    2    0    0 -0.43570799175E+02  0.11529424783E+02 -0.60322321276E-01  0.92887169214E+02  0.81219950685E+02 0.  0.
        -24    2    1    2    0    0  0.37196497550E+01 -0.26407086298E+02 -0.24976881488E+02  0.89973319372E+02  0.82220335617E+02 0.  0.
         11    1    4    4    0    0  0.25858017688E+02 -0.38708916628E+02  0.91834029167E+01  0.47448416142E+02  0.00000000000E+00 0. -1.
        -12    1    4    4    0    0 -0.22138367933E+02  0.12301830330E+02 -0.34160284404E+02  0.42524903230E+02  0.00000000000E+00 0.  1.
        -11    1    3    3    0    0 -0.35910331994E+02  0.30429978424E+02 -0.30616218813E+02  0.56150586687E+02  0.00000000000E+00 0. -1.
         11    1    3    3    0    0 -0.76604671811E+01 -0.18900553641E+02  0.30555896492E+02  0.36736582528E+02  0.00000000000E+00 0.  1.
          2    1    1    2  501    0  0.39851149420E+02  0.14877661515E+02  0.62470252773E+02  0.75577717641E+02  0.00000000000E+00 0. -1.
<scales pt_clust_5="13000.00000" pt_clust_6="13000.00000" pt_clust_7="13000.00000" pt_clust_8="13000.00000" pt_clust_9="13000.00000"></scales>
<clustering>
<clus scale="   81.220">  7  8 -1 -1</clus>
<clus scale="   82.220">  5  6 -1 -1</clus>
<clus scale="   42.538">  5  9 -1 -1</clus>
<clus scale="   92.887">  1  7  2 -1</clus>
<clus scale="  161.249">  2  5  1 -1</clus>
</clustering>
</event>
<event>
 9    1  0.2728138E-005  0.2171499E+03  0.7546771E-02  0.1159794E+00
         21   -1    0    0  501  502  0.00000000000E+00  0.00000000000E+00  0.19383418410E+02  0.19383418410E+02  0.00000000000E+00 0. -1.
          1   -1    0    0  502    0 -0.00000000000E+00 -0.00000000000E+00 -0.15231020158E+04  0.15231020158E+04  0.00000000000E+00 0. -1.
         23    2    1    2    0    0  0.83296012201E+02  0.15381336273E+02 -0.44889414781E+03  0.46554129440E+03  0.89710254122E+02 0.  0.
        -24    2    1    2    0    0 -0.13545249021E+03 -0.31586945155E+02 -0.85330904595E+03  0.86815865694E+03  0.78854381698E+02 0.  0.
         11    1    4    4    0    0 -0.10800608700E+03 -0.50491811680E+02 -0.53576674468E+03  0.54887224614E+03  0.00000000000E+00 0. -1.
        -12    1    4    4    0    0 -0.27446403214E+02  0.18904866525E+02 -0.31754230127E+03  0.31928641080E+03  0.00000000000E+00 0.  1.
        -13    1    3    3    0    0  0.84834744034E+02 -0.19333312736E+02 -0.28419082163E+03  0.29721227073E+03  0.00000000000E+00 0.  1.
         13    1    3    3    0    0 -0.15387318333E+01  0.34714649009E+02 -0.16470332618E+03  0.16832902366E+03  0.00000000000E+00 0. -1.
          2    1    1    2  501    0  0.52156478013E+02  0.16205608882E+02 -0.20151540359E+03  0.20878548283E+03  0.00000000000E+00 0. -1.
<scales pt_clust_5="13000.00000" pt_clust_6="13000.00000" pt_clust_7="13000.00000" pt_clust_8="13000.00000" pt_clust_9="13000.00000"></scales>
<clustering>
<clus scale="   78.854">  5  6 -1 -1</clus>
<clus scale="   54.616">  5  9 -1 -1</clus>
<clus scale="   89.710">  7  8 -1 -1</clus>
<clus scale="  123.381">  2  7  1 -1</clus>
<clus scale="  217.150">  1  5  2 -1</clus>
</clustering>
</event>
<event>
 9    1  0.2728138E-005  0.2000616E+03  0.7546771E-02  0.1175200E+00
          1   -1    0    0  502    0 -0.00000000000E+00  0.00000000000E+00  0.45704230765E+02  0.45704230765E+02  0.00000000000E+00 0. -1.
         21   -1    0    0  501  502  0.00000000000E+00 -0.00000000000E+00 -0.59538273917E+03  0.59538273917E+03  0.00000000000E+00 0.  1.
         23    2    1    2    0    0  0.17709159677E+02 -0.50734255658E+02 -0.10123483828E+03  0.15004078019E+03  0.96830595392E+02 0.  0.
        -24    2    1    2    0    0  0.18849315961E+02 -0.45714570492E+02 -0.16868991706E+03  0.19288338093E+03  0.79388864802E+02 0.  0.
         11    1    4    4    0    0  0.17159681636E+02 -0.45885358192E+02 -0.37529849391E+02  0.61712319399E+02  0.00000000000E+00 0. -1.
        -12    1    4    4    0    0  0.16896343250E+01  0.17078770031E+00 -0.13116006767E+03  0.13117106154E+03  0.00000000000E+00 0.  1.
        -11    1    3    3    0    0 -0.23564785083E+02 -0.52848618172E+02 -0.24404235093E+02  0.62800017748E+02  0.00000000000E+00 0.  1.
         11    1    3    3    0    0  0.41273944760E+02  0.21143625141E+01 -0.76830603185E+02  0.87240762437E+02  0.00000000000E+00 0. -1.
          2    1    1    2  501    0 -0.36558475638E+02  0.96448826150E+02 -0.27975375306E+03  0.29816280881E+03  0.00000000000E+00 0. -1.
<scales pt_clust_5="13000.00000" pt_clust_6="13000.00000" pt_clust_7="13000.00000" pt_clust_8="13000.00000" pt_clust_9="13000.00000"></scales>
<clustering>
<clus scale="   79.389">  5  6 -1 -1</clus>
<clus scale="   96.831">  7  8 -1 -1</clus>
<clus scale="  103.145">  5  9 -1 -1</clus>
<clus scale="  110.742">  1  7  2 -1</clus>
<clus scale="  200.062">  2  5  1 -1</clus>
</clustering>
</event>
<event>
 9    1  0.2728138E-005  0.2653218E+03  0.7546771E-02  0.1128117E+00
          1   -1    0    0  502    0 -0.00000000000E+00  0.00000000000E+00  0.65089345778E+03  0.65089345778E+03  0.00000000000E+00 0. -1.
         21   -1    0    0  501  502  0.00000000000E+00 -0.00000000000E+00 -0.67771394434E+02  0.67771394434E+02  0.00000000000E+00 0. -1.
         23    2    1    2    0    0 -0.11232628341E+03  0.24342493948E+01  0.28536147504E+03  0.31984532553E+03  0.90811570368E+02 0.  0.
        -24    2    1    2    0    0 -0.13689328962E+02  0.20553781483E+02  0.43437113284E+02  0.11405854959E+03  0.10253152815E+03 0.  0.
         13    1    4    4    0    0 -0.29166466581E+02  0.37145358321E+02 -0.16455235358E+02  0.50012350357E+02  0.00000000000E+00 0. -1.
        -14    1    4    4    0    0  0.15477137619E+02 -0.16591576837E+02  0.59892348641E+02  0.64046199236E+02  0.00000000000E+00 0.  1.
        -13    1    3    3    0    0 -0.10874634748E+03  0.28801907315E+02  0.25905858922E+03  0.28242993928E+03  0.00000000000E+00 0. -1.
         13    1    3    3    0    0 -0.35799359253E+01 -0.26367657920E+02  0.26302885817E+02  0.37415386243E+02  0.00000000000E+00 0.  1.
          2    1    1    2  501    0  0.12601561237E+03 -0.22988030878E+02  0.25432347503E+03  0.28476097709E+03  0.00000000000E+00 0. -1.
<scales pt_clust_5="13000.00000" pt_clust_6="13000.00000" pt_clust_7="13000.00000" pt_clust_8="13000.00000" pt_clust_9="13000.00000"></scales>
<clustering>
<clus scale="   90.812">  7  8 -1 -1</clus>
<clus scale="  102.532">  5  6 -1 -1</clus>
<clus scale="  128.095">  5  9 -1 -1</clus>
<clus scale="  144.464">  1  7  2 -1</clus>
<clus scale="  265.322">  2  5  1 -1</clus>
</clustering>
</event>
<event>
 9    1  0.2728138E-005  0.1599060E+03  0.7546771E-02  0.1206329E+00
         -4   -1    0    0    0  501 -0.00000000000E+00  0.00000000000E+00  0.37017596412E+03  0.37017596412E+03  0.00000000000E+00 0.  1.
         21   -1    0    0  501  502  0.00000000000E+00 -0.00000000000E+00 -0.93878258041E+02  0.93878258041E+02  0.00000000000E+00 0. -1.
         23    2    1    2    0    0  0.87080845595E+01 -0.58357041167E+02 -0.34585869524E+02  0.11445654873E+03  0.91775509728E+02 0.  0.
        -24    2    1    2    0    0 -0.11829041198E+02  0.13214127881E+02  0.98728220869E+02  0.13267022581E+03  0.86830800000E+02 0.  0.
         13    1    4    4    0    0 -0.47772977551E+02 -0.52306761522E+01  0.49593244756E+02  0.69058723435E+02  0.00000000000E+00 0. -1.
        -14    1    4    4    0    0  0.35943936354E+02  0.18444804033E+02  0.49134976114E+02  0.63611502373E+02  0.00000000000E+00 0.  1.
        -11    1    3    3    0    0  0.44327213647E+02 -0.58580482329E+02 -0.22145250285E+02  0.76726702586E+02  0.00000000000E+00 0. -1.
         11    1    3    3    0    0 -0.35619129088E+02  0.22344116191E+00 -0.12440619239E+02  0.37729846143E+02  0.00000000000E+00 0.  1.
         -3    1    1    2    0  502  0.31209566382E+01  0.45142913286E+02  0.21215535473E+03  0.21692744762E+03  0.00000000000E+00 0.  1.
<scales pt_clust_5="13000.00000" pt_clust_6="13000.00000" pt_clust_7="13000.00000" pt_clust_8="13000.00000" pt_clust_9="13000.00000"></scales>
<clustering>
<clus scale="   86.831">  5  6 -1 -1</clus>
<clus scale="   45.251">  5  9 -1 -1</clus>
<clus scale="   91.776">  7  8 -1 -1</clus>
<clus scale="  109.106">  1  7  2 -1</clus>
<clus scale="  159.906">  2  5  1 -1</clus>
</clustering>
</event>
<event>
 9    1  0.2728138E-005  0.1709722E+03  0.7546771E-02  0.1201235E+00
         21   -1    0    0  501  502  0.00000000000E+00  0.00000000000E+00  0.86832223021E+02  0.86832223021E+02  0.00000000000E+00 0. -1.
          1   -1    0    0  502    0 -0.00000000000E+00 -0.00000000000E+00 -0.23907195552E+03  0.23907195552E+03  0.00000000000E+00 0. -1.
         23    2    1    2    0    0 -0.16337318959E+02  0.31046346974E+02 -0.41625456428E+01  0.99722081155E+02  0.93254399534E+02 0.  0.
        -24    2    1    2    0    0 -0.24538386649E+02  0.36638977046E+02 -0.74921308674E+02  0.11846065612E+03  0.80468487596E+02 0.  0.
         13    1    4    4    0    0 -0.34488917975E+02 -0.28454157009E+01 -0.16624125200E+01  0.34646002208E+02  0.00000000000E+00 0. -1.
        -14    1    4    4    0    0  0.99505313258E+01  0.39484392747E+02 -0.73258896154E+02  0.83814653910E+02  0.00000000000E+00 0.  1.
        -11    1    3    3    0    0  0.26766040150E+01 -0.32420507222E+02 -0.75002092384E+01  0.33384227356E+02  0.00000000000E+00 0.  1.
         11    1    3    3    0    0 -0.19013922974E+02  0.63466854196E+02  0.33376635955E+01  0.66337853799E+02  0.00000000000E+00 0. -1.
          2    1    1    2  501    0  0.40875705608E+02 -0.67685324020E+02 -0.73155878187E+02  0.10772144127E+03  0.00000000000E+00 0. -1.
<scales pt_clust_5="13000.00000" pt_clust_6="13000.00000" pt_clust_7="13000.00000" pt_clust_8="13000.00000" pt_clust_9="13000.00000"></scales>
<clustering>
<clus scale="   80.468">  5  6 -1 -1</clus>
<clus scale="   79.070">  5  9 -1 -1</clus>
<clus scale="   93.254">  7  8 -1 -1</clus>
<clus scale="   99.635">  2  7  1 -1</clus>
<clus scale="  170.972">  1  5  2 -1</clus>
</clustering>
</event>
<event>
 9    1  0.2728138E-005  0.1808851E+03  0.7546771E-02  0.1200217E+00
         21   -1    0    0  501  502  0.00000000000E+00  0.00000000000E+00  0.98510850586E+02  0.98510850586E+02  0.00000000000E+00 0.  1.
         -2   -1    0    0    0  501 -0.00000000000E+00 -0.00000000000E+00 -0.19949193618E+03  0.19949193618E+03  0.00000000000E+00 0.  1.
         23    2    1    2    0    0  0.28092056547E+02 -0.12988728112E+01  0.87158905924E+01  0.86454097404E+02  0.81286490252E+02 0.  0.
        -24    2    1    2    0    0 -0.67422705615E+02  0.51746437407E+02 -0.78292149121E+02  0.14028776113E+03  0.79545460533E+02 0.  0.
         11    1    4    4    0    0 -0.74089067104E+02  0.30102532873E+02 -0.84962146360E+02  0.11667869842E+03  0.00000000000E+00 0. -1.
        -12    1    4    4    0    0  0.66663614892E+01  0.21643904534E+02  0.66699972393E+01  0.23609062712E+02  0.00000000000E+00 0.  1.
        -11    1    3    3    0    0  0.26874449643E+02 -0.34319821886E+02 -0.14647786318E+02  0.45985257006E+02  0.00000000000E+00 0. -1.
         11    1    3    3    0    0  0.12176069036E+01  0.33020949075E+02  0.23363676910E+02  0.40468840398E+02  0.00000000000E+00 0.  1.
         -1    1    1    2    0  502  0.39330649068E+02 -0.50447564596E+02 -0.31404827067E+02  0.71260928235E+02  0.00000000000E+00 0.  1.
<scales pt_clust_5="13000.00000" pt_clust_6="13000.00000" pt_clust_7="13000.00000" pt_clust_8="13000.00000" pt_clust_9="13000.00000"></scales>
<clustering>
<clus scale="   79.545">  5  6 -1 -1</clus>
<clus scale="   63.968">  5  9 -1 -1</clus>
<clus scale="   81.286">  7  8 -1 -1</clus>
<clus scale="   86.014">  2  7  1 -1</clus>
<clus scale="  180.885">  1  5  2 -1</clus>
</clustering>
</event>
<event>
 9    1  0.2728138E-005  0.1182134E+03  0.7546771E-02  0.1251092E+00
         21   -1    0    0  501  502  0.00000000000E+00  0.00000000000E+00  0.38367516738E+02  0.38367516738E+02  0.00000000000E+00 0. -1.
          1   -1    0    0  502    0 -0.00000000000E+00 -0.00000000000E+00 -0.33117246858E+03  0.33117246858E+03  0.00000000000E+00 0. -1.
         23    2    1    2    0    0 -0.27052719553E+02  0.51065841934E+02 -0.14888257503E+03  0.18329270014E+03  0.89947890080E+02 0.  0.
        -24    2    1    2    0    0  0.73958429532E+01 -0.44031144693E+02 -0.88745288759E+02  0.12725244804E+03  0.79523701242E+02 0.  0.
         13    1    4    4    0    0  0.31733529823E+02 -0.34917447340E+02 -0.15707619912E+02  0.49729009311E+02  0.00000000000E+00 0. -1.
        -14    1    4    4    0    0 -0.24337686870E+02 -0.91136973528E+01 -0.73037668848E+02  0.77523438729E+02  0.00000000000E+00 0.  1.
        -11    1    3    3    0    0 -0.18017060942E+00  0.60311436315E+02 -0.44073692933E+02  0.74699345516E+02  0.00000000000E+00 0. -1.
         11    1    3    3    0    0 -0.26872548943E+02 -0.92455943805E+01 -0.10480888210E+03  0.10859335463E+03  0.00000000000E+00 0.  1.
          2    1    1    2  501    0  0.19656876600E+02 -0.70346972413E+01 -0.55177088050E+02  0.58994837135E+02  0.00000000000E+00 0. -1.
<scales pt_clust_5="13000.00000" pt_clust_6="13000.00000" pt_clust_7="13000.00000" pt_clust_8="13000.00000" pt_clust_9="13000.00000"></scales>
<clustering>
<clus scale="   79.524">  5  6 -1 -1</clus>
<clus scale="   20.878">  5  9 -1 -1</clus>
<clus scale="   89.948">  7  8 -1 -1</clus>
<clus scale="  106.912">  2  7  1 -1</clus>
<clus scale="  118.213">  1  5  2 -1</clus>
</clustering>
</event>
<event>
 9    1  0.2728138E-005  0.2235223E+03  0.7546771E-02  0.1155562E+00
          1   -1    0    0  502    0 -0.00000000000E+00  0.00000000000E+00  0.20408612519E+03  0.20408612519E+03  0.00000000000E+00 0. -1.
         21   -1    0    0  501  502  0.00000000000E+00 -0.00000000000E+00 -0.16876444421E+03  0.16876444421E+03  0.00000000000E+00 0. -1.
         23    2    1    2    0    0  0.78750727214E+02  0.29151680201E+02 -0.48715698458E+02  0.13405254553E+03  0.92441160693E+02 0.  0.
        -24    2    1    2    0    0  0.67001785802E+01 -0.87642083476E+02  0.41918242238E+02  0.12700801406E+03  0.81534467653E+02 0.  0.
         11    1    4    4    0    0  0.14004762918E+02 -0.10032351235E+03  0.24423254468E+02  0.10419902050E+03  0.00000000000E+00 0. -1.
        -12    1    4    4    0    0 -0.73045843377E+01  0.12681428870E+02  0.17494987769E+02  0.22808993568E+02  0.00000000000E+00 0.  1.
        -11    1    3    3    0    0  0.98651906050E+02  0.13615345813E+02 -0.37283102329E+02  0.10633722739E+03  0.00000000000E+00 0. -1.
         11    1    3    3    0    0 -0.19901178836E+02  0.15536334388E+02 -0.11432596129E+02  0.27715318139E+02  0.00000000000E+00 0.  1.
          2    1    1    2  501    0 -0.85450905794E+02  0.58490403275E+02  0.42119137201E+02  0.11179000982E+03  0.00000000000E+00 0. -1.
<scales pt_clust_5="13000.00000" pt_clust_6="13000.00000" pt_clust_7="13000.00000" pt_clust_8="13000.00000" pt_clust_9="13000.00000"></scales>
<clustering>
<clus scale="   81.534">  5  6 -1 -1</clus>
<clus scale="   92.441">  7  8 -1 -1</clus>
<clus scale="  103.552">  5  9 -1 -1</clus>
<clus scale="  124.887">  1  7  2 -1</clus>
<clus scale="  223.522">  2  5  1 -1</clus>
</clustering>
</event>
<event>
 9    1  0.2728138E-005  0.2851571E+03  0.7546771E-02  0.1127883E+00
          1   -1    0    0  502    0 -0.00000000000E+00  0.00000000000E+00  0.51421939794E+03  0.51421939794E+03  0.00000000000E+00 0. -1.
         21   -1    0    0  501  502  0.00000000000E+00 -0.00000000000E+00 -0.12271084949E+03  0.12271084949E+03  0.00000000000E+00 0. -1.
         23    2    1    2    0    0 -0.64521516952E+02  0.42034303026E+02 -0.36526899533E+02  0.12260649611E+03  0.88137561335E+02 0.  0.
        -24    2    1    2    0    0  0.12174897904E+03 -0.73020992308E+02  0.41712874428E+03  0.44833804442E+03  0.82799357239E+02 0.  0.
         11    1    4    4    0    0  0.44277057132E+02 -0.46442758607E+01  0.23283234353E+03  0.23705047412E+03  0.00000000000E+00 0. -1.
        -12    1    4    4    0    0  0.77471921908E+02 -0.68376716447E+02  0.18429640075E+03  0.21128757031E+03  0.00000000000E+00 0.  1.
        -11    1    3    3    0    0 -0.39648702380E+02  0.25232982175E+02  0.25666403712E+02  0.53548924073E+02  0.00000000000E+00 0.  1.
         11    1    3    3    0    0 -0.24872814571E+02  0.16801320851E+02 -0.62193303245E+02  0.69057572036E+02  0.00000000000E+00 0. -1.
          2    1    1    2  501    0 -0.57227462088E+02  0.30986689282E+02  0.10906703704E+02  0.65985706902E+02  0.00000000000E+00 0. -1.
<scales pt_clust_5="13000.00000" pt_clust_6="13000.00000" pt_clust_7="13000.00000" pt_clust_8="13000.00000" pt_clust_9="13000.00000"></scales>
<clustering>
<clus scale="   82.799">  5  6 -1 -1</clus>
<clus scale="   65.078">  5  9 -1 -1</clus>
<clus scale="   88.138">  7  8 -1 -1</clus>
<clus scale="  117.039">  1  7  2 -1</clus>
<clus scale="  285.157">  2  5  1 -1</clus>
</clustering>
</event>
<event>
 9    1  0.2728138E-005  0.3348148E+03  0.7546771E-02  0.1090737E+00
          1   -1    0    0  502    0 -0.00000000000E+00  0.00000000000E+00  0.10749538119E+04  0.10749538119E+04  0.00000000000E+00 0. -1.
         21   -1    0    0  501  502  0.00000000000E+00 -0.00000000000E+00 -0.64894061663E+02  0.64894061663E+02  0.00000000000E+00 0. -1.
         23    2    1    2    0    0 -0.11664873656E+03  0.11466819968E+03  0.45321661427E+03  0.49009776254E+03  0.89637010424E+02 0.  0.
        -24    2    1    2    0    0 -0.20372662967E+02  0.65402140272E+02  0.18494367062E+03  0.21442333309E+03  0.84147009004E+02 0.  0.
         13    1    4    4    0    0  0.87510520654E+01  0.54423847117E+02  0.45286642292E+02  0.71340143099E+02  0.00000000000E+00 0. -1.
        -14    1    4    4    0    0 -0.29123715033E+02  0.10978293155E+02  0.13965702833E+03  0.14308318999E+03  0.00000000000E+00 0.  1.
        -13    1    3    3    0    0 -0.11788842870E+03  0.71551400035E+02  0.38916380819E+03  0.41287498601E+03  0.00000000000E+00 0. -1.
         13    1    3    3    0    0  0.12396921413E+01  0.43116799644E+02  0.64052806079E+02  0.77222776528E+02  0.00000000000E+00 0.  1.
          2    1    1    2  501    0  0.13702139953E+03 -0.18007033995E+03  0.37189946536E+03  0.43532677794E+03  0.00000000000E+00 0. -1.
<scales pt_clust_5="13000.00000" pt_clust_6="13000.00000" pt_clust_7="13000.00000" pt_clust_8="13000.00000" pt_clust_9="13000.00000"></scales>
<clustering>
<clus scale="   84.147">  5  6 -1 -1</clus>
<clus scale="   89.637">  7  8 -1 -1</clus>
<clus scale="  186.522">  1  7  2 -1</clus>
<clus scale="  119.001">  5  9 -1 -1</clus>
<clus scale="  334.815">  2  5  1 -1</clus>
</clustering>
</event>
<event>
 9    1  0.2728138E-005  0.2415056E+03  0.7546771E-02  0.1125970E+00
         21   -1    0    0  501  502  0.00000000000E+00  0.00000000000E+00  0.40311254843E+03  0.40311254843E+03  0.00000000000E+00 0. -1.
         -2   -1    0    0    0  501 -0.00000000000E+00 -0.00000000000E+00 -0.12922872207E+03  0.12922872207E+03  0.00000000000E+00 0.  1.
         23    2    1    2    0    0  0.14802530076E+03  0.10812533369E+03  0.18823590609E+03  0.27609821688E+03  0.84822706714E+02 0.  0.
        -24    2    1    2    0    0 -0.19779443567E+02 -0.65529986503E+02  0.50241747501E+02  0.11654709606E+03  0.79834747379E+02 0.  0.
         11    1    4    4    0    0  0.22829376683E+02 -0.34371478290E+01 -0.44041340844E+01  0.23502996021E+02  0.00000000000E+00 0. -1.
        -12    1    4    4    0    0 -0.42608820251E+02 -0.62092838674E+02  0.54645881585E+02  0.93044100038E+02  0.00000000000E+00 0.  1.
        -11    1    3    3    0    0  0.10524497451E+03  0.66976122612E+02  0.68168024245E+02  0.14215901374E+03  0.00000000000E+00 0.  1.
         11    1    3    3    0    0  0.42780326249E+02  0.41149211078E+02  0.12006788185E+03  0.13393920314E+03  0.00000000000E+00 0. -1.
         -1    1    1    2    0  502 -0.12824585719E+03 -0.42595347187E+02  0.35406172758E+02  0.13969595756E+03  0.00000000000E+00 0.  1.
<scales pt_clust_5="13000.00000" pt_clust_6="13000.00000" pt_clust_7="13000.00000" pt_clust_8="13000.00000" pt_clust_9="13000.00000"></scales>
<clustering>
<clus scale="   79.835">  5  6 -1 -1</clus>
<clus scale="   84.823">  7  8 -1 -1</clus>
<clus scale="  135.135">  5  9 -1 -1</clus>
<clus scale="  201.984">  2  7  1 -1</clus>
<clus scale="  241.506">  1  5  2 -1</clus>
</clustering>
</event>
<event>
 9    1  0.2728138E-005  0.2908647E+03  0.7546771E-02  0.1114624E+00
         21   -1    0    0  501  502  0.00000000000E+00  0.00000000000E+00  0.91609955364E+03  0.91609955364E+03  0.00000000000E+00 0. -1.
          1   -1    0    0  502    0 -0.00000000000E+00 -0.00000000000E+00 -0.14212798253E+03  0.14212798253E+03  0.00000000000E+00 0. -1.
         23    2    1    2    0    0  0.10822418492E+03 -0.51909116447E+02 -0.67638811541E+02  0.16777243647E+03  0.95736884425E+02 0.  0.
        -24    2    1    2    0    0  0.35088070449E+02 -0.39380546142E+02  0.15227700885E+03  0.18048840663E+03  0.81275933705E+02 0.  0.
         13    1    4    4    0    0  0.47041363655E+02  0.48999165548E+00  0.11636146585E+03  0.12551143661E+03  0.00000000000E+00 0. -1.
        -14    1    4    4    0    0 -0.11953293205E+02 -0.39870537798E+02  0.35915543005E+02  0.54976970015E+02  0.00000000000E+00 0.  1.
        -13    1    3    3    0    0  0.29404200016E+01  0.22629357091E+02 -0.16600848554E+01  0.22879898467E+02  0.00000000000E+00 0.  1.
         13    1    3    3    0    0  0.10528376492E+03 -0.74538473538E+02 -0.65978726685E+02  0.14489253800E+03  0.00000000000E+00 0. -1.
          2    1    1    2  501    0 -0.14331225537E+03  0.91289662589E+02  0.68933337380E+03  0.70996669307E+03  0.00000000000E+00 0. -1.
<scales pt_clust_5="13000.00000" pt_clust_6="13000.00000" pt_clust_7="13000.00000" pt_clust_8="13000.00000" pt_clust_9="13000.00000"></scales>
<clustering>
<clus scale="   81.276">  5  6 -1 -1</clus>
<clus scale="   95.737">  7  8 -1 -1</clus>
<clus scale="  153.534">  2  7  1 -1</clus>
<clus scale="  119.733">  5  9 -1 -1</clus>
<clus scale="  290.865">  1  5  2 -1</clus>
</clustering>
</event>
<event>
 9    1  0.2728138E-005  0.1884881E+03  0.7546771E-02  0.1188265E+00
         21   -1    0    0  501  502  0.00000000000E+00  0.00000000000E+00  0.17016149320E+02  0.17016149320E+02  0.00000000000E+00 0. -1.
          1   -1    0    0  502    0 -0.00000000000E+00 -0.00000000000E+00 -0.13361852496E+04  0.13361852496E+04  0.00000000000E+00 0. -1.
         23    2    1    2    0    0 -0.14381873066E+02 -0.36835916822E+02 -0.27629345515E+03  0.29342906979E+03  0.90547350011E+02 0.  0.
        -24    2    1    2    0    0 -0.61363131849E+02 -0.38317957831E-02 -0.56410443945E+03  0.57364853808E+03  0.84222281282E+02 0.  0.
         13    1    4    4    0    0 -0.64633344543E+02  0.41117322713E+01 -0.21590167443E+03  0.22540609705E+03  0.00000000000E+00 0. -1.
        -14    1    4    4    0    0  0.32702126940E+01 -0.41155640671E+01 -0.34820276503E+03  0.34824244102E+03  0.00000000000E+00 0.  1.
        -11    1    3    3    0    0  0.15379057490E+02 -0.57713205044E+02 -0.20317335454E+03  0.21177049238E+03  0.00000000000E+00 0. -1.
         11    1    3    3    0    0 -0.29760930557E+02  0.20877288222E+02 -0.73120100612E+02  0.81658577410E+02  0.00000000000E+00 0.  1.
          2    1    1    2  501    0  0.75745004915E+02  0.36839748618E+02 -0.47877120567E+03  0.48612379105E+03  0.00000000000E+00 0. -1.
<scales pt_clust_5="13000.00000" pt_clust_6="13000.00000" pt_clust_7="13000.00000" pt_clust_8="13000.00000" pt_clust_9="13000.00000"></scales>
<clustering>
<clus scale="   84.222">  5  6 -1 -1</clus>
<clus scale="   84.229">  5  9 -1 -1</clus>
<clus scale="   90.547">  7  8 -1 -1</clus>
<clus scale="   98.806">  2  7  1 -1</clus>
<clus scale="  188.488">  1  5  2 -1</clus>
</clustering>
</event>
<event>
 9    1  0.2728138E-005  0.1929177E+03  0.7546771E-02  0.1183540E+00
         21   -1    0    0  501  502  0.00000000000E+00  0.00000000000E+00  0.12658094486E+03  0.12658094486E+03  0.00000000000E+00 0. -1.
          1   -1    0    0  502    0 -0.00000000000E+00 -0.00000000000E+00 -0.21021312906E+03  0.21021312906E+03  0.00000000000E+00 0. -1.
         23    2    1    2    0    0  0.31846088408E+02  0.33217512018E+02  0.37474538063E+02  0.10901327578E+03  0.91443845296E+02 0.  0.
        -24    2    1    2    0    0  0.36025336160E+02  0.57485457425E+01 -0.11971350243E+03  0.14950676035E+03  0.81792897633E+02 0.  0.
         13    1    4    4    0    0  0.23008426061E+02 -0.29493467839E+02 -0.18878741024E+02  0.41900586841E+02  0.00000000000E+00 0. -1.
        -14    1    4    4    0    0  0.13016910099E+02  0.35242013581E+02 -0.10083476141E+03  0.10760617351E+03  0.00000000000E+00 0.  1.
        -11    1    3    3    0    0  0.58068563723E+02  0.15657539015E+02  0.16014382439E+00  0.60142682572E+02  0.00000000000E+00 0. -1.
         11    1    3    3    0    0 -0.26222475315E+02  0.17559973003E+02  0.37314394238E+02  0.48870593212E+02  0.00000000000E+00 0.  1.
          2    1    1    2  501    0 -0.67871424568E+02 -0.38966057760E+02 -0.13932198334E+01  0.78274037789E+02  0.00000000000E+00 0. -1.
<scales pt_clust_5="13000.00000" pt_clust_6="13000.00000" pt_clust_7="13000.00000" pt_clust_8="13000.00000" pt_clust_9="13000.00000"></scales>
<clustering>
<clus scale="   81.793">  5  6 -1 -1</clus>
<clus scale="   78.262">  5  9 -1 -1</clus>
<clus scale="   91.444">  7  8 -1 -1</clus>
<clus scale="  102.370">  2  7  1 -1</clus>
<clus scale="  192.918">  1  5  2 -1</clus>
</clustering>
</event>
<event>
 9    1  0.2728138E-005  0.1949383E+03  0.7546771E-02  0.1185480E+00
         -2   -1    0    0    0  501 -0.00000000000E+00  0.00000000000E+00  0.87573667848E+02  0.87573667848E+02  0.00000000000E+00 0.  1.
         21   -1    0    0  501  502  0.00000000000E+00 -0.00000000000E+00 -0.43585504559E+03  0.43585504559E+03  0.00000000000E+00 0.  1.
         23    2    1    2    0    0 -0.26283118948E+02  0.27377108990E+01  0.28503402195E+02  0.99202709421E+02  0.91271223380E+02 0.  0.
        -24    2    1    2    0    0 -0.40664105800E+02  0.55633854864E+02 -0.21908264706E+03  0.24323116070E+03  0.80096791374E+02 0.  0.
         13    1    4    4    0    0  0.79543141419E+01  0.56474618412E+02 -0.11734153064E+03  0.13046719301E+03  0.00000000000E+00 0. -1.
        -14    1    4    4    0    0 -0.48618419942E+02 -0.84076354783E+00 -0.10174111642E+03  0.11276396770E+03  0.00000000000E+00 0.  1.
        -13    1    3    3    0    0 -0.28323744596E+02  0.31310014995E+02  0.48474362607E+02  0.64283087800E+02  0.00000000000E+00 0.  1.
         13    1    3    3    0    0  0.20406256483E+01 -0.28572304096E+02 -0.19970960413E+02  0.34919621621E+02  0.00000000000E+00 0. -1.
         -1    1    1    2    0  502  0.66947224748E+02 -0.58371565763E+02 -0.15770213288E+03  0.18099484332E+03  0.00000000000E+00 0.  1.
<scales pt_clust_5="13000.00000" pt_clust_6="13000.00000" pt_clust_7="13000.00000" pt_clust_8="13000.00000" pt_clust_9="13000.00000"></scales>
<clustering>
<clus scale="   80.097">  5  6 -1 -1</clus>
<clus scale="   88.821">  5  9 -1 -1</clus>
<clus scale="   91.271">  7  8 -1 -1</clus>
<clus scale="   95.020">  1  7  2 -1</clus>
<clus scale="  194.938">  2  5  1 -1</clus>
</clustering>
</event>
<event>
 9    1  0.2728138E-005  0.1922031E+03  0.7546771E-02  0.1177887E+00
         21   -1    0    0  501  502  0.00000000000E+00  0.00000000000E+00  0.20775161407E+03  0.20775161407E+03  0.00000000000E+00 0. -1.
          3   -1    0    0  502    0 -0.00000000000E+00 -0.00000000000E+00 -0.33016695038E+03  0.33016695038E+03  0.00000000000E+00 0. -1.
         23    2    1    2    0    0 -0.55809732005E+02 -0.48027772633E+02 -0.27073392043E+03  0.29514206092E+03  0.91600149113E+02 0.  0.
        -24    2    1    2    0    0 -0.27814094110E+02 -0.13370901838E+02  0.75680386376E+02  0.11613113530E+03  0.82501605182E+02 0.  0.
         13    1    4    4    0    0  0.17796688978E+01 -0.41578085388E+02  0.58482005818E+02  0.71777777971E+02  0.00000000000E+00 0. -1.
        -14    1    4    4    0    0 -0.29593763008E+02  0.28207183551E+02  0.17198380558E+02  0.44353357332E+02  0.00000000000E+00 0.  1.
        -13    1    3    3    0    0 -0.72715469156E+02 -0.83884701705E+01 -0.14906996529E+03  0.16607155216E+03  0.00000000000E+00 0. -1.
         13    1    3    3    0    0  0.16905737151E+02 -0.39639302462E+02 -0.12166395515E+03  0.12907050876E+03  0.00000000000E+00 0.  1.
          4    1    1    2  501    0  0.83623826115E+02  0.61398674471E+02  0.72638197754E+02  0.12664536823E+03  0.00000000000E+00 0. -1.
<scales pt_clust_5="13000.00000" pt_clust_6="13000.00000" pt_clust_7="13000.00000" pt_clust_8="13000.00000" pt_clust_9="13000.00000"></scales>
<clustering>
<clus scale="   82.502">  5  6 -1 -1</clus>
<clus scale="   91.600">  7  8 -1 -1</clus>
<clus scale="  103.744">  5  9 -1 -1</clus>
<clus scale="  117.524">  2  7  1 -1</clus>
<clus scale="  192.203">  1  5  2 -1</clus>
</clustering>
</event>
<event>
 9    1  0.2728138E-005  0.2090581E+03  0.7546771E-02  0.1176368E+00
         -2   -1    0    0    0  501 -0.00000000000E+00  0.00000000000E+00  0.34638001174E+03  0.34638001174E+03  0.00000000000E+00 0.  1.
         21   -1    0    0  501  502  0.00000000000E+00 -0.00000000000E+00 -0.66638150984E+02  0.66638150984E+02  0.00000000000E+00 0.  1.
         23    2    1    2    0    0 -0.27238164713E+02  0.12860190098E+02  0.95407517679E+02  0.13429884420E+03  0.89589525162E+02 0.  0.
        -24    2    1    2    0    0 -0.19627152961E+02  0.35198065209E+01 -0.53206045094E+01  0.82674269018E+02  0.80056928207E+02 0.  0.
         11    1    4    4    0    0 -0.39013119419E+02  0.27403879417E+02  0.93651967997E+01  0.48587066232E+02  0.00000000000E+00 0. -1.
        -12    1    4    4    0    0  0.19385966459E+02 -0.23884072897E+02 -0.14685801309E+02  0.34087202786E+02  0.00000000000E+00 0.  1.
        -13    1    3    3    0    0 -0.57029117715E+02  0.23413115140E+02  0.73044097678E+02  0.95582082178E+02  0.00000000000E+00 0.  1.
         13    1    3    3    0    0  0.29790953001E+02 -0.10552925042E+02  0.22363420001E+02  0.38716762027E+02  0.00000000000E+00 0. -1.
         -1    1    1    2    0  502  0.46865317674E+02 -0.16379996619E+02  0.18965494759E+03  0.19604504951E+03  0.00000000000E+00 0.  1.
<scales pt_clust_5="13000.00000" pt_clust_6="13000.00000" pt_clust_7="13000.00000" pt_clust_8="13000.00000" pt_clust_9="13000.00000"></scales>
<clustering>
<clus scale="   80.057">  5  6 -1 -1</clus>
<clus scale="   49.645">  5  9 -1 -1</clus>
<clus scale="   89.590">  7  8 -1 -1</clus>
<clus scale="   94.518">  1  7  2 -1</clus>
<clus scale="  209.058">  2  5  1 -1</clus>
</clustering>
</event>
<event>
 9    1  0.2728138E-005  0.2832390E+03  0.7546771E-02  0.1133187E+00
         -2   -1    0    0    0  501 -0.00000000000E+00  0.00000000000E+00  0.99119651355E+02  0.99119651355E+02  0.00000000000E+00 0.  1.
         21   -1    0    0  501  502  0.00000000000E+00 -0.00000000000E+00 -0.44149928264E+03  0.44149928264E+03  0.00000000000E+00 0.  1.
         23    2    1    2    0    0 -0.52277042494E+02 -0.66880667801E+01 -0.19482051629E+03  0.22124767919E+03  0.90652537592E+02 0.  0.
        -24    2    1    2    0    0 -0.47793464066E+02 -0.72919637218E+02 -0.15032798031E+03  0.19146832507E+03  0.80374928579E+02 0.  0.
         13    1    4    4    0    0 -0.19363847246E+02 -0.40359196941E+02 -0.11714538889E+02  0.46271522336E+02  0.00000000000E+00 0. -1.
        -14    1    4    4    0    0 -0.28429616820E+02 -0.32560440277E+02 -0.13861344142E+03  0.14519680274E+03  0.00000000000E+00 0.  1.
        -13    1    3    3    0    0  0.96253014377E+00  0.34754595665E+02 -0.91156838427E+02  0.97562172875E+02  0.00000000000E+00 0.  1.
         13    1    3    3    0    0 -0.53239572637E+02 -0.41442662445E+02 -0.10366367786E+03  0.12368550632E+03  0.00000000000E+00 0. -1.
         -1    1    1    2    0  502  0.10007050656E+03  0.79607703998E+02  0.27688653073E+01  0.12790292973E+03  0.00000000000E+00 0.  1.
<scales pt_clust_5="13000.00000" pt_clust_6="13000.00000" pt_clust_7="13000.00000" pt_clust_8="13000.00000" pt_clust_9="13000.00000"></scales>
<clustering>
<clus scale="   80.375">  5  6 -1 -1</clus>
<clus scale="   90.653">  7  8 -1 -1</clus>
<clus scale="  104.859">  1  7  2 -1</clus>
<clus scale="   95.869">  5  9 -1 -1</clus>
<clus scale="  283.239">  2  5  1 -1</clus>
</clustering>
</event>
<event>
 9    1  0.2728138E-005  0.5612558E+03  0.7546771E-02  0.1040472E+00
          1   -1    0    0  502    0 -0.00000000000E+00  0.00000000000E+00  0.19938717029E+04  0.19938717029E+04  0.00000000000E+00 0. -1.
         21   -1    0    0  501  502  0.00000000000E+00 -0.00000000000E+00 -0.65185034342E+02  0.65185034342E+02  0.00000000000E+00 0. -1.
         23    2    1    2    0    0 -0.12479911292E+03  0.40387038748E+02  0.45610944541E+03  0.48314693680E+03  0.90494225576E+02 0.  0.
        -24    2    1    2    0    0 -0.90209617151E+02 -0.53908419354E+02  0.52209148450E+02  0.13929675256E+03  0.75059292475E+02 0.  0.
         13    1    4    4    0    0 -0.82966229310E+02 -0.70021960072E+02  0.33620698941E+02  0.11365219530E+03  0.00000000000E+00 0. -1.
        -14    1    4    4    0    0 -0.72433878408E+01  0.16113540718E+02  0.18588449509E+02  0.25644557259E+02  0.00000000000E+00 0.  1.
        -13    1    3    3    0    0 -0.31894879539E+02 -0.28046200986E+02  0.15407978345E+03  0.15982631948E+03  0.00000000000E+00 0. -1.
         13    1    3    3    0    0 -0.92904233380E+02  0.68433239734E+02  0.30202966197E+03  0.32332061733E+03  0.00000000000E+00 0.  1.
          2    1    1    2  501    0  0.21500873007E+03  0.13521380606E+02  0.14203680747E+04  0.14366130479E+04  0.00000000000E+00 0. -1.
<scales pt_clust_5="13000.00000" pt_clust_6="13000.00000" pt_clust_7="13000.00000" pt_clust_8="13000.00000" pt_clust_9="13000.00000"></scales>
<clustering>
<clus scale="   75.059">  5  6 -1 -1</clus>
<clus scale="   90.494">  7  8 -1 -1</clus>
<clus scale="  159.359">  1  7  2 -1</clus>
<clus scale="  110.692">  5  9 -1 -1</clus>
<clus scale="  561.256">  2  5  1 -1</clus>
</clustering>
</event>
<event>
 9    1  0.2728138E-005  0.1849230E+03  0.7546771E-02  0.1180978E+00
         21   -1    0    0  501  502  0.00000000000E+00  0.00000000000E+00  0.40783963510E+02  0.40783963510E+02  0.00000000000E+00 0. -1.
          1   -1    0    0  502    0 -0.00000000000E+00 -0.00000000000E+00 -0.72163395750E+03  0.72163395750E+03  0.00000000000E+00 0. -1.
         23    2    1    2    0    0 -0.77985696140E+02  0.10220969763E+02 -0.12015484329E+03  0.17201503287E+03  0.94687634589E+02 0.  0.
        -24    2    1    2    0    0  0.10702756367E+03 -0.41884420254E+02 -0.40725641399E+03  0.43106221508E+03  0.82144035002E+02 0.  0.
         11    1    4    4    0    0  0.12062619290E+03 -0.35951740248E+02 -0.35115777522E+03  0.37303483636E+03  0.00000000000E+00 0. -1.
        -12    1    4    4    0    0 -0.13598629231E+02 -0.59326800064E+01 -0.56098638768E+02  0.58027378716E+02  0.00000000000E+00 0.  1.
        -13    1    3    3    0    0 -0.44272987259E+02 -0.32397465797E+02 -0.99994869792E+02  0.11405554426E+03  0.00000000000E+00 0.  1.
         13    1    3    3    0    0 -0.33712708880E+02  0.42618435559E+02 -0.20159973496E+02  0.57959488618E+02  0.00000000000E+00 0. -1.
          2    1    1    2  501    0 -0.29041867529E+02  0.31663450492E+02 -0.15343873671E+03  0.15934067306E+03  0.00000000000E+00 0. -1.
<scales pt_clust_5="13000.00000" pt_clust_6="13000.00000" pt_clust_7="13000.00000" pt_clust_8="13000.00000" pt_clust_9="13000.00000"></scales>
<clustering>
<clus scale="   82.144">  5  6 -1 -1</clus>
<clus scale="   42.965">  5  9 -1 -1</clus>
<clus scale="   94.688">  7  8 -1 -1</clus>
<clus scale="  123.093">  2  7  1 -1</clus>
<clus scale="  184.923">  1  5  2 -1</clus>
</clustering>
</event>
<event>
 9    1  0.2728138E-005  0.2483507E+03  0.7546771E-02  0.1119984E+00
          1   -1    0    0  502    0 -0.00000000000E+00  0.00000000000E+00  0.47422531825E+03  0.47422531825E+03  0.00000000000E+00 0. -1.
         21   -1    0    0  501  502  0.00000000000E+00 -0.00000000000E+00 -0.24924792472E+03  0.24924792472E+03  0.00000000000E+00 0. -1.
         23    2    1    2    0    0  0.18665618726E+03  0.57187687394E+02  0.37556640797E+03  0.43303375019E+03  0.91417384419E+02 0.  0.
        -24    2    1    2    0    0 -0.35338187763E+02 -0.44882959228E+02 -0.42904253815E+02  0.10430902516E+03  0.76002172282E+02 0.  0.
         11    1    4    4    0    0  0.20066094233E+02 -0.23054801091E+02 -0.31092931248E+02  0.43599797759E+02  0.00000000000E+00 0. -1.
        -12    1    4    4    0    0 -0.55404281996E+02 -0.21828158138E+02 -0.11811322568E+02  0.60709227404E+02  0.00000000000E+00 0.  1.
        -13    1    3    3    0    0  0.12346100068E+03  0.21072454915E+02  0.14680831946E+03  0.19297499762E+03  0.00000000000E+00 0.  1.
         13    1    3    3    0    0  0.63195186583E+02  0.36115232479E+02  0.22875808851E+03  0.24005875257E+03  0.00000000000E+00 0. -1.
          2    1    1    2  501    0 -0.15131799950E+03 -0.12304728166E+02 -0.10768476062E+03  0.18613046762E+03  0.00000000000E+00 0. -1.
<scales pt_clust_5="13000.00000" pt_clust_6="13000.00000" pt_clust_7="13000.00000" pt_clust_8="13000.00000" pt_clust_9="13000.00000"></scales>
<clustering>
<clus scale="   76.002">  5  6 -1 -1</clus>
<clus scale="   91.417">  7  8 -1 -1</clus>
<clus scale="  151.818">  5  9 -1 -1</clus>
<clus scale="  215.565">  1  7  2 -1</clus>
<clus scale="  248.351">  2  5  1 -1</clus>
</clustering>
</event>
<event>
 9    1  0.2728138E-005  0.3853912E+03  0.7546771E-02  0.1080496E+00
          1   -1    0    0  502    0 -0.00000000000E+00  0.00000000000E+00  0.90633490584E+03  0.90633490584E+03  0.00000000000E+00 0. -1.
         21   -1    0    0  501  502  0.00000000000E+00 -0.00000000000E+00 -0.82637007921E+02  0.82637007921E+02  0.00000000000E+00 0. -1.
         23    2    1    2    0    0 -0.10494425082E+03  0.81579723348E+02  0.27380040948E+03  0.31747088668E+03  0.90291486960E+02 0.  0.
        -24    2    1    2    0    0 -0.12074076071E+03 -0.63560971088E+02  0.20860980616E+03  0.26194555839E+03  0.80492831941E+02 0.  0.
         13    1    4    4    0    0 -0.78461294776E+02 -0.25208455625E+02  0.57706552073E+02  0.10060659603E+03  0.00000000000E+00 0. -1.
        -14    1    4    4    0    0 -0.42279465929E+02 -0.38352515463E+02  0.15090325408E+03  0.16133896236E+03  0.00000000000E+00 0.  1.
        -13    1    3    3    0    0 -0.82311022438E+02  0.59843790250E+02  0.26647641873E+03  0.28524737577E+03  0.00000000000E+00 0. -1.
         13    1    3    3    0    0 -0.22633228378E+02  0.21735933099E+02  0.73239907445E+01  0.32223510903E+02  0.00000000000E+00 0.  1.
          2    1    1    2  501    0  0.22568501152E+03 -0.18018752260E+02  0.34128768229E+03  0.40955546870E+03  0.00000000000E+00 0. -1.
<scales pt_clust_5="13000.00000" pt_clust_6="13000.00000" pt_clust_7="13000.00000" pt_clust_8="13000.00000" pt_clust_9="13000.00000"></scales>
<clustering>
<clus scale="   80.493">  5  6 -1 -1</clus>
<clus scale="   90.291">  7  8 -1 -1</clus>
<clus scale="  160.689">  1  7  2 -1</clus>
<clus scale="  164.343">  5  9 -1 -1</clus>
<clus scale="  385.391">  2  5  1 -1</clus>
</clustering>
</event>
<event>
 9    1  0.2728138E-005  0.1686742E+03  0.7546771E-02  0.1203454E+00
         21   -1    0    0  501  502  0.00000000000E+00  0.00000000000E+00  0.58741547098E+02  0.58741547098E+02  0.00000000000E+00 0. -1.
          3   -1    0    0  502    0 -0.00000000000E+00 -0.00000000000E+00 -0.34066233862E+03  0.34066233862E+03  0.00000000000E+00 0. -1.
         23    2    1    2    0    0  0.40231012770E+02 -0.61503342163E+01 -0.17095794024E+03  0.19750357209E+03  0.90137021558E+02 0.  0.
        -24    2    1    2    0    0 -0.28859680503E+02 -0.13580461966E+02  0.21349178141E+01  0.86532567319E+02  0.80411549089E+02 0.  0.
         13    1    4    4    0    0 -0.72310145364E+01 -0.39611868020E+02  0.23390480010E+02  0.46567179583E+02  0.00000000000E+00 0. -1.
        -14    1    4    4    0    0 -0.21628665966E+02  0.26031406053E+02 -0.21255562196E+02  0.39965387736E+02  0.00000000000E+00 0.  1.
        -13    1    3    3    0    0  0.60906400287E+02 -0.25899523578E+02 -0.14271327400E+03  0.15731323369E+03  0.00000000000E+00 0.  1.
         13    1    3    3    0    0 -0.20675387517E+02  0.19749189362E+02 -0.28244666241E+02  0.40190338397E+02  0.00000000000E+00 0. -1.
          4    1    1    2  501    0 -0.11371332268E+02  0.19730796182E+02 -0.11309776910E+03  0.11536774632E+03  0.00000000000E+00 0. -1.
<scales pt_clust_5="13000.00000" pt_clust_6="13000.00000" pt_clust_7="13000.00000" pt_clust_8="13000.00000" pt_clust_9="13000.00000"></scales>
<clustering>
<clus scale="   80.412">  5  6 -1 -1</clus>
<clus scale="   22.773">  5  9 -1 -1</clus>
<clus scale="   90.137">  7  8 -1 -1</clus>
<clus scale="   98.899">  2  7  1 -1</clus>
<clus scale="  168.674">  1  5  2 -1</clus>
</clustering>
</event>
<event>
 9    1  0.2728138E-005  0.1832754E+03  0.7546771E-02  0.1184683E+00
         21   -1    0    0  501  502  0.00000000000E+00  0.00000000000E+00  0.31455233822E+03  0.31455233822E+03  0.00000000000E+00 0. -1.
          1   -1    0    0  502    0 -0.00000000000E+00 -0.00000000000E+00 -0.26724824440E+03  0.26724824440E+03  0.00000000000E+00 0. -1.
         23    2    1    2    0    0 -0.51542191454E+02  0.57586271277E+02 -0.22514249063E+03  0.25344556426E+03  0.87021473310E+02 0.  0.
        -24    2    1    2    0    0  0.80172952156E+02 -0.41137853132E+02  0.11168184894E+03  0.16423441910E+03  0.79875426867E+02 0.  0.
         13    1    4    4    0    0  0.92224262949E+02 -0.32891494580E+02  0.11306209201E+03  0.14956671335E+03  0.00000000000E+00 0. -1.
        -14    1    4    4    0    0 -0.12051310793E+02 -0.82463585521E+01 -0.13802430668E+01  0.14667705755E+02  0.00000000000E+00 0.  1.
        -13    1    3    3    0    0 -0.48588685801E+01 -0.21656263881E+02 -0.26656274681E+02  0.34686587451E+02  0.00000000000E+00 0.  1.
         13    1    3    3    0    0 -0.46683322874E+02  0.79242535158E+02 -0.19848621595E+03  0.21875897681E+03  0.00000000000E+00 0. -1.
          2    1    1    2  501    0 -0.28630760702E+02 -0.16448418145E+02  0.16076473551E+03  0.16412059926E+03  0.00000000000E+00 0. -1.
<scales pt_clust_5="13000.00000" pt_clust_6="13000.00000" pt_clust_7="13000.00000" pt_clust_8="13000.00000" pt_clust_9="13000.00000"></scales>
<clustering>
<clus scale="   79.875">  5  6 -1 -1</clus>
<clus scale="   33.019">  5  9 -1 -1</clus>
<clus scale="   87.021">  7  8 -1 -1</clus>
<clus scale="  116.385">  2  7  1 -1</clus>
<clus scale="  183.275">  1  5  2 -1</clus>
</clustering>
</event>
<event>
 9    1  0.2728138E-005  0.4311548E+03  0.7546771E-02  0.1088131E+00
         21   -1    0    0  501  502  0.00000000000E+00  0.00000000000E+00  0.14829445887E+03  0.14829445887E+03  0.00000000000E+00 0. -1.
          1   -1    0    0  502    0 -0.00000000000E+00 -0.00000000000E+00 -0.48525981798E+03  0.48525981798E+03  0.00000000000E+00 0. -1.
         23    2    1    2    0    0 -0.16095260701E+02 -0.17437068530E+02 -0.11610166749E+03  0.14912140575E+03  0.90523409583E+02 0.  0.
        -24    2    1    2    0    0 -0.24277237521E+02 -0.49818516140E+02 -0.33353301109E+03  0.34714620811E+03  0.78708014255E+02 0.  0.
         11    1    4    4    0    0 -0.33269140304E+02 -0.30865410265E+02 -0.74281935421E+02  0.87047775258E+02  0.00000000000E+00 0. -1.
        -12    1    4    4    0    0  0.89919027836E+01 -0.18953105875E+02 -0.25925107567E+03  0.26009843286E+03  0.00000000000E+00 0.  1.
        -11    1    3    3    0    0  0.96260736933E+01 -0.48571183111E+02 -0.42883576997E+02  0.65504368554E+02  0.00000000000E+00 0. -1.
         11    1    3    3    0    0 -0.25721334395E+02  0.31134114581E+02 -0.73218090494E+02  0.83617037196E+02  0.00000000000E+00 0.  1.
          2    1    1    2  501    0  0.40372498222E+02  0.67255584670E+02  0.11266931948E+03  0.13728666299E+03  0.00000000000E+00 0. -1.
<scales pt_clust_5="13000.00000" pt_clust_6="13000.00000" pt_clust_7="13000.00000" pt_clust_8="13000.00000" pt_clust_9="13000.00000"></scales>
<clustering>
<clus scale="   78.708">  5  6 -1 -1</clus>
<clus scale="   78.443">  5  9 -1 -1</clus>
<clus scale="   90.523">  7  8 -1 -1</clus>
<clus scale="   93.582">  2  7  1 -1</clus>
<clus scale="  431.155">  1  5  2 -1</clus>
</clustering>
</event>
<event>
 9    1  0.2728138E-005  0.3690392E+03  0.7546771E-02  0.1084962E+00
         21   -1    0    0  501  502  0.00000000000E+00  0.00000000000E+00  0.12700648539E+03  0.12700648539E+03  0.00000000000E+00 0.  1.
         -2   -1    0    0    0  501 -0.00000000000E+00 -0.00000000000E+00 -0.12075131474E+04  0.12075131474E+04  0.00000000000E+00 0.  1.
         23    2    1    2    0    0 -0.11889180205E+03 -0.67797268203E+02 -0.91633851309E+03  0.93061232754E+03  0.87357331834E+02 0.  0.
        -24    2    1    2    0    0  0.56990210050E+01 -0.30397067437E+02 -0.22576661570E+03  0.24189155192E+03  0.81144917124E+02 0.  0.
         11    1    4    4    0    0  0.22245872325E+02  0.18592527266E+02 -0.42334404036E+02  0.51310453815E+02  0.00000000000E+00 0. -1.
        -12    1    4    4    0    0 -0.16546851320E+02 -0.48989594704E+02 -0.18343221167E+03  0.19058109810E+03  0.00000000000E+00 0.  1.
        -13    1    3    3    0    0 -0.62303444201E+02 -0.82638401147E+02 -0.61506973284E+03  0.62371596160E+03  0.00000000000E+00 0. -1.
         13    1    3    3    0    0 -0.56588357846E+02  0.14841132944E+02 -0.30126878026E+03  0.30689636594E+03  0.00000000000E+00 0.  1.
         -1    1    1    2    0  502  0.11319278104E+03  0.98194335641E+02  0.61598466750E+02  0.16201575336E+03  0.00000000000E+00 0.  1.
<scales pt_clust_5="13000.00000" pt_clust_6="13000.00000" pt_clust_7="13000.00000" pt_clust_8="13000.00000" pt_clust_9="13000.00000"></scales>
<clustering>
<clus scale="   81.145">  5  6 -1 -1</clus>
<clus scale="   87.357">  7  8 -1 -1</clus>
<clus scale="  149.849">  5  9 -1 -1</clus>
<clus scale="  162.367">  2  7  1 -1</clus>
<clus scale="  369.039">  1  5  2 -1</clus>
</clustering>
</event>
<event>
 9    1  0.2728138E-005  0.1955144E+03  0.7546771E-02  0.1179600E+00
         21   -1    0    0  501  502  0.00000000000E+00  0.00000000000E+00  0.87902372354E+02  0.87902372354E+02  0.00000000000E+00 0.  1.
         -2   -1    0    0    0  501 -0.00000000000E+00 -0.00000000000E+00 -0.38912381882E+03  0.38912381882E+03  0.00000000000E+00 0.  1.
         23    2    1    2    0    0  0.33325204962E+02 -0.45775667338E+02 -0.25415421681E+03  0.27592620235E+03  0.91295795166E+02 0.  0.
        -24    2    1    2    0    0 -0.54170771217E+02  0.10867735634E+02  0.41137188137E+02  0.10397573518E+03  0.77885204793E+02 0.  0.
         13    1    4    4    0    0  0.70200424543E+01 -0.20540820030E+02 -0.34892153818E+01  0.21985925214E+02  0.00000000000E+00 0. -1.
        -14    1    4    4    0    0 -0.61190813671E+02  0.31408555663E+02  0.44626403519E+02  0.81989809962E+02  0.00000000000E+00 0.  1.
        -13    1    3    3    0    0  0.83080099277E+01 -0.67231011770E+02 -0.12017682121E+03  0.13795470390E+03  0.00000000000E+00 0.  1.
         13    1    3    3    0    0  0.25017195034E+02  0.21455344432E+02 -0.13397739560E+03  0.13797149845E+03  0.00000000000E+00 0. -1.
         -1    1    1    2    0  502  0.20845566255E+02  0.34907931704E+02 -0.88204417791E+02  0.97124253645E+02  0.00000000000E+00 0.  1.
<scales pt_clust_5="13000.00000" pt_clust_6="13000.00000" pt_clust_7="13000.00000" pt_clust_8="13000.00000" pt_clust_9="13000.00000"></scales>
<clustering>
<clus scale="   77.885">  5  6 -1 -1</clus>
<clus scale="   40.658">  5  9 -1 -1</clus>
<clus scale="   91.296">  7  8 -1 -1</clus>
<clus scale="  107.429">  2  7  1 -1</clus>
<clus scale="  195.514">  1  5  2 -1</clus>
</clustering>
</event>
<event>
 9    1  0.2728138E-005  0.5447864E+03  0.7546771E-02  0.1040343E+00
         21   -1    0    0  501  502  0.00000000000E+00  0.00000000000E+00  0.35897959213E+03  0.35897959213E+03  0.00000000000E+00 0. -1.
          1   -1    0    0  502    0 -0.00000000000E+00 -0.00000000000E+00 -0.95558486971E+03  0.95558486971E+03  0.00000000000E+00 0. -1.
         23    2    1    2    0    0  0.94538424780E+02  0.11677301814E+03 -0.73249259185E+03  0.75308639830E+03  0.89555986244E+02 0.  0.
        -24    2    1    2    0    0  0.43890201139E+02 -0.20497807884E+02 -0.18050731753E+03  0.20295754304E+03  0.79135091517E+02 0.  0.
         13    1    4    4    0    0  0.51494183785E+02  0.17170048010E+02 -0.10164319028E+03  0.11522933499E+03  0.00000000000E+00 0. -1.
        -14    1    4    4    0    0 -0.76039826467E+01 -0.37667855894E+02 -0.78864127249E+02  0.87728208043E+02  0.00000000000E+00 0.  1.
        -13    1    3    3    0    0  0.25722265046E+02  0.89088922698E+02 -0.51530037728E+03  0.52357707159E+03  0.00000000000E+00 0. -1.
         13    1    3    3    0    0  0.68816159734E+02  0.27684095441E+02 -0.21719221457E+03  0.22950932672E+03  0.00000000000E+00 0.  1.
          2    1    1    2  501    0 -0.13842862592E+03 -0.96275210256E+02  0.31639463180E+03  0.35852052049E+03  0.00000000000E+00 0. -1.
<scales pt_clust_5="13000.00000" pt_clust_6="13000.00000" pt_clust_7="13000.00000" pt_clust_8="13000.00000" pt_clust_9="13000.00000"></scales>
<clustering>
<clus scale="   79.135">  5  6 -1 -1</clus>
<clus scale="   89.556">  7  8 -1 -1</clus>
<clus scale="  168.616">  5  9 -1 -1</clus>
<clus scale="  174.911">  2  7  1 -1</clus>
<clus scale="  544.786">  1  5  2 -1</clus>
</clustering>
</event>
<event>
 9    1  0.2728138E-005  0.5103040E+03  0.7546771E-02  0.1046430E+00
         21   -1    0    0  501  502  0.00000000000E+00  0.00000000000E+00  0.92927013177E+02  0.92927013177E+02  0.00000000000E+00 0. -1.
          1   -1    0    0  502    0 -0.00000000000E+00 -0.00000000000E+00 -0.13448650036E+04  0.13448650036E+04  0.00000000000E+00 0. -1.
         23    2    1    2    0    0  0.66920231597E+02 -0.13924276100E+03 -0.48305837130E+03  0.51497784436E+03  0.89386387162E+02 0.  0.
        -24    2    1    2    0    0 -0.21357115692E+03 -0.51739714942E+02 -0.54906488497E+03  0.59677841155E+03  0.79891097246E+02 0.  0.
         13    1    4    4    0    0 -0.18214557317E+03 -0.31932740511E+02 -0.36693593076E+03  0.41089985035E+03  0.00000000000E+00 0. -1.
        -14    1    4    4    0    0 -0.31425583749E+02 -0.19806974431E+02 -0.18212895421E+03  0.18587856120E+03  0.00000000000E+00 0.  1.
        -13    1    3    3    0    0 -0.81806615060E+01 -0.80074214427E+02 -0.26314502656E+03  0.27518013744E+03  0.00000000000E+00 0.  1.
         13    1    3    3    0    0  0.75100893103E+02 -0.59168546572E+02 -0.21991334474E+03  0.23979770692E+03  0.00000000000E+00 0. -1.
          2    1    1    2  501    0  0.14665092532E+03  0.19098247594E+03 -0.21981473417E+03  0.32603576088E+03  0.00000000000E+00 0. -1.
<scales pt_clust_5="13000.00000" pt_clust_6="13000.00000" pt_clust_7="13000.00000" pt_clust_8="13000.00000" pt_clust_9="13000.00000"></scales>
<clustering>
<clus scale="   79.891">  5  6 -1 -1</clus>
<clus scale="   89.386">  7  8 -1 -1</clus>
<clus scale="  178.485">  2  7  1 -1</clus>
<clus scale="  222.795">  5  9 -1 -1</clus>
<clus scale="  510.304">  1  5  2 -1</clus>
</clustering>
</event>
<event>
 9    1  0.2728138E-005  0.2016347E+03  0.7546771E-02  0.1171922E+00
         21   -1    0    0  501  502  0.00000000000E+00  0.00000000000E+00  0.42410520002E+02  0.42410520002E+02  0.00000000000E+00 0. -1.
          1   -1    0    0  502    0 -0.00000000000E+00 -0.00000000000E+00 -0.61926291778E+03  0.61926291778E+03  0.00000000000E+00 0. -1.
         23    2    1    2    0    0  0.71532539549E+02  0.16577116471E+02 -0.27496063712E+03  0.29863734806E+03  0.90494246705E+02 0.  0.
        -24    2    1    2    0    0  0.31325509086E+02  0.28413235158E+02 -0.13682241994E+03  0.16340694066E+03  0.78694689828E+02 0.  0.
         13    1    4    4    0    0  0.39677189805E+02 -0.14652174127E+02 -0.45665616754E+02  0.62243988874E+02  0.00000000000E+00 0. -1.
        -14    1    4    4    0    0 -0.83516807190E+01  0.43065409285E+02 -0.91156803182E+02  0.10116295179E+03  0.00000000000E+00 0.  1.
        -11    1    3    3    0    0  0.92367452833E+02  0.48631955980E+01 -0.22421267129E+03  0.24254220041E+03  0.00000000000E+00 0. -1.
         11    1    3    3    0    0 -0.20834913284E+02  0.11713920873E+02 -0.50747965834E+02  0.56095147651E+02  0.00000000000E+00 0.  1.
          2    1    1    2  501    0 -0.10285804864E+03 -0.44990351628E+02 -0.16506934072E+03  0.19962914906E+03  0.00000000000E+00 0. -1.
<scales pt_clust_5="13000.00000" pt_clust_6="13000.00000" pt_clust_7="13000.00000" pt_clust_8="13000.00000" pt_clust_9="13000.00000"></scales>
<clustering>
<clus scale="   78.695">  5  6 -1 -1</clus>
<clus scale="   90.494">  7  8 -1 -1</clus>
<clus scale="  112.267">  5  9 -1 -1</clus>
<clus scale="  116.537">  2  7  1 -1</clus>
<clus scale="  201.635">  1  5  2 -1</clus>
</clustering>
</event>
<event>
 9    1  0.2728138E-005  0.1465067E+03  0.7546771E-02  0.1223415E+00
          1   -1    0    0  502    0 -0.00000000000E+00  0.00000000000E+00  0.42744154849E+03  0.42744154849E+03  0.00000000000E+00 0. -1.
         21   -1    0    0  501  502  0.00000000000E+00 -0.00000000000E+00 -0.82586386468E+02  0.82586386468E+02  0.00000000000E+00 0. -1.
         23    2    1    2    0    0  0.38348927025E+02 -0.46313111238E+00  0.34975509531E+03  0.36343936119E+03  0.91042231243E+02 0.  0.
        -24    2    1    2    0    0 -0.35417317004E+02 -0.32794175004E+02 -0.36013647480E+02  0.10095190038E+03  0.81021349824E+02 0.  0.
         13    1    4    4    0    0 -0.60887509867E+02 -0.28836982328E+02 -0.32942583333E+02  0.74993827774E+02  0.00000000000E+00 0. -1.
        -14    1    4    4    0    0  0.25470192863E+02 -0.39571926764E+01 -0.30710641469E+01  0.25958072605E+02  0.00000000000E+00 0.  1.
        -11    1    3    3    0    0 -0.28993449298E+02 -0.10191096467E+02  0.10575556739E+03  0.11013046165E+03  0.00000000000E+00 0.  1.
         11    1    3    3    0    0  0.67342376323E+02  0.97279653543E+01  0.24399952793E+03  0.25330889954E+03  0.00000000000E+00 0. -1.
          2    1    1    2  501    0 -0.29316100210E+01  0.33257306117E+02  0.31113714187E+02  0.45636673388E+02  0.00000000000E+00 0. -1.
<scales pt_clust_5="13000.00000" pt_clust_6="13000.00000" pt_clust_7="13000.00000" pt_clust_8="13000.00000" pt_clust_9="13000.00000"></scales>
<clustering>
<clus scale="   81.021">  5  6 -1 -1</clus>
<clus scale="   33.386">  5  9 -1 -1</clus>
<clus scale="   91.042">  7  8 -1 -1</clus>
<clus scale="   98.790">  1  7  2 -1</clus>
<clus scale="  146.507">  2  5  1 -1</clus>
</clustering>
</event>
<event>
 9    1  0.2728138E-005  0.1735848E+03  0.7546771E-02  0.1191986E+00
          1   -1    0    0  502    0 -0.00000000000E+00  0.00000000000E+00  0.23174104243E+03  0.23174104243E+03  0.00000000000E+00 0. -1.
         21   -1    0    0  501  502  0.00000000000E+00 -0.00000000000E+00 -0.10527516390E+03  0.10527516390E+03  0.00000000000E+00 0. -1.
         23    2    1    2    0    0  0.51153996604E+02  0.50497234998E+02 -0.89431018397E+01  0.11686338837E+03  0.91708071403E+02 0.  0.
        -24    2    1    2    0    0  0.11317022978E+02 -0.68045584765E+02  0.61730978860E+02  0.12197430314E+03  0.79427578714E+02 0.  0.
         11    1    4    4    0    0  0.33261137318E+02 -0.53767127848E+02  0.10018593105E+02  0.64012338658E+02  0.00000000000E+00 0. -1.
        -12    1    4    4    0    0 -0.21944114340E+02 -0.14278456917E+02  0.51712385755E+02  0.57961964482E+02  0.00000000000E+00 0.  1.
        -11    1    3    3    0    0  0.38885452288E+02 -0.19377065246E+02  0.73755956443E+01  0.44067544387E+02  0.00000000000E+00 0.  1.
         11    1    3    3    0    0  0.12268544317E+02  0.69874300243E+02 -0.16318697484E+02  0.72795843986E+02  0.00000000000E+00 0. -1.
          2    1    1    2  501    0 -0.62471019582E+02  0.17548349767E+02  0.73678001509E+02  0.98178514827E+02  0.00000000000E+00 0. -1.
<scales pt_clust_5="13000.00000" pt_clust_6="13000.00000" pt_clust_7="13000.00000" pt_clust_8="13000.00000" pt_clust_9="13000.00000"></scales>
<clustering>
<clus scale="   79.428">  5  6 -1 -1</clus>
<clus scale="   64.889">  5  9 -1 -1</clus>
<clus scale="   91.708">  7  8 -1 -1</clus>
<clus scale="  116.521">  1  7  2 -1</clus>
<clus scale="  173.585">  2  5  1 -1</clus>
</clustering>
</event>
<event>
 9    1  0.2728138E-005  0.2000663E+03  0.7546771E-02  0.1172706E+00
          1   -1    0    0  502    0 -0.00000000000E+00  0.00000000000E+00  0.57128162740E+03  0.57128162740E+03  0.00000000000E+00 0. -1.
         21   -1    0    0  501  502  0.00000000000E+00 -0.00000000000E+00 -0.48548383856E+02  0.48548383856E+02  0.00000000000E+00 0. -1.
         23    2    1    2    0    0  0.61207059613E+02 -0.44224436988E+02  0.29083439673E+03  0.31355624740E+03  0.89614557917E+02 0.  0.
        -24    2    1    2    0    0  0.14156886651E+02  0.26044829643E+02  0.31350195687E+02  0.91262173496E+02  0.80418896727E+02 0.  0.
         11    1    4    4    0    0  0.27296287211E+02  0.44282710218E+02 -0.80904094474E+00  0.52025957627E+02  0.00000000000E+00 0. -1.
        -12    1    4    4    0    0 -0.13139400559E+02 -0.18237880575E+02  0.32159236632E+02  0.39236215869E+02  0.00000000000E+00 0.  1.
        -13    1    3    3    0    0  0.79599843701E+02 -0.26068067637E+02  0.26086466888E+03  0.27398185111E+03  0.00000000000E+00 0. -1.
         13    1    3    3    0    0 -0.18392784088E+02 -0.18156369351E+02  0.29969727846E+02  0.39574396289E+02  0.00000000000E+00 0.  1.
          2    1    1    2  501    0 -0.75363946264E+02  0.18179607345E+02  0.20054865113E+03  0.21501159036E+03  0.00000000000E+00 0. -1.
<scales pt_clust_5="13000.00000" pt_clust_6="13000.00000" pt_clust_7="13000.00000" pt_clust_8="13000.00000" pt_clust_9="13000.00000"></scales>
<clustering>
<clus scale="   80.419">  5  6 -1 -1</clus>
<clus scale="   77.526">  5  9 -1 -1</clus>
<clus scale="   89.615">  7  8 -1 -1</clus>
<clus scale="  117.187">  1  7  2 -1</clus>
<clus scale="  200.066">  2  5  1 -1</clus>
</clustering>
</event>
<event>
 9    1  0.2728138E-005  0.1799054E+03  0.7546771E-02  0.1190355E+00
         21   -1    0    0  501  502  0.00000000000E+00  0.00000000000E+00  0.31213643778E+02  0.31213643778E+02  0.00000000000E+00 0. -1.
          1   -1    0    0  502    0 -0.00000000000E+00 -0.00000000000E+00 -0.68348188539E+03  0.68348188539E+03  0.00000000000E+00 0. -1.
         23    2    1    2    0    0 -0.43962307992E+02  0.24101180881E+02 -0.19231930184E+03  0.22081398142E+03  0.96221354629E+02 0.  0.
        -24    2    1    2    0    0 -0.37249249105E+02 -0.20888133889E+02 -0.15067612684E+03  0.17410770033E+03  0.76068228696E+02 0.  0.
         13    1    4    4    0    0 -0.33428458237E+02 -0.35493737331E+02 -0.41895728325E+02  0.64284673615E+02  0.00000000000E+00 0. -1.
        -14    1    4    4    0    0 -0.38207908677E+01  0.14605603443E+02 -0.10878039852E+03  0.10982302671E+03  0.00000000000E+00 0.  1.
        -13    1    3    3    0    0  0.13063002723E+02 -0.22203274729E+02 -0.97633944829E+02  0.10097531694E+03  0.00000000000E+00 0.  1.
         13    1    3    3    0    0 -0.57025310715E+02  0.46304455610E+02 -0.94685357012E+02  0.11983866448E+03  0.00000000000E+00 0. -1.
          2    1    1    2  501    0  0.81211557097E+02 -0.32130469922E+01 -0.30927281293E+03  0.31977384742E+03  0.00000000000E+00 0. -1.
<scales pt_clust_5="13000.00000" pt_clust_6="13000.00000" pt_clust_7="13000.00000" pt_clust_8="13000.00000" pt_clust_9="13000.00000"></scales>
<clustering>
<clus scale="   76.068">  5  6 -1 -1</clus>
<clus scale="   81.275">  5  9 -1 -1</clus>
<clus scale="   96.221">  7  8 -1 -1</clus>
<clus scale="  108.499">  2  7  1 -1</clus>
<clus scale="  179.905">  1  5  2 -1</clus>
</clustering>
</event>
<event>
 9    1  0.2728138E-005  0.1520668E+03  0.7546771E-02  0.1220293E+00
          1   -1    0    0  502    0 -0.00000000000E+00  0.00000000000E+00  0.46232817630E+03  0.46232817630E+03  0.00000000000E+00 0. -1.
         21   -1    0    0  501  502  0.00000000000E+00 -0.00000000000E+00 -0.32874600704E+02  0.32874600704E+02  0.00000000000E+00 0.  1.
         23    2    1    2    0    0 -0.30914982368E+02 -0.22024917684E+02  0.15505581840E+03  0.18148566133E+03  0.86336002436E+02 0.  0.
        -24    2    1    2    0    0 -0.10341476252E+02  0.12013489780E+02  0.81480714767E+02  0.11618405685E+03  0.81291808441E+02 0.  0.
         13    1    4    4    0    0  0.24937987845E+02  0.10400554133E+02 -0.38813393379E+00  0.27022683286E+02  0.00000000000E+00 0. -1.
        -14    1    4    4    0    0 -0.35279464097E+02  0.16129356468E+01  0.81868848701E+02  0.89161373565E+02  0.00000000000E+00 0.  1.
        -13    1    3    3    0    0 -0.54315500618E+02 -0.35622442093E+01  0.56220345200E+02  0.78253373126E+02  0.00000000000E+00 0.  1.
         13    1    3    3    0    0  0.23400518250E+02 -0.18462673474E+02  0.98835473199E+02  0.10323228821E+03  0.00000000000E+00 0. -1.
          2    1    1    2  501    0  0.41256458620E+02  0.10011427904E+02  0.19291704243E+03  0.19753305882E+03  0.00000000000E+00 0. -1.
<scales pt_clust_5="13000.00000" pt_clust_6="13000.00000" pt_clust_7="13000.00000" pt_clust_8="13000.00000" pt_clust_9="13000.00000"></scales>
<clustering>
<clus scale="   81.292">  5  6 -1 -1</clus>
<clus scale="   42.454">  5  9 -1 -1</clus>
<clus scale="   86.336">  7  8 -1 -1</clus>
<clus scale="   94.312">  1  7  2 -1</clus>
<clus scale="  152.067">  2  5  1 -1</clus>
</clustering>
</event>
<event>
 9    1  0.2728138E-005  0.1674822E+03  0.7546771E-02  0.1203590E+00
          3   -1    0    0  502    0 -0.00000000000E+00  0.00000000000E+00  0.20792067702E+03  0.20792067702E+03  0.00000000000E+00 0. -1.
         21   -1    0    0  501  502  0.00000000000E+00 -0.00000000000E+00 -0.90717085204E+02  0.90717085204E+02  0.00000000000E+00 0. -1.
         23    2    1    2    0    0 -0.22231135746E+02 -0.22983406814E+02  0.13454295009E+02  0.10162458607E+03  0.95520040066E+02 0.  0.
        -24    2    1    2    0    0 -0.47619322692E+02  0.36469784550E+02  0.49921597439E+02  0.10780336645E+03  0.74375767885E+02 0.  0.
         11    1    4    4    0    0 -0.32638132418E+02  0.53807144323E+02  0.12863116877E+02  0.64233295445E+02  0.00000000000E+00 0. -1.
        -12    1    4    4    0    0 -0.14981190274E+02 -0.17337359773E+02  0.37058480561E+02  0.43570071005E+02  0.00000000000E+00 0.  1.
        -11    1    3    3    0    0  0.28088390236E+02  0.12575081234E+02 -0.14433994863E+02  0.33991624583E+02  0.00000000000E+00 0. -1.
         11    1    3    3    0    0 -0.50319525982E+02 -0.35558488048E+02  0.27888289872E+02  0.67632961486E+02  0.00000000000E+00 0.  1.
          4    1    1    2  501    0  0.69850458438E+02 -0.13486377737E+02  0.53827699373E+02  0.89209809709E+02  0.00000000000E+00 0. -1.
<scales pt_clust_5="13000.00000" pt_clust_6="13000.00000" pt_clust_7="13000.00000" pt_clust_8="13000.00000" pt_clust_9="13000.00000"></scales>
<clustering>
<clus scale="   74.376">  5  6 -1 -1</clus>
<clus scale="   71.141">  5  9 -1 -1</clus>
<clus scale="   95.520">  7  8 -1 -1</clus>
<clus scale="  100.730">  1  7  2 -1</clus>
<clus scale="  167.482">  2  5  1 -1</clus>
</clustering>
</event>
<event>
 9    1  0.2728138E-005  0.4608379E+03  0.7546771E-02  0.1048778E+00
         21   -1    0    0  501  502  0.00000000000E+00  0.00000000000E+00  0.15657415602E+03  0.15657415602E+03  0.00000000000E+00 0. -1.
          1   -1    0    0  502    0 -0.00000000000E+00 -0.00000000000E+00 -0.90628126130E+03  0.90628126130E+03  0.00000000000E+00 0. -1.
         23    2    1    2    0    0  0.65698706049E+02  0.19736922819E+03 -0.47520845218E+03  0.52645900705E+03  0.89805795323E+02 0.  0.
        -24    2    1    2    0    0 -0.14051434912E+02  0.10445965124E+03 -0.16700030241E+03  0.21185980450E+03  0.76721667075E+02 0.  0.
         13    1    4    4    0    0 -0.63502074753E+01  0.51182599754E+02 -0.20006801791E+02  0.55319578546E+02  0.00000000000E+00 0. -1.
        -14    1    4    4    0    0 -0.77012274367E+01  0.53277051490E+02 -0.14699350061E+03  0.15654022596E+03  0.00000000000E+00 0.  1.
        -13    1    3    3    0    0  0.51347330027E+02  0.54389274840E+02 -0.10156336112E+03  0.12613428495E+03  0.00000000000E+00 0.  1.
         13    1    3    3    0    0  0.14351376022E+02  0.14297995335E+03 -0.37364509106E+03  0.40032472210E+03  0.00000000000E+00 0. -1.
          2    1    1    2  501    0 -0.51647271136E+02 -0.30182887944E+03 -0.10749835070E+03  0.32453660576E+03  0.00000000000E+00 0. -1.
<scales pt_clust_5="13000.00000" pt_clust_6="13000.00000" pt_clust_7="13000.00000" pt_clust_8="13000.00000" pt_clust_9="13000.00000"></scales>
<clustering>
<clus scale="   76.722">  5  6 -1 -1</clus>
<clus scale="   89.806">  7  8 -1 -1</clus>
<clus scale="  226.575">  2  7  1 -1</clus>
<clus scale="  197.376">  5  9 -1 -1</clus>
<clus scale="  460.838">  1  5  2 -1</clus>
</clustering>
</event>
<event>
 9    1  0.2728138E-005  0.2509717E+03  0.7546771E-02  0.1126567E+00
          1   -1    0    0  502    0 -0.00000000000E+00  0.00000000000E+00  0.36295552740E+03  0.36295552740E+03  0.00000000000E+00 0. -1.
         21   -1    0    0  501  502  0.00000000000E+00 -0.00000000000E+00 -0.14363772159E+03  0.14363772159E+03  0.00000000000E+00 0. -1.
         23    2    1    2    0    0  0.96721172748E+02  0.11675854546E+03  0.17977282234E+03  0.25252515811E+03  0.91995351130E+02 0.  0.
        -24    2    1    2    0    0 -0.45161533517E+02  0.26412293119E+02  0.31517901321E+02  0.10168462896E+03  0.81297062224E+02 0.  0.
         13    1    4    4    0    0 -0.52792448591E+02  0.39353129008E+02 -0.10112577332E+01  0.65853883964E+02  0.00000000000E+00 0. -1.
        -14    1    4    4    0    0  0.76309150746E+01 -0.12940835889E+02  0.32529159054E+02  0.35830744999E+02  0.00000000000E+00 0.  1.
        -11    1    3    3    0    0 -0.84656917851E+01  0.22521801792E+02  0.18717547640E+00  0.24061058331E+02  0.00000000000E+00 0.  1.
         11    1    3    3    0    0  0.10518686453E+03  0.94236743672E+02  0.17958564686E+03  0.22846409978E+03  0.00000000000E+00 0. -1.
          2    1    1    2  501    0 -0.51559639231E+02 -0.14317083858E+03  0.80270821577E+01  0.15238346192E+03  0.00000000000E+00 0. -1.
<scales pt_clust_5="13000.00000" pt_clust_6="13000.00000" pt_clust_7="13000.00000" pt_clust_8="13000.00000" pt_clust_9="13000.00000"></scales>
<clustering>
<clus scale="   81.297">  5  6 -1 -1</clus>
<clus scale="   91.995">  7  8 -1 -1</clus>
<clus scale="  152.172">  5  9 -1 -1</clus>
<clus scale="  177.343">  1  7  2 -1</clus>
<clus scale="  250.972">  2  5  1 -1</clus>
</clustering>
</event>
<event>
 9    1  0.2728138E-005  0.2675589E+03  0.7546771E-02  0.1123426E+00
         21   -1    0    0  501  502  0.00000000000E+00  0.00000000000E+00  0.64688076696E+02  0.64688076696E+02  0.00000000000E+00 0.  1.
          1   -1    0    0  502    0 -0.00000000000E+00 -0.00000000000E+00 -0.71180558913E+03  0.71180558913E+03  0.00000000000E+00 0. -1.
         23    2    1    2    0    0  0.12800633225E+03 -0.29685022364E+01 -0.28887757710E+03  0.32936548021E+03  0.92935095096E+02 0.  0.
        -24    2    1    2    0    0  0.11793353857E+02  0.72185328190E+02 -0.18319812066E+03  0.21266164618E+03  0.79458288066E+02 0.  0.
         11    1    4    4    0    0 -0.21000685856E+02  0.54381226212E+02 -0.58849720556E+02  0.82834993694E+02  0.00000000000E+00 0. -1.
        -12    1    4    4    0    0  0.32794039713E+02  0.17804101978E+02 -0.12434840010E+03  0.12982665249E+03  0.00000000000E+00 0.  1.
        -11    1    3    3    0    0  0.53011183413E+02  0.44693463972E+02 -0.12897478327E+03  0.14643150620E+03  0.00000000000E+00 0. -1.
         11    1    3    3    0    0  0.74995148834E+02 -0.47661966208E+02 -0.15990279383E+03  0.18293397401E+03  0.00000000000E+00 0.  1.
          2    1    1    2  501    0 -0.13979968610E+03 -0.69216825954E+02 -0.17504181467E+03  0.23446653943E+03  0.00000000000E+00 0. -1.
<scales pt_clust_5="13000.00000" pt_clust_6="13000.00000" pt_clust_7="13000.00000" pt_clust_8="13000.00000" pt_clust_9="13000.00000"></scales>
<clustering>
<clus scale="   79.458">  5  6 -1 -1</clus>
<clus scale="   92.935">  7  8 -1 -1</clus>
<clus scale="  155.997">  5  9 -1 -1</clus>
<clus scale="  158.213">  2  7  1 -1</clus>
<clus scale="  267.559">  1  5  2 -1</clus>
</clustering>
</event>
<event>
 9    1  0.2728138E-005  0.2320891E+03  0.7546771E-02  0.1148472E+00
          1   -1    0    0  502    0 -0.00000000000E+00  0.00000000000E+00  0.31454012324E+03  0.31454012324E+03  0.00000000000E+00 0. -1.
         21   -1    0    0  501  502  0.00000000000E+00 -0.00000000000E+00 -0.12127023375E+03  0.12127023375E+03  0.00000000000E+00 0. -1.
         23    2    1    2    0    0  0.53392594773E+02 -0.73708274956E+02  0.14997191709E+03  0.19971696914E+03  0.95454768720E+02 0.  0.
        -24    2    1    2    0    0 -0.10382616291E+03 -0.49821929453E+01  0.52358646377E+02  0.14219008468E+03  0.81681686924E+02 0.  0.
         11    1    4    4    0    0 -0.93675735239E+02  0.26111307889E+02  0.27359500831E+02  0.10102220577E+03  0.00000000000E+00 0. -1.
        -12    1    4    4    0    0 -0.10150427673E+02 -0.31093500834E+02  0.24999145546E+02  0.41167878912E+02  0.00000000000E+00 0.  1.
        -13    1    3    3    0    0  0.61589874676E+02 -0.28827031325E+02  0.35980615735E+02  0.76934485806E+02  0.00000000000E+00 0. -1.
         13    1    3    3    0    0 -0.81972799029E+01 -0.44881243631E+02  0.11399130136E+03  0.12278248333E+03  0.00000000000E+00 0.  1.
          2    1    1    2  501    0  0.50433568140E+02  0.78690467902E+02 -0.90606739758E+01  0.93903303173E+02  0.00000000000E+00 0. -1.
<scales pt_clust_5="13000.00000" pt_clust_6="13000.00000" pt_clust_7="13000.00000" pt_clust_8="13000.00000" pt_clust_9="13000.00000"></scales>
<clustering>
<clus scale="   81.682">  5  6 -1 -1</clus>
<clus scale="   93.465">  5  9 -1 -1</clus>
<clus scale="   95.455">  7  8 -1 -1</clus>
<clus scale="  131.891">  1  7  2 -1</clus>
<clus scale="  232.089">  2  5  1 -1</clus>
</clustering>
</event>
<event>
 9    1  0.2728138E-005  0.2333366E+03  0.7546771E-02  0.1152293E+00
         21   -1    0    0  501  502  0.00000000000E+00  0.00000000000E+00  0.11323532026E+03  0.11323532026E+03  0.00000000000E+00 0. -1.
          1   -1    0    0  502    0 -0.00000000000E+00 -0.00000000000E+00 -0.27689087159E+03  0.27689087159E+03  0.00000000000E+00 0. -1.
         23    2    1    2    0    0 -0.13050292374E+00 -0.60915378498E+02 -0.76215385892E+02  0.14094398006E+03  0.10171391301E+03 0.  0.
        -24    2    1    2    0    0  0.73799550989E+02  0.34857830814E+02 -0.11857632724E+03  0.16506571515E+03  0.80776870713E+02 0.  0.
         13    1    4    4    0    0  0.31600323784E+02  0.51257607625E+02 -0.34044625950E+02  0.69173400659E+02  0.00000000000E+00 0. -1.
        -14    1    4    4    0    0  0.42199227205E+02 -0.16399776811E+02 -0.84531701289E+02  0.95892314493E+02  0.00000000000E+00 0.  1.
        -11    1    3    3    0    0  0.27718467396E+02 -0.26770475044E+02  0.13630849471E+02  0.40875075855E+02  0.00000000000E+00 0. -1.
         11    1    3    3    0    0 -0.27848970320E+02 -0.34144903454E+02 -0.89846235364E+02  0.10006890420E+03  0.00000000000E+00 0.  1.
          2    1    1    2  501    0 -0.73669048065E+02  0.26057547684E+02  0.31136161797E+02  0.84116496631E+02  0.00000000000E+00 0. -1.
<scales pt_clust_5="13000.00000" pt_clust_6="13000.00000" pt_clust_7="13000.00000" pt_clust_8="13000.00000" pt_clust_9="13000.00000"></scales>
<clustering>
<clus scale="   80.777">  5  6 -1 -1</clus>
<clus scale="   78.142">  5  9 -1 -1</clus>
<clus scale="  101.714">  7  8 -1 -1</clus>
<clus scale="  118.560">  2  7  1 -1</clus>
<clus scale="  233.337">  1  5  2 -1</clus>
</clustering>
</event>
<event>
 9    1  0.2728138E-005  0.2148291E+03  0.7546771E-02  0.1166311E+00
          1   -1    0    0  502    0 -0.00000000000E+00  0.00000000000E+00  0.14881140929E+03  0.14881140929E+03  0.00000000000E+00 0. -1.
         21   -1    0    0  501  502  0.00000000000E+00 -0.00000000000E+00 -0.17826082776E+03  0.17826082776E+03  0.00000000000E+00 0. -1.
         23    2    1    2    0    0  0.58425029246E+02  0.14827166078E+02 -0.24013368707E+02  0.11217433509E+03  0.91504703043E+02 0.  0.
        -24    2    1    2    0    0 -0.30891105289E+02 -0.20715353120E+02 -0.89384262824E+02  0.12635361817E+03  0.81193005513E+02 0.  0.
         13    1    4    4    0    0 -0.33609742375E+02 -0.38570191799E+02 -0.94606553874E+02  0.10755312415E+03  0.00000000000E+00 0. -1.
        -14    1    4    4    0    0  0.27186370859E+01  0.17854838678E+02  0.52222910504E+01  0.18800494027E+02  0.00000000000E+00 0.  1.
        -11    1    3    3    0    0 -0.44829600912E+01  0.28385311069E+02 -0.36670312013E+02  0.46588996542E+02  0.00000000000E+00 0.  1.
         11    1    3    3    0    0  0.62907989338E+02 -0.13558144991E+02  0.12656943306E+02  0.65585338544E+02  0.00000000000E+00 0. -1.
          2    1    1    2  501    0 -0.27533923957E+02  0.58881870422E+01  0.83948213064E+02  0.88544283789E+02  0.00000000000E+00 0. -1.
<scales pt_clust_5="13000.00000" pt_clust_6="13000.00000" pt_clust_7="13000.00000" pt_clust_8="13000.00000" pt_clust_9="13000.00000"></scales>
<clustering>
<clus scale="   81.193">  5  6 -1 -1</clus>
<clus scale="   28.157">  5  9 -1 -1</clus>
<clus scale="   91.505">  7  8 -1 -1</clus>
<clus scale="  109.574">  1  7  2 -1</clus>
<clus scale="  214.829">  2  5  1 -1</clus>
</clustering>
</event>
<event>
 9    1  0.2728138E-005  0.2003891E+03  0.7546771E-02  0.1169084E+00
          1   -1    0    0  502    0 -0.00000000000E+00  0.00000000000E+00  0.11472345249E+04  0.11472345249E+04  0.00000000000E+00 0. -1.
         21   -1    0    0  501  502  0.00000000000E+00 -0.00000000000E+00 -0.23569001630E+02  0.23569001630E+02  0.00000000000E+00 0. -1.
         23    2    1    2    0    0  0.67607534744E+02 -0.55607311687E+02  0.37694012133E+03  0.39765760623E+03  0.91568361678E+02 0.  0.
        -24    2    1    2    0    0  0.31706723649E+01  0.53869223827E+02  0.62671086046E+03  0.63380437689E+03  0.77650106932E+02 0.  0.
         11    1    4    4    0    0  0.73127825417E+01  0.68670611081E+02  0.35473662900E+03  0.36139618920E+03  0.00000000000E+00 0. -1.
        -12    1    4    4    0    0 -0.41421101768E+01 -0.14801387254E+02  0.27197423146E+03  0.27240818769E+03  0.00000000000E+00 0.  1.
        -11    1    3    3    0    0  0.45711005147E+02 -0.47069807394E+02  0.36581995818E+03  0.37165750976E+03  0.00000000000E+00 0. -1.
         11    1    3    3    0    0  0.21896529596E+02 -0.85375042927E+01  0.11120163144E+02  0.26000096467E+02  0.00000000000E+00 0.  1.
          2    1    1    2  501    0 -0.70778207109E+02  0.17380878596E+01  0.12001454144E+03  0.13934154337E+03  0.00000000000E+00 0. -1.
<scales pt_clust_5="13000.00000" pt_clust_6="13000.00000" pt_clust_7="13000.00000" pt_clust_8="13000.00000" pt_clust_9="13000.00000"></scales>
<clustering>
<clus scale="   77.650">  5  6 -1 -1</clus>
<clus scale="   70.800">  5  9 -1 -1</clus>
<clus scale="   91.568">  7  8 -1 -1</clus>
<clus scale="  126.680">  1  7  2 -1</clus>
<clus scale="  200.389">  2  5  1 -1</clus>
</clustering>
</event>
<event>
 9    1  0.2728138E-005  0.3192191E+03  0.7546771E-02  0.1107437E+00
         21   -1    0    0  501  502  0.00000000000E+00  0.00000000000E+00  0.10435923321E+04  0.10435923321E+04  0.00000000000E+00 0. -1.
          1   -1    0    0  502    0 -0.00000000000E+00 -0.00000000000E+00 -0.52522446681E+02  0.52522446681E+02  0.00000000000E+00 0. -1.
         23    2    1    2    0    0 -0.65450783418E+02 -0.82126552970E+02  0.20727124668E+03  0.24980448312E+03  0.91718778521E+02 0.  0.
        -24    2    1    2    0    0 -0.30522031885E+02 -0.49972574560E+02  0.90193037674E+02  0.13374472633E+03  0.79523676583E+02 0.  0.
         13    1    4    4    0    0  0.15654828033E+02 -0.49514122534E+02  0.40073205997E+02  0.65594083651E+02  0.00000000000E+00 0. -1.
        -14    1    4    4    0    0 -0.46176859918E+02 -0.45845202665E+00  0.50119831676E+02  0.68150642678E+02  0.00000000000E+00 0.  1.
        -11    1    3    3    0    0  0.78566080656E+01 -0.24736595899E+02  0.11799859914E+03  0.12081926529E+03  0.00000000000E+00 0.  1.
         11    1    3    3    0    0 -0.73307391483E+02 -0.57389957071E+02  0.89272647540E+02  0.12898521783E+03  0.00000000000E+00 0. -1.
          2    1    1    2  501    0  0.95972815302E+02  0.13209912753E+03  0.69360560108E+03  0.71256556934E+03  0.00000000000E+00 0. -1.
<scales pt_clust_5="13000.00000" pt_clust_6="13000.00000" pt_clust_7="13000.00000" pt_clust_8="13000.00000" pt_clust_9="13000.00000"></scales>
<clustering>
<clus scale="   79.524">  5  6 -1 -1</clus>
<clus scale="   91.719">  7  8 -1 -1</clus>
<clus scale="  139.431">  2  7  1 -1</clus>
<clus scale="  131.469">  5  9 -1 -1</clus>
<clus scale="  319.219">  1  5  2 -1</clus>
</clustering>
</event>
<event>
 9    1  0.2728138E-005  0.5476561E+03  0.7546771E-02  0.1049975E+00
         21   -1    0    0  501  502  0.00000000000E+00  0.00000000000E+00  0.18694833332E+03  0.18694833332E+03  0.00000000000E+00 0.  1.
          1   -1    0    0  502    0 -0.00000000000E+00 -0.00000000000E+00 -0.71487969680E+03  0.71487969680E+03  0.00000000000E+00 0. -1.
         23    2    1    2    0    0  0.73593642777E+02  0.57326243760E+02 -0.26273325274E+03  0.29334040728E+03  0.91200383614E+02 0.  0.
        -24    2    1    2    0    0  0.15164116844E+03  0.10032790734E+03  0.34349228301E+02  0.20189918243E+03  0.80763094443E+02 0.  0.
         11    1    4    4    0    0  0.99932386444E+02  0.32856735945E+02 -0.10621139060E+02  0.10573010712E+03  0.00000000000E+00 0. -1.
        -12    1    4    4    0    0  0.51708781997E+02  0.67471171394E+02  0.44970367361E+02  0.96169075307E+02  0.00000000000E+00 0.  1.
        -13    1    3    3    0    0  0.57383077565E+02 -0.65682007621E+01 -0.17016436075E+03  0.17969938376E+03  0.00000000000E+00 0. -1.
         13    1    3    3    0    0  0.16210565212E+02  0.63894444522E+02 -0.92568891983E+02  0.11364102353E+03  0.00000000000E+00 0.  1.
          2    1    1    2  501    0 -0.22523481122E+03 -0.15765415110E+03 -0.29954733905E+03  0.40658844041E+03  0.00000000000E+00 0. -1.
<scales pt_clust_5="13000.00000" pt_clust_6="13000.00000" pt_clust_7="13000.00000" pt_clust_8="13000.00000" pt_clust_9="13000.00000"></scales>
<clustering>
<clus scale="   80.763">  5  6 -1 -1</clus>
<clus scale="   91.200">  7  8 -1 -1</clus>
<clus scale="  130.460">  2  7  1 -1</clus>
<clus scale="  199.667">  5  9 -1 -1</clus>
<clus scale="  547.656">  1  5  2 -1</clus>
</clustering>
</event>
<event>
 9    1  0.1414826E-004  0.7314151E+03  0.7546771E-02  0.9944047E-01
         -2   -1    0    0    0  501 -0.00000000000E+00  0.00000000000E+00  0.10754039033E+04  0.10754039033E+04  0.00000000000E+00 0.  1.
         21   -1    0    0  501  502  0.00000000000E+00 -0.00000000000E+00 -0.24504309714E+03  0.24504309714E+03  0.00000000000E+00 0.  1.
         23    2    1    2    0    0 -0.21665438785E+01  0.27931783175E+03  0.19588857851E+03  0.35218924116E+03  0.87417282918E+02 0.  0.
        -24    2    1    2    0    0 -0.75909918404E+02  0.17471311870E+03  0.40198224316E+03  0.45222323445E+03  0.81419533270E+02 0.  0.
         11    1    4    4    0    0  0.97947921344E+01  0.24132332529E+02  0.10696597565E+03  0.11009099588E+03  0.00000000000E+00 0. -1.
        -12    1    4    4    0    0 -0.85704710539E+02  0.15058078617E+03  0.29501626751E+03  0.34213223857E+03  0.00000000000E+00 0.  1.
        -13    1    3    3    0    0  0.27543759535E+02  0.19142896114E+03  0.16555238953E+03  0.25458063464E+03  0.00000000000E+00 0.  1.
         13    1    3    3    0    0 -0.29710303413E+02  0.87888870607E+02  0.30336188980E+02  0.97608606522E+02  0.00000000000E+00 0. -1.
         -1    1    1    2    0  502  0.78076462283E+02 -0.45403095045E+03  0.23248998446E+03  0.51603452482E+03  0.00000000000E+00 0.  1.
<scales pt_clust_5="13000.00000" pt_clust_6="13000.00000" pt_clust_7="13000.00000" pt_clust_8="13000.00000" pt_clust_9="13000.00000"></scales>
<clustering>
<clus scale="   81.420">  5  6 -1 -1</clus>
<clus scale="   87.417">  7  8 -1 -1</clus>
<clus scale="  292.686">  1  7  2 -1</clus>
<clus scale="  332.631">  5  9 -1 -1</clus>
<clus scale="  731.415">  2  5  1 -1</clus>
</clustering>
</event>
<event>
 9    1  0.2728138E-005  0.1851454E+03  0.7546771E-02  0.1182193E+00
          1   -1    0    0  502    0 -0.00000000000E+00  0.00000000000E+00  0.56675462790E+03  0.56675462790E+03  0.00000000000E+00 0. -1.
         21   -1    0    0  501  502  0.00000000000E+00 -0.00000000000E+00 -0.41251635147E+02  0.41251635147E+02  0.00000000000E+00 0.  1.
         23    2    1    2    0    0  0.74535102023E+02 -0.15600508212E+01  0.17904580731E+03  0.21518137836E+03  0.93207882099E+02 0.  0.
        -24    2    1    2    0    0 -0.70242887740E+02 -0.54116765415E+02  0.19479734084E+03  0.23121102564E+03  0.87463402657E+02 0.  0.
         11    1    4    4    0    0 -0.70749127391E+02 -0.73584634725E+02  0.14158009752E+03  0.17454243469E+03  0.00000000000E+00 0. -1.
        -12    1    4    4    0    0  0.50623965159E+00  0.19467869310E+02  0.53217243318E+02  0.56668590952E+02  0.00000000000E+00 0.  1.
        -13    1    3    3    0    0  0.91474805271E+02  0.15125420315E+02  0.12087753868E+03  0.15234105716E+03  0.00000000000E+00 0.  1.
         13    1    3    3    0    0 -0.16939703248E+02 -0.16685471136E+02  0.58168268630E+02  0.62840321200E+02  0.00000000000E+00 0. -1.
          2    1    1    2  501    0 -0.42922142837E+01  0.55676816236E+02  0.15165984461E+03  0.16161385905E+03  0.00000000000E+00 0. -1.
<scales pt_clust_5="13000.00000" pt_clust_6="13000.00000" pt_clust_7="13000.00000" pt_clust_8="13000.00000" pt_clust_9="13000.00000"></scales>
<clustering>
<clus scale="   87.463">  5  6 -1 -1</clus>
<clus scale="   55.842">  5  9 -1 -1</clus>
<clus scale="   93.208">  7  8 -1 -1</clus>
<clus scale="  119.355">  1  7  2 -1</clus>
<clus scale="  185.145">  2  5  1 -1</clus>
</clustering>
</event>
<event>
 9    1  0.2728138E-005  0.3810411E+03  0.7546771E-02  0.1102257E+00
         21   -1    0    0  501  502  0.00000000000E+00  0.00000000000E+00  0.18617052789E+03  0.18617052789E+03  0.00000000000E+00 0.  1.
         -2   -1    0    0    0  501 -0.00000000000E+00 -0.00000000000E+00 -0.31968653949E+03  0.31968653949E+03  0.00000000000E+00 0.  1.
         23    2    1    2    0    0 -0.14910805050E+02 -0.15890425556E+02 -0.75753351872E+02  0.12046266404E+03  0.91092509990E+02 0.  0.
        -24    2    1    2    0    0  0.77340941481E+02 -0.13101389643E+03 -0.12395989715E+03  0.21259256308E+03  0.81751327132E+02 0.  0.
         11    1    4    4    0    0  0.14401360820E+02 -0.37296840320E+02 -0.83663607598E+02  0.92725685372E+02  0.00000000000E+00 0. -1.
        -12    1    4    4    0    0  0.62939580662E+02 -0.93717056110E+02 -0.40296289556E+02  0.11986687771E+03  0.00000000000E+00 0.  1.
        -11    1    3    3    0    0  0.26392600582E+02 -0.50127553773E+01  0.66256155137E+01  0.27669403009E+02  0.00000000000E+00 0. -1.
         11    1    3    3    0    0 -0.41303405632E+02 -0.10877670178E+02 -0.82378967385E+02  0.92793261031E+02  0.00000000000E+00 0.  1.
         -1    1    1    2    0  502 -0.62430136431E+02  0.14690432199E+03  0.66197237428E+02  0.17280184026E+03  0.00000000000E+00 0.  1.
<scales pt_clust_5="13000.00000" pt_clust_6="13000.00000" pt_clust_7="13000.00000" pt_clust_8="13000.00000" pt_clust_9="13000.00000"></scales>
<clustering>
<clus scale="   81.751">  5  6 -1 -1</clus>
<clus scale="   91.093">  7  8 -1 -1</clus>
<clus scale="   93.663">  2  7  1 -1</clus>
<clus scale="  157.577">  5  9 -1 -1</clus>
<clus scale="  381.041">  1  5  2 -1</clus>
</clustering>
</event>
<event>
 9    1  0.2728138E-005  0.1678418E+03  0.7546771E-02  0.1199105E+00
         21   -1    0    0  501  502  0.00000000000E+00  0.00000000000E+00  0.33330454069E+02  0.33330454069E+02  0.00000000000E+00 0. -1.
          1   -1    0    0  502    0 -0.00000000000E+00 -0.00000000000E+00 -0.76661616713E+03  0.76661616713E+03  0.00000000000E+00 0. -1.
         23    2    1    2    0    0 -0.95539323234E+01 -0.60012107659E+02 -0.11524925243E+03  0.15952493688E+03  0.92049359640E+02 0.  0.
        -24    2    1    2    0    0 -0.25264346065E+02  0.10035893362E+02 -0.49529516161E+03  0.50339847100E+03  0.85753817126E+02 0.  0.
         13    1    4    4    0    0 -0.31934099029E+02 -0.33285864071E+02 -0.25398167827E+03  0.25813645292E+03  0.00000000000E+00 0. -1.
        -14    1    4    4    0    0  0.66697529640E+01  0.43321757434E+02 -0.24131348334E+03  0.24526201808E+03  0.00000000000E+00 0.  1.
        -11    1    3    3    0    0 -0.49096129581E+02 -0.28484196215E+02 -0.42428708043E+02  0.70865891938E+02  0.00000000000E+00 0.  1.
         11    1    3    3    0    0  0.39542197258E+02 -0.31527911443E+02 -0.72820544390E+02  0.88659044938E+02  0.00000000000E+00 0. -1.
          2    1    1    2  501    0  0.34818278388E+02  0.49976214296E+02 -0.12274129902E+03  0.13702321333E+03  0.00000000000E+00 0. -1.
<scales pt_clust_5="13000.00000" pt_clust_6="13000.00000" pt_clust_7="13000.00000" pt_clust_8="13000.00000" pt_clust_9="13000.00000"></scales>
<clustering>
<clus scale="   85.754">  5  6 -1 -1</clus>
<clus scale="   60.909">  5  9 -1 -1</clus>
<clus scale="   92.049">  7  8 -1 -1</clus>
<clus scale="  110.299">  2  7  1 -1</clus>
<clus scale="  167.842">  1  5  2 -1</clus>
</clustering>
</event>
<event>
 9    1  0.2728138E-005  0.2902154E+03  0.7546771E-02  0.1128825E+00
          3   -1    0    0  502    0 -0.00000000000E+00  0.00000000000E+00  0.43158388973E+02  0.43158388973E+02  0.00000000000E+00 0. -1.
         21   -1    0    0  501  502  0.00000000000E+00 -0.00000000000E+00 -0.11408467564E+04  0.11408467564E+04  0.00000000000E+00 0. -1.
         23    2    1    2    0    0  0.55243207308E+02  0.17232459507E+02 -0.10971878348E+03  0.15429213953E+03  0.91755562536E+02 0.  0.
        -24    2    1    2    0    0 -0.68449682487E+02  0.11588082964E+03 -0.48435591495E+03  0.50863692087E+03  0.77441198452E+02 0.  0.
         13    1    4    4    0    0 -0.17465965050E+02  0.89518483028E+02 -0.36463402795E+03  0.37586778670E+03  0.00000000000E+00 0. -1.
        -14    1    4    4    0    0 -0.50983717436E+02  0.26362346610E+02 -0.11972188700E+03  0.13276913417E+03  0.00000000000E+00 0.  1.
        -11    1    3    3    0    0  0.46594224672E+02 -0.33256968523E+02 -0.58915751629E+02  0.82146902061E+02  0.00000000000E+00 0.  1.
         11    1    3    3    0    0  0.86489826353E+01  0.50489428030E+02 -0.50803031852E+02  0.72145237464E+02  0.00000000000E+00 0. -1.
          4    1    1    2  501    0  0.13206475179E+02 -0.13311328915E+03 -0.50361366899E+03  0.52107608497E+03  0.00000000000E+00 0. -1.
<scales pt_clust_5="13000.00000" pt_clust_6="13000.00000" pt_clust_7="13000.00000" pt_clust_8="13000.00000" pt_clust_9="13000.00000"></scales>
<clustering>
<clus scale="   77.441">  5  6 -1 -1</clus>
<clus scale="   91.756">  7  8 -1 -1</clus>
<clus scale="  108.480">  1  7  2 -1</clus>
<clus scale="  131.037">  5  9 -1 -1</clus>
<clus scale="  290.215">  2  5  1 -1</clus>
</clustering>
</event>
<event>
 9    1  0.2728138E-005  0.2452021E+03  0.7546771E-02  0.1152409E+00
         21   -1    0    0  501  502  0.00000000000E+00  0.00000000000E+00  0.55939247609E+02  0.55939247609E+02  0.00000000000E+00 0.  1.
          1   -1    0    0  502    0 -0.00000000000E+00 -0.00000000000E+00 -0.85286091993E+03  0.85286091993E+03  0.00000000000E+00 0. -1.
         23    2    1    2    0    0  0.31081802935E+02  0.41502141604E+01 -0.55524453245E+03  0.56451552698E+03  0.96943213422E+02 0.  0.
        -24    2    1    2    0    0  0.65806024888E+02 -0.44513280564E+02 -0.76748313755E+02  0.14879053325E+03  0.99681763943E+02 0.  0.
         11    1    4    4    0    0  0.40963229520E+02  0.59467556061E+01 -0.82451354600E+02  0.92258202618E+02  0.00000000000E+00 0. -1.
        -12    1    4    4    0    0  0.24842795368E+02 -0.50460036170E+02  0.57030408445E+01  0.56532330633E+02  0.00000000000E+00 0.  1.
        -11    1    3    3    0    0 -0.13612984925E+02 -0.38048851331E+02 -0.22398018347E+03  0.22759646534E+03  0.00000000000E+00 0.  1.
         11    1    3    3    0    0  0.44694787860E+02  0.42199065492E+02 -0.33126434898E+03  0.33691906164E+03  0.00000000000E+00 0. -1.
          2    1    1    2  501    0 -0.96887827823E+02  0.40363066403E+02 -0.16492882611E+03  0.19549410731E+03  0.00000000000E+00 0. -1.
<scales pt_clust_5="13000.00000" pt_clust_6="13000.00000" pt_clust_7="13000.00000" pt_clust_8="13000.00000" pt_clust_9="13000.00000"></scales>
<clustering>
<clus scale="   96.943">  7  8 -1 -1</clus>
<clus scale="   99.682">  5  6 -1 -1</clus>
<clus scale="  101.889">  2  7  1 -1</clus>
<clus scale="   88.825">  5  9 -1 -1</clus>
<clus scale="  245.202">  1  5  2 -1</clus>
</clustering>
</event>
<event>
 9    1  0.2728138E-005  0.2673804E+03  0.7546771E-02  0.1114188E+00
          1   -1    0    0  502    0 -0.00000000000E+00  0.00000000000E+00  0.26532051550E+03  0.26532051550E+03  0.00000000000E+00 0. -1.
         21   -1    0    0  501  502  0.00000000000E+00 -0.00000000000E+00 -0.21021855871E+03  0.21021855871E+03  0.00000000000E+00 0. -1.
         23    2    1    2    0    0  0.17379737451E+03  0.37997520697E+02 -0.10903832354E+02  0.20013204591E+03  0.91019796070E+02 0.  0.
        -24    2    1    2    0    0 -0.73894822353E+02 -0.76922935006E+02 -0.22786708642E+02  0.13619562262E+03  0.81562435164E+02 0.  0.
         11    1    4    4    0    0 -0.61565551367E+02 -0.77377254581E+02 -0.46648701269E+02  0.10933278544E+03  0.00000000000E+00 0. -1.
        -12    1    4    4    0    0 -0.12329270986E+02  0.45431957507E+00  0.23861992628E+02  0.26862837182E+02  0.00000000000E+00 0.  1.
        -13    1    3    3    0    0  0.10212529298E+03  0.67345264374E+02 -0.89747311811E+01  0.12266012351E+03  0.00000000000E+00 0. -1.
         13    1    3    3    0    0  0.71672081529E+02 -0.29347743677E+02 -0.19291011733E+01  0.77471922404E+02  0.00000000000E+00 0.  1.
          2    1    1    2  501    0 -0.99902552153E+02  0.38925414309E+02  0.88792497789E+02  0.13921140567E+03  0.00000000000E+00 0. -1.
<scales pt_clust_5="13000.00000" pt_clust_6="13000.00000" pt_clust_7="13000.00000" pt_clust_8="13000.00000" pt_clust_9="13000.00000"></scales>
<clustering>
<clus scale="   81.562">  5  6 -1 -1</clus>
<clus scale="   91.020">  7  8 -1 -1</clus>
<clus scale="  107.218">  5  9 -1 -1</clus>
<clus scale="  199.835">  1  7  2 -1</clus>
<clus scale="  267.380">  2  5  1 -1</clus>
</clustering>
</event>
<event>
 9    1  0.2728138E-005  0.2743364E+03  0.7546771E-02  0.1114379E+00
         21   -1    0    0  501  502  0.00000000000E+00  0.00000000000E+00  0.23233552264E+03  0.23233552264E+03  0.00000000000E+00 0.  1.
          1   -1    0    0  502    0 -0.00000000000E+00 -0.00000000000E+00 -0.29978181986E+03  0.29978181986E+03  0.00000000000E+00 0. -1.
         23    2    1    2    0    0 -0.28039024185E+02 -0.15526156062E+03 -0.15862107057E+03  0.24302684538E+03  0.94916091699E+02 0.  0.
        -24    2    1    2    0    0  0.30001079732E+02 -0.14963567556E+02  0.74009535235E+02  0.11799084977E+03  0.85559664473E+02 0.  0.
         13    1    4    4    0    0  0.57596941411E+02  0.50298014208E+01  0.46635892625E+02  0.74280637068E+02  0.00000000000E+00 0. -1.
        -14    1    4    4    0    0 -0.27595861679E+02 -0.19993368976E+02  0.27373642610E+02  0.43710212703E+02  0.00000000000E+00 0.  1.
        -11    1    3    3    0    0  0.20015388611E+02 -0.12523256199E+02  0.91684941333E+00  0.23628126034E+02  0.00000000000E+00 0.  1.
         11    1    3    3    0    0 -0.48054412795E+02 -0.14273830442E+03 -0.15953791998E+03  0.21939871934E+03  0.00000000000E+00 0. -1.
          2    1    1    2  501    0 -0.19620555477E+01  0.17022512817E+03  0.17165238110E+02  0.17109964735E+03  0.00000000000E+00 0. -1.
<scales pt_clust_5="13000.00000" pt_clust_6="13000.00000" pt_clust_7="13000.00000" pt_clust_8="13000.00000" pt_clust_9="13000.00000"></scales>
<clustering>
<clus scale="   85.560">  5  6 -1 -1</clus>
<clus scale="   94.916">  7  8 -1 -1</clus>
<clus scale="  170.237">  5  9 -1 -1</clus>
<clus scale="  184.123">  2  7  1 -1</clus>
<clus scale="  274.336">  1  5  2 -1</clus>
</clustering>
</event>
<event>
 9    1  0.2728138E-005  0.3913565E+03  0.7546771E-02  0.1089534E+00
         21   -1    0    0  501  502  0.00000000000E+00  0.00000000000E+00  0.11188582729E+04  0.11188582729E+04  0.00000000000E+00 0. -1.
          1   -1    0    0  502    0 -0.00000000000E+00 -0.00000000000E+00 -0.66061154818E+02  0.66061154818E+02  0.00000000000E+00 0. -1.
         23    2    1    2    0    0 -0.39398136957E+02  0.68600499462E+02  0.10642304789E+03  0.16081795495E+03  0.90985206438E+02 0.  0.
        -24    2    1    2    0    0  0.16557859416E+03  0.30738857358E+01  0.78838544192E+03  0.80958076995E+03  0.80272650497E+02 0.  0.
         13    1    4    4    0    0  0.14297378853E+03 -0.55020723116E+01  0.75454658577E+03  0.76799240042E+03  0.00000000000E+00 0. -1.
        -14    1    4    4    0    0  0.22604805637E+02  0.85759580474E+01  0.33838856145E+02  0.41588369522E+02  0.00000000000E+00 0.  1.
        -13    1    3    3    0    0  0.20662408360E+02  0.17902218421E+02  0.68084426855E+02  0.73368342790E+02  0.00000000000E+00 0.  1.
         13    1    3    3    0    0 -0.60060545316E+02  0.50698281041E+02  0.38338621032E+02  0.87449612160E+02  0.00000000000E+00 0. -1.
          2    1    1    2  501    0 -0.12618045721E+03 -0.71674385198E+02  0.15798862827E+03  0.21452070282E+03  0.00000000000E+00 0. -1.
<scales pt_clust_5="13000.00000" pt_clust_6="13000.00000" pt_clust_7="13000.00000" pt_clust_8="13000.00000" pt_clust_9="13000.00000"></scales>
<clustering>
<clus scale="   80.273">  5  6 -1 -1</clus>
<clus scale="   90.985">  7  8 -1 -1</clus>
<clus scale="  120.568">  2  7  1 -1</clus>
<clus scale="  156.360">  5  9 -1 -1</clus>
<clus scale="  391.357">  1  5  2 -1</clus>
</clustering>
</event>
<event>
 9    1  0.2728138E-005  0.2484202E+03  0.7546771E-02  0.1154183E+00
          1   -1    0    0  502    0 -0.00000000000E+00  0.00000000000E+00  0.57181240794E+03  0.57181240794E+03  0.00000000000E+00 0. -1.
         21   -1    0    0  501  502  0.00000000000E+00 -0.00000000000E+00 -0.72801990375E+02  0.72801990375E+02  0.00000000000E+00 0. -1.
         23    2    1    2    0    0 -0.90422465297E+01  0.20860282649E+02  0.33256928622E+03  0.34559055619E+03  0.91178883396E+02 0.  0.
        -24    2    1    2    0    0 -0.94244511041E+02 -0.10079790516E+02  0.30532043958E+02  0.12798100148E+03  0.80394657749E+02 0.  0.
         13    1    4    4    0    0 -0.65198522711E+02  0.28656340408E+02  0.91463861897E+00  0.71224081413E+02  0.00000000000E+00 0. -1.
        -14    1    4    4    0    0 -0.29045988329E+02 -0.38736130924E+02  0.29617405339E+02  0.56756920072E+02  0.00000000000E+00 0.  1.
        -13    1    3    3    0    0 -0.24911350682E+02 -0.30128865692E+02  0.17150866879E+03  0.17590778098E+03  0.00000000000E+00 0.  1.
         13    1    3    3    0    0  0.15869104152E+02  0.50989148341E+02  0.16106061743E+03  0.16968277521E+03  0.00000000000E+00 0. -1.
          2    1    1    2  501    0  0.10328675757E+03 -0.10780492134E+02  0.13590908740E+03  0.17104284065E+03  0.00000000000E+00 0. -1.
<scales pt_clust_5="13000.00000" pt_clust_6="13000.00000" pt_clust_7="13000.00000" pt_clust_8="13000.00000" pt_clust_9="13000.00000"></scales>
<clustering>
<clus scale="   80.395">  5  6 -1 -1</clus>
<clus scale="   91.179">  7  8 -1 -1</clus>
<clus scale="   93.971">  1  7  2 -1</clus>
<clus scale="   97.369">  5  9 -1 -1</clus>
<clus scale="  248.420">  2  5  1 -1</clus>
</clustering>
</event>
<event>
 9    1  0.2728138E-005  0.4852971E+03  0.7546771E-02  0.1020545E+00
          1   -1    0    0  502    0 -0.00000000000E+00  0.00000000000E+00  0.19407126969E+03  0.19407126969E+03  0.00000000000E+00 0. -1.
         21   -1    0    0  501  502  0.00000000000E+00 -0.00000000000E+00 -0.11456482958E+04  0.11456482958E+04  0.00000000000E+00 0. -1.
         23    2    1    2    0    0  0.88090544390E+02  0.42661367384E+03 -0.56525345427E+03  0.71942995266E+03  0.91152720742E+02 0.  0.
        -24    2    1    2    0    0  0.41121600994E+01 -0.41611033567E+02 -0.73988021234E+02  0.11602592396E+03  0.78989871308E+02 0.  0.
         13    1    4    4    0    0  0.34532141606E+02  0.22845738702E+01 -0.39190744078E+02  0.52283864653E+02  0.00000000000E+00 0. -1.
        -14    1    4    4    0    0 -0.30419981507E+02 -0.43895607437E+02 -0.34797277156E+02  0.63742059306E+02  0.00000000000E+00 0.  1.
        -13    1    3    3    0    0  0.26640805651E+02  0.22466463762E+02 -0.61402328775E+02  0.70602553061E+02  0.00000000000E+00 0.  1.
         13    1    3    3    0    0  0.61449738739E+02  0.40414721008E+03 -0.50385112550E+03  0.64882739960E+03  0.00000000000E+00 0. -1.
          2    1    1    2  501    0 -0.92202704490E+02 -0.38500264027E+03 -0.31233555056E+03  0.50426368883E+03  0.00000000000E+00 0. -1.
<scales pt_clust_5="13000.00000" pt_clust_6="13000.00000" pt_clust_7="13000.00000" pt_clust_8="13000.00000" pt_clust_9="13000.00000"></scales>
<clustering>
<clus scale="   78.990">  5  6 -1 -1</clus>
<clus scale="   91.153">  7  8 -1 -1</clus>
<clus scale="  395.890">  5  9 -1 -1</clus>
<clus scale="  445.049">  1  7  2 -1</clus>
<clus scale="  485.297">  2  5  1 -1</clus>
</clustering>
</event>
<event>
 9    1  0.2728138E-005  0.1648318E+03  0.7546771E-02  0.1204283E+00
         21   -1    0    0  501  502  0.00000000000E+00  0.00000000000E+00  0.38415242156E+02  0.38415242156E+02  0.00000000000E+00 0. -1.
          3   -1    0    0  502    0 -0.00000000000E+00 -0.00000000000E+00 -0.47601722745E+03  0.47601722745E+03  0.00000000000E+00 0. -1.
         23    2    1    2    0    0  0.27858888073E+02 -0.33146992930E+02 -0.19649576342E+03  0.22236786676E+03  0.94668063999E+02 0.  0.
        -24    2    1    2    0    0  0.22412845451E+02 -0.14484228153E+01 -0.68150945416E+02  0.10865899323E+03  0.81595293242E+02 0.  0.
         13    1    4    4    0    0  0.19913575069E+01  0.35976238424E+02 -0.11630145262E+02  0.37861794921E+02  0.00000000000E+00 0. -1.
        -14    1    4    4    0    0  0.20421487944E+02 -0.37424661239E+02 -0.56520800154E+02  0.70797198311E+02  0.00000000000E+00 0.  1.
        -13    1    3    3    0    0 -0.12419230656E+02  0.25789103309E+02 -0.87618910889E+02  0.92175857386E+02  0.00000000000E+00 0.  1.
         13    1    3    3    0    0  0.40278118730E+02 -0.58936096238E+02 -0.10887685253E+03  0.13019200937E+03  0.00000000000E+00 0. -1.
          4    1    1    2  501    0 -0.50271733525E+02  0.34595415745E+02 -0.17295527647E+03  0.18340560962E+03  0.00000000000E+00 0. -1.
<scales pt_clust_5="13000.00000" pt_clust_6="13000.00000" pt_clust_7="13000.00000" pt_clust_8="13000.00000" pt_clust_9="13000.00000"></scales>
<clustering>
<clus scale="   81.595">  5  6 -1 -1</clus>
<clus scale="   61.025">  5  9 -1 -1</clus>
<clus scale="   94.668">  7  8 -1 -1</clus>
<clus scale="  104.100">  2  7  1 -1</clus>
<clus scale="  164.832">  1  5  2 -1</clus>
</clustering>
</event>
<event>
 9    1  0.2728138E-005  0.1656966E+03  0.7546771E-02  0.1210263E+00
          3   -1    0    0  502    0 -0.00000000000E+00  0.00000000000E+00  0.23318320861E+03  0.23318320861E+03  0.00000000000E+00 0. -1.
         21   -1    0    0  501  502  0.00000000000E+00 -0.00000000000E+00 -0.94364774859E+02  0.94364774859E+02  0.00000000000E+00 0. -1.
         23    2    1    2    0    0 -0.92373221575E+01 -0.12567039662E+02  0.13435488074E+03  0.16179126980E+03  0.88780191463E+02 0.  0.
        -24    2    1    2    0    0  0.49869744916E+02 -0.30251702242E+02  0.25360563464E+02  0.10313783885E+03  0.81191740208E+02 0.  0.
         13    1    4    4    0    0  0.28565369356E+02 -0.42683662763E+02 -0.17015601227E+02  0.54105508763E+02  0.00000000000E+00 0. -1.
        -14    1    4    4    0    0  0.21304375560E+02  0.12431960521E+02  0.42376164691E+02  0.49032330092E+02  0.00000000000E+00 0.  1.
        -11    1    3    3    0    0 -0.29491774749E+02 -0.28547862992E+02  0.12909182616E+03  0.13546012270E+03  0.00000000000E+00 0. -1.
         11    1    3    3    0    0  0.20254452592E+02  0.15980823330E+02  0.52630545830E+01  0.26331147101E+02  0.00000000000E+00 0.  1.
          4    1    1    2  501    0 -0.40632422759E+02  0.42818741904E+02 -0.20897010456E+02  0.62618874818E+02  0.00000000000E+00 0. -1.
<scales pt_clust_5="13000.00000" pt_clust_6="13000.00000" pt_clust_7="13000.00000" pt_clust_8="13000.00000" pt_clust_9="13000.00000"></scales>
<clustering>
<clus scale="   81.192">  5  6 -1 -1</clus>
<clus scale="   59.029">  5  9 -1 -1</clus>
<clus scale="   88.780">  7  8 -1 -1</clus>
<clus scale="   90.140">  1  7  2 -1</clus>
<clus scale="  165.697">  2  5  1 -1</clus>
</clustering>
</event>
<event>
 9    1  0.2728138E-005  0.2165515E+03  0.7546771E-02  0.1168856E+00
         21   -1    0    0  501  502  0.00000000000E+00  0.00000000000E+00  0.30441184551E+02  0.30441184551E+02  0.00000000000E+00 0.  1.
          1   -1    0    0  502    0 -0.00000000000E+00 -0.00000000000E+00 -0.86951565184E+03  0.86951565184E+03  0.00000000000E+00 0. -1.
         23    2    1    2    0    0  0.26334706553E+02  0.34645639520E+02 -0.18178238795E+03  0.20791101847E+03  0.91040199508E+02 0.  0.
        -24    2    1    2    0    0 -0.72916551944E+02  0.42782509299E+02 -0.27067211426E+03  0.29500679723E+03  0.81353858702E+02 0.  0.
         11    1    4    4    0    0 -0.36539307843E+02  0.90524598684E+01 -0.22317120325E+03  0.22632378135E+03  0.00000000000E+00 0. -1.
        -12    1    4    4    0    0 -0.36377244101E+02  0.33730049431E+02 -0.47500911009E+02  0.68683015875E+02  0.00000000000E+00 0.  1.
        -13    1    3    3    0    0  0.10907854733E+02  0.65165055776E+02 -0.10834537856E+03  0.12690227281E+03  0.00000000000E+00 0.  1.
         13    1    3    3    0    0  0.15426851819E+02 -0.30519416256E+02 -0.73437009384E+02  0.81008745657E+02  0.00000000000E+00 0. -1.
          2    1    1    2  501    0  0.46581845391E+02 -0.77428148819E+02 -0.38661996508E+03  0.39703902069E+03  0.00000000000E+00 0. -1.
<scales pt_clust_5="13000.00000" pt_clust_6="13000.00000" pt_clust_7="13000.00000" pt_clust_8="13000.00000" pt_clust_9="13000.00000"></scales>
<clustering>
<clus scale="   81.354">  5  6 -1 -1</clus>
<clus scale="   90.360">  5  9 -1 -1</clus>
<clus scale="   91.040">  7  8 -1 -1</clus>
<clus scale="  100.907">  2  7  1 -1</clus>
<clus scale="  216.551">  1  5  2 -1</clus>
</clustering>
</event>
<event>
 9    1  0.2728138E-005  0.2100424E+03  0.7546771E-02  0.1148325E+00
         21   -1    0    0  501  502  0.00000000000E+00  0.00000000000E+00  0.15139464424E+03  0.15139464424E+03  0.00000000000E+00 0. -1.
         -2   -1    0    0    0  501 -0.00000000000E+00 -0.00000000000E+00 -0.27428349264E+03  0.27428349264E+03  0.00000000000E+00 0.  1.
         23    2    1    2    0    0 -0.53632532376E+02 -0.14383499158E+03  0.70466811700E+01  0.17869423330E+03  0.91197697158E+02 0.  0.
        -24    2    1    2    0    0  0.84495326003E+02  0.14391122569E+03 -0.12125028888E+03  0.21492222477E+03  0.60332654101E+02 0.  0.
         13    1    4    4    0    0  0.20835752634E+02  0.41390238126E+01 -0.38131830077E+01  0.21582411139E+02  0.00000000000E+00 0. -1.
        -14    1    4    4    0    0  0.63659573369E+02  0.13977220188E+03 -0.11743710587E+03  0.19333981363E+03  0.00000000000E+00 0.  1.
        -11    1    3    3    0    0  0.86151971647E+01 -0.88010440490E+02 -0.20283996471E+02  0.90727613053E+02  0.00000000000E+00 0.  1.
         11    1    3    3    0    0 -0.62247729541E+02 -0.55824551095E+02  0.27330677641E+02  0.87966620250E+02  0.00000000000E+00 0. -1.
         -1    1    1    2    0  502 -0.30862793627E+02 -0.76234109659E-01 -0.86852406875E+01  0.32061678807E+02  0.00000000000E+00 0.  1.
<scales pt_clust_5="13000.00000" pt_clust_6="13000.00000" pt_clust_7="13000.00000" pt_clust_8="13000.00000" pt_clust_9="13000.00000"></scales>
<clustering>
<clus scale="   60.333">  5  6 -1 -1</clus>
<clus scale="   30.863">  5  9 -1 -1</clus>
<clus scale="   91.198">  7  8 -1 -1</clus>
<clus scale="  178.555">  2  7  1 -1</clus>
<clus scale="  210.042">  1  5  2 -1</clus>
</clustering>
</event>
<event>
 9    1  0.2728138E-005  0.1377237E+03  0.7546771E-02  0.1221686E+00
          1   -1    0    0  502    0 -0.00000000000E+00  0.00000000000E+00  0.38069219881E+03  0.38069219881E+03  0.00000000000E+00 0. -1.
         21   -1    0    0  501  502  0.00000000000E+00 -0.00000000000E+00 -0.45933889527E+02  0.45933889527E+02  0.00000000000E+00 0. -1.
         23    2    1    2    0    0 -0.39122552756E+02 -0.75375513896E+02  0.19266639698E+03  0.22874246377E+03  0.89390894250E+02 0.  0.
        -24    2    1    2    0    0  0.41036547003E+02  0.34458965673E+02  0.93040916373E+02  0.13397879303E+03  0.80139168684E+02 0.  0.
         11    1    4    4    0    0  0.39498975993E+02  0.20291666739E+02  0.48800992646E+01  0.44673663521E+02  0.00000000000E+00 0. -1.
        -12    1    4    4    0    0  0.15375710099E+01  0.14167298935E+02  0.88160817108E+02  0.89305129510E+02  0.00000000000E+00 0.  1.
        -13    1    3    3    0    0  0.12544296660E+02 -0.55712719311E+02  0.50601443607E+02  0.76300541066E+02  0.00000000000E+00 0.  1.
         13    1    3    3    0    0 -0.51666849416E+02 -0.19662794585E+02  0.14206495337E+03  0.15244192270E+03  0.00000000000E+00 0. -1.
          2    1    1    2  501    0 -0.19139942473E+01  0.40916548223E+02  0.49050995927E+02  0.63904831538E+02  0.00000000000E+00 0. -1.
<scales pt_clust_5="13000.00000" pt_clust_6="13000.00000" pt_clust_7="13000.00000" pt_clust_8="13000.00000" pt_clust_9="13000.00000"></scales>
<clustering>
<clus scale="   80.139">  5  6 -1 -1</clus>
<clus scale="   40.961">  5  9 -1 -1</clus>
<clus scale="   89.391">  7  8 -1 -1</clus>
<clus scale="  123.300">  1  7  2 -1</clus>
<clus scale="  137.724">  2  5  1 -1</clus>
</clustering>
</event>
<event>
 9    1  0.2728138E-005  0.3744859E+03  0.7546771E-02  0.1055282E+00
          3   -1    0    0  502    0 -0.00000000000E+00  0.00000000000E+00  0.18241231916E+03  0.18241231916E+03  0.00000000000E+00 0. -1.
         21   -1    0    0  501  502  0.00000000000E+00 -0.00000000000E+00 -0.72167673483E+03  0.72167673483E+03  0.00000000000E+00 0. -1.
         23    2    1    2    0    0  0.26658740681E+03 -0.20910929960E+03 -0.27141503153E+03  0.44367297603E+03  0.91564434529E+02 0.  0.
        -24    2    1    2    0    0 -0.95590325909E+02  0.39790195351E+02 -0.70185759892E+02  0.14900016781E+03  0.80958255056E+02 0.  0.
         11    1    4    4    0    0 -0.85002039748E+02  0.37009394281E+01 -0.22012814991E+02  0.87884058496E+02  0.00000000000E+00 0. -1.
        -12    1    4    4    0    0 -0.10588286161E+02  0.36089255923E+02 -0.48172944901E+02  0.61116109311E+02  0.00000000000E+00 0.  1.
        -13    1    3    3    0    0  0.33814690844E+02 -0.65459713101E+02 -0.32630372298E+02  0.80580075406E+02  0.00000000000E+00 0.  1.
         13    1    3    3    0    0  0.23277271597E+03 -0.14364958650E+03 -0.23878465923E+03  0.36309290062E+03  0.00000000000E+00 0. -1.
          4    1    1    2  501    0 -0.17099708090E+03  0.16931910425E+03 -0.19766362425E+03  0.31141591015E+03  0.00000000000E+00 0. -1.
<scales pt_clust_5="13000.00000" pt_clust_6="13000.00000" pt_clust_7="13000.00000" pt_clust_8="13000.00000" pt_clust_9="13000.00000"></scales>
<clustering>
<clus scale="   80.958">  5  6 -1 -1</clus>
<clus scale="   91.564">  7  8 -1 -1</clus>
<clus scale="  240.643">  5  9 -1 -1</clus>
<clus scale="  350.970">  1  7  2 -1</clus>
<clus scale="  374.486">  2  5  1 -1</clus>
</clustering>
</event>
<event>
 9    1  0.2728138E-005  0.2365716E+03  0.7546771E-02  0.1147214E+00
         21   -1    0    0  501  502  0.00000000000E+00  0.00000000000E+00  0.13587279331E+03  0.13587279331E+03  0.00000000000E+00 0. -1.
          1   -1    0    0  502    0 -0.00000000000E+00 -0.00000000000E+00 -0.26223900207E+03  0.26223900207E+03  0.00000000000E+00 0. -1.
         23    2    1    2    0    0 -0.69046777470E+02  0.60593253354E+02 -0.94595671477E+02  0.15941643939E+03  0.89589398108E+02 0.  0.
        -24    2    1    2    0    0 -0.55446373335E+02 -0.36638947031E+02 -0.38664007810E+02  0.11173129288E+03  0.81069498287E+02 0.  0.
         11    1    4    4    0    0 -0.50913286093E+02 -0.59464426064E+02 -0.40952930479E+02  0.88347740111E+02  0.00000000000E+00 0. -1.
        -12    1    4    4    0    0 -0.45330872415E+01  0.22825479032E+02  0.22889226690E+01  0.23383552766E+02  0.00000000000E+00 0.  1.
        -13    1    3    3    0    0  0.98142669226E+01  0.42026892770E+02 -0.52988159608E+02  0.68339773264E+02  0.00000000000E+00 0. -1.
         13    1    3    3    0    0 -0.78861044392E+02  0.18566360584E+02 -0.41607511868E+02  0.91076666122E+02  0.00000000000E+00 0.  1.
          2    1    1    2  501    0  0.12449315080E+03 -0.23954306323E+02  0.68934705309E+01  0.12696406312E+03  0.00000000000E+00 0. -1.
<scales pt_clust_5="13000.00000" pt_clust_6="13000.00000" pt_clust_7="13000.00000" pt_clust_8="13000.00000" pt_clust_9="13000.00000"></scales>
<clustering>
<clus scale="   81.069">  5  6 -1 -1</clus>
<clus scale="   89.589">  7  8 -1 -1</clus>
<clus scale="  126.777">  5  9 -1 -1</clus>
<clus scale="  128.317">  2  7  1 -1</clus>
<clus scale="  236.572">  1  5  2 -1</clus>
</clustering>
</event>
<event>
 9    1  0.2728138E-005  0.1478461E+03  0.7546771E-02  0.1206733E+00
         21   -1    0    0  501  502  0.00000000000E+00  0.00000000000E+00  0.59370304439E+02  0.59370304439E+02  0.00000000000E+00 0. -1.
          1   -1    0    0  502    0 -0.00000000000E+00 -0.00000000000E+00 -0.45499750114E+03  0.45499750114E+03  0.00000000000E+00 0. -1.
         23    2    1    2    0    0 -0.10117410089E+03 -0.98828499734E+01 -0.32057267370E+03  0.34856177073E+03  0.91622046895E+02 0.  0.
        -24    2    1    2    0    0  0.51926545086E+02  0.21466948195E+02 -0.45624461051E+02  0.10727705374E+03  0.79180672279E+02 0.  0.
         13    1    4    4    0    0  0.52110314438E+02  0.39024388833E+02 -0.77906243744E+01  0.65567382308E+02  0.00000000000E+00 0. -1.
        -14    1    4    4    0    0 -0.18376935143E+00 -0.17557440637E+02 -0.37833836677E+02  0.41709671428E+02  0.00000000000E+00 0.  1.
        -13    1    3    3    0    0 -0.10276278093E+03 -0.36383464569E+02 -0.27501636575E+03  0.29583432368E+03  0.00000000000E+00 0.  1.
         13    1    3    3    0    0  0.15886800389E+01  0.26500614596E+02 -0.45556307951E+02  0.52727447049E+02  0.00000000000E+00 0. -1.
          2    1    1    2  501    0  0.49247555804E+02 -0.11584098222E+02 -0.29430061956E+02  0.58528981120E+02  0.00000000000E+00 0. -1.
<scales pt_clust_5="13000.00000" pt_clust_6="13000.00000" pt_clust_7="13000.00000" pt_clust_8="13000.00000" pt_clust_9="13000.00000"></scales>
<clustering>
<clus scale="   79.181">  5  6 -1 -1</clus>
<clus scale="   50.592">  5  9 -1 -1</clus>
<clus scale="   91.622">  7  8 -1 -1</clus>
<clus scale="  136.852">  2  7  1 -1</clus>
<clus scale="  147.846">  1  5  2 -1</clus>
</clustering>
</event>
<event>
 9    1  0.2728138E-005  0.1216770E+03  0.7546771E-02  0.1247140E+00
          1   -1    0    0  502    0 -0.00000000000E+00  0.00000000000E+00  0.26914573202E+03  0.26914573202E+03  0.00000000000E+00 0. -1.
         21   -1    0    0  501  502  0.00000000000E+00 -0.00000000000E+00 -0.54038134446E+02  0.54038134446E+02  0.00000000000E+00 0. -1.
         23    2    1    2    0    0  0.50734311356E+02  0.72598041508E+01  0.15402574867E+03  0.18703588235E+03  0.92907561199E+02 0.  0.
        -24    2    1    2    0    0 -0.30194145708E+02  0.11318007283E+02  0.64632371573E+02  0.10822595528E+03  0.80596093070E+02 0.  0.
         13    1    4    4    0    0  0.15424835702E+02 -0.22474847454E+02  0.89126956934E+01  0.28678920290E+02  0.00000000000E+00 0. -1.
        -14    1    4    4    0    0 -0.45618981410E+02  0.33792854737E+02  0.55719675880E+02  0.79547034994E+02  0.00000000000E+00 0.  1.
        -13    1    3    3    0    0  0.50097676527E+02 -0.34790548663E+02  0.68431070703E+02  0.91667720095E+02  0.00000000000E+00 0.  1.
         13    1    3    3    0    0  0.63663482915E+00  0.42050352814E+02  0.85594677971E+02  0.95368162259E+02  0.00000000000E+00 0. -1.
          2    1    1    2  501    0 -0.20540165648E+02 -0.18577811434E+02 -0.35505226748E+01  0.27922028827E+02  0.00000000000E+00 0. -1.
<scales pt_clust_5="13000.00000" pt_clust_6="13000.00000" pt_clust_7="13000.00000" pt_clust_8="13000.00000" pt_clust_9="13000.00000"></scales>
<clustering>
<clus scale="   80.596">  5  6 -1 -1</clus>
<clus scale="   27.695">  5  9 -1 -1</clus>
<clus scale="   92.908">  7  8 -1 -1</clus>
<clus scale="  106.106">  1  7  2 -1</clus>
<clus scale="  121.677">  2  5  1 -1</clus>
</clustering>
</event>
<event>
 9    1  0.2728138E-005  0.3540894E+03  0.7546771E-02  0.1107922E+00
         -4   -1    0    0    0  501 -0.00000000000E+00  0.00000000000E+00  0.96962363210E+03  0.96962363210E+03  0.00000000000E+00 0.  1.
         21   -1    0    0  501  502  0.00000000000E+00 -0.00000000000E+00 -0.55419966798E+02  0.55419966798E+02  0.00000000000E+00 0.  1.
         23    2    1    2    0    0 -0.22900303241E+02  0.33095200285E+02  0.12966480401E+03  0.16429941652E+03  0.92529026257E+02 0.  0.
        -24    2    1    2    0    0  0.49270986376E+02  0.10798659593E+03  0.13901161340E+03  0.19945384226E+03  0.79805209955E+02 0.  0.
         13    1    4    4    0    0  0.11009748084E+02  0.22204564243E+02  0.90312978629E+02  0.93651969200E+02  0.00000000000E+00 0. -1.
        -14    1    4    4    0    0  0.38261238293E+02  0.85782031683E+02  0.48698634767E+02  0.10580187306E+03  0.00000000000E+00 0.  1.
        -11    1    3    3    0    0  0.17580684972E+02  0.50133169605E+02  0.48122774414E+02  0.71681354591E+02  0.00000000000E+00 0.  1.
         11    1    3    3    0    0 -0.40480988213E+02 -0.17037969320E+02  0.81542029596E+02  0.92618061931E+02  0.00000000000E+00 0. -1.
         -3    1    1    2    0  502 -0.26370683135E+02 -0.14108179621E+03  0.64552724789E+03  0.66129034011E+03  0.00000000000E+00 0.  1.
<scales pt_clust_5="13000.00000" pt_clust_6="13000.00000" pt_clust_7="13000.00000" pt_clust_8="13000.00000" pt_clust_9="13000.00000"></scales>
<clustering>
<clus scale="   79.805">  5  6 -1 -1</clus>
<clus scale="   92.529">  7  8 -1 -1</clus>
<clus scale="  100.903">  1  7  2 -1</clus>
<clus scale="  123.140">  5  9 -1 -1</clus>
<clus scale="  354.089">  2  5  1 -1</clus>
</clustering>
</event>
<event>
 9    1  0.4029469E-005  0.2825759E+03  0.7546771E-02  0.1132988E+00
         21   -1    0    0  501  502  0.00000000000E+00  0.00000000000E+00  0.69303477784E+03  0.69303477784E+03  0.00000000000E+00 0.  1.
         -4   -1    0    0    0  501 -0.00000000000E+00 -0.00000000000E+00 -0.70440059785E+02  0.70440059785E+02  0.00000000000E+00 0.  1.
         23    2    1    2    0    0  0.51777698017E+01  0.52902845160E+02  0.35465144023E+02  0.11188426543E+03  0.91841124142E+02 0.  0.
        -24    2    1    2    0    0  0.46766870360E+02  0.73505220995E+02  0.13757360662E+03  0.18172057670E+03  0.80658000730E+02 0.  0.
         11    1    4    4    0    0 -0.17658745039E+02  0.26915059745E+02  0.14749465820E+02  0.35409016640E+02  0.00000000000E+00 0. -1.
        -12    1    4    4    0    0  0.64425615399E+02  0.46590161250E+02  0.12282414080E+03  0.14631156006E+03  0.00000000000E+00 0.  1.
        -11    1    3    3    0    0  0.25695746052E+02  0.22891320924E+02 -0.24161712124E+02  0.42048451476E+02  0.00000000000E+00 0.  1.
         11    1    3    3    0    0 -0.20517976251E+02  0.30011524236E+02  0.59626856146E+02  0.69835813951E+02  0.00000000000E+00 0. -1.
         -3    1    1    2    0  502 -0.51944640161E+02 -0.12640806615E+03  0.44955596742E+03  0.46986999550E+03  0.00000000000E+00 0.  1.
<scales pt_clust_5="13000.00000" pt_clust_6="13000.00000" pt_clust_7="13000.00000" pt_clust_8="13000.00000" pt_clust_9="13000.00000"></scales>
<clustering>
<clus scale="   80.658">  5  6 -1 -1</clus>
<clus scale="   91.841">  7  8 -1 -1</clus>
<clus scale="  106.115">  2  7  1 -1</clus>
<clus scale="  120.721">  5  9 -1 -1</clus>
<clus scale="  282.576">  1  5  2 -1</clus>
</clustering>
</event>
<event>
 9    1  0.2728138E-005  0.2696752E+03  0.7546771E-02  0.1125705E+00
         21   -1    0    0  501  502  0.00000000000E+00  0.00000000000E+00  0.49139086238E+02  0.49139086238E+02  0.00000000000E+00 0. -1.
          1   -1    0    0  502    0 -0.00000000000E+00 -0.00000000000E+00 -0.10796952412E+04  0.10796952412E+04  0.00000000000E+00 0. -1.
         23    2    1    2    0    0  0.84690308444E+02 -0.76207374089E+02 -0.62478849691E+03  0.64162585019E+03  0.91340317213E+02 0.  0.
        -24    2    1    2    0    0 -0.18023617199E+02 -0.56020146732E+02 -0.24735214628E+03  0.27035820781E+03  0.91909567768E+02 0.  0.
         11    1    4    4    0    0 -0.26918710814E+02 -0.51154330515E+02 -0.62141259861E+02  0.84870010601E+02  0.00000000000E+00 0. -1.
        -12    1    4    4    0    0  0.88950936150E+01 -0.48658162172E+01 -0.18521088642E+03  0.18548819721E+03  0.00000000000E+00 0.  1.
        -11    1    3    3    0    0  0.50969117102E+01  0.20298639780E+02 -0.88572612379E+02  0.91011652823E+02  0.00000000000E+00 0.  1.
         11    1    3    3    0    0  0.79593396734E+02 -0.96506013870E+02 -0.53621588453E+03  0.55061419737E+03  0.00000000000E+00 0. -1.
          2    1    1    2  501    0 -0.66666691245E+02  0.13222752082E+03 -0.15841551178E+03  0.21685026944E+03  0.00000000000E+00 0. -1.
<scales pt_clust_5="13000.00000" pt_clust_6="13000.00000" pt_clust_7="13000.00000" pt_clust_8="13000.00000" pt_clust_9="13000.00000"></scales>
<clustering>
<clus scale="   91.340">  7  8 -1 -1</clus>
<clus scale="   91.910">  5  6 -1 -1</clus>
<clus scale="  146.024">  2  7  1 -1</clus>
<clus scale="  104.910">  5  9 -1 -1</clus>
<clus scale="  269.675">  1  5  2 -1</clus>
</clustering>
</event>
<event>
 9    1  0.2728138E-005  0.4508392E+03  0.7546771E-02  0.1063775E+00
         -4   -1    0    0    0  501 -0.00000000000E+00  0.00000000000E+00  0.12939178927E+03  0.12939178927E+03  0.00000000000E+00 0.  1.
         21   -1    0    0  501  502  0.00000000000E+00 -0.00000000000E+00 -0.83695379191E+03  0.83695379191E+03  0.00000000000E+00 0.  1.
         23    2    1    2    0    0 -0.10686060887E+02  0.12819818192E+03 -0.44781916647E+02  0.16476377569E+03  0.92696903797E+02 0.  0.
        -24    2    1    2    0    0 -0.42185314077E+02  0.24323932541E+02  0.24615293527E+02  0.95486354819E+02  0.78361194880E+02 0.  0.
         13    1    4    4    0    0  0.12337534834E+02  0.22600936672E+02  0.31297662396E+02  0.40528518054E+02  0.00000000000E+00 0. -1.
        -14    1    4    4    0    0 -0.54522848911E+02  0.17229958700E+01 -0.66823688695E+01  0.54957836765E+02  0.00000000000E+00 0.  1.
        -11    1    3    3    0    0 -0.22150138999E+02  0.92817080659E+02 -0.71272059386E+02  0.11910224838E+03  0.00000000000E+00 0.  1.
         11    1    3    3    0    0  0.11464078111E+02  0.35381101266E+02  0.26490142738E+02  0.45661527307E+02  0.00000000000E+00 0. -1.
         -3    1    1    2    0  502  0.52871374965E+02 -0.15252211447E+03 -0.68739537952E+03  0.70609545068E+03  0.00000000000E+00 0.  1.
<scales pt_clust_5="13000.00000" pt_clust_6="13000.00000" pt_clust_7="13000.00000" pt_clust_8="13000.00000" pt_clust_9="13000.00000"></scales>
<clustering>
<clus scale="   78.361">  5  6 -1 -1</clus>
<clus scale="   92.697">  7  8 -1 -1</clus>
<clus scale="  158.561">  1  7  2 -1</clus>
<clus scale="  144.700">  5  9 -1 -1</clus>
<clus scale="  450.839">  2  5  1 -1</clus>
</clustering>
</event>
<event>
 9    1  0.2728138E-005  0.2189338E+03  0.7546771E-02  0.1165782E+00
          1   -1    0    0  502    0 -0.00000000000E+00  0.00000000000E+00  0.25539506838E+03  0.25539506838E+03  0.00000000000E+00 0. -1.
         21   -1    0    0  501  502  0.00000000000E+00 -0.00000000000E+00 -0.10438661601E+03  0.10438661601E+03  0.00000000000E+00 0. -1.
         23    2    1    2    0    0 -0.47687140504E+02  0.26609498852E+02  0.71470507667E+02  0.12684762732E+03  0.89443603980E+02 0.  0.
        -24    2    1    2    0    0  0.79166168867E+02  0.55278886204E+02  0.14944262847E+02  0.12398920602E+03  0.76334491965E+02 0.  0.
         13    1    4    4    0    0  0.73806718588E+02  0.66420602809E+01  0.72858835463E+01  0.74462290943E+02  0.00000000000E+00 0. -1.
        -14    1    4    4    0    0  0.53594502793E+01  0.48636825923E+02  0.76583793009E+01  0.49526915074E+02  0.00000000000E+00 0.  1.
        -11    1    3    3    0    0 -0.51144848546E+02  0.55528584153E+02  0.54835034673E+02  0.93306485404E+02  0.00000000000E+00 0. -1.
         11    1    3    3    0    0  0.34577080416E+01 -0.28919085301E+02  0.16635472994E+02  0.33541141920E+02  0.00000000000E+00 0.  1.
          2    1    1    2  501    0 -0.31479028363E+02 -0.81888385056E+02  0.64593681863E+02  0.10894485105E+03  0.00000000000E+00 0. -1.
<scales pt_clust_5="13000.00000" pt_clust_6="13000.00000" pt_clust_7="13000.00000" pt_clust_8="13000.00000" pt_clust_9="13000.00000"></scales>
<clustering>
<clus scale="   76.334">  5  6 -1 -1</clus>
<clus scale="   87.731">  5  9 -1 -1</clus>
<clus scale="   89.444">  7  8 -1 -1</clus>
<clus scale="  104.796">  1  7  2 -1</clus>
<clus scale="  218.934">  2  5  1 -1</clus>
</clustering>
</event>
<event>
 9    1  0.2728138E-005  0.1739076E+03  0.7546771E-02  0.1199800E+00
         21   -1    0    0  501  502  0.00000000000E+00  0.00000000000E+00  0.34168813496E+02  0.34168813496E+02  0.00000000000E+00 0.  1.
          1   -1    0    0  502    0 -0.00000000000E+00 -0.00000000000E+00 -0.54598661397E+03  0.54598661397E+03  0.00000000000E+00 0. -1.
         23    2    1    2    0    0  0.47639181877E+02 -0.43888918282E+02 -0.21496220890E+03  0.23611023483E+03  0.73099678111E+02 0.  0.
        -24    2    1    2    0    0 -0.36114827568E+02 -0.20312575566E+02 -0.93822101632E+02  0.13079125810E+03  0.81159626324E+02 0.  0.
         13    1    4    4    0    0  0.19673021214E+02 -0.18212993307E+02 -0.72376523271E+01  0.27769128544E+02  0.00000000000E+00 0. -1.
        -14    1    4    4    0    0 -0.55787848782E+02 -0.20995822596E+01 -0.86584449304E+02  0.10302212956E+03  0.00000000000E+00 0.  1.
        -13    1    3    3    0    0 -0.55439987570E+01 -0.42355799660E+02 -0.74045843049E+02  0.85484130457E+02  0.00000000000E+00 0. -1.
         13    1    3    3    0    0  0.53183180634E+02 -0.15331186220E+01 -0.14091636585E+03  0.15062610437E+03  0.00000000000E+00 0.  1.
          2    1    1    2  501    0 -0.11524354309E+02  0.64201493848E+02 -0.20303348994E+03  0.21325393453E+03  0.00000000000E+00 0. -1.
<scales pt_clust_5="13000.00000" pt_clust_6="13000.00000" pt_clust_7="13000.00000" pt_clust_8="13000.00000" pt_clust_9="13000.00000"></scales>
<clustering>
<clus scale="   73.100">  7  8 -1 -1</clus>
<clus scale="   81.160">  5  6 -1 -1</clus>
<clus scale="   65.228">  5  9 -1 -1</clus>
<clus scale="   97.669">  2  7  1 -1</clus>
<clus scale="  173.908">  1  5  2 -1</clus>
</clustering>
</event>
<event>
 9    1  0.2728138E-005  0.1736124E+03  0.7546771E-02  0.1180656E+00
         -4   -1    0    0    0  501 -0.00000000000E+00  0.00000000000E+00  0.17268397326E+03  0.17268397326E+03  0.00000000000E+00 0.  1.
         21   -1    0    0  501  502  0.00000000000E+00 -0.00000000000E+00 -0.15625184462E+03  0.15625184462E+03  0.00000000000E+00 0.  1.
         23    2    1    2    0    0  0.54460455546E+02 -0.10625274761E+03 -0.21106299188E+02  0.15131150624E+03  0.90521314965E+02 0.  0.
        -24    2    1    2    0    0 -0.18662599450E+02  0.66601880235E+02 -0.26425040303E+02  0.94287626806E+02  0.58376114504E+02 0.  0.
         13    1    4    4    0    0  0.12587314923E+02  0.32529565619E+02  0.90242308782E+01  0.36028459296E+02  0.00000000000E+00 0. -1.
        -14    1    4    4    0    0 -0.31249914373E+02  0.34072314616E+02 -0.35449271181E+02  0.58259167509E+02  0.00000000000E+00 0.  1.
        -13    1    3    3    0    0 -0.23255708300E+00 -0.32343100137E+02 -0.45835757744E+02  0.56098546302E+02  0.00000000000E+00 0.  1.
         13    1    3    3    0    0  0.54693012629E+02 -0.73909647472E+02  0.24729458556E+02  0.95212959940E+02  0.00000000000E+00 0. -1.
         -3    1    1    2    0  502 -0.35797856096E+02  0.39650867374E+02  0.63963468132E+02  0.83336684840E+02  0.00000000000E+00 0.  1.
<scales pt_clust_5="13000.00000" pt_clust_6="13000.00000" pt_clust_7="13000.00000" pt_clust_8="13000.00000" pt_clust_9="13000.00000"></scales>
<clustering>
<clus scale="   58.376">  5  6 -1 -1</clus>
<clus scale="   53.420">  5  9 -1 -1</clus>
<clus scale="   90.521">  7  8 -1 -1</clus>
<clus scale="  149.832">  1  7  2 -1</clus>
<clus scale="  173.612">  2  5  1 -1</clus>
</clustering>
</event>
<event>
 9    1  0.2728138E-005  0.2847418E+03  0.7546771E-02  0.1128057E+00
          1   -1    0    0  502    0 -0.00000000000E+00  0.00000000000E+00  0.13084446191E+04  0.13084446191E+04  0.00000000000E+00 0. -1.
         21   -1    0    0  501  502  0.00000000000E+00 -0.00000000000E+00 -0.31753916137E+02  0.31753916137E+02  0.00000000000E+00 0. -1.
         23    2    1    2    0    0  0.31510499738E+02  0.66946240749E+02  0.27620778378E+03  0.29998510714E+03  0.90695170462E+02 0.  0.
        -24    2    1    2    0    0 -0.56471008552E+02  0.73811027137E+02  0.28167401520E+03  0.30732743702E+03  0.80454087354E+02 0.  0.
         13    1    4    4    0    0 -0.69664942986E+02  0.42322446200E+02  0.14386932588E+03  0.16535651382E+03  0.00000000000E+00 0. -1.
        -14    1    4    4    0    0  0.13193934435E+02  0.31488580937E+02  0.13780468932E+03  0.14197092320E+03  0.00000000000E+00 0.  1.
        -13    1    3    3    0    0  0.55844571361E+02  0.22563877017E+02  0.10083363851E+03  0.11745283033E+03  0.00000000000E+00 0.  1.
         13    1    3    3    0    0 -0.24334071622E+02  0.44382363732E+02  0.17537414527E+03  0.18253227682E+03  0.00000000000E+00 0. -1.
          2    1    1    2  501    0  0.24960508813E+02 -0.14075726789E+03  0.71880890395E+03  0.73288599104E+03  0.00000000000E+00 0. -1.
<scales pt_clust_5="13000.00000" pt_clust_6="13000.00000" pt_clust_7="13000.00000" pt_clust_8="13000.00000" pt_clust_9="13000.00000"></scales>
<clustering>
<clus scale="   80.454">  5  6 -1 -1</clus>
<clus scale="   90.695">  7  8 -1 -1</clus>
<clus scale="  117.048">  1  7  2 -1</clus>
<clus scale="  104.491">  5  9 -1 -1</clus>
<clus scale="  284.742">  2  5  1 -1</clus>
</clustering>
</event>
<event>
 9    1  0.2728138E-005  0.2603855E+03  0.7546771E-02  0.1145954E+00
         21   -1    0    0  501  502  0.00000000000E+00  0.00000000000E+00  0.24127181227E+03  0.24127181227E+03  0.00000000000E+00 0. -1.
          1   -1    0    0  502    0 -0.00000000000E+00 -0.00000000000E+00 -0.17907166496E+03  0.17907166496E+03  0.00000000000E+00 0. -1.
         23    2    1    2    0    0  0.39278157921E+02 -0.20007912463E+00 -0.76569580668E+02  0.12528814989E+03  0.91057158406E+02 0.  0.
        -24    2    1    2    0    0 -0.13433097753E+00 -0.24114962107E+01  0.20385328231E+03  0.21906237663E+03  0.80164398513E+02 0.  0.
         13    1    4    4    0    0 -0.31851993143E+02 -0.77811802977E+01  0.16680434040E+03  0.16999642411E+03  0.00000000000E+00 0. -1.
        -14    1    4    4    0    0  0.31717662165E+02  0.53696840870E+01  0.37048941913E+02  0.49065952526E+02  0.00000000000E+00 0.  1.
        -13    1    3    3    0    0  0.54512471245E+02 -0.32399722239E+02 -0.52100188395E+02  0.82071804861E+02  0.00000000000E+00 0. -1.
         13    1    3    3    0    0 -0.15234313324E+02  0.32199643114E+02 -0.24469392273E+02  0.43216345026E+02  0.00000000000E+00 0.  1.
          2    1    1    2  501    0 -0.39143826943E+02  0.26115753353E+01 -0.65083554327E+02  0.75992950708E+02  0.00000000000E+00 0. -1.
<scales pt_clust_5="13000.00000" pt_clust_6="13000.00000" pt_clust_7="13000.00000" pt_clust_8="13000.00000" pt_clust_9="13000.00000"></scales>
<clustering>
<clus scale="   80.164">  5  6 -1 -1</clus>
<clus scale="   39.231">  5  9 -1 -1</clus>
<clus scale="   91.057">  7  8 -1 -1</clus>
<clus scale="   99.168">  2  7  1 -1</clus>
<clus scale="  260.386">  1  5  2 -1</clus>
</clustering>
</event>
<event>
 9    1  0.2728138E-005  0.1648429E+03  0.7546771E-02  0.1200843E+00
          3   -1    0    0  502    0 -0.00000000000E+00  0.00000000000E+00  0.28001994130E+02  0.28001994130E+02  0.00000000000E+00 0. -1.
         21   -1    0    0  501  502  0.00000000000E+00 -0.00000000000E+00 -0.10338207631E+04  0.10338207631E+04  0.00000000000E+00 0. -1.
         23    2    1    2    0    0  0.62746292659E+02  0.20170371054E+02 -0.13474761400E+03  0.17529124194E+03  0.90698174791E+02 0.  0.
        -24    2    1    2    0    0  0.11710705470E+02 -0.34874689993E+02 -0.42128620670E+03  0.43038837848E+03  0.79991898054E+02 0.  0.
         13    1    4    4    0    0  0.37892659307E+02 -0.43637439252E+02 -0.32984842965E+03  0.33487320925E+03  0.00000000000E+00 0. -1.
        -14    1    4    4    0    0 -0.26181953836E+02  0.87627492584E+01 -0.91437777051E+02  0.95515169231E+02  0.00000000000E+00 0.  1.
        -11    1    3    3    0    0  0.49521852634E+02  0.45298643785E+02 -0.44116531980E+02  0.80315934975E+02  0.00000000000E+00 0. -1.
         11    1    3    3    0    0  0.13224440026E+02 -0.25128272731E+02 -0.90631082020E+02  0.94975306962E+02  0.00000000000E+00 0.  1.
          4    1    1    2  501    0 -0.74456998129E+02  0.14704318939E+02 -0.44978494827E+03  0.45614313681E+03  0.00000000000E+00 0. -1.
<scales pt_clust_5="13000.00000" pt_clust_6="13000.00000" pt_clust_7="13000.00000" pt_clust_8="13000.00000" pt_clust_9="13000.00000"></scales>
<clustering>
<clus scale="   79.992">  5  6 -1 -1</clus>
<clus scale="   75.895">  5  9 -1 -1</clus>
<clus scale="   90.698">  7  8 -1 -1</clus>
<clus scale="  112.116">  1  7  2 -1</clus>
<clus scale="  164.843">  2  5  1 -1</clus>
</clustering>
</event>
<event>
 9    1  0.2728138E-005  0.2401011E+03  0.7546771E-02  0.1154867E+00
         21   -1    0    0  501  502  0.00000000000E+00  0.00000000000E+00  0.42559113453E+03  0.42559113453E+03  0.00000000000E+00 0. -1.
          1   -1    0    0  502    0 -0.00000000000E+00 -0.00000000000E+00 -0.70463340917E+02  0.70463340917E+02  0.00000000000E+00 0. -1.
         23    2    1    2    0    0  0.50408252889E+02  0.47769296712E+01  0.14148196964E+03  0.17466205204E+03  0.89027375977E+02 0.  0.
        -24    2    1    2    0    0  0.43563012188E+02  0.59839241854E+02  0.15868906953E+03  0.19479821681E+03  0.85356040153E+02 0.  0.
         13    1    4    4    0    0  0.47141168814E+02  0.70065850465E+02  0.83244886537E+02  0.11858003345E+03  0.00000000000E+00 0. -1.
        -14    1    4    4    0    0 -0.35781566260E+01 -0.10226608611E+02  0.75444182989E+02  0.76218183364E+02  0.00000000000E+00 0.  1.
        -11    1    3    3    0    0  0.66978563138E+02 -0.18310710731E+02  0.74187186335E+02  0.10161273869E+03  0.00000000000E+00 0. -1.
         11    1    3    3    0    0 -0.16570310249E+02  0.23087640403E+02  0.67294783305E+02  0.73049313352E+02  0.00000000000E+00 0.  1.
          2    1    1    2  501    0 -0.93971265077E+02 -0.64616171525E+02  0.54956754443E+02  0.12659420659E+03  0.00000000000E+00 0. -1.
<scales pt_clust_5="13000.00000" pt_clust_6="13000.00000" pt_clust_7="13000.00000" pt_clust_8="13000.00000" pt_clust_9="13000.00000"></scales>
<clustering>
<clus scale="   85.356">  5  6 -1 -1</clus>
<clus scale="   89.027">  7  8 -1 -1</clus>
<clus scale="  102.419">  2  7  1 -1</clus>
<clus scale="   86.197">  5  9 -1 -1</clus>
<clus scale="  240.101">  1  5  2 -1</clus>
</clustering>
</event>
<event>
 9    1  0.2728138E-005  0.5033314E+03  0.7546771E-02  0.1042780E+00
         21   -1    0    0  501  502  0.00000000000E+00  0.00000000000E+00  0.11903016562E+03  0.11903016562E+03  0.00000000000E+00 0. -1.
          1   -1    0    0  502    0 -0.00000000000E+00 -0.00000000000E+00 -0.12058864921E+04  0.12058864921E+04  0.00000000000E+00 0. -1.
         23    2    1    2    0    0 -0.69923416725E+02 -0.17166367363E+03 -0.55701859737E+03  0.59411537021E+03  0.91354552457E+02 0.  0.
        -24    2    1    2    0    0  0.47164879366E+02 -0.20822902302E+02  0.64131888141E+02  0.10600616977E+03  0.66830306346E+02 0.  0.
         13    1    4    4    0    0  0.40994573736E+02 -0.17186686149E+02  0.78352647870E+02  0.90083709320E+02  0.00000000000E+00 0. -1.
        -14    1    4    4    0    0  0.61703056291E+01 -0.36362161524E+01 -0.14220759728E+02  0.15922460448E+02  0.00000000000E+00 0.  1.
        -11    1    3    3    0    0 -0.10947223821E+02 -0.65813897124E+02 -0.92485370264E+02  0.11403882881E+03  0.00000000000E+00 0.  1.
         11    1    3    3    0    0 -0.58976192903E+02 -0.10584977650E+03 -0.46453322710E+03  0.48007654139E+03  0.00000000000E+00 0. -1.
          2    1    1    2  501    0  0.22758537359E+02  0.19248657593E+03 -0.59396961722E+03  0.62479511771E+03  0.00000000000E+00 0. -1.
<scales pt_clust_5="13000.00000" pt_clust_6="13000.00000" pt_clust_7="13000.00000" pt_clust_8="13000.00000" pt_clust_9="13000.00000"></scales>
<clustering>
<clus scale="   66.830">  5  6 -1 -1</clus>
<clus scale="   91.355">  7  8 -1 -1</clus>
<clus scale="  193.827">  5  9 -1 -1</clus>
<clus scale="  206.648">  2  7  1 -1</clus>
<clus scale="  503.331">  1  5  2 -1</clus>
</clustering>
</event>
<event>
 9    1  0.2728138E-005  0.1547283E+03  0.7546771E-02  0.1217983E+00
          1   -1    0    0  502    0 -0.00000000000E+00  0.00000000000E+00  0.94266278465E+02  0.94266278465E+02  0.00000000000E+00 0. -1.
         21   -1    0    0  501  502  0.00000000000E+00 -0.00000000000E+00 -0.20404821512E+03  0.20404821512E+03  0.00000000000E+00 0. -1.
         23    2    1    2    0    0 -0.11333429124E+02  0.17524891894E+02  0.20323904590E+02  0.96155184434E+02  0.91636182505E+02 0.  0.
        -24    2    1    2    0    0  0.33410004536E+02  0.31965076888E+02 -0.11724690764E+03  0.14646384824E+03  0.74611171736E+02 0.  0.
         11    1    4    4    0    0 -0.16236747685E+02  0.31385854018E+02 -0.67439539834E+02  0.76136688533E+02  0.00000000000E+00 0. -1.
        -12    1    4    4    0    0  0.49646752221E+02  0.57922287041E+00 -0.49807367806E+02  0.70327159711E+02  0.00000000000E+00 0.  1.
        -11    1    3    3    0    0  0.37508181516E+02  0.22420107239E+02  0.17227221448E+02  0.46971289614E+02  0.00000000000E+00 0. -1.
         11    1    3    3    0    0 -0.48841610640E+02 -0.48952153450E+01  0.30966831412E+01  0.49183894819E+02  0.00000000000E+00 0.  1.
          2    1    1    2  501    0 -0.22076575412E+02 -0.49489968782E+02 -0.12858933603E+02  0.55695460905E+02  0.00000000000E+00 0. -1.
<scales pt_clust_5="13000.00000" pt_clust_6="13000.00000" pt_clust_7="13000.00000" pt_clust_8="13000.00000" pt_clust_9="13000.00000"></scales>
<clustering>
<clus scale="   74.611">  5  6 -1 -1</clus>
<clus scale="   54.191">  5  9 -1 -1</clus>
<clus scale="   91.636">  7  8 -1 -1</clus>
<clus scale="   93.983">  1  7  2 -1</clus>
<clus scale="  154.728">  2  5  1 -1</clus>
</clustering>
</event>
<event>
 9    1  0.2728138E-005  0.2184378E+03  0.7546771E-02  0.1158582E+00
          1   -1    0    0  502    0 -0.00000000000E+00  0.00000000000E+00  0.83438547984E+03  0.83438547984E+03  0.00000000000E+00 0. -1.
         21   -1    0    0  501  502  0.00000000000E+00 -0.00000000000E+00 -0.39003534424E+02  0.39003534424E+02  0.00000000000E+00 0.  1.
         23    2    1    2    0    0 -0.39525838810E+02  0.75479160697E+02  0.16902954632E+03  0.21003964860E+03  0.91028955937E+02 0.  0.
        -24    2    1    2    0    0 -0.23131181587E+02 -0.57575060952E+02  0.56448512355E+03  0.57349382174E+03  0.80011059557E+02 0.  0.
         13    1    4    4    0    0 -0.45299377283E+02 -0.42676840258E+02  0.24094311195E+03  0.24885121955E+03  0.00000000000E+00 0. -1.
        -14    1    4    4    0    0  0.22168195696E+02 -0.14898220694E+02  0.32354201161E+03  0.32464260219E+03  0.00000000000E+00 0.  1.
        -13    1    3    3    0    0 -0.54134905930E+02  0.69328107593E+01  0.75841125638E+02  0.93437295782E+02  0.00000000000E+00 0.  1.
         13    1    3    3    0    0  0.14609067120E+02  0.68546349938E+02  0.93188420686E+02  0.11660235281E+03  0.00000000000E+00 0. -1.
          2    1    1    2  501    0  0.62657020398E+02 -0.17904099745E+02  0.61867275545E+02  0.89855543936E+02  0.00000000000E+00 0. -1.
<scales pt_clust_5="13000.00000" pt_clust_6="13000.00000" pt_clust_7="13000.00000" pt_clust_8="13000.00000" pt_clust_9="13000.00000"></scales>
<clustering>
<clus scale="   80.011">  5  6 -1 -1</clus>
<clus scale="   65.165">  5  9 -1 -1</clus>
<clus scale="   91.029">  7  8 -1 -1</clus>
<clus scale="  124.682">  1  7  2 -1</clus>
<clus scale="  218.438">  2  5  1 -1</clus>
</clustering>
</event>
<event>
 9    1  0.2728138E-005  0.1273458E+03  0.7546771E-02  0.1247450E+00
         -2   -1    0    0    0  501 -0.00000000000E+00  0.00000000000E+00  0.30588014548E+02  0.30588014548E+02  0.00000000000E+00 0.  1.
         21   -1    0    0  501  502  0.00000000000E+00 -0.00000000000E+00 -0.53910303774E+03  0.53910303774E+03  0.00000000000E+00 0.  1.
         23    2    1    2    0    0 -0.18658613528E+02 -0.12704173043E+01 -0.77569874943E+02  0.12032409064E+03  0.90061331718E+02 0.  0.
        -24    2    1    2    0    0  0.28809943479E+02 -0.30252112574E+02 -0.26767133001E+03  0.28276846492E+03  0.81023827884E+02 0.  0.
         13    1    4    4    0    0 -0.26569079630E+02 -0.41992086648E+01 -0.51513126914E+02  0.58113265184E+02  0.00000000000E+00 0. -1.
        -14    1    4    4    0    0  0.55379023109E+02 -0.26052903909E+02 -0.21615820310E+03  0.22465519973E+03  0.00000000000E+00 0.  1.
        -11    1    3    3    0    0  0.35826559087E+02 -0.67672802288E+01 -0.38699052992E+02  0.53169118106E+02  0.00000000000E+00 0. -1.
         11    1    3    3    0    0 -0.54485172615E+02  0.54968629245E+01 -0.38870821950E+02  0.67154972534E+02  0.00000000000E+00 0.  1.
         -1    1    1    2    0  502 -0.10151329950E+02  0.31522529878E+02 -0.16327381824E+03  0.16659849673E+03  0.00000000000E+00 0.  1.
<scales pt_clust_5="13000.00000" pt_clust_6="13000.00000" pt_clust_7="13000.00000" pt_clust_8="13000.00000" pt_clust_9="13000.00000"></scales>
<clustering>
<clus scale="   81.024">  5  6 -1 -1</clus>
<clus scale="   33.117">  5  9 -1 -1</clus>
<clus scale="   90.061">  7  8 -1 -1</clus>
<clus scale="   91.983">  1  7  2 -1</clus>
<clus scale="  127.346">  2  5  1 -1</clus>
</clustering>
</event>
<event>
 9    1  0.2728138E-005  0.5544411E+03  0.7546771E-02  0.1043531E+00
          1   -1    0    0  502    0 -0.00000000000E+00  0.00000000000E+00  0.11310404705E+04  0.11310404705E+04  0.00000000000E+00 0. -1.
         21   -1    0    0  501  502  0.00000000000E+00 -0.00000000000E+00 -0.14058860420E+03  0.14058860420E+03  0.00000000000E+00 0. -1.
         23    2    1    2    0    0  0.66629671716E+02 -0.10348684396E+03  0.18167045422E+02  0.15236917678E+03  0.87961835291E+02 0.  0.
        -24    2    1    2    0    0  0.43815548473E+02  0.30034466234E+03  0.68881310833E+03  0.75689632480E+03  0.79384065119E+02 0.  0.
         11    1    4    4    0    0  0.65577506912E+02  0.25338545807E+03  0.56367479440E+03  0.62147717063E+03  0.00000000000E+00 0. -1.
        -12    1    4    4    0    0 -0.21761958439E+02  0.46959204272E+02  0.12513831393E+03  0.13541915416E+03  0.00000000000E+00 0.  1.
        -11    1    3    3    0    0  0.41954972007E+02 -0.54676894866E+02  0.53508191428E+02  0.87251985984E+02  0.00000000000E+00 0.  1.
         11    1    3    3    0    0  0.24674699710E+02 -0.48809949090E+02 -0.35341146006E+02  0.65117190794E+02  0.00000000000E+00 0. -1.
          2    1    1    2  501    0 -0.11044522019E+03 -0.19685781839E+03  0.28347171257E+03  0.36236357315E+03  0.00000000000E+00 0. -1.
<scales pt_clust_5="13000.00000" pt_clust_6="13000.00000" pt_clust_7="13000.00000" pt_clust_8="13000.00000" pt_clust_9="13000.00000"></scales>
<clustering>
<clus scale="   79.384">  5  6 -1 -1</clus>
<clus scale="   87.962">  7  8 -1 -1</clus>
<clus scale="  151.282">  1  7  2 -1</clus>
<clus scale="  245.830">  5  9 -1 -1</clus>
<clus scale="  554.441">  2  5  1 -1</clus>
</clustering>
</event>
<event>
 9    1  0.2728138E-005  0.3141929E+03  0.7546771E-02  0.1114526E+00
         21   -1    0    0  501  502  0.00000000000E+00  0.00000000000E+00  0.79611350460E+02  0.79611350460E+02  0.00000000000E+00 0.  1.
         -4   -1    0    0    0  501 -0.00000000000E+00 -0.00000000000E+00 -0.60052587512E+03  0.60052587512E+03  0.00000000000E+00 0.  1.
         23    2    1    2    0    0 -0.53734989494E+02  0.64627095654E+02 -0.16695283348E+03  0.20684446964E+03  0.88584848738E+02 0.  0.
        -24    2    1    2    0    0 -0.11238693192E+03 -0.27370240980E+02 -0.19777529176E+03  0.24225432330E+03  0.78690142761E+02 0.  0.
         13    1    4    4    0    0 -0.29431149535E+02 -0.18068512108E+02 -0.87628909539E+01  0.35629369214E+02  0.00000000000E+00 0. -1.
        -14    1    4    4    0    0 -0.82955782381E+02 -0.93017288720E+01 -0.18901240081E+03  0.20662495408E+03  0.00000000000E+00 0.  1.
        -11    1    3    3    0    0 -0.74870396115E+02  0.60250015552E+02 -0.11071218115E+03  0.14660432341E+03  0.00000000000E+00 0.  1.
         11    1    3    3    0    0  0.21135406620E+02  0.43770801021E+01 -0.56240652331E+02  0.60240146230E+02  0.00000000000E+00 0. -1.
         -3    1    1    2    0  502  0.16612192141E+03 -0.37256854674E+02 -0.15618639942E+03  0.23103843264E+03  0.00000000000E+00 0.  1.
<scales pt_clust_5="13000.00000" pt_clust_6="13000.00000" pt_clust_7="13000.00000" pt_clust_8="13000.00000" pt_clust_9="13000.00000"></scales>
<clustering>
<clus scale="   78.690">  5  6 -1 -1</clus>
<clus scale="   88.585">  7  8 -1 -1</clus>
<clus scale="  122.112">  2  7  1 -1</clus>
<clus scale="  141.143">  5  9 -1 -1</clus>
<clus scale="  314.193">  1  5  2 -1</clus>
</clustering>
</event>
<event>
 9    1  0.2728138E-005  0.4794029E+03  0.7546771E-02  0.1020562E+00
         21   -1    0    0  501  502  0.00000000000E+00  0.00000000000E+00  0.82566772841E+02  0.82566772841E+02  0.00000000000E+00 0. -1.
          1   -1    0    0  502    0 -0.00000000000E+00 -0.00000000000E+00 -0.32723286302E+04  0.32723286302E+04  0.00000000000E+00 0. -1.
         23    2    1    2    0    0  0.43352581679E+03  0.13030138267E+03 -0.22834077914E+04  0.23295638344E+04  0.89405998311E+02 0.  0.
        -24    2    1    2    0    0 -0.32626679444E+03 -0.96319794928E+02 -0.78569322249E+03  0.86035191739E+03  0.84640757616E+02 0.  0.
         11    1    4    4    0    0 -0.28236135303E+03 -0.11146711674E+03 -0.69686610651E+03  0.76011526903E+03  0.00000000000E+00 0. -1.
        -12    1    4    4    0    0 -0.43905441411E+02  0.15147321813E+02 -0.88827115972E+02  0.10023664836E+03  0.00000000000E+00 0.  1.
        -13    1    3    3    0    0  0.59709913564E+02  0.81373828690E+01 -0.18332800999E+03  0.19297836673E+03  0.00000000000E+00 0.  1.
         13    1    3    3    0    0  0.37381590322E+03  0.12216399980E+03 -0.21000797814E+04  0.21365854676E+04  0.00000000000E+00 0. -1.
          2    1    1    2  501    0 -0.10725902235E+03 -0.33981587742E+02 -0.12066084346E+03  0.16497965125E+03  0.00000000000E+00 0. -1.
<scales pt_clust_5="13000.00000" pt_clust_6="13000.00000" pt_clust_7="13000.00000" pt_clust_8="13000.00000" pt_clust_9="13000.00000"></scales>
<clustering>
<clus scale="   84.641">  5  6 -1 -1</clus>
<clus scale="   89.406">  7  8 -1 -1</clus>
<clus scale="  112.513">  5  9 -1 -1</clus>
<clus scale="  461.429">  2  7  1 -1</clus>
<clus scale="  479.403">  1  5  2 -1</clus>
</clustering>
</event>
<event>
 9    1  0.2728138E-005  0.1503973E+03  0.7546771E-02  0.1216356E+00
         21   -1    0    0  501  502  0.00000000000E+00  0.00000000000E+00  0.15545451317E+02  0.15545451317E+02  0.00000000000E+00 0. -1.
          1   -1    0    0  502    0 -0.00000000000E+00 -0.00000000000E+00 -0.11120427198E+04  0.11120427198E+04  0.00000000000E+00 0. -1.
         23    2    1    2    0    0  0.34239352707E+02  0.48353587579E+02 -0.58204404427E+03  0.59160173151E+03  0.87789159618E+02 0.  0.
        -24    2    1    2    0    0  0.14346604811E+02 -0.25301834316E+01 -0.25075157809E+03  0.26395898180E+03  0.81152715665E+02 0.  0.
         11    1    4    4    0    0  0.34333018579E+02  0.92686567813E+01 -0.47245766213E+02  0.59133971525E+02  0.00000000000E+00 0. -1.
        -12    1    4    4    0    0 -0.19986413768E+02 -0.11798840213E+02 -0.20350581188E+03  0.20482501027E+03  0.00000000000E+00 0.  1.
        -11    1    3    3    0    0 -0.29875798260E+02  0.12868495694E+02 -0.19117476543E+03  0.19392254238E+03  0.00000000000E+00 0.  1.
         11    1    3    3    0    0  0.64115150967E+02  0.35485091886E+02 -0.39086927883E+03  0.39767918913E+03  0.00000000000E+00 0. -1.
          2    1    1    2  501    0 -0.48585957518E+02 -0.45823404148E+02 -0.26370164612E+03  0.27202745781E+03  0.00000000000E+00 0. -1.
<scales pt_clust_5="13000.00000" pt_clust_6="13000.00000" pt_clust_7="13000.00000" pt_clust_8="13000.00000" pt_clust_9="13000.00000"></scales>
<clustering>
<clus scale="   81.153">  5  6 -1 -1</clus>
<clus scale="   66.786">  5  9 -1 -1</clus>
<clus scale="   87.789">  7  8 -1 -1</clus>
<clus scale="  105.912">  2  7  1 -1</clus>
<clus scale="  150.397">  1  5  2 -1</clus>
</clustering>
</event>
<event>
 9    1  0.2728138E-005  0.3590181E+03  0.7546771E-02  0.1083029E+00
         21   -1    0    0  501  502  0.00000000000E+00  0.00000000000E+00  0.67814246620E+02  0.67814246620E+02  0.00000000000E+00 0. -1.
          1   -1    0    0  502    0 -0.00000000000E+00 -0.00000000000E+00 -0.11380306264E+04  0.11380306264E+04  0.00000000000E+00 0. -1.
         23    2    1    2    0    0  0.14798252157E+03 -0.65379217017E+02 -0.25858252312E+03  0.31835204529E+03  0.91158295134E+02 0.  0.
        -24    2    1    2    0    0  0.25610296116E+02 -0.68057664728E+02 -0.11886008441E+03  0.16094250787E+03  0.80542151570E+02 0.  0.
         13    1    4    4    0    0  0.47355667011E+01 -0.74700083495E+02 -0.53486755185E+02  0.91996527360E+02  0.00000000000E+00 0. -1.
        -14    1    4    4    0    0  0.20874729415E+02  0.66424187667E+01 -0.65373329221E+02  0.68945980511E+02  0.00000000000E+00 0.  1.
        -13    1    3    3    0    0  0.70588942892E+02 -0.22206400795E+02 -0.43765247364E+02  0.85972786228E+02  0.00000000000E+00 0.  1.
         13    1    3    3    0    0  0.77393578674E+02 -0.43172816222E+02 -0.21481727575E+03  0.23237925906E+03  0.00000000000E+00 0. -1.
          2    1    1    2  501    0 -0.17359281768E+03  0.13343688175E+03 -0.69277377227E+03  0.72655031987E+03  0.00000000000E+00 0. -1.
<scales pt_clust_5="13000.00000" pt_clust_6="13000.00000" pt_clust_7="13000.00000" pt_clust_8="13000.00000" pt_clust_9="13000.00000"></scales>
<clustering>
<clus scale="   80.542">  5  6 -1 -1</clus>
<clus scale="   91.158">  7  8 -1 -1</clus>
<clus scale="  185.696">  2  7  1 -1</clus>
<clus scale="   93.334">  5  9 -1 -1</clus>
<clus scale="  359.018">  1  5  2 -1</clus>
</clustering>
</event>
<event>
 9    1  0.2728138E-005  0.4522718E+03  0.7546771E-02  0.1060284E+00
          1   -1    0    0  502    0 -0.00000000000E+00  0.00000000000E+00  0.81083142207E+03  0.81083142207E+03  0.00000000000E+00 0. -1.
         21   -1    0    0  501  502  0.00000000000E+00 -0.00000000000E+00 -0.18046487438E+03  0.18046487438E+03  0.00000000000E+00 0. -1.
         23    2    1    2    0    0 -0.85816512837E+02 -0.89388291249E+02  0.48698890359E+03  0.51684190778E+03  0.12088269078E+03 0.  0.
        -24    2    1    2    0    0  0.13753508188E+03 -0.13696471121E+03  0.11434415784E+03  0.24045986858E+03  0.84090017833E+02 0.  0.
         13    1    4    4    0    0  0.79299656838E+02 -0.11088340427E+03  0.39132120867E+02  0.14182696429E+03  0.00000000000E+00 0. -1.
        -14    1    4    4    0    0  0.58235425041E+02 -0.26081306938E+02  0.75212036974E+02  0.98632904282E+02  0.00000000000E+00 0.  1.
        -11    1    3    3    0    0 -0.76434073959E+02 -0.62783595681E+01  0.13706892048E+03  0.15706519164E+03  0.00000000000E+00 0.  1.
         11    1    3    3    0    0 -0.93824388784E+01 -0.83109931680E+02  0.34991998311E+03  0.35977671615E+03  0.00000000000E+00 0. -1.
          2    1    1    2  501    0 -0.51718569041E+02  0.22635300246E+03  0.29033486260E+02  0.23399452009E+03  0.00000000000E+00 0. -1.
<scales pt_clust_5="13000.00000" pt_clust_6="13000.00000" pt_clust_7="13000.00000" pt_clust_8="13000.00000" pt_clust_9="13000.00000"></scales>
<clustering>
<clus scale="   84.090">  5  6 -1 -1</clus>
<clus scale="  120.883">  7  8 -1 -1</clus>
<clus scale="  173.111">  1  7  2 -1</clus>
<clus scale="  207.954">  5  9 -1 -1</clus>
<clus scale="  452.272">  2  5  1 -1</clus>
</clustering>
</event>
<event>
 9    1  0.2728138E-005  0.4561722E+03  0.7546771E-02  0.1039960E+00
          1   -1    0    0  502    0 -0.00000000000E+00  0.00000000000E+00  0.10930794038E+04  0.10930794038E+04  0.00000000000E+00 0. -1.
         21   -1    0    0  501  502  0.00000000000E+00 -0.00000000000E+00 -0.16200810446E+03  0.16200810446E+03  0.00000000000E+00 0. -1.
         23    2    1    2    0    0 -0.94972578013E+02  0.27041079689E+03  0.65735066286E+03  0.72309493352E+03  0.92814865538E+02 0.  0.
        -24    2    1    2    0    0 -0.24855855912E+01  0.65010254657E+02  0.37801630911E+02  0.11049150398E+03  0.80912902599E+02 0.  0.
         11    1    4    4    0    0 -0.32040007620E+01  0.71033223800E+02 -0.11058489977E+01  0.71114045071E+02  0.00000000000E+00 0. -1.
        -12    1    4    4    0    0  0.71841517081E+00 -0.60229691439E+01  0.38907479909E+02  0.39377458914E+02  0.00000000000E+00 0.  1.
        -11    1    3    3    0    0  0.18029235940E+02  0.39203367873E+02  0.11366134595E+03  0.12157655598E+03  0.00000000000E+00 0.  1.
         11    1    3    3    0    0 -0.11300181395E+03  0.23120742902E+03  0.54368931691E+03  0.60151837754E+03  0.00000000000E+00 0. -1.
          2    1    1    2  501    0  0.97458163604E+02 -0.33542105155E+03  0.23591900560E+03  0.42150107079E+03  0.00000000000E+00 0. -1.
<scales pt_clust_5="13000.00000" pt_clust_6="13000.00000" pt_clust_7="13000.00000" pt_clust_8="13000.00000" pt_clust_9="13000.00000"></scales>
<clustering>
<clus scale="   80.913">  5  6 -1 -1</clus>
<clus scale="   92.815">  7  8 -1 -1</clus>
<clus scale="  301.258">  1  7  2 -1</clus>
<clus scale="  116.503">  5  9 -1 -1</clus>
<clus scale="  456.172">  2  5  1 -1</clus>
</clustering>
</event>
<event>
 9    1  0.2728138E-005  0.5078331E+03  0.7546771E-02  0.1058661E+00
          1   -1    0    0  502    0 -0.00000000000E+00  0.00000000000E+00  0.23867737807E+03  0.23867737807E+03  0.00000000000E+00 0. -1.
         21   -1    0    0  501  502  0.00000000000E+00 -0.00000000000E+00 -0.64138356114E+03  0.64138356114E+03  0.00000000000E+00 0. -1.
         23    2    1    2    0    0 -0.74200934273E+02 -0.48670965953E+02  0.10233023975E+03  0.16385133373E+03  0.92201627018E+02 0.  0.
        -24    2    1    2    0    0  0.13572112734E+03 -0.15847441248E+03 -0.43504032226E+03  0.48906780823E+03  0.79955457889E+02 0.  0.
         13    1    4    4    0    0  0.93715909146E+02 -0.52581479592E+02 -0.17813526463E+03  0.20803763152E+03  0.00000000000E+00 0. -1.
        -14    1    4    4    0    0  0.42005218190E+02 -0.10589293289E+03 -0.25690505763E+03  0.28103017672E+03  0.00000000000E+00 0.  1.
        -11    1    3    3    0    0 -0.89691118418E+02 -0.30204644873E+02  0.10281743727E+03  0.13974348894E+03  0.00000000000E+00 0. -1.
         11    1    3    3    0    0  0.15490184144E+02 -0.18466321080E+02 -0.48719751847E+00  0.24107844791E+02  0.00000000000E+00 0.  1.
          2    1    1    2  501    0 -0.61520193063E+02  0.20714537843E+03 -0.69996100565E+02  0.22714179724E+03  0.00000000000E+00 0. -1.
<scales pt_clust_5="13000.00000" pt_clust_6="13000.00000" pt_clust_7="13000.00000" pt_clust_8="13000.00000" pt_clust_9="13000.00000"></scales>
<clustering>
<clus scale="   79.955">  5  6 -1 -1</clus>
<clus scale="   92.202">  7  8 -1 -1</clus>
<clus scale="  127.968">  1  7  2 -1</clus>
<clus scale="  206.987">  5  9 -1 -1</clus>
<clus scale="  507.833">  2  5  1 -1</clus>
</clustering>
</event>
<event>
 9    1  0.2728138E-005  0.6351118E+03  0.7546771E-02  0.1041520E+00
          3   -1    0    0  502    0 -0.00000000000E+00  0.00000000000E+00  0.61260135418E+02  0.61260135418E+02  0.00000000000E+00 0. -1.
         21   -1    0    0  501  502  0.00000000000E+00 -0.00000000000E+00 -0.22457569131E+04  0.22457569131E+04  0.00000000000E+00 0. -1.
         23    2    1    2    0    0 -0.31699889743E+02 -0.44990856835E+02 -0.32125432071E+03  0.33850507040E+03  0.91390830526E+02 0.  0.
        -24    2    1    2    0    0  0.27621964013E+03  0.77695324959E+01 -0.15110668516E+04  0.15381598057E+04  0.79087941728E+02 0.  0.
         11    1    4    4    0    0  0.25256697995E+03  0.14403147961E+02 -0.12139452725E+04  0.12400244572E+04  0.00000000000E+00 0. -1.
        -12    1    4    4    0    0  0.23652660187E+02 -0.66336154654E+01 -0.29712157917E+03  0.29813534845E+03  0.00000000000E+00 0.  1.
        -13    1    3    3    0    0 -0.63569015540E+02 -0.24036293163E+02 -0.18834616985E+03  0.20023247195E+03  0.00000000000E+00 0. -1.
         13    1    3    3    0    0  0.31869125797E+02 -0.20954563673E+02 -0.13290815086E+03  0.13827259845E+03  0.00000000000E+00 0.  1.
          4    1    1    2  501    0 -0.24451975039E+03  0.37221324340E+02 -0.35217560538E+03  0.43035217246E+03  0.00000000000E+00 0. -1.
<scales pt_clust_5="13000.00000" pt_clust_6="13000.00000" pt_clust_7="13000.00000" pt_clust_8="13000.00000" pt_clust_9="13000.00000"></scales>
<clustering>
<clus scale="   79.088">  5  6 -1 -1</clus>
<clus scale="   91.391">  7  8 -1 -1</clus>
<clus scale="  106.683">  1  7  2 -1</clus>
<clus scale="  268.088">  5  9 -1 -1</clus>
<clus scale="  635.112">  2  5  1 -1</clus>
</clustering>
</event>
<event>
 9    1  0.2728138E-005  0.2978771E+03  0.7546771E-02  0.1100624E+00
         21   -1    0    0  501  502  0.00000000000E+00  0.00000000000E+00  0.67719484635E+02  0.67719484635E+02  0.00000000000E+00 0. -1.
          3   -1    0    0  502    0 -0.00000000000E+00 -0.00000000000E+00 -0.93735878642E+03  0.93735878642E+03  0.00000000000E+00 0. -1.
         23    2    1    2    0    0  0.17945572696E+03 -0.35928642337E+02 -0.31632108465E+03  0.37667407713E+03  0.91263938715E+02 0.  0.
        -24    2    1    2    0    0 -0.21317096751E+02  0.70834038173E+02 -0.10604559717E+03  0.15271626093E+03  0.81269355209E+02 0.  0.
         13    1    4    4    0    0 -0.48706775498E+02  0.24003017871E+02 -0.64937557578E+02  0.84648574887E+02  0.00000000000E+00 0. -1.
        -14    1    4    4    0    0  0.27389678746E+02  0.46831020302E+02 -0.41108039593E+02  0.68067686045E+02  0.00000000000E+00 0.  1.
        -13    1    3    3    0    0  0.26941243406E+02 -0.16472314633E+02 -0.86752259011E+01  0.32747935661E+02  0.00000000000E+00 0.  1.
         13    1    3    3    0    0  0.15251448356E+03 -0.19456327704E+02 -0.30764585875E+03  0.34392614147E+03  0.00000000000E+00 0. -1.
          4    1    1    2  501    0 -0.15813863021E+03 -0.34905395836E+02 -0.44727261997E+03  0.47568793299E+03  0.00000000000E+00 0. -1.
<scales pt_clust_5="13000.00000" pt_clust_6="13000.00000" pt_clust_7="13000.00000" pt_clust_8="13000.00000" pt_clust_9="13000.00000"></scales>
<clustering>
<clus scale="   81.269">  5  6 -1 -1</clus>
<clus scale="   91.264">  7  8 -1 -1</clus>
<clus scale="  161.945">  5  9 -1 -1</clus>
<clus scale="  204.510">  2  7  1 -1</clus>
<clus scale="  297.877">  1  5  2 -1</clus>
</clustering>
</event>
<event>
 9    1  0.2728138E-005  0.3339123E+03  0.7546771E-02  0.1118723E+00
          1   -1    0    0  502    0 -0.00000000000E+00  0.00000000000E+00  0.98247707035E+03  0.98247707035E+03  0.00000000000E+00 0. -1.
         21   -1    0    0  501  502  0.00000000000E+00 -0.00000000000E+00 -0.50716276209E+02  0.50716276209E+02  0.00000000000E+00 0. -1.
         23    2    1    2    0    0  0.19711961848E+02  0.55330507245E+01  0.35631991865E+03  0.36788916690E+03  0.89215349622E+02 0.  0.
        -24    2    1    2    0    0  0.96710322572E+02  0.92567460429E+02  0.41848873466E+03  0.44664500855E+03  0.80232919682E+02 0.  0.
         13    1    4    4    0    0  0.99615974407E+02  0.95554216718E+02  0.32545373385E+03  0.35351673732E+03  0.00000000000E+00 0. -1.
        -14    1    4    4    0    0 -0.29056518350E+01 -0.29867562895E+01  0.93035000813E+02  0.93128271228E+02  0.00000000000E+00 0.  1.
        -11    1    3    3    0    0  0.50796318101E+02 -0.15436857368E+02  0.18217811496E+03  0.18975623328E+03  0.00000000000E+00 0.  1.
         11    1    3    3    0    0 -0.31084356253E+02  0.20969908093E+02  0.17414180369E+03  0.17813293362E+03  0.00000000000E+00 0. -1.
          2    1    1    2  501    0 -0.11642228442E+03 -0.98100511153E+02  0.15695214083E+03  0.21865917111E+03  0.00000000000E+00 0. -1.
<scales pt_clust_5="13000.00000" pt_clust_6="13000.00000" pt_clust_7="13000.00000" pt_clust_8="13000.00000" pt_clust_9="13000.00000"></scales>
<clustering>
<clus scale="   80.233">  5  6 -1 -1</clus>
<clus scale="   89.215">  7  8 -1 -1</clus>
<clus scale="   91.534">  1  7  2 -1</clus>
<clus scale="  146.623">  5  9 -1 -1</clus>
<clus scale="  333.912">  2  5  1 -1</clus>
</clustering>
</event>
<event>
 9    1  0.2728138E-005  0.2422590E+03  0.7546771E-02  0.1128545E+00
         21   -1    0    0  501  502  0.00000000000E+00  0.00000000000E+00  0.90306971631E+02  0.90306971631E+02  0.00000000000E+00 0.  1.
         -2   -1    0    0    0  501 -0.00000000000E+00 -0.00000000000E+00 -0.51209300620E+03  0.51209300620E+03  0.00000000000E+00 0.  1.
         23    2    1    2    0    0 -0.13085160329E+03  0.99054991610E+02 -0.17955576934E+03  0.25981434079E+03  0.91264362869E+02 0.  0.
        -24    2    1    2    0    0  0.89414916848E+02  0.14459733945E+02 -0.11033493605E+03  0.16370307848E+03  0.80129822966E+02 0.  0.
         11    1    4    4    0    0  0.46365590536E+02 -0.93768077095E+01 -0.10379014881E+03  0.11406177054E+03  0.00000000000E+00 0. -1.
        -12    1    4    4    0    0  0.43049326312E+02  0.23836541654E+02 -0.65447872456E+01  0.49641307940E+02  0.00000000000E+00 0.  1.
        -11    1    3    3    0    0 -0.41659318643E+02 -0.10727604617E+02 -0.22843979622E+02  0.48707573698E+02  0.00000000000E+00 0. -1.
         11    1    3    3    0    0 -0.89192284645E+02  0.10978259623E+03 -0.15671178972E+03  0.21110676709E+03  0.00000000000E+00 0.  1.
         -1    1    1    2    0  502  0.41436686440E+02 -0.11351472555E+03 -0.13189532918E+03  0.17888255857E+03  0.00000000000E+00 0.  1.
<scales pt_clust_5="13000.00000" pt_clust_6="13000.00000" pt_clust_7="13000.00000" pt_clust_8="13000.00000" pt_clust_9="13000.00000"></scales>
<clustering>
<clus scale="   80.130">  5  6 -1 -1</clus>
<clus scale="   91.264">  7  8 -1 -1</clus>
<clus scale="  120.841">  5  9 -1 -1</clus>
<clus scale="  187.785">  2  7  1 -1</clus>
<clus scale="  242.259">  1  5  2 -1</clus>
</clustering>
</event>
<event>
 9    1  0.2728138E-005  0.3218752E+03  0.7546771E-02  0.1115349E+00
         21   -1    0    0  501  502  0.00000000000E+00  0.00000000000E+00  0.91109218416E+02  0.91109218416E+02  0.00000000000E+00 0. -1.
          1   -1    0    0  502    0 -0.00000000000E+00 -0.00000000000E+00 -0.55241332452E+03  0.55241332452E+03  0.00000000000E+00 0. -1.
         23    2    1    2    0    0  0.66361868482E+02  0.15027705775E+01 -0.20032357475E+03  0.22913808011E+03  0.89266842923E+02 0.  0.
        -24    2    1    2    0    0 -0.48374255419E+02  0.13746582839E+03 -0.69723879571E+02  0.17728757847E+03  0.73024266769E+02 0.  0.
         13    1    4    4    0    0 -0.53360669918E+02  0.13783614041E+03 -0.48614553127E+02  0.15559414344E+03  0.00000000000E+00 0. -1.
        -14    1    4    4    0    0  0.49864144990E+01 -0.37031202511E+00 -0.21109326443E+02  0.21693435031E+02  0.00000000000E+00 0.  1.
        -11    1    3    3    0    0  0.88721083085E+02  0.32958683548E+01 -0.16196913676E+03  0.18470596795E+03  0.00000000000E+00 0. -1.
         11    1    3    3    0    0 -0.22359214603E+02 -0.17930977773E+01 -0.38354437990E+02  0.44432112158E+02  0.00000000000E+00 0.  1.
          2    1    1    2  501    0 -0.17987613063E+02 -0.13896859896E+03 -0.19125665178E+03  0.23709688436E+03  0.00000000000E+00 0. -1.
<scales pt_clust_5="13000.00000" pt_clust_6="13000.00000" pt_clust_7="13000.00000" pt_clust_8="13000.00000" pt_clust_9="13000.00000"></scales>
<clustering>
<clus scale="   73.024">  5  6 -1 -1</clus>
<clus scale="   89.267">  7  8 -1 -1</clus>
<clus scale="  111.242">  2  7  1 -1</clus>
<clus scale="  140.104">  5  9 -1 -1</clus>
<clus scale="  321.875">  1  5  2 -1</clus>
</clustering>
</event>
<event>
 9    1  0.2728138E-005  0.1297104E+03  0.7546771E-02  0.1244425E+00
          1   -1    0    0  502    0 -0.00000000000E+00  0.00000000000E+00  0.44294574666E+03  0.44294574666E+03  0.00000000000E+00 0. -1.
         21   -1    0    0  501  502  0.00000000000E+00 -0.00000000000E+00 -0.28439847261E+02  0.28439847261E+02  0.00000000000E+00 0. -1.
         23    2    1    2    0    0 -0.32126430021E+01 -0.83387071446E+01  0.20615688805E+03  0.22595922080E+03  0.92070906708E+02 0.  0.
        -24    2    1    2    0    0 -0.35897383865E+02 -0.67497443191E+01  0.15758093068E+03  0.17958828700E+03  0.78012959805E+02 0.  0.
         13    1    4    4    0    0 -0.47726216241E+02  0.10700744769E+02  0.49939103932E+02  0.69901443167E+02  0.00000000000E+00 0. -1.
        -14    1    4    4    0    0  0.11828832376E+02 -0.17450489089E+02  0.10764182675E+03  0.10968684383E+03  0.00000000000E+00 0.  1.
        -13    1    3    3    0    0 -0.82245496233E+01 -0.48889122591E+02  0.13622774191E+03  0.14496822821E+03  0.00000000000E+00 0.  1.
         13    1    3    3    0    0  0.50119066211E+01  0.40550415447E+02  0.69929146138E+02  0.80990992588E+02  0.00000000000E+00 0. -1.
          2    1    1    2  501    0  0.39110026867E+02  0.15088451464E+02  0.50768080669E+02  0.65838086120E+02  0.00000000000E+00 0. -1.
<scales pt_clust_5="13000.00000" pt_clust_6="13000.00000" pt_clust_7="13000.00000" pt_clust_8="13000.00000" pt_clust_9="13000.00000"></scales>
<clustering>
<clus scale="   78.013">  5  6 -1 -1</clus>
<clus scale="   41.920">  5  9 -1 -1</clus>
<clus scale="   92.071">  7  8 -1 -1</clus>
<clus scale="   92.504">  1  7  2 -1</clus>
<clus scale="  129.710">  2  5  1 -1</clus>
</clustering>
</event>
<event>
 9    1  0.2728138E-005  0.2529990E+03  0.7546771E-02  0.1152745E+00
          1   -1    0    0  502    0 -0.00000000000E+00  0.00000000000E+00  0.61899342426E+03  0.61899342426E+03  0.00000000000E+00 0. -1.
         21   -1    0    0  501  502  0.00000000000E+00 -0.00000000000E+00 -0.73788219960E+02  0.73788219960E+02  0.00000000000E+00 0. -1.
         23    2    1    2    0    0 -0.12872655792E+02  0.30966110439E+02  0.37914420938E+03  0.39015190981E+03  0.85694667042E+02 0.  0.
        -24    2    1    2    0    0 -0.93883108033E+02  0.59766786757E+01  0.32472868414E+02  0.12768016933E+03  0.79987372729E+02 0.  0.
         11    1    4    4    0    0 -0.71650891416E+02  0.20912461357E+02 -0.12163425834E+02  0.75624931132E+02  0.00000000000E+00 0. -1.
        -12    1    4    4    0    0 -0.22232216616E+02 -0.14935782681E+02  0.44636294248E+02  0.52055238201E+02  0.00000000000E+00 0.  1.
        -11    1    3    3    0    0  0.35290651136E+02  0.20530059251E+01  0.12718046104E+03  0.13200194908E+03  0.00000000000E+00 0.  1.
         11    1    3    3    0    0 -0.48163306928E+02  0.28913104514E+02  0.25196374834E+03  0.25814996072E+03  0.00000000000E+00 0. -1.
          2    1    1    2  501    0  0.10675576382E+03 -0.36942789115E+02  0.13358812651E+03  0.17494956508E+03  0.00000000000E+00 0. -1.
<scales pt_clust_5="13000.00000" pt_clust_6="13000.00000" pt_clust_7="13000.00000" pt_clust_8="13000.00000" pt_clust_9="13000.00000"></scales>
<clustering>
<clus scale="   79.987">  5  6 -1 -1</clus>
<clus scale="   85.695">  7  8 -1 -1</clus>
<clus scale="   92.023">  1  7  2 -1</clus>
<clus scale="   99.667">  5  9 -1 -1</clus>
<clus scale="  252.999">  2  5  1 -1</clus>
</clustering>
</event>
<event>
 9    1  0.2728138E-005  0.3136867E+03  0.7546771E-02  0.1118449E+00
         21   -1    0    0  501  502  0.00000000000E+00  0.00000000000E+00  0.56836164781E+03  0.56836164781E+03  0.00000000000E+00 0.  1.
          3   -1    0    0  502    0 -0.00000000000E+00 -0.00000000000E+00 -0.23532075086E+03  0.23532075086E+03  0.00000000000E+00 0. -1.
         23    2    1    2    0    0  0.50508973668E+02 -0.28624434461E+02  0.45405282570E+03  0.46746341017E+03  0.94802724927E+02 0.  0.
        -24    2    1    2    0    0  0.10961183713E+03  0.61573258683E+02 -0.52247471998E+02  0.15886947600E+03  0.81876071297E+02 0.  0.
         13    1    4    4    0    0  0.41315315239E+02  0.60911313003E+02 -0.12170669536E+01  0.73611307399E+02  0.00000000000E+00 0. -1.
        -14    1    4    4    0    0  0.68296521894E+02  0.66194568065E+00 -0.51030405045E+02  0.85258168605E+02  0.00000000000E+00 0.  1.
        -11    1    3    3    0    0  0.14841754627E+02  0.29463919686E+02  0.69706999884E+02  0.77119816367E+02  0.00000000000E+00 0. -1.
         11    1    3    3    0    0  0.35667219041E+02 -0.58088354147E+02  0.38434582582E+03  0.39034359381E+03  0.00000000000E+00 0.  1.
          4    1    1    2  501    0 -0.16012081080E+03 -0.32948824223E+02 -0.68764456755E+02  0.17734951249E+03  0.00000000000E+00 0. -1.
<scales pt_clust_5="13000.00000" pt_clust_6="13000.00000" pt_clust_7="13000.00000" pt_clust_8="13000.00000" pt_clust_9="13000.00000"></scales>
<clustering>
<clus scale="   81.876">  5  6 -1 -1</clus>
<clus scale="   94.803">  7  8 -1 -1</clus>
<clus scale="  111.167">  2  7  1 -1</clus>
<clus scale="  141.455">  5  9 -1 -1</clus>
<clus scale="  313.687">  1  5  2 -1</clus>
</clustering>
</event>
<event>
 9    1  0.2728138E-005  0.2375263E+03  0.7546771E-02  0.1152747E+00
          1   -1    0    0  502    0 -0.00000000000E+00  0.00000000000E+00  0.22923015009E+03  0.22923015009E+03  0.00000000000E+00 0. -1.
         21   -1    0    0  501  502  0.00000000000E+00 -0.00000000000E+00 -0.13957100843E+03  0.13957100843E+03  0.00000000000E+00 0. -1.
         23    2    1    2    0    0  0.44386605731E+02 -0.47388161869E+02  0.67876277945E+02  0.13027816568E+03  0.90274042177E+02 0.  0.
        -24    2    1    2    0    0  0.22267329050E+02 -0.35459621372E+02 -0.56433085699E+02  0.10652209531E+03  0.80056510892E+02 0.  0.
         11    1    4    4    0    0  0.10494231106E+02 -0.26390050195E+02 -0.76471093763E+02  0.81574455665E+02  0.00000000000E+00 0. -1.
        -12    1    4    4    0    0  0.11773097944E+02 -0.90695711778E+01  0.20038008063E+02  0.24947639642E+02  0.00000000000E+00 0.  1.
        -13    1    3    3    0    0 -0.20118057241E+02  0.11896448822E+02  0.11053002256E+02  0.25854024456E+02  0.00000000000E+00 0.  1.
         13    1    3    3    0    0  0.64504662971E+02 -0.59284610690E+02  0.56823275689E+02  0.10442414122E+03  0.00000000000E+00 0. -1.
          2    1    1    2  501    0 -0.66653934781E+02  0.82847783241E+02  0.78215949411E+02  0.13200089754E+03  0.00000000000E+00 0. -1.
<scales pt_clust_5="13000.00000" pt_clust_6="13000.00000" pt_clust_7="13000.00000" pt_clust_8="13000.00000" pt_clust_9="13000.00000"></scales>
<clustering>
<clus scale="   80.057">  5  6 -1 -1</clus>
<clus scale="   90.274">  7  8 -1 -1</clus>
<clus scale="  106.332">  5  9 -1 -1</clus>
<clus scale="  111.199">  1  7  2 -1</clus>
<clus scale="  237.526">  2  5  1 -1</clus>
</clustering>
</event>
<event>
 9    1  0.2728138E-005  0.4748587E+03  0.7546771E-02  0.1070198E+00
         21   -1    0    0  501  502  0.00000000000E+00  0.00000000000E+00  0.92934326890E+02  0.92934326890E+02  0.00000000000E+00 0.  1.
          1   -1    0    0  502    0 -0.00000000000E+00 -0.00000000000E+00 -0.10173631299E+04  0.10173631299E+04  0.00000000000E+00 0. -1.
         23    2    1    2    0    0 -0.66468468289E+02 -0.11900416104E+02 -0.72008585822E+02  0.13453568157E+03  0.91405339027E+02 0.  0.
        -24    2    1    2    0    0  0.18543033914E+03 -0.16253067701E+03 -0.39460360337E+03  0.47160487024E+03  0.76801811165E+02 0.  0.
         11    1    4    4    0    0  0.48865467873E+02 -0.19289686554E+02 -0.13719461678E+03  0.14690911759E+03  0.00000000000E+00 0. -1.
        -12    1    4    4    0    0  0.13656487126E+03 -0.14324099045E+03 -0.25740898659E+03  0.32469575264E+03  0.00000000000E+00 0.  1.
        -13    1    3    3    0    0  0.11373639032E+02 -0.27120827831E+02 -0.38461517339E+02  0.48416807857E+02  0.00000000000E+00 0.  1.
         13    1    3    3    0    0 -0.77842107321E+02  0.15220411728E+02 -0.33547068483E+02  0.86118873710E+02  0.00000000000E+00 0. -1.
          2    1    1    2  501    0 -0.11896187085E+03  0.17443109311E+03 -0.45781661385E+03  0.50415690502E+03  0.00000000000E+00 0. -1.
<scales pt_clust_5="13000.00000" pt_clust_6="13000.00000" pt_clust_7="13000.00000" pt_clust_8="13000.00000" pt_clust_9="13000.00000"></scales>
<clustering>
<clus scale="   76.802">  5  6 -1 -1</clus>
<clus scale="   91.405">  7  8 -1 -1</clus>
<clus scale="  113.643">  2  7  1 -1</clus>
<clus scale="  227.986">  5  9 -1 -1</clus>
<clus scale="  474.859">  1  5  2 -1</clus>
</clustering>
</event>
<event>
 9    1  0.2728138E-005  0.1419785E+03  0.7546771E-02  0.1227188E+00
         21   -1    0    0  501  502  0.00000000000E+00  0.00000000000E+00  0.12604732164E+03  0.12604732164E+03  0.00000000000E+00 0. -1.
          1   -1    0    0  502    0 -0.00000000000E+00 -0.00000000000E+00 -0.11847192238E+03  0.11847192238E+03  0.00000000000E+00 0. -1.
         23    2    1    2    0    0 -0.14356139500E+02 -0.33460128063E+02 -0.12511048174E+02  0.10112691745E+03  0.93511754319E+02 0.  0.
        -24    2    1    2    0    0  0.32876724999E+01 -0.14450379196E+02  0.24961640361E+02  0.93978814513E+02  0.89382950491E+02 0.  0.
         11    1    4    4    0    0  0.29189862352E+00 -0.27499035185E+02  0.54778530681E+02  0.61294123409E+02  0.00000000000E+00 0. -1.
        -12    1    4    4    0    0  0.29957738763E+01  0.13048655989E+02 -0.29816890320E+02  0.32684691104E+02  0.00000000000E+00 0.  1.
        -11    1    3    3    0    0  0.39203052459E+02 -0.15224837438E+02 -0.14578552955E+02  0.44510776261E+02  0.00000000000E+00 0.  1.
         11    1    3    3    0    0 -0.53559191959E+02 -0.18235290625E+02  0.20675047808E+01  0.56616141192E+02  0.00000000000E+00 0. -1.
          2    1    1    2  501    0  0.11068467000E+02  0.47910507260E+02 -0.48751929295E+01  0.49413512056E+02  0.00000000000E+00 0. -1.
<scales pt_clust_5="13000.00000" pt_clust_6="13000.00000" pt_clust_7="13000.00000" pt_clust_8="13000.00000" pt_clust_9="13000.00000"></scales>
<clustering>
<clus scale="   89.383">  5  6 -1 -1</clus>
<clus scale="   49.172">  5  9 -1 -1</clus>
<clus scale="   93.512">  7  8 -1 -1</clus>
<clus scale="  100.350">  2  7  1 -1</clus>
<clus scale="  141.978">  1  5  2 -1</clus>
</clustering>
</event>
<event>
 9    1  0.2728138E-005  0.5453767E+03  0.7546771E-02  0.1018323E+00
          1   -1    0    0  502    0 -0.00000000000E+00  0.00000000000E+00  0.10413712911E+04  0.10413712911E+04  0.00000000000E+00 0. -1.
         21   -1    0    0  501  502  0.00000000000E+00 -0.00000000000E+00 -0.20007039646E+03  0.20007039646E+03  0.00000000000E+00 0. -1.
         23    2    1    2    0    0  0.19165036699E+03 -0.25985774793E+03  0.16849981260E+03  0.37536027066E+03  0.90814280916E+02 0.  0.
        -24    2    1    2    0    0 -0.32312195349E+02 -0.98789669102E+02  0.28191980200E+03  0.31218178902E+03  0.84706658219E+02 0.  0.
         13    1    4    4    0    0 -0.17926921133E+02 -0.50577106119E+02  0.24221913344E+03  0.24809177086E+03  0.00000000000E+00 0. -1.
        -14    1    4    4    0    0 -0.14385274215E+02 -0.48212562983E+02  0.39700668563E+02  0.64090018161E+02  0.00000000000E+00 0.  1.
        -13    1    3    3    0    0  0.21942173646E+02 -0.39667424831E+02 -0.80430603230E+01  0.46039704565E+02  0.00000000000E+00 0. -1.
         13    1    3    3    0    0  0.16970819335E+03 -0.22019032310E+03  0.17654287293E+03  0.32932056610E+03  0.00000000000E+00 0.  1.
          2    1    1    2  501    0 -0.15933817164E+03  0.35864741703E+03  0.39088128007E+03  0.55389962790E+03  0.00000000000E+00 0. -1.
<scales pt_clust_5="13000.00000" pt_clust_6="13000.00000" pt_clust_7="13000.00000" pt_clust_8="13000.00000" pt_clust_9="13000.00000"></scales>
<clustering>
<clus scale="   84.707">  5  6 -1 -1</clus>
<clus scale="   90.814">  7  8 -1 -1</clus>
<clus scale="  335.415">  1  7  2 -1</clus>
<clus scale="  203.426">  5  9 -1 -1</clus>
<clus scale="  545.377">  2  5  1 -1</clus>
</clustering>
</event>
<event>
 9    1  0.2728138E-005  0.2685745E+03  0.7546771E-02  0.1144472E+00
          1   -1    0    0  502    0 -0.00000000000E+00  0.00000000000E+00  0.22535320090E+03  0.22535320090E+03  0.00000000000E+00 0. -1.
         21   -1    0    0  501  502  0.00000000000E+00 -0.00000000000E+00 -0.15092250905E+03  0.15092250905E+03  0.00000000000E+00 0. -1.
         23    2    1    2    0    0 -0.20845549561E+02  0.21871900465E+01 -0.11399864018E+02  0.94319821416E+02  0.91252129156E+02 0.  0.
        -24    2    1    2    0    0  0.12005560129E+02  0.60852380926E+02 -0.63692129193E+02  0.11944691564E+03  0.79773006691E+02 0.  0.
         11    1    4    4    0    0  0.29529813958E+02  0.65426909976E+02 -0.70005164802E+02  0.10026671212E+03  0.00000000000E+00 0. -1.
        -12    1    4    4    0    0 -0.17524253829E+02 -0.45745290502E+01  0.63130356091E+01  0.19180203516E+02  0.00000000000E+00 0.  1.
        -11    1    3    3    0    0 -0.25336775752E+02 -0.41408244640E+02  0.17099331985E+01  0.48574878294E+02  0.00000000000E+00 0. -1.
         11    1    3    3    0    0  0.44912261910E+01  0.43595434686E+02 -0.13109797216E+02  0.45744943122E+02  0.00000000000E+00 0.  1.
          2    1    1    2  501    0  0.88399894328E+01 -0.63039570972E+02  0.14952268507E+03  0.16250897289E+03  0.00000000000E+00 0. -1.
<scales pt_clust_5="13000.00000" pt_clust_6="13000.00000" pt_clust_7="13000.00000" pt_clust_8="13000.00000" pt_clust_9="13000.00000"></scales>
<clustering>
<clus scale="   79.773">  5  6 -1 -1</clus>
<clus scale="   63.656">  5  9 -1 -1</clus>
<clus scale="   91.252">  7  8 -1 -1</clus>
<clus scale="   93.628">  1  7  2 -1</clus>
<clus scale="  268.574">  2  5  1 -1</clus>
</clustering>
</event>
<event>
 9    1  0.2728138E-005  0.2887641E+03  0.7546771E-02  0.1126602E+00
         -4   -1    0    0    0  501 -0.00000000000E+00  0.00000000000E+00  0.22392073524E+04  0.22392073524E+04  0.00000000000E+00 0.  1.
         21   -1    0    0  501  502  0.00000000000E+00 -0.00000000000E+00 -0.19115770010E+02  0.19115770010E+02  0.00000000000E+00 0. -1.
         23    2    1    2    0    0  0.58945062331E+02  0.43281170961E+02  0.44790841845E+03  0.46276809445E+03  0.90468656403E+02 0.  0.
        -24    2    1    2    0    0 -0.37517220131E+02  0.10611404387E+03  0.76147926563E+03  0.77364483000E+03  0.77510766264E+02 0.  0.
         11    1    4    4    0    0 -0.83567525317E+01  0.36745047210E+02  0.84817574799E+02  0.92811932434E+02  0.00000000000E+00 0. -1.
        -12    1    4    4    0    0 -0.29160467599E+02  0.69368996660E+02  0.67666169083E+03  0.68083289757E+03  0.00000000000E+00 0.  1.
        -11    1    3    3    0    0  0.32604204410E+02 -0.18118439511E+02  0.73260819730E+02  0.82209851618E+02  0.00000000000E+00 0.  1.
         11    1    3    3    0    0  0.26340857921E+02  0.61399610473E+02  0.37464759872E+03  0.38055824284E+03  0.00000000000E+00 0. -1.
         -3    1    1    2    0  502 -0.21427842200E+02 -0.14939521483E+03  0.10107038983E+04  0.10219101980E+04  0.00000000000E+00 0.  1.
<scales pt_clust_5="13000.00000" pt_clust_6="13000.00000" pt_clust_7="13000.00000" pt_clust_8="13000.00000" pt_clust_9="13000.00000"></scales>
<clustering>
<clus scale="   77.511">  5  6 -1 -1</clus>
<clus scale="   90.469">  7  8 -1 -1</clus>
<clus scale="  116.329">  1  7  2 -1</clus>
<clus scale="  125.328">  5  9 -1 -1</clus>
<clus scale="  288.764">  2  5  1 -1</clus>
</clustering>
</event>
<event>
 9    1  0.2728138E-005  0.3757646E+03  0.7546771E-02  0.1095001E+00
          1   -1    0    0  502    0 -0.00000000000E+00  0.00000000000E+00  0.70627758853E+03  0.70627758853E+03  0.00000000000E+00 0. -1.
         21   -1    0    0  501  502  0.00000000000E+00 -0.00000000000E+00 -0.86342808097E+02  0.86342808097E+02  0.00000000000E+00 0. -1.
         23    2    1    2    0    0 -0.64912456880E+02  0.11042620877E+01  0.13921516234E+03  0.18246438794E+03  0.98476113796E+02 0.  0.
        -24    2    1    2    0    0 -0.86215594824E+02  0.12254031381E+03  0.29506182764E+03  0.34071866102E+03  0.81107746475E+02 0.  0.
         11    1    4    4    0    0 -0.25468763348E+02  0.10036873193E+03  0.20709551136E+03  0.23154068990E+03  0.00000000000E+00 0. -1.
        -12    1    4    4    0    0 -0.60746831476E+02  0.22171581881E+02  0.87966316277E+02  0.10917797112E+03  0.00000000000E+00 0.  1.
        -13    1    3    3    0    0  0.25868742746E+02  0.67277436430E+01  0.36930042568E+02  0.45588183007E+02  0.00000000000E+00 0.  1.
         13    1    3    3    0    0 -0.90781199627E+02 -0.56234815553E+01  0.10228511978E+03  0.13687620494E+03  0.00000000000E+00 0. -1.
          2    1    1    2  501    0  0.15112805170E+03 -0.12364457590E+03  0.18565779045E+03  0.26943734766E+03  0.00000000000E+00 0. -1.
<scales pt_clust_5="13000.00000" pt_clust_6="13000.00000" pt_clust_7="13000.00000" pt_clust_8="13000.00000" pt_clust_9="13000.00000"></scales>
<clustering>
<clus scale="   81.108">  5  6 -1 -1</clus>
<clus scale="   98.476">  7  8 -1 -1</clus>
<clus scale="  117.951">  1  7  2 -1</clus>
<clus scale="  174.820">  5  9 -1 -1</clus>
<clus scale="  375.765">  2  5  1 -1</clus>
</clustering>
</event>
<event>
 9    1  0.2728138E-005  0.3482416E+03  0.7546771E-02  0.1113859E+00
         -2   -1    0    0    0  501 -0.00000000000E+00  0.00000000000E+00  0.27438699238E+03  0.27438699238E+03  0.00000000000E+00 0.  1.
         21   -1    0    0  501  502  0.00000000000E+00 -0.00000000000E+00 -0.17798507102E+03  0.17798507102E+03  0.00000000000E+00 0.  1.
         23    2    1    2    0    0 -0.55272726374E+01  0.71415190556E+01  0.66410425272E+00  0.91210164465E+02  0.90759578172E+02 0.  0.
        -24    2    1    2    0    0 -0.11755103849E+03  0.10557872249E+03  0.23404844574E+02  0.17926582301E+03  0.81383875912E+02 0.  0.
         11    1    4    4    0    0  0.72518389986E+01  0.19987817710E+02 -0.11192756995E+02  0.24028729364E+02  0.00000000000E+00 0. -1.
        -12    1    4    4    0    0 -0.12480287749E+03  0.85590904777E+02  0.34597601570E+02  0.15523709365E+03  0.00000000000E+00 0.  1.
        -11    1    3    3    0    0 -0.11083188423E+02 -0.18217912635E+02 -0.38623957920E+02  0.44119604846E+02  0.00000000000E+00 0.  1.
         11    1    3    3    0    0  0.55559157856E+01  0.25359431691E+02  0.39288062172E+02  0.47090559618E+02  0.00000000000E+00 0. -1.
         -1    1    1    2    0  502  0.12307831113E+03 -0.11272024154E+03  0.72332972533E+02  0.18189607593E+03  0.00000000000E+00 0.  1.
<scales pt_clust_5="13000.00000" pt_clust_6="13000.00000" pt_clust_7="13000.00000" pt_clust_8="13000.00000" pt_clust_9="13000.00000"></scales>
<clustering>
<clus scale="   81.384">  5  6 -1 -1</clus>
<clus scale="   90.760">  7  8 -1 -1</clus>
<clus scale="   91.208">  1  7  2 -1</clus>
<clus scale="  161.946">  5  9 -1 -1</clus>
<clus scale="  348.242">  2  5  1 -1</clus>
</clustering>
</event>
<event>
 9    1  0.2728138E-005  0.1795781E+03  0.7546771E-02  0.1175185E+00
         21   -1    0    0  501  502  0.00000000000E+00  0.00000000000E+00  0.27174105742E+03  0.27174105742E+03  0.00000000000E+00 0. -1.
          3   -1    0    0  502    0 -0.00000000000E+00 -0.00000000000E+00 -0.10985172469E+03  0.10985172469E+03  0.00000000000E+00 0. -1.
         23    2    1    2    0    0 -0.11627748586E+03 -0.34707627751E+02  0.23699415202E+02  0.15499901014E+03  0.93477043822E+02 0.  0.
        -24    2    1    2    0    0  0.45689755885E+02  0.28409133157E+02  0.11608867235E+03  0.15235925376E+03  0.82717167011E+02 0.  0.
         13    1    4    4    0    0 -0.21889330335E+02  0.21427032891E+02  0.32866499508E+02  0.44927355931E+02  0.00000000000E+00 0. -1.
        -14    1    4    4    0    0  0.67579086219E+02  0.69821002668E+01  0.83222172838E+02  0.10743189782E+03  0.00000000000E+00 0.  1.
        -11    1    3    3    0    0 -0.44344242244E+02  0.32306199737E+02  0.85709361965E+01  0.55529841607E+02  0.00000000000E+00 0. -1.
         11    1    3    3    0    0 -0.71933243611E+02 -0.67013827488E+02  0.15128479005E+02  0.99469168530E+02  0.00000000000E+00 0.  1.
          4    1    1    2  501    0  0.70587729971E+02  0.62984945940E+01  0.22101245179E+02  0.74234518218E+02  0.00000000000E+00 0. -1.
<scales pt_clust_5="13000.00000" pt_clust_6="13000.00000" pt_clust_7="13000.00000" pt_clust_8="13000.00000" pt_clust_9="13000.00000"></scales>
<clustering>
<clus scale="   82.717">  5  6 -1 -1</clus>
<clus scale="   70.868">  5  9 -1 -1</clus>
<clus scale="   93.477">  7  8 -1 -1</clus>
<clus scale="  153.176">  2  7  1 -1</clus>
<clus scale="  179.578">  1  5  2 -1</clus>
</clustering>
</event>
<event>
 9    1  0.2728138E-005  0.2109557E+03  0.7546771E-02  0.1167065E+00
          1   -1    0    0  502    0 -0.00000000000E+00  0.00000000000E+00  0.36351704992E+03  0.36351704992E+03  0.00000000000E+00 0. -1.
         21   -1    0    0  501  502  0.00000000000E+00 -0.00000000000E+00 -0.96742034448E+02  0.96742034448E+02  0.00000000000E+00 0. -1.
         23    2    1    2    0    0  0.40475753802E+02  0.56242698377E+02  0.21471301005E+03  0.24297414719E+03  0.90184431877E+02 0.  0.
        -24    2    1    2    0    0 -0.19576260166E+02  0.18168117787E+02 -0.57487878209E+02  0.83214301314E+02  0.53911532497E+02 0.  0.
         11    1    4    4    0    0 -0.10216859721E+02  0.34691295759E+02 -0.52197038979E+02  0.63501189770E+02  0.00000000000E+00 0. -1.
        -12    1    4    4    0    0 -0.93594004445E+01 -0.16523177972E+02 -0.52908392297E+01  0.19713111544E+02  0.00000000000E+00 0.  1.
        -11    1    3    3    0    0  0.58329121097E+02  0.42919556160E+02  0.86372297858E+02  0.11271445562E+03  0.00000000000E+00 0. -1.
         11    1    3    3    0    0 -0.17853367295E+02  0.13323142218E+02  0.12834071219E+03  0.13025969157E+03  0.00000000000E+00 0.  1.
          2    1    1    2  501    0 -0.20899493636E+02 -0.74410816165E+02  0.10954988363E+03  0.13407063586E+03  0.00000000000E+00 0. -1.
<scales pt_clust_5="13000.00000" pt_clust_6="13000.00000" pt_clust_7="13000.00000" pt_clust_8="13000.00000" pt_clust_9="13000.00000"></scales>
<clustering>
<clus scale="   53.912">  5  6 -1 -1</clus>
<clus scale="   77.290">  5  9 -1 -1</clus>
<clus scale="   90.184">  7  8 -1 -1</clus>
<clus scale="  113.731">  1  7  2 -1</clus>
<clus scale="  210.956">  2  5  1 -1</clus>
</clustering>
</event>
<event>
 9    1  0.2728138E-005  0.2928734E+03  0.7546771E-02  0.1116155E+00
          1   -1    0    0  502    0 -0.00000000000E+00  0.00000000000E+00  0.11552548649E+03  0.11552548649E+03  0.00000000000E+00 0. -1.
         21   -1    0    0  501  502  0.00000000000E+00 -0.00000000000E+00 -0.41459068954E+03  0.41459068954E+03  0.00000000000E+00 0. -1.
         23    2    1    2    0    0  0.10962758688E+03  0.73578509520E+01 -0.92829318344E+02  0.17191505208E+03  0.94154962751E+02 0.  0.
        -24    2    1    2    0    0  0.37736259092E+02  0.65792599346E+02 -0.14582466806E+03  0.18293958631E+03  0.80307951338E+02 0.  0.
         13    1    4    4    0    0  0.85267128655E+01  0.26056080707E+02 -0.12736266969E+03  0.13027998237E+03  0.00000000000E+00 0. -1.
        -14    1    4    4    0    0  0.29209546226E+02  0.39736518638E+02 -0.18461998362E+02  0.52659603946E+02  0.00000000000E+00 0.  1.
        -13    1    3    3    0    0  0.45723883743E+02 -0.90600405781E+01 -0.95086839959E+02  0.10589742685E+03  0.00000000000E+00 0.  1.
         13    1    3    3    0    0  0.63903703136E+02  0.16417891530E+02  0.22575216151E+01  0.66017625228E+02  0.00000000000E+00 0. -1.
          2    1    1    2  501    0 -0.14736384597E+03 -0.73150450298E+02 -0.60411216649E+02  0.17526153764E+03  0.00000000000E+00 0. -1.
<scales pt_clust_5="13000.00000" pt_clust_6="13000.00000" pt_clust_7="13000.00000" pt_clust_8="13000.00000" pt_clust_9="13000.00000"></scales>
<clustering>
<clus scale="   80.308">  5  6 -1 -1</clus>
<clus scale="   94.155">  7  8 -1 -1</clus>
<clus scale="  144.698">  1  7  2 -1</clus>
<clus scale="   93.435">  5  9 -1 -1</clus>
<clus scale="  292.873">  2  5  1 -1</clus>
</clustering>
</event>
<event>
 9    1  0.2728138E-005  0.3271339E+03  0.7546771E-02  0.1092001E+00
          1   -1    0    0  502    0 -0.00000000000E+00  0.00000000000E+00  0.77239270628E+03  0.77239270628E+03  0.00000000000E+00 0. -1.
         21   -1    0    0  501  502  0.00000000000E+00 -0.00000000000E+00 -0.12726277536E+03  0.12726277536E+03  0.00000000000E+00 0. -1.
         23    2    1    2    0    0 -0.12823969750E+03  0.11515848894E+03  0.20440014413E+02  0.19449305016E+03  0.87765908980E+02 0.  0.
        -24    2    1    2    0    0 -0.61041146973E+02  0.19138156766E+01  0.17334678026E+03  0.20192909672E+03  0.83645499333E+02 0.  0.
         11    1    4    4    0    0 -0.30844869172E+02 -0.36224291302E+02  0.12318674631E+03  0.13205521459E+03  0.00000000000E+00 0. -1.
        -12    1    4    4    0    0 -0.30196277800E+02  0.38138106979E+02  0.50160033956E+02  0.69873882126E+02  0.00000000000E+00 0.  1.
        -11    1    3    3    0    0 -0.17394719762E+02  0.72615911197E+02  0.91533705591E+01  0.75229189994E+02  0.00000000000E+00 0.  1.
         11    1    3    3    0    0 -0.11084497774E+03  0.42542577746E+02  0.11286643854E+02  0.11926386016E+03  0.00000000000E+00 0. -1.
          2    1    1    2  501    0  0.18928084447E+03 -0.11707230462E+03  0.45134313623E+03  0.50323333477E+03  0.00000000000E+00 0. -1.
<scales pt_clust_5="13000.00000" pt_clust_6="13000.00000" pt_clust_7="13000.00000" pt_clust_8="13000.00000" pt_clust_9="13000.00000"></scales>
<clustering>
<clus scale="   83.645">  5  6 -1 -1</clus>
<clus scale="   87.766">  7  8 -1 -1</clus>
<clus scale="  193.416">  1  7  2 -1</clus>
<clus scale="  103.139">  5  9 -1 -1</clus>
<clus scale="  327.134">  2  5  1 -1</clus>
</clustering>
</event>
<event>
 9    1  0.2728138E-005  0.3750961E+03  0.7546771E-02  0.1054174E+00
          1   -1    0    0  502    0 -0.00000000000E+00  0.00000000000E+00  0.19602970111E+04  0.19602970111E+04  0.00000000000E+00 0. -1.
         21   -1    0    0  501  502  0.00000000000E+00 -0.00000000000E+00 -0.89380802611E+02  0.89380802611E+02  0.00000000000E+00 0. -1.
         23    2    1    2    0    0  0.22623190474E+03  0.26374301216E+03  0.14105015710E+04  0.14558102351E+04  0.95537990119E+02 0.  0.
        -24    2    1    2    0    0 -0.17300960944E+03 -0.13459228136E+03  0.25597371017E+03  0.34626180983E+03  0.79544286316E+02 0.  0.
         11    1    4    4    0    0 -0.18024943283E+03 -0.12609835062E+03  0.23141482135E+03  0.31928587755E+03  0.00000000000E+00 0. -1.
        -12    1    4    4    0    0  0.72398233850E+01 -0.84939307398E+01  0.24558888819E+02  0.26975932274E+02  0.00000000000E+00 0.  1.
        -11    1    3    3    0    0  0.80932347904E+02  0.79951699873E+02  0.65528329281E+03  0.66508534271E+03  0.00000000000E+00 0.  1.
         11    1    3    3    0    0  0.14529955683E+03  0.18379131229E+03  0.75521827824E+03  0.79072489241E+03  0.00000000000E+00 0. -1.
          2    1    1    2  501    0 -0.53222295296E+02 -0.12915073080E+03  0.20444092728E+03  0.24760576878E+03  0.00000000000E+00 0. -1.
<scales pt_clust_5="13000.00000" pt_clust_6="13000.00000" pt_clust_7="13000.00000" pt_clust_8="13000.00000" pt_clust_9="13000.00000"></scales>
<clustering>
<clus scale="   79.544">  5  6 -1 -1</clus>
<clus scale="   95.538">  7  8 -1 -1</clus>
<clus scale="  139.687">  5  9 -1 -1</clus>
<clus scale="  360.373">  1  7  2 -1</clus>
<clus scale="  375.096">  2  5  1 -1</clus>
</clustering>
</event>
<event>
 9    1  0.2728138E-005  0.1455075E+03  0.7546771E-02  0.1226285E+00
         21   -1    0    0  501  502  0.00000000000E+00  0.00000000000E+00  0.50873366982E+02  0.50873366982E+02  0.00000000000E+00 0. -1.
          1   -1    0    0  502    0 -0.00000000000E+00 -0.00000000000E+00 -0.42972797461E+03  0.42972797461E+03  0.00000000000E+00 0. -1.
         23    2    1    2    0    0  0.15406310867E+02  0.22032169592E+02 -0.25337036760E+02  0.98309427737E+02  0.91104375520E+02 0.  0.
        -24    2    1    2    0    0  0.14844181077E+02  0.11995474529E+02 -0.30334304662E+03  0.31453901199E+03  0.80953968464E+02 0.  0.
         11    1    4    4    0    0  0.84988977063E+01  0.29061858249E+02 -0.38075761223E+02  0.48647574038E+02  0.00000000000E+00 0. -1.
        -12    1    4    4    0    0  0.63452833712E+01 -0.17066383719E+02 -0.26526728540E+03  0.26589143795E+03  0.00000000000E+00 0.  1.
        -13    1    3    3    0    0 -0.25224869550E+02  0.10499451256E+02 -0.44270891609E+02  0.52023498194E+02  0.00000000000E+00 0.  1.
         13    1    3    3    0    0  0.40631180417E+02  0.11532718337E+02  0.18933854849E+02  0.46285929544E+02  0.00000000000E+00 0. -1.
          2    1    1    2  501    0 -0.30250491944E+02 -0.34027644122E+02 -0.50174524243E+02  0.67752901860E+02  0.00000000000E+00 0. -1.
<scales pt_clust_5="13000.00000" pt_clust_6="13000.00000" pt_clust_7="13000.00000" pt_clust_8="13000.00000" pt_clust_9="13000.00000"></scales>
<clustering>
<clus scale="   80.954">  5  6 -1 -1</clus>
<clus scale="   45.530">  5  9 -1 -1</clus>
<clus scale="   91.104">  7  8 -1 -1</clus>
<clus scale="   94.988">  2  7  1 -1</clus>
<clus scale="  145.508">  1  5  2 -1</clus>
</clustering>
</event>
<event>
 9    1  0.2728138E-005  0.2466915E+03  0.7546771E-02  0.1129846E+00
         21   -1    0    0  501  502  0.00000000000E+00  0.00000000000E+00  0.17671260029E+03  0.17671260029E+03  0.00000000000E+00 0. -1.
          1   -1    0    0  502    0 -0.00000000000E+00 -0.00000000000E+00 -0.31311680271E+03  0.31311680271E+03  0.00000000000E+00 0. -1.
         23    2    1    2    0    0  0.99354322666E+02 -0.10624442167E+03 -0.16862197838E+03  0.24104294197E+03  0.92245160924E+02 0.  0.
        -24    2    1    2    0    0 -0.65424413792E+02 -0.18086233539E+02  0.54860674813E+02  0.11793520422E+03  0.79319310326E+02 0.  0.
         13    1    4    4    0    0 -0.63398472130E+02 -0.16950722282E+02  0.73855207161E+02  0.98799214973E+02  0.00000000000E+00 0. -1.
        -14    1    4    4    0    0 -0.20259416613E+01 -0.11355112575E+01 -0.18994532349E+02  0.19135989250E+02  0.00000000000E+00 0.  1.
        -11    1    3    3    0    0  0.65637592926E+02 -0.54684738992E+01 -0.68796401148E+02  0.95242546285E+02  0.00000000000E+00 0.  1.
         11    1    3    3    0    0  0.33716729740E+02 -0.10077594777E+03 -0.99825577229E+02  0.14580039568E+03  0.00000000000E+00 0. -1.
          2    1    1    2  501    0 -0.33929908874E+02  0.12433065520E+03 -0.22642898862E+02  0.13085125681E+03  0.00000000000E+00 0. -1.
<scales pt_clust_5="13000.00000" pt_clust_6="13000.00000" pt_clust_7="13000.00000" pt_clust_8="13000.00000" pt_clust_9="13000.00000"></scales>
<clustering>
<clus scale="   79.319">  5  6 -1 -1</clus>
<clus scale="   92.245">  7  8 -1 -1</clus>
<clus scale="  128.877">  5  9 -1 -1</clus>
<clus scale="  172.245">  2  7  1 -1</clus>
<clus scale="  246.692">  1  5  2 -1</clus>
</clustering>
</event>
<event>
 9    1  0.2728138E-005  0.3129653E+03  0.7546771E-02  0.1081010E+00
         21   -1    0    0  501  502  0.00000000000E+00  0.00000000000E+00  0.77194695224E+03  0.77194695224E+03  0.00000000000E+00 0. -1.
          1   -1    0    0  502    0 -0.00000000000E+00 -0.00000000000E+00 -0.12240672236E+03  0.12240672236E+03  0.00000000000E+00 0. -1.
         23    2    1    2    0    0  0.13530649892E+03 -0.24634280062E+03  0.25416313910E+03  0.39010145550E+03  0.92669413720E+02 0.  0.
        -24    2    1    2    0    0 -0.29626986994E+02  0.96798435514E+02  0.18647118119E+03  0.22645129139E+03  0.79126420877E+02 0.  0.
         13    1    4    4    0    0  0.13483166743E+02  0.72435595058E+02  0.14162292443E+03  0.15964261318E+03  0.00000000000E+00 0. -1.
        -14    1    4    4    0    0 -0.43110153737E+02  0.24362840457E+02  0.44848256756E+02  0.66808678211E+02  0.00000000000E+00 0.  1.
        -13    1    3    3    0    0  0.73197703140E+02 -0.94253020164E+02  0.53540356219E+02  0.13079795602E+03  0.00000000000E+00 0.  1.
         13    1    3    3    0    0  0.62108795785E+02 -0.15208978046E+03  0.20062278288E+03  0.25930349948E+03  0.00000000000E+00 0. -1.
          2    1    1    2  501    0 -0.10567951193E+03  0.14954436511E+03  0.20890590959E+03  0.27780092772E+03  0.00000000000E+00 0. -1.
<scales pt_clust_5="13000.00000" pt_clust_6="13000.00000" pt_clust_7="13000.00000" pt_clust_8="13000.00000" pt_clust_9="13000.00000"></scales>
<clustering>
<clus scale="   79.126">  5  6 -1 -1</clus>
<clus scale="   92.669">  7  8 -1 -1</clus>
<clus scale="  183.117">  5  9 -1 -1</clus>
<clus scale="  295.940">  2  7  1 -1</clus>
<clus scale="  312.965">  1  5  2 -1</clus>
</clustering>
</event>
<event>
 9    1  0.2728138E-005  0.1727558E+03  0.7546771E-02  0.1193165E+00
         21   -1    0    0  501  502  0.00000000000E+00  0.00000000000E+00  0.48819083892E+03  0.48819083892E+03  0.00000000000E+00 0. -1.
          3   -1    0    0  502    0 -0.00000000000E+00 -0.00000000000E+00 -0.43662404075E+02  0.43662404075E+02  0.00000000000E+00 0. -1.
         23    2    1    2    0    0  0.44491750070E+02 -0.52562770130E+02  0.22238350548E+03  0.25044082565E+03  0.92324552607E+02 0.  0.
        -24    2    1    2    0    0 -0.43008303064E+02  0.26201147166E+02  0.23429714927E+03  0.25234676358E+03  0.79041259393E+02 0.  0.
         13    1    4    4    0    0 -0.60760805231E+02  0.61763142002E+01  0.19830099188E+03  0.20749290515E+03  0.00000000000E+00 0. -1.
        -14    1    4    4    0    0  0.17752502167E+02  0.20024832965E+02  0.35996157393E+02  0.44853858424E+02  0.00000000000E+00 0.  1.
        -11    1    3    3    0    0 -0.18080215468E+02  0.13923023200E+02  0.32065489481E+02  0.39356579908E+02  0.00000000000E+00 0.  1.
         11    1    3    3    0    0  0.62571965539E+02 -0.66485793331E+02  0.19031801600E+03  0.21108424574E+03  0.00000000000E+00 0. -1.
          4    1    1    2  501    0 -0.14834470065E+01  0.26361622965E+02 -0.12152219906E+02  0.29065653769E+02  0.00000000000E+00 0. -1.
<scales pt_clust_5="13000.00000" pt_clust_6="13000.00000" pt_clust_7="13000.00000" pt_clust_8="13000.00000" pt_clust_9="13000.00000"></scales>
<clustering>
<clus scale="   79.041">  5  6 -1 -1</clus>
<clus scale="   26.403">  5  9 -1 -1</clus>
<clus scale="   92.325">  7  8 -1 -1</clus>
<clus scale="  115.179">  2  7  1 -1</clus>
<clus scale="  172.756">  1  5  2 -1</clus>
</clustering>
</event>
<event>
 9    1  0.2728138E-005  0.1971019E+03  0.7546771E-02  0.1170436E+00
         21   -1    0    0  501  502  0.00000000000E+00  0.00000000000E+00  0.28190400892E+03  0.28190400892E+03  0.00000000000E+00 0. -1.
          1   -1    0    0  502    0 -0.00000000000E+00 -0.00000000000E+00 -0.11464653396E+03  0.11464653396E+03  0.00000000000E+00 0. -1.
         23    2    1    2    0    0 -0.24801708755E+02 -0.86180967112E+02 -0.12649389736E+02  0.12968799190E+03  0.92826097260E+02 0.  0.
        -24    2    1    2    0    0  0.39503436515E+02  0.21873587221E+01  0.15424690770E+03  0.17781480849E+03  0.79124531887E+02 0.  0.
         11    1    4    4    0    0  0.55240965217E+02  0.24266565180E+02  0.93308943022E+02  0.11111700712E+03  0.00000000000E+00 0. -1.
        -12    1    4    4    0    0 -0.15737528702E+02 -0.22079206458E+02  0.60937964681E+02  0.66697801365E+02  0.00000000000E+00 0.  1.
        -11    1    3    3    0    0  0.22099822872E+02  0.82845179938E+01 -0.23786932310E+01  0.23721163354E+02  0.00000000000E+00 0.  1.
         11    1    3    3    0    0 -0.46901531627E+02 -0.94465485106E+02 -0.10270696505E+02  0.10596682855E+03  0.00000000000E+00 0. -1.
          2    1    1    2  501    0 -0.14701727760E+02  0.83993608390E+02  0.25659956990E+02  0.89047742489E+02  0.00000000000E+00 0. -1.
<scales pt_clust_5="13000.00000" pt_clust_6="13000.00000" pt_clust_7="13000.00000" pt_clust_8="13000.00000" pt_clust_9="13000.00000"></scales>
<clustering>
<clus scale="   79.125">  5  6 -1 -1</clus>
<clus scale="   85.271">  5  9 -1 -1</clus>
<clus scale="   92.826">  7  8 -1 -1</clus>
<clus scale="  129.070">  2  7  1 -1</clus>
<clus scale="  197.102">  1  5  2 -1</clus>
</clustering>
</event>
<event>
 9    1  0.2728138E-005  0.3005965E+03  0.7546771E-02  0.1118357E+00
         21   -1    0    0  501  502  0.00000000000E+00  0.00000000000E+00  0.11888936487E+03  0.11888936487E+03  0.00000000000E+00 0.  1.
         -4   -1    0    0    0  501 -0.00000000000E+00 -0.00000000000E+00 -0.61212607765E+03  0.61212607765E+03  0.00000000000E+00 0.  1.
         23    2    1    2    0    0 -0.55549081074E+02 -0.67052892061E+02 -0.39496011766E+03  0.41476153323E+03  0.91933911951E+02 0.  0.
        -24    2    1    2    0    0 -0.57778112339E+02  0.17296180692E+02  0.58140437089E+02  0.11679195538E+03  0.81379249714E+02 0.  0.
         11    1    4    4    0    0 -0.53045855283E+02  0.53828748536E+01 -0.38813100349E+01  0.53459355327E+02  0.00000000000E+00 0. -1.
        -12    1    4    4    0    0 -0.47322570561E+01  0.11913305838E+02  0.62021747124E+02  0.63332600050E+02  0.00000000000E+00 0.  1.
        -11    1    3    3    0    0 -0.64917498160E+01 -0.65311662010E+02 -0.13383250511E+03  0.14906003970E+03  0.00000000000E+00 0. -1.
         11    1    3    3    0    0 -0.49057331258E+02 -0.17412300513E+01 -0.26112761255E+03  0.26570149354E+03  0.00000000000E+00 0.  1.
         -3    1    1    2    0  502  0.11332719341E+03  0.49756711370E+02 -0.15641703220E+03  0.19946195391E+03  0.00000000000E+00 0.  1.
<scales pt_clust_5="13000.00000" pt_clust_6="13000.00000" pt_clust_7="13000.00000" pt_clust_8="13000.00000" pt_clust_9="13000.00000"></scales>
<clustering>
<clus scale="   81.379">  5  6 -1 -1</clus>
<clus scale="   91.934">  7  8 -1 -1</clus>
<clus scale="  123.769">  5  9 -1 -1</clus>
<clus scale="  126.624">  2  7  1 -1</clus>
<clus scale="  300.596">  1  5  2 -1</clus>
</clustering>
</event>
<event>
 9    1  0.2728138E-005  0.1733541E+03  0.7546771E-02  0.1183035E+00
         21   -1    0    0  501  502  0.00000000000E+00  0.00000000000E+00  0.27850433476E+02  0.27850433476E+02  0.00000000000E+00 0. -1.
         -2   -1    0    0    0  501 -0.00000000000E+00 -0.00000000000E+00 -0.90136322909E+03  0.90136322909E+03  0.00000000000E+00 0.  1.
         23    2    1    2    0    0  0.35020196797E+02 -0.10048263171E+03 -0.42821856019E+03  0.45136578937E+03  0.95061911738E+02 0.  0.
        -24    2    1    2    0    0 -0.55082955727E+02  0.38862942499E+02 -0.32261667639E+03  0.33910608467E+03  0.79793210624E+02 0.  0.
         11    1    4    4    0    0 -0.37057987487E+02  0.53748229019E+02 -0.13412100558E+03  0.14916638595E+03  0.00000000000E+00 0. -1.
        -12    1    4    4    0    0 -0.18024968240E+02 -0.14885286521E+02 -0.18849567081E+03  0.18993969872E+03  0.00000000000E+00 0.  1.
        -11    1    3    3    0    0  0.16694156436E+02 -0.37153212613E+02 -0.38290710687E+02  0.55903797648E+02  0.00000000000E+00 0.  1.
         11    1    3    3    0    0  0.18326040361E+02 -0.63329419095E+02 -0.38992784950E+03  0.39546199172E+03  0.00000000000E+00 0. -1.
         -1    1    1    2    0  502  0.20062758930E+02  0.61619689209E+02 -0.12267755904E+03  0.13874178854E+03  0.00000000000E+00 0.  1.
<scales pt_clust_5="13000.00000" pt_clust_6="13000.00000" pt_clust_7="13000.00000" pt_clust_8="13000.00000" pt_clust_9="13000.00000"></scales>
<clustering>
<clus scale="   79.793">  5  6 -1 -1</clus>
<clus scale="   64.804">  5  9 -1 -1</clus>
<clus scale="   95.062">  7  8 -1 -1</clus>
<clus scale="  142.688">  2  7  1 -1</clus>
<clus scale="  173.354">  1  5  2 -1</clus>
</clustering>
</event>
<event>
 9    1  0.2728138E-005  0.4308927E+03  0.7546771E-02  0.1089358E+00
         21   -1    0    0  501  502  0.00000000000E+00  0.00000000000E+00  0.13279306798E+03  0.13279306798E+03  0.00000000000E+00 0. -1.
          1   -1    0    0  502    0 -0.00000000000E+00 -0.00000000000E+00 -0.60089903583E+03  0.60089903583E+03  0.00000000000E+00 0. -1.
         23    2    1    2    0    0  0.57670879763E+01  0.19020981188E+01 -0.21642123647E+03  0.23467931688E+03  0.90550278271E+02 0.  0.
        -24    2    1    2    0    0 -0.12219303753E+03  0.17750831815E+02  0.59344831928E+02  0.16632580397E+03  0.94319847004E+02 0.  0.
         13    1    4    4    0    0 -0.10809608538E+03  0.24238345027E+01  0.81890667130E+02  0.13563450892E+03  0.00000000000E+00 0. -1.
        -14    1    4    4    0    0 -0.14096952147E+02  0.15326997313E+02 -0.22545835202E+02  0.30691295043E+02  0.00000000000E+00 0.  1.
        -11    1    3    3    0    0  0.44898839896E+02 -0.15975920698E+02 -0.11849328772E+03  0.12771763817E+03  0.00000000000E+00 0.  1.
         11    1    3    3    0    0 -0.39131751919E+02  0.17878018817E+02 -0.97927948745E+02  0.10696167870E+03  0.00000000000E+00 0. -1.
          2    1    1    2  501    0  0.11642594955E+03 -0.19652929934E+02 -0.31102956331E+03  0.33268698297E+03  0.00000000000E+00 0. -1.
<scales pt_clust_5="13000.00000" pt_clust_6="13000.00000" pt_clust_7="13000.00000" pt_clust_8="13000.00000" pt_clust_9="13000.00000"></scales>
<clustering>
<clus scale="   90.550">  7  8 -1 -1</clus>
<clus scale="   90.754">  2  7  1 -1</clus>
<clus scale="   94.320">  5  6 -1 -1</clus>
<clus scale="  122.702">  5  9 -1 -1</clus>
<clus scale="  430.893">  1  5  2 -1</clus>
</clustering>
</event>
<event>
 9    1  0.2728138E-005  0.4860014E+03  0.7546771E-02  0.1036754E+00
         -2   -1    0    0    0  501 -0.00000000000E+00  0.00000000000E+00  0.12199305092E+04  0.12199305092E+04  0.00000000000E+00 0.  1.
         21   -1    0    0  501  502  0.00000000000E+00 -0.00000000000E+00 -0.23855184762E+03  0.23855184762E+03  0.00000000000E+00 0.  1.
         23    2    1    2    0    0 -0.15569592531E+03 -0.19548577089E+03  0.93043614634E+03  0.96981832732E+03  0.11126660692E+03 0.  0.
        -24    2    1    2    0    0 -0.43103415048E+02 -0.86529201836E+02  0.55278993540E+02  0.14359530068E+03  0.90656693586E+02 0.  0.
         13    1    4    4    0    0 -0.15100074809E+02  0.18168791110E+02  0.14945930765E+02  0.27955287086E+02  0.00000000000E+00 0. -1.
        -14    1    4    4    0    0 -0.28003340239E+02 -0.10469799295E+03  0.40333062775E+02  0.11564001360E+03  0.00000000000E+00 0.  1.
        -11    1    3    3    0    0  0.48058137972E+01 -0.50525358343E+02  0.10657706430E+03  0.11804481486E+03  0.00000000000E+00 0. -1.
         11    1    3    3    0    0 -0.16050173910E+03 -0.14496041254E+03  0.82385908204E+03  0.85177351246E+03  0.00000000000E+00 0.  1.
         -1    1    1    2    0  502  0.19879934036E+03  0.28201497272E+03 -0.43364783036E+01  0.34506872882E+03  0.00000000000E+00 0.  1.
<scales pt_clust_5="13000.00000" pt_clust_6="13000.00000" pt_clust_7="13000.00000" pt_clust_8="13000.00000" pt_clust_9="13000.00000"></scales>
<clustering>
<clus scale="   90.657">  5  6 -1 -1</clus>
<clus scale="  111.267">  7  8 -1 -1</clus>
<clus scale="  273.562">  1  7  2 -1</clus>
<clus scale="  187.734">  5  9 -1 -1</clus>
<clus scale="  486.001">  2  5  1 -1</clus>
</clustering>
</event>
<event>
 9    1  0.2728138E-005  0.2735126E+03  0.7546771E-02  0.1118990E+00
         21   -1    0    0  501  502  0.00000000000E+00  0.00000000000E+00  0.12929467038E+03  0.12929467038E+03  0.00000000000E+00 0.  1.
          1   -1    0    0  502    0 -0.00000000000E+00 -0.00000000000E+00 -0.37273583128E+03  0.37273583128E+03  0.00000000000E+00 0. -1.
         23    2    1    2    0    0 -0.13274485140E+03  0.37331470331E+02 -0.97016350514E+02  0.19178970516E+03  0.91412715118E+02 0.  0.
        -24    2    1    2    0    0  0.18177085480E+02 -0.86799847836E+02 -0.19885401588E+01  0.11936196185E+03  0.79866786734E+02 0.  0.
         13    1    4    4    0    0  0.38920650229E+02 -0.89636342784E+02 -0.65265522814E+01  0.97939199745E+02  0.00000000000E+00 0. -1.
        -14    1    4    4    0    0 -0.20743564749E+02  0.28364949481E+01  0.45380121227E+01  0.21422762103E+02  0.00000000000E+00 0.  1.
        -13    1    3    3    0    0 -0.71811918781E+02  0.49647756203E+02 -0.95799646823E+02  0.12961259085E+03  0.00000000000E+00 0. -1.
         13    1    3    3    0    0 -0.60932932624E+02 -0.12316285871E+02 -0.12167036911E+01  0.62177114308E+02  0.00000000000E+00 0.  1.
          2    1    1    2  501    0  0.11456776592E+03  0.49468377505E+02 -0.14443627023E+03  0.19087883466E+03  0.00000000000E+00 0. -1.
<scales pt_clust_5="13000.00000" pt_clust_6="13000.00000" pt_clust_7="13000.00000" pt_clust_8="13000.00000" pt_clust_9="13000.00000"></scales>
<clustering>
<clus scale="   79.867">  5  6 -1 -1</clus>
<clus scale="   91.413">  7  8 -1 -1</clus>
<clus scale="  124.791">  5  9 -1 -1</clus>
<clus scale="  165.442">  2  7  1 -1</clus>
<clus scale="  273.513">  1  5  2 -1</clus>
</clustering>
</event>
<event>
 9    1  0.2728138E-005  0.3700424E+03  0.7546771E-02  0.1078279E+00
         21   -1    0    0  501  502  0.00000000000E+00  0.00000000000E+00  0.99218374330E+02  0.99218374330E+02  0.00000000000E+00 0. -1.
          1   -1    0    0  502    0 -0.00000000000E+00 -0.00000000000E+00 -0.79796568700E+03  0.79796568700E+03  0.00000000000E+00 0. -1.
         23    2    1    2    0    0 -0.37935412865E+01  0.17175692756E+03 -0.24025277413E+03  0.30799085066E+03  0.87304842340E+02 0.  0.
        -24    2    1    2    0    0  0.11150733630E+01  0.50588288800E+02 -0.19803616494E+02  0.97365705830E+02  0.80792815852E+02 0.  0.
         13    1    4    4    0    0  0.21757756625E+01  0.34287704421E+02  0.29589058304E+02  0.45341956790E+02  0.00000000000E+00 0. -1.
        -14    1    4    4    0    0 -0.10607022994E+01  0.16300584379E+02 -0.49392674798E+02  0.52023749040E+02  0.00000000000E+00 0.  1.
        -13    1    3    3    0    0 -0.29353311331E+02  0.66224298163E+02 -0.15083793448E+03  0.16733008406E+03  0.00000000000E+00 0.  1.
         13    1    3    3    0    0  0.25559770044E+02  0.10553262939E+03 -0.89414839643E+02  0.14066076660E+03  0.00000000000E+00 0. -1.
          2    1    1    2  501    0  0.26784679235E+01 -0.22234521636E+03 -0.43869092205E+03  0.49182750484E+03  0.00000000000E+00 0. -1.
<scales pt_clust_5="13000.00000" pt_clust_6="13000.00000" pt_clust_7="13000.00000" pt_clust_8="13000.00000" pt_clust_9="13000.00000"></scales>
<clustering>
<clus scale="   80.793">  5  6 -1 -1</clus>
<clus scale="   87.305">  7  8 -1 -1</clus>
<clus scale="  192.710">  2  7  1 -1</clus>
<clus scale="   69.800">  5  9 -1 -1</clus>
<clus scale="  370.042">  1  5  2 -1</clus>
</clustering>
</event>
<event>
 9    1  0.2728138E-005  0.2108781E+03  0.7546771E-02  0.1155039E+00
         21   -1    0    0  501  502  0.00000000000E+00  0.00000000000E+00  0.36554413853E+02  0.36554413853E+02  0.00000000000E+00 0. -1.
          1   -1    0    0  502    0 -0.00000000000E+00 -0.00000000000E+00 -0.98072551498E+03  0.98072551498E+03  0.00000000000E+00 0. -1.
         23    2    1    2    0    0  0.10846302244E+03 -0.48481633547E+02 -0.25053322051E+03  0.29229503776E+03  0.92492153671E+02 0.  0.
        -24    2    1    2    0    0 -0.26265523601E+01 -0.20312920938E+02 -0.31655138684E+03  0.32733143275E+03  0.80756255627E+02 0.  0.
         13    1    4    4    0    0 -0.37231243549E+01  0.30641878431E+02 -0.90971167688E+02  0.96065288836E+02  0.00000000000E+00 0. -1.
        -14    1    4    4    0    0  0.10965719948E+01 -0.50954799369E+02 -0.22558021915E+03  0.23126614392E+03  0.00000000000E+00 0.  1.
        -11    1    3    3    0    0 -0.76808195483E+01 -0.28426305543E+02 -0.28829496299E+02  0.41209097208E+02  0.00000000000E+00 0.  1.
         11    1    3    3    0    0  0.11614384199E+03 -0.20055328003E+02 -0.22170372421E+03  0.25108594056E+03  0.00000000000E+00 0. -1.
          2    1    1    2  501    0 -0.10583647008E+03  0.68794554485E+02 -0.37708649377E+03  0.39765345832E+03  0.00000000000E+00 0. -1.
<scales pt_clust_5="13000.00000" pt_clust_6="13000.00000" pt_clust_7="13000.00000" pt_clust_8="13000.00000" pt_clust_9="13000.00000"></scales>
<clustering>
<clus scale="   80.756">  5  6 -1 -1</clus>
<clus scale="   92.492">  7  8 -1 -1</clus>
<clus scale="  126.230">  5  9 -1 -1</clus>
<clus scale="  150.564">  2  7  1 -1</clus>
<clus scale="  210.878">  1  5  2 -1</clus>
</clustering>
</event>
<event>
 9    1  0.2728138E-005  0.2108115E+03  0.7546771E-02  0.1174911E+00
         21   -1    0    0  501  502  0.00000000000E+00  0.00000000000E+00  0.88709395224E+02  0.88709395224E+02  0.00000000000E+00 0. -1.
          1   -1    0    0  502    0 -0.00000000000E+00 -0.00000000000E+00 -0.37195019755E+03  0.37195019755E+03  0.00000000000E+00 0. -1.
         23    2    1    2    0    0 -0.10540000459E+02  0.18073250685E+02 -0.22129963918E+03  0.24093658427E+03  0.92947153480E+02 0.  0.
        -24    2    1    2    0    0 -0.73059644348E+02  0.31877986832E+02 -0.25129071691E+02  0.11561173717E+03  0.79879195351E+02 0.  0.
         13    1    4    4    0    0 -0.85973069394E+02  0.38243749580E+02 -0.98362434074E+01  0.94608164168E+02  0.00000000000E+00 0. -1.
        -14    1    4    4    0    0  0.12913425046E+02 -0.63657627482E+01 -0.15292828284E+02  0.21003572999E+02  0.00000000000E+00 0.  1.
        -13    1    3    3    0    0 -0.44109104135E+02  0.22702065716E+02 -0.18387638239E+03  0.19045083580E+03  0.00000000000E+00 0. -1.
         13    1    3    3    0    0  0.33569103676E+02 -0.46288150311E+01 -0.37423256785E+02  0.50485748470E+02  0.00000000000E+00 0.  1.
          2    1    1    2  501    0  0.83599644807E+02 -0.49951237517E+02 -0.36812091454E+02  0.10411127133E+03  0.00000000000E+00 0. -1.
<scales pt_clust_5="13000.00000" pt_clust_6="13000.00000" pt_clust_7="13000.00000" pt_clust_8="13000.00000" pt_clust_9="13000.00000"></scales>
<clustering>
<clus scale="   79.879">  5  6 -1 -1</clus>
<clus scale="   92.947">  7  8 -1 -1</clus>
<clus scale="   95.273">  2  7  1 -1</clus>
<clus scale="   88.366">  5  9 -1 -1</clus>
<clus scale="  210.812">  1  5  2 -1</clus>
</clustering>
</event>
<event>
 9    1  0.2728138E-005  0.1831557E+03  0.7546771E-02  0.1191315E+00
          1   -1    0    0  502    0 -0.00000000000E+00  0.00000000000E+00  0.12114933613E+04  0.12114933613E+04  0.00000000000E+00 0. -1.
         21   -1    0    0  501  502  0.00000000000E+00 -0.00000000000E+00 -0.16916014925E+02  0.16916014925E+02  0.00000000000E+00 0.  1.
         23    2    1    2    0    0  0.10482993410E+01 -0.43342172825E+02  0.50407852386E+03  0.51403227651E+03  0.90853619656E+02 0.  0.
        -24    2    1    2    0    0 -0.36109159320E+02 -0.30304810430E+02  0.25873621421E+03  0.27497740470E+03  0.80286310352E+02 0.  0.
         13    1    4    4    0    0  0.62476334266E+01 -0.46042302409E+02  0.10692597847E+03  0.11658512515E+03  0.00000000000E+00 0. -1.
        -14    1    4    4    0    0 -0.42356792747E+02  0.15737491979E+02  0.15181023574E+03  0.15839227955E+03  0.00000000000E+00 0.  1.
        -13    1    3    3    0    0 -0.38912186225E+02 -0.46435120644E+02  0.30106456256E+03  0.30709973868E+03  0.00000000000E+00 0.  1.
         13    1    3    3    0    0  0.39960485566E+02  0.30929478188E+01  0.20301396130E+03  0.20693253783E+03  0.00000000000E+00 0. -1.
          2    1    1    2  501    0  0.35060859979E+02  0.73646983256E+02  0.43176260833E+03  0.43939969503E+03  0.00000000000E+00 0. -1.
<scales pt_clust_5="13000.00000" pt_clust_6="13000.00000" pt_clust_7="13000.00000" pt_clust_8="13000.00000" pt_clust_9="13000.00000"></scales>
<clustering>
<clus scale="   80.286">  5  6 -1 -1</clus>
<clus scale="   81.567">  5  9 -1 -1</clus>
<clus scale="   90.854">  7  8 -1 -1</clus>
<clus scale="  100.668">  1  7  2 -1</clus>
<clus scale="  183.156">  2  5  1 -1</clus>
</clustering>
</event>
<event>
 9    1  0.2728138E-005  0.5371239E+03  0.7546771E-02  0.1031388E+00
         21   -1    0    0  501  502  0.00000000000E+00  0.00000000000E+00  0.34532353357E+03  0.34532353357E+03  0.00000000000E+00 0.  1.
          1   -1    0    0  502    0 -0.00000000000E+00 -0.00000000000E+00 -0.44223338329E+03  0.44223338329E+03  0.00000000000E+00 0. -1.
         23    2    1    2    0    0 -0.87955691492E+02 -0.18391478261E+03 -0.79026526806E+02  0.25013536785E+03  0.12149756945E+03 0.  0.
        -24    2    1    2    0    0  0.20834522047E+03 -0.46213437966E+01  0.13964710886E+03  0.26382449752E+03  0.81688204569E+02 0.  0.
         13    1    4    4    0    0  0.55873008519E+02  0.35029374931E+02  0.47979947776E+02  0.81553207034E+02  0.00000000000E+00 0. -1.
        -14    1    4    4    0    0  0.15247221195E+03 -0.39650718727E+02  0.91667161085E+02  0.18227129049E+03  0.00000000000E+00 0.  1.
        -11    1    3    3    0    0 -0.46770187434E+02 -0.15261038074E+03 -0.10618296194E+03  0.19170863347E+03  0.00000000000E+00 0. -1.
         11    1    3    3    0    0 -0.41185504057E+02 -0.31304401876E+02  0.27156435134E+02  0.58426734381E+02  0.00000000000E+00 0.  1.
          2    1    1    2  501    0 -0.12038952898E+03  0.18853612641E+03 -0.15753043177E+03  0.27359705149E+03  0.00000000000E+00 0. -1.
<scales pt_clust_5="13000.00000" pt_clust_6="13000.00000" pt_clust_7="13000.00000" pt_clust_8="13000.00000" pt_clust_9="13000.00000"></scales>
<clustering>
<clus scale="   81.688">  5  6 -1 -1</clus>
<clus scale="  121.498">  7  8 -1 -1</clus>
<clus scale="  223.695">  5  9 -1 -1</clus>
<clus scale="  237.324">  2  7  1 -1</clus>
<clus scale="  537.124">  1  5  2 -1</clus>
</clustering>
</event>
<event>
 9    1  0.2728138E-005  0.4810847E+03  0.7546771E-02  0.1078575E+00
         21   -1    0    0  501  502  0.00000000000E+00  0.00000000000E+00  0.86704959861E+02  0.86704959861E+02  0.00000000000E+00 0. -1.
          1   -1    0    0  502    0 -0.00000000000E+00 -0.00000000000E+00 -0.96637870923E+03  0.96637870923E+03  0.00000000000E+00 0. -1.
         23    2    1    2    0    0 -0.14485958252E+02 -0.14445524289E+02 -0.22034851164E+03  0.23690215687E+03  0.84561511272E+02 0.  0.
        -24    2    1    2    0    0  0.17911693923E+03 -0.10721876605E+03 -0.52673951193E+03  0.57228699788E+03  0.80493184856E+02 0.  0.
         11    1    4    4    0    0  0.16652431066E+03 -0.11898348569E+03 -0.50218225094E+03  0.54228629806E+03  0.00000000000E+00 0. -1.
        -12    1    4    4    0    0  0.12592628565E+02  0.11764719641E+02 -0.24557260990E+02  0.30000699821E+02  0.00000000000E+00 0.  1.
        -13    1    3    3    0    0 -0.19426039369E+01  0.34819375614E+02 -0.70276051480E+02  0.78453081774E+02  0.00000000000E+00 0.  1.
         13    1    3    3    0    0 -0.12543354315E+02 -0.49264899903E+02 -0.15007246016E+03  0.15844907509E+03  0.00000000000E+00 0. -1.
          2    1    1    2  501    0 -0.16463098098E+03  0.12166429033E+03 -0.13258572580E+03  0.24389451434E+03  0.00000000000E+00 0. -1.
<scales pt_clust_5="13000.00000" pt_clust_6="13000.00000" pt_clust_7="13000.00000" pt_clust_8="13000.00000" pt_clust_9="13000.00000"></scales>
<clustering>
<clus scale="   80.493">  5  6 -1 -1</clus>
<clus scale="   84.562">  7  8 -1 -1</clus>
<clus scale="   87.001">  2  7  1 -1</clus>
<clus scale="  205.555">  5  9 -1 -1</clus>
<clus scale="  481.085">  1  5  2 -1</clus>
</clustering>
</event>
<event>
 9    1  0.2728138E-005  0.3235048E+03  0.7546771E-02  0.1095542E+00
          3   -1    0    0  502    0 -0.00000000000E+00  0.00000000000E+00  0.11350951096E+03  0.11350951096E+03  0.00000000000E+00 0. -1.
         21   -1    0    0  501  502  0.00000000000E+00 -0.00000000000E+00 -0.10004677890E+04  0.10004677890E+04  0.00000000000E+00 0. -1.
         23    2    1    2    0    0 -0.85407959186E+02  0.13218191277E+03 -0.73371953860E+03  0.75601433277E+03  0.91906106892E+02 0.  0.
        -24    2    1    2    0    0 -0.89461000651E+02 -0.79608970419E+02 -0.63934599580E+02  0.15469394156E+03  0.74173605303E+02 0.  0.
         11    1    4    4    0    0 -0.75338797441E+02 -0.93742856965E+02 -0.59710965546E+02  0.13427232417E+03  0.00000000000E+00 0. -1.
        -12    1    4    4    0    0 -0.14122203211E+02  0.14133886546E+02 -0.42236340343E+01  0.20421617391E+02  0.00000000000E+00 0.  1.
        -11    1    3    3    0    0 -0.31480139742E+02  0.12007834985E+03 -0.44178910563E+03  0.45889805311E+03  0.00000000000E+00 0.  1.
         11    1    3    3    0    0 -0.53927819444E+02  0.12103562925E+02 -0.29193043297E+03  0.29711627966E+03  0.00000000000E+00 0. -1.
          4    1    1    2  501    0  0.17486895984E+03 -0.52572942355E+02 -0.89304139865E+02  0.20326902563E+03  0.00000000000E+00 0. -1.
<scales pt_clust_5="13000.00000" pt_clust_6="13000.00000" pt_clust_7="13000.00000" pt_clust_8="13000.00000" pt_clust_9="13000.00000"></scales>
<clustering>
<clus scale="   74.174">  5  6 -1 -1</clus>
<clus scale="   91.906">  7  8 -1 -1</clus>
<clus scale="  182.245">  1  7  2 -1</clus>
<clus scale="  129.046">  5  9 -1 -1</clus>
<clus scale="  323.505">  2  5  1 -1</clus>
</clustering>
</event>
<event>
 9    1  0.2728138E-005  0.3138106E+03  0.7546771E-02  0.1090601E+00
         -4   -1    0    0    0  501 -0.00000000000E+00  0.00000000000E+00  0.28744271039E+03  0.28744271039E+03  0.00000000000E+00 0.  1.
         21   -1    0    0  501  502  0.00000000000E+00 -0.00000000000E+00 -0.29777472588E+03  0.29777472588E+03  0.00000000000E+00 0.  1.
         23    2    1    2    0    0 -0.20819805674E+03  0.13330037034E+01 -0.11451584795E+03  0.25456451979E+03  0.91329116803E+02 0.  0.
        -24    2    1    2    0    0  0.40820305734E+02 -0.52204551856E+02  0.11254209715E+03  0.15551558027E+03  0.84426059252E+02 0.  0.
         13    1    4    4    0    0 -0.26091166000E+02 -0.12760642011E+02  0.23531371421E+02  0.37380588127E+02  0.00000000000E+00 0. -1.
        -14    1    4    4    0    0  0.66911471735E+02 -0.39443909845E+02  0.89010725731E+02  0.11813499214E+03  0.00000000000E+00 0.  1.
        -11    1    3    3    0    0 -0.13403092586E+03  0.95114916346E+01 -0.22732405129E+02  0.13627736350E+03  0.00000000000E+00 0.  1.
         11    1    3    3    0    0 -0.74167130885E+02 -0.81784879311E+01 -0.91783442819E+02  0.11828715629E+03  0.00000000000E+00 0. -1.
         -3    1    1    2    0  502  0.16737775101E+03  0.50871548152E+02 -0.83582646958E+01  0.17513733620E+03  0.00000000000E+00 0.  1.
<scales pt_clust_5="13000.00000" pt_clust_6="13000.00000" pt_clust_7="13000.00000" pt_clust_8="13000.00000" pt_clust_9="13000.00000"></scales>
<clustering>
<clus scale="   84.426">  5  6 -1 -1</clus>
<clus scale="   91.329">  7  8 -1 -1</clus>
<clus scale="  174.938">  5  9 -1 -1</clus>
<clus scale="  227.353">  1  7  2 -1</clus>
<clus scale="  313.811">  2  5  1 -1</clus>
</clustering>
</event>
<event>
 9    1  0.2728138E-005  0.2814132E+03  0.7546771E-02  0.1135279E+00
         -4   -1    0    0    0  501 -0.00000000000E+00  0.00000000000E+00  0.40531618657E+03  0.40531618657E+03  0.00000000000E+00 0.  1.
         21   -1    0    0  501  502  0.00000000000E+00 -0.00000000000E+00 -0.10535430567E+03  0.10535430567E+03  0.00000000000E+00 0. -1.
         23    2    1    2    0    0  0.39874604558E+02  0.92238462673E+01  0.17587987455E+03  0.20311606738E+03  0.92991091676E+02 0.  0.
        -24    2    1    2    0    0  0.98338928596E+02  0.28693407798E+02  0.95789027634E+02  0.16146817790E+03  0.80016111702E+02 0.  0.
         13    1    4    4    0    0  0.74598014168E+02  0.47085542214E+02  0.37414480063E+02  0.95821476308E+02  0.00000000000E+00 0. -1.
        -14    1    4    4    0    0  0.23740914428E+02 -0.18392134416E+02  0.58374547571E+02  0.65646701596E+02  0.00000000000E+00 0.  1.
        -11    1    3    3    0    0  0.55840198598E+02  0.38794050347E+02  0.11732538310E+03  0.13560365645E+03  0.00000000000E+00 0.  1.
         11    1    3    3    0    0 -0.15965594040E+02 -0.29570204080E+02  0.58554491441E+02  0.67512410935E+02  0.00000000000E+00 0. -1.
         -3    1    1    2    0  502 -0.13821353315E+03 -0.37917254066E+02  0.28292978723E+02  0.14608624695E+03  0.00000000000E+00 0.  1.
<scales pt_clust_5="13000.00000" pt_clust_6="13000.00000" pt_clust_7="13000.00000" pt_clust_8="13000.00000" pt_clust_9="13000.00000"></scales>
<clustering>
<clus scale="   80.016">  5  6 -1 -1</clus>
<clus scale="   92.991">  7  8 -1 -1</clus>
<clus scale="  101.599">  1  7  2 -1</clus>
<clus scale="  126.801">  5  9 -1 -1</clus>
<clus scale="  281.413">  2  5  1 -1</clus>
</clustering>
</event>
<event>
 9    1  0.2728138E-005  0.2986287E+03  0.7546771E-02  0.1109756E+00
          3   -1    0    0  502    0 -0.00000000000E+00  0.00000000000E+00  0.10466686971E+03  0.10466686971E+03  0.00000000000E+00 0. -1.
         21   -1    0    0  501  502  0.00000000000E+00 -0.00000000000E+00 -0.57236477880E+03  0.57236477880E+03  0.00000000000E+00 0. -1.
         23    2    1    2    0    0  0.13290205655E+03 -0.34596580152E+00 -0.28458588393E+03  0.32673303124E+03  0.90012621608E+02 0.  0.
        -24    2    1    2    0    0  0.42462723102E+02  0.59169809923E+02 -0.99743518756E+02  0.14741106604E+03  0.80480454764E+02 0.  0.
         11    1    4    4    0    0  0.65648319008E+01  0.56187450980E+02 -0.95691923684E+02  0.11116236289E+03  0.00000000000E+00 0. -1.
        -12    1    4    4    0    0  0.35897891201E+02  0.29823589431E+01 -0.40515950720E+01  0.36248703152E+02  0.00000000000E+00 0.  1.
        -13    1    3    3    0    0  0.27920924682E+02  0.29565807856E+02 -0.32601364776E+02  0.52120667825E+02  0.00000000000E+00 0.  1.
         13    1    3    3    0    0  0.10498113187E+03 -0.29911773657E+02 -0.25198451915E+03  0.27461236342E+03  0.00000000000E+00 0. -1.
          4    1    1    2  501    0 -0.17536477965E+03 -0.58823844121E+02 -0.83368506415E+02  0.20288755122E+03  0.00000000000E+00 0. -1.
<scales pt_clust_5="13000.00000" pt_clust_6="13000.00000" pt_clust_7="13000.00000" pt_clust_8="13000.00000" pt_clust_9="13000.00000"></scales>
<clustering>
<clus scale="   80.480">  5  6 -1 -1</clus>
<clus scale="   90.013">  7  8 -1 -1</clus>
<clus scale="  160.516">  1  7  2 -1</clus>
<clus scale="   99.732">  5  9 -1 -1</clus>
<clus scale="  298.629">  2  5  1 -1</clus>
</clustering>
</event>
<event>
 9    1  0.2728138E-005  0.1880209E+03  0.7546771E-02  0.1173168E+00
          3   -1    0    0  502    0 -0.00000000000E+00  0.00000000000E+00  0.58039525441E+03  0.58039525441E+03  0.00000000000E+00 0. -1.
         21   -1    0    0  501  502  0.00000000000E+00 -0.00000000000E+00 -0.46553377788E+02  0.46553377788E+02  0.00000000000E+00 0. -1.
         23    2    1    2    0    0 -0.10517080311E+03  0.43625007288E+01  0.25223843443E+03  0.28834511703E+03  0.91862666352E+02 0.  0.
        -24    2    1    2    0    0  0.54846948799E+02  0.28300828150E+02  0.86130538450E+02  0.13413092663E+03  0.82240568818E+02 0.  0.
         13    1    4    4    0    0  0.30320132591E+02  0.31642759657E+02 -0.71127206382E+00  0.43830133322E+02  0.00000000000E+00 0. -1.
        -14    1    4    4    0    0  0.24526816208E+02 -0.33419315071E+01  0.86841810514E+02  0.90300793313E+02  0.00000000000E+00 0.  1.
        -11    1    3    3    0    0 -0.84780763389E+02 -0.31067262057E+02  0.21442015130E+03  0.23265629993E+03  0.00000000000E+00 0. -1.
         11    1    3    3    0    0 -0.20390039721E+02  0.35429762785E+02  0.37818283130E+02  0.55688817098E+02  0.00000000000E+00 0.  1.
          4    1    1    2  501    0  0.50323854311E+02 -0.32663328879E+02  0.19547290374E+03  0.20447258854E+03  0.00000000000E+00 0. -1.
<scales pt_clust_5="13000.00000" pt_clust_6="13000.00000" pt_clust_7="13000.00000" pt_clust_8="13000.00000" pt_clust_9="13000.00000"></scales>
<clustering>
<clus scale="   82.241">  5  6 -1 -1</clus>
<clus scale="   59.995">  5  9 -1 -1</clus>
<clus scale="   91.863">  7  8 -1 -1</clus>
<clus scale="  139.709">  1  7  2 -1</clus>
<clus scale="  188.021">  2  5  1 -1</clus>
</clustering>
</event>
<event>
 9    1  0.2728138E-005  0.1892224E+03  0.7546771E-02  0.1176456E+00
         21   -1    0    0  501  502  0.00000000000E+00  0.00000000000E+00  0.42114234527E+02  0.42114234527E+02  0.00000000000E+00 0. -1.
          1   -1    0    0  502    0 -0.00000000000E+00 -0.00000000000E+00 -0.60133123580E+03  0.60133123580E+03  0.00000000000E+00 0. -1.
         23    2    1    2    0    0  0.95189939626E+02  0.19636580866E+02 -0.25930314487E+03  0.28882813832E+03  0.82078332284E+02 0.  0.
        -24    2    1    2    0    0  0.74266713246E+01 -0.30457231825E+02 -0.11454613104E+03  0.14246538425E+03  0.78694162154E+02 0.  0.
         13    1    4    4    0    0 -0.13211350298E+02 -0.51008135459E+02 -0.54935763514E+02  0.76120350581E+02  0.00000000000E+00 0. -1.
        -14    1    4    4    0    0  0.20638021623E+02  0.20550903633E+02 -0.59610367522E+02  0.66345033671E+02  0.00000000000E+00 0.  1.
        -13    1    3    3    0    0  0.60505819716E+02  0.23820107235E+02 -0.66960043002E+02  0.93338090226E+02  0.00000000000E+00 0. -1.
         13    1    3    3    0    0  0.34684119910E+02 -0.41835263689E+01 -0.19234310187E+03  0.19549004809E+03  0.00000000000E+00 0.  1.
          2    1    1    2  501    0 -0.10261661095E+03  0.10820650959E+02 -0.18536772537E+03  0.21215194776E+03  0.00000000000E+00 0. -1.
<scales pt_clust_5="13000.00000" pt_clust_6="13000.00000" pt_clust_7="13000.00000" pt_clust_8="13000.00000" pt_clust_9="13000.00000"></scales>
<clustering>
<clus scale="   78.694">  5  6 -1 -1</clus>
<clus scale="   82.078">  7  8 -1 -1</clus>
<clus scale="  103.186">  5  9 -1 -1</clus>
<clus scale="  127.215">  2  7  1 -1</clus>
<clus scale="  189.222">  1  5  2 -1</clus>
</clustering>
</event>
<event>
 9    1  0.2728138E-005  0.4178689E+03  0.7546771E-02  0.1080021E+00
         21   -1    0    0  501  502  0.00000000000E+00  0.00000000000E+00  0.94393808020E+02  0.94393808020E+02  0.00000000000E+00 0. -1.
          1   -1    0    0  502    0 -0.00000000000E+00 -0.00000000000E+00 -0.17566986618E+04  0.17566986618E+04  0.00000000000E+00 0. -1.
         23    2    1    2    0    0 -0.76023033144E+02  0.46245639287E+02  0.93295047546E+01  0.12802084354E+03  0.91564927783E+02 0.  0.
        -24    2    1    2    0    0 -0.13632518104E+03 -0.84783656161E+02 -0.49008553971E+03  0.52197439704E+03  0.80626370384E+02 0.  0.
         11    1    4    4    0    0 -0.53446944809E+02 -0.80498451260E+02 -0.26864170122E+03  0.28549070072E+03  0.00000000000E+00 0. -1.
        -12    1    4    4    0    0 -0.82878236231E+02 -0.42852049013E+01 -0.22144383849E+03  0.23648369632E+03  0.00000000000E+00 0.  1.
        -11    1    3    3    0    0  0.13047876802E+02  0.33484494001E+02 -0.68869645613E+01  0.36590828201E+02  0.00000000000E+00 0.  1.
         11    1    3    3    0    0 -0.89070909946E+02  0.12761145286E+02  0.16216469316E+02  0.91430015338E+02  0.00000000000E+00 0. -1.
          2    1    1    2  501    0  0.21234821418E+03  0.38538016874E+02 -0.11815488188E+04  0.12010972292E+04  0.00000000000E+00 0. -1.
<scales pt_clust_5="13000.00000" pt_clust_6="13000.00000" pt_clust_7="13000.00000" pt_clust_8="13000.00000" pt_clust_9="13000.00000"></scales>
<clustering>
<clus scale="   80.626">  5  6 -1 -1</clus>
<clus scale="   91.565">  7  8 -1 -1</clus>
<clus scale="  127.681">  2  7  1 -1</clus>
<clus scale="  174.122">  5  9 -1 -1</clus>
<clus scale="  417.869">  1  5  2 -1</clus>
</clustering>
</event>
<event>
 9    1  0.2728138E-005  0.3092120E+03  0.7546771E-02  0.1119812E+00
         21   -1    0    0  501  502  0.00000000000E+00  0.00000000000E+00  0.64654831773E+02  0.64654831773E+02  0.00000000000E+00 0. -1.
          3   -1    0    0  502    0 -0.00000000000E+00 -0.00000000000E+00 -0.97984419944E+03  0.97984419944E+03  0.00000000000E+00 0. -1.
         23    2    1    2    0    0  0.44694001319E+02  0.47270133558E+02 -0.44742061358E+02  0.12076175122E+03  0.91375758396E+02 0.  0.
        -24    2    1    2    0    0 -0.10658614514E+03  0.82201600893E+02 -0.57265974450E+03  0.59317563755E+03  0.76160649193E+02 0.  0.
         13    1    4    4    0    0 -0.79807165361E+02  0.34744269265E+02 -0.22460624138E+03  0.24088236041E+03  0.00000000000E+00 0. -1.
        -14    1    4    4    0    0 -0.26778979778E+02  0.47457331628E+02 -0.34805350312E+03  0.35229327714E+03  0.00000000000E+00 0.  1.
        -11    1    3    3    0    0  0.36534936172E+02  0.13168252370E+02  0.22531481973E+02  0.44898464466E+02  0.00000000000E+00 0. -1.
         11    1    3    3    0    0  0.81590651476E+01  0.34101881187E+02 -0.67273543331E+02  0.75863286753E+02  0.00000000000E+00 0.  1.
          4    1    1    2  501    0  0.61892143820E+02 -0.12947173445E+03 -0.29778756181E+03  0.33056164245E+03  0.00000000000E+00 0. -1.
<scales pt_clust_5="13000.00000" pt_clust_6="13000.00000" pt_clust_7="13000.00000" pt_clust_8="13000.00000" pt_clust_9="13000.00000"></scales>
<clustering>
<clus scale="   76.161">  5  6 -1 -1</clus>
<clus scale="   91.376">  7  8 -1 -1</clus>
<clus scale="  112.168">  2  7  1 -1</clus>
<clus scale="  136.980">  5  9 -1 -1</clus>
<clus scale="  309.212">  1  5  2 -1</clus>
</clustering>
</event>
<event>
 9    1  0.2728138E-005  0.2366265E+03  0.7546771E-02  0.1150940E+00
          1   -1    0    0  502    0 -0.00000000000E+00  0.00000000000E+00  0.11923556145E+04  0.11923556145E+04  0.00000000000E+00 0. -1.
         21   -1    0    0  501  502  0.00000000000E+00 -0.00000000000E+00 -0.26449222975E+02  0.26449222975E+02  0.00000000000E+00 0.  1.
         23    2    1    2    0    0 -0.13340253441E+02 -0.57415627748E+02  0.34131685948E+03  0.36093537313E+03  0.10150186372E+03 0.  0.
        -24    2    1    2    0    0 -0.14741928307E+02  0.13185419495E+03  0.48090710555E+03  0.50509854789E+03  0.79057230725E+02 0.  0.
         11    1    4    4    0    0  0.13841004894E+02  0.42081354915E+02  0.65040413530E+02  0.78693514600E+02  0.00000000000E+00 0. -1.
        -12    1    4    4    0    0 -0.28582933201E+02  0.89772840037E+02  0.41586669202E+03  0.42640503329E+03  0.00000000000E+00 0.  1.
        -11    1    3    3    0    0 -0.56128381840E+02 -0.29389140860E+02  0.22741626079E+03  0.23607683605E+03  0.00000000000E+00 0. -1.
         11    1    3    3    0    0  0.42788128399E+02 -0.28026486888E+02  0.11390059869E+03  0.12485853708E+03  0.00000000000E+00 0.  1.
          2    1    1    2  501    0  0.28082181748E+02 -0.74438567204E+02  0.34368242648E+03  0.35277091645E+03  0.00000000000E+00 0. -1.
<scales pt_clust_5="13000.00000" pt_clust_6="13000.00000" pt_clust_7="13000.00000" pt_clust_8="13000.00000" pt_clust_9="13000.00000"></scales>
<clustering>
<clus scale="   79.057">  5  6 -1 -1</clus>
<clus scale="   79.560">  5  9 -1 -1</clus>
<clus scale="  101.502">  7  8 -1 -1</clus>
<clus scale="  117.376">  1  7  2 -1</clus>
<clus scale="  236.627">  2  5  1 -1</clus>
</clustering>
</event>
<event>
 9    1  0.2728138E-005  0.2081200E+03  0.7546771E-02  0.1177210E+00
          3   -1    0    0  502    0 -0.00000000000E+00  0.00000000000E+00  0.10385077756E+03  0.10385077756E+03  0.00000000000E+00 0. -1.
         21   -1    0    0  501  502  0.00000000000E+00 -0.00000000000E+00 -0.22696822126E+03  0.22696822126E+03  0.00000000000E+00 0. -1.
         23    2    1    2    0    0  0.93087920939E+01  0.20873336889E+02 -0.11610067270E+02  0.94709260135E+02  0.91174012143E+02 0.  0.
        -24    2    1    2    0    0 -0.75318990581E+02  0.24718982473E+02 -0.20958445101E+02  0.11513405991E+03  0.80824605744E+02 0.  0.
         13    1    4    4    0    0 -0.12681226374E+02  0.36869685827E+02 -0.31925861249E+02  0.50392934543E+02  0.00000000000E+00 0. -1.
        -14    1    4    4    0    0 -0.62637764206E+02 -0.12150703354E+02  0.10967416149E+02  0.64741125367E+02  0.00000000000E+00 0.  1.
        -11    1    3    3    0    0  0.45518115845E+02 -0.92773942140E+01 -0.12809870023E+01  0.46471602525E+02  0.00000000000E+00 0.  1.
         11    1    3    3    0    0 -0.36209323752E+02  0.30150731103E+02 -0.10329080268E+02  0.48237657611E+02  0.00000000000E+00 0. -1.
          4    1    1    2  501    0  0.66010198487E+02 -0.45592319362E+02 -0.90548931330E+02  0.12097567877E+03  0.00000000000E+00 0. -1.
<scales pt_clust_5="13000.00000" pt_clust_6="13000.00000" pt_clust_7="13000.00000" pt_clust_8="13000.00000" pt_clust_9="13000.00000"></scales>
<clustering>
<clus scale="   80.825">  5  6 -1 -1</clus>
<clus scale="   80.225">  5  9 -1 -1</clus>
<clus scale="   91.174">  7  8 -1 -1</clus>
<clus scale="   93.995">  1  7  2 -1</clus>
<clus scale="  208.120">  2  5  1 -1</clus>
</clustering>
</event>
<event>
 9    1  0.2728138E-005  0.4588888E+03  0.7546771E-02  0.1070650E+00
          1   -1    0    0  502    0 -0.00000000000E+00  0.00000000000E+00  0.13376921844E+04  0.13376921844E+04  0.00000000000E+00 0. -1.
         21   -1    0    0  501  502  0.00000000000E+00 -0.00000000000E+00 -0.63731553240E+02  0.63731553240E+02  0.00000000000E+00 0. -1.
         23    2    1    2    0    0  0.35006787763E+01  0.82334043150E+02  0.30068061880E+03  0.32538797782E+03  0.93152306336E+02 0.  0.
        -24    2    1    2    0    0  0.14488064758E+03  0.30127981074E+02  0.81304631469E+03  0.83039463384E+03  0.81319375226E+02 0.  0.
         13    1    4    4    0    0  0.15045701009E+03  0.17655062021E+02  0.68114477821E+03  0.69778737591E+03  0.00000000000E+00 0. -1.
        -14    1    4    4    0    0 -0.55763625072E+01  0.12472919054E+02  0.13190153648E+03  0.13260725793E+03  0.00000000000E+00 0.  1.
        -11    1    3    3    0    0  0.12830316175E+01  0.10322277680E+03  0.24392674565E+03  0.26487137457E+03  0.00000000000E+00 0. -1.
         11    1    3    3    0    0  0.22176471588E+01 -0.20888733648E+02  0.56753873147E+02  0.60516603255E+02  0.00000000000E+00 0.  1.
          2    1    1    2  501    0 -0.14838132636E+03 -0.11246202422E+03  0.16023369767E+03  0.24564112598E+03  0.00000000000E+00 0. -1.
<scales pt_clust_5="13000.00000" pt_clust_6="13000.00000" pt_clust_7="13000.00000" pt_clust_8="13000.00000" pt_clust_9="13000.00000"></scales>
<clustering>
<clus scale="   81.319">  5  6 -1 -1</clus>
<clus scale="   93.152">  7  8 -1 -1</clus>
<clus scale="  124.372">  1  7  2 -1</clus>
<clus scale="  176.232">  5  9 -1 -1</clus>
<clus scale="  458.889">  2  5  1 -1</clus>
</clustering>
</event>
<event>
 9    1  0.2728138E-005  0.3826577E+03  0.7546771E-02  0.1099526E+00
         21   -1    0    0  501  502  0.00000000000E+00  0.00000000000E+00  0.62964100955E+02  0.62964100955E+02  0.00000000000E+00 0. -1.
          1   -1    0    0  502    0 -0.00000000000E+00 -0.00000000000E+00 -0.10385515125E+04  0.10385515125E+04  0.00000000000E+00 0. -1.
         23    2    1    2    0    0 -0.32465137248E+02 -0.49312730612E+01 -0.38659858111E+03  0.39913768895E+03  0.93670322048E+02 0.  0.
        -24    2    1    2    0    0 -0.88088902790E+02  0.36137079110E+02 -0.25827217785E+02  0.12561273757E+03  0.77755844665E+02 0.  0.
         11    1    4    4    0    0 -0.92250825653E+02  0.43756484885E+02 -0.40654627530E+01  0.10218303573E+03  0.00000000000E+00 0. -1.
        -12    1    4    4    0    0  0.41619228630E+01 -0.76194057747E+01 -0.21761755032E+02  0.23429701840E+02  0.00000000000E+00 0.  1.
        -11    1    3    3    0    0 -0.51357970442E+02 -0.32935505188E+02 -0.30086397099E+03  0.30698781355E+03  0.00000000000E+00 0. -1.
         11    1    3    3    0    0  0.18892833194E+02  0.28004232127E+02 -0.85734610122E+02  0.92149875399E+02  0.00000000000E+00 0.  1.
          2    1    1    2  501    0  0.12055404004E+03 -0.31205806049E+02 -0.56316161264E+03  0.57676518693E+03  0.00000000000E+00 0. -1.
<scales pt_clust_5="13000.00000" pt_clust_6="13000.00000" pt_clust_7="13000.00000" pt_clust_8="13000.00000" pt_clust_9="13000.00000"></scales>
<clustering>
<clus scale="   77.756">  5  6 -1 -1</clus>
<clus scale="   93.670">  7  8 -1 -1</clus>
<clus scale="   99.259">  2  7  1 -1</clus>
<clus scale="   98.536">  5  9 -1 -1</clus>
<clus scale="  382.658">  1  5  2 -1</clus>
</clustering>
</event>
<event>
 9    1  0.2728138E-005  0.2367246E+03  0.7546771E-02  0.1154040E+00
         21   -1    0    0  501  502  0.00000000000E+00  0.00000000000E+00  0.10081262879E+03  0.10081262879E+03  0.00000000000E+00 0.  1.
          1   -1    0    0  502    0 -0.00000000000E+00 -0.00000000000E+00 -0.33833084359E+03  0.33833084359E+03  0.00000000000E+00 0. -1.
         23    2    1    2    0    0  0.34141093207E+02 -0.45340642761E+02 -0.77348229483E+01  0.10923597699E+03  0.93012273667E+02 0.  0.
        -24    2    1    2    0    0 -0.28205834896E+02 -0.53677799659E+01  0.10756909632E+02  0.84008719324E+02  0.78213628184E+02 0.  0.
         13    1    4    4    0    0  0.82681827073E+01 -0.33214391982E+02 -0.67617992507E+01  0.34889548710E+02  0.00000000000E+00 0. -1.
        -14    1    4    4    0    0 -0.36474017603E+02  0.27846612017E+02  0.17518708883E+02  0.49119170614E+02  0.00000000000E+00 0.  1.
        -11    1    3    3    0    0  0.18376976082E+02 -0.68970761241E+02  0.14899043104E+02  0.72915434865E+02  0.00000000000E+00 0.  1.
         11    1    3    3    0    0  0.15764117125E+02  0.23630118481E+02 -0.22633866053E+02  0.36320542130E+02  0.00000000000E+00 0. -1.
          2    1    1    2  501    0 -0.59352583105E+01  0.50708422726E+02 -0.24054030149E+03  0.24589877606E+03  0.00000000000E+00 0. -1.
<scales pt_clust_5="13000.00000" pt_clust_6="13000.00000" pt_clust_7="13000.00000" pt_clust_8="13000.00000" pt_clust_9="13000.00000"></scales>
<clustering>
<clus scale="   78.214">  5  6 -1 -1</clus>
<clus scale="   51.055">  5  9 -1 -1</clus>
<clus scale="   93.012">  7  8 -1 -1</clus>
<clus scale="  108.962">  2  7  1 -1</clus>
<clus scale="  236.725">  1  5  2 -1</clus>
</clustering>
</event>
<event>
 9    1  0.2728138E-005  0.1471438E+03  0.7546771E-02  0.1213786E+00
         21   -1    0    0  501  502  0.00000000000E+00  0.00000000000E+00  0.15760504155E+03  0.15760504155E+03  0.00000000000E+00 0.  1.
          1   -1    0    0  502    0 -0.00000000000E+00 -0.00000000000E+00 -0.20143104674E+03  0.20143104674E+03  0.00000000000E+00 0. -1.
         23    2    1    2    0    0  0.72837711627E+02 -0.12017842468E+02 -0.13941592955E+03  0.18356894104E+03  0.93866894750E+02 0.  0.
        -24    2    1    2    0    0 -0.72315581925E+02 -0.12662731128E+02  0.51703904832E+02  0.12511453020E+03  0.87123267525E+02 0.  0.
         13    1    4    4    0    0 -0.81553795380E+02 -0.24227484336E+01  0.66227930296E+02  0.10508582208E+03  0.00000000000E+00 0. -1.
        -14    1    4    4    0    0  0.92382134543E+01 -0.10239982695E+02 -0.14524025464E+02  0.20028708124E+02  0.00000000000E+00 0.  1.
        -13    1    3    3    0    0  0.30605178285E+02 -0.44516936995E+02 -0.29825341701E+02  0.61708878007E+02  0.00000000000E+00 0.  1.
         13    1    3    3    0    0  0.42232533342E+02  0.32499094527E+02 -0.10959058785E+03  0.12186006304E+03  0.00000000000E+00 0. -1.
          2    1    1    2  501    0 -0.52212970156E+00  0.24680573596E+02  0.43886019536E+02  0.50352617044E+02  0.00000000000E+00 0. -1.
<scales pt_clust_5="13000.00000" pt_clust_6="13000.00000" pt_clust_7="13000.00000" pt_clust_8="13000.00000" pt_clust_9="13000.00000"></scales>
<clustering>
<clus scale="   87.123">  5  6 -1 -1</clus>
<clus scale="   24.686">  5  9 -1 -1</clus>
<clus scale="   93.867">  7  8 -1 -1</clus>
<clus scale="  119.418">  2  7  1 -1</clus>
<clus scale="  147.144">  1  5  2 -1</clus>
</clustering>
</event>
<event>
 9    1  0.2728138E-005  0.1982730E+03  0.7546771E-02  0.1162144E+00
         21   -1    0    0  501  502  0.00000000000E+00  0.00000000000E+00  0.10648345391E+03  0.10648345391E+03  0.00000000000E+00 0. -1.
          1   -1    0    0  502    0 -0.00000000000E+00 -0.00000000000E+00 -0.32367401490E+03  0.32367401490E+03  0.00000000000E+00 0. -1.
         23    2    1    2    0    0  0.12343356160E+03  0.14907467625E+02 -0.27792684671E+02  0.15596096324E+03  0.89962836849E+02 0.  0.
        -24    2    1    2    0    0 -0.14533685977E+02  0.16168802765E+02 -0.87278300225E+02  0.12170609501E+03  0.81989106967E+02 0.  0.
         13    1    4    4    0    0 -0.26170105430E+02  0.40796714033E+02 -0.79957191918E+02  0.93500795898E+02  0.00000000000E+00 0. -1.
        -14    1    4    4    0    0  0.11636419453E+02 -0.24627911268E+02 -0.73211083069E+01  0.28205299111E+02  0.00000000000E+00 0.  1.
        -13    1    3    3    0    0  0.10830143710E+03 -0.24300834390E+02 -0.14832334470E+02  0.11198093577E+03  0.00000000000E+00 0. -1.
         13    1    3    3    0    0  0.15132124492E+02  0.39208302015E+02 -0.12960350201E+02  0.43980027466E+02  0.00000000000E+00 0.  1.
          2    1    1    2  501    0 -0.10889987562E+03 -0.31076270390E+02 -0.10211957610E+03  0.15249041056E+03  0.00000000000E+00 0. -1.
<scales pt_clust_5="13000.00000" pt_clust_6="13000.00000" pt_clust_7="13000.00000" pt_clust_8="13000.00000" pt_clust_9="13000.00000"></scales>
<clustering>
<clus scale="   81.989">  5  6 -1 -1</clus>
<clus scale="   89.963">  7  8 -1 -1</clus>
<clus scale="  113.247">  5  9 -1 -1</clus>
<clus scale="  153.465">  2  7  1 -1</clus>
<clus scale="  198.273">  1  5  2 -1</clus>
</clustering>
</event>
<event>
 9    1  0.2728138E-005  0.1488578E+03  0.7546771E-02  0.1216028E+00
          1   -1    0    0  502    0 -0.00000000000E+00  0.00000000000E+00  0.24089675105E+03  0.24089675105E+03  0.00000000000E+00 0. -1.
         21   -1    0    0  501  502  0.00000000000E+00 -0.00000000000E+00 -0.14674496883E+03  0.14674496883E+03  0.00000000000E+00 0.  1.
         23    2    1    2    0    0  0.31423546910E+02 -0.54082932682E+02  0.18356369410E+03  0.21399511394E+03  0.90475831540E+02 0.  0.
        -24    2    1    2    0    0 -0.64006658840E+02  0.37838360651E+02 -0.51621779263E+02  0.12117147443E+03  0.80555100458E+02 0.  0.
         11    1    4    4    0    0 -0.24410815908E+02  0.43050897121E+02  0.72636323168E+01  0.50020276196E+02  0.00000000000E+00 0. -1.
        -12    1    4    4    0    0 -0.39595842932E+02 -0.52125364709E+01 -0.58885411580E+02  0.71151198239E+02  0.00000000000E+00 0.  1.
        -13    1    3    3    0    0 -0.28945954486E+02 -0.12525036369E+01  0.60706953798E+02  0.67266420195E+02  0.00000000000E+00 0.  1.
         13    1    3    3    0    0  0.60369501396E+02 -0.52830429045E+02  0.12285674030E+03  0.14672869375E+03  0.00000000000E+00 0. -1.
          2    1    1    2  501    0  0.32583111930E+02  0.16244572031E+02 -0.37790132612E+02  0.52475131504E+02  0.00000000000E+00 0. -1.
<scales pt_clust_5="13000.00000" pt_clust_6="13000.00000" pt_clust_7="13000.00000" pt_clust_8="13000.00000" pt_clust_9="13000.00000"></scales>
<clustering>
<clus scale="   80.555">  5  6 -1 -1</clus>
<clus scale="   36.408">  5  9 -1 -1</clus>
<clus scale="   90.476">  7  8 -1 -1</clus>
<clus scale="  109.992">  1  7  2 -1</clus>
<clus scale="  148.858">  2  5  1 -1</clus>
</clustering>
</event>
<event>
 9    1  0.2728138E-005  0.1893875E+03  0.7546771E-02  0.1175362E+00
         21   -1    0    0  501  502  0.00000000000E+00  0.00000000000E+00  0.77310839417E+02  0.77310839417E+02  0.00000000000E+00 0. -1.
          1   -1    0    0  502    0 -0.00000000000E+00 -0.00000000000E+00 -0.33556166840E+03  0.33556166840E+03  0.00000000000E+00 0. -1.
         23    2    1    2    0    0 -0.84767258941E+02  0.31486569156E+02 -0.13168462165E+03  0.18508617555E+03  0.93483477560E+02 0.  0.
        -24    2    1    2    0    0  0.48725243905E+02  0.29812181522E+02 -0.12223588204E+03  0.15654508438E+03  0.79384110656E+02 0.  0.
         13    1    4    4    0    0 -0.20636089899E+02 -0.14945252126E+01 -0.36094696758E+02  0.41604193851E+02  0.00000000000E+00 0. -1.
        -14    1    4    4    0    0  0.69361333804E+02  0.31306706735E+02 -0.86141185280E+02  0.11494089053E+03  0.00000000000E+00 0.  1.
        -11    1    3    3    0    0 -0.27902641714E+02  0.62930994808E+00  0.97440692566E+01  0.29561805278E+02  0.00000000000E+00 0.  1.
         11    1    3    3    0    0 -0.56864617227E+02  0.30857259208E+02 -0.14142869091E+03  0.15552437028E+03  0.00000000000E+00 0. -1.
          2    1    1    2  501    0  0.36042015036E+02 -0.61298750678E+02 -0.43303252926E+01  0.71241247881E+02  0.00000000000E+00 0. -1.
<scales pt_clust_5="13000.00000" pt_clust_6="13000.00000" pt_clust_7="13000.00000" pt_clust_8="13000.00000" pt_clust_9="13000.00000"></scales>
<clustering>
<clus scale="   79.384">  5  6 -1 -1</clus>
<clus scale="   71.110">  5  9 -1 -1</clus>
<clus scale="   93.483">  7  8 -1 -1</clus>
<clus scale="  130.062">  2  7  1 -1</clus>
<clus scale="  189.387">  1  5  2 -1</clus>
</clustering>
</event>
<event>
 9    1  0.2728138E-005  0.5153527E+03  0.7546771E-02  0.1066192E+00
          1   -1    0    0  502    0 -0.00000000000E+00  0.00000000000E+00  0.10344051165E+04  0.10344051165E+04  0.00000000000E+00 0. -1.
         21   -1    0    0  501  502  0.00000000000E+00 -0.00000000000E+00 -0.94388416281E+02  0.94388416281E+02  0.00000000000E+00 0. -1.
         23    2    1    2    0    0 -0.21348580655E+02 -0.21348480150E+02  0.86084998667E+02  0.13140304691E+03  0.94575970736E+02 0.  0.
        -24    2    1    2    0    0  0.26028594475E+03  0.21634927208E+02  0.38733234425E+03  0.47317096482E+03  0.75150342295E+02 0.  0.
         11    1    4    4    0    0  0.21475876697E+03 -0.54682384259E+01  0.33966823454E+03  0.40190264888E+03  0.00000000000E+00 0. -1.
        -12    1    4    4    0    0  0.45527177773E+02  0.27103165634E+02  0.47664109710E+02  0.71268315946E+02  0.00000000000E+00 0.  1.
        -13    1    3    3    0    0 -0.10693467291E+02  0.36281761305E+02  0.19017150251E+02  0.42336372657E+02  0.00000000000E+00 0. -1.
         13    1    3    3    0    0 -0.10655113364E+02 -0.57630241455E+02  0.67067848416E+02  0.89066674251E+02  0.00000000000E+00 0.  1.
          2    1    1    2  501    0 -0.23893736409E+03 -0.28644705824E+00  0.46659935731E+03  0.52421952106E+03  0.00000000000E+00 0. -1.
<scales pt_clust_5="13000.00000" pt_clust_6="13000.00000" pt_clust_7="13000.00000" pt_clust_8="13000.00000" pt_clust_9="13000.00000"></scales>
<clustering>
<clus scale="   75.150">  5  6 -1 -1</clus>
<clus scale="   94.576">  7  8 -1 -1</clus>
<clus scale="   99.278">  1  7  2 -1</clus>
<clus scale="  250.637">  5  9 -1 -1</clus>
<clus scale="  515.353">  2  5  1 -1</clus>
</clustering>
</event>
<event>
 9    1  0.2728138E-005  0.2550543E+03  0.7546771E-02  0.1148272E+00
          3   -1    0    0  502    0 -0.00000000000E+00  0.00000000000E+00  0.74094929321E+02  0.74094929321E+02  0.00000000000E+00 0. -1.
         21   -1    0    0  501  502  0.00000000000E+00 -0.00000000000E+00 -0.58134320209E+03  0.58134320209E+03  0.00000000000E+00 0. -1.
         23    2    1    2    0    0  0.35711615494E+02  0.61015595270E+01 -0.14907940049E+02  0.10095488183E+03  0.93043500464E+02 0.  0.
        -24    2    1    2    0    0 -0.11771132669E+03 -0.36944125414E+02 -0.35377150583E+03  0.39054260089E+03  0.11021987090E+03 0.  0.
         11    1    4    4    0    0 -0.12896868938E+03 -0.50002936483E+02 -0.34389935394E+03  0.37067503576E+03  0.00000000000E+00 0. -1.
        -12    1    4    4    0    0  0.11257362690E+02  0.13058811068E+02 -0.98721518887E+01  0.19867565129E+02  0.00000000000E+00 0.  1.
        -11    1    3    3    0    0  0.57733123332E+02  0.20404931887E+02  0.13040180438E+02  0.62606078626E+02  0.00000000000E+00 0.  1.
         11    1    3    3    0    0 -0.22021507838E+02 -0.14303372360E+02 -0.27948120487E+02  0.38348803203E+02  0.00000000000E+00 0. -1.
          4    1    1    2  501    0  0.81999711197E+02  0.30842565888E+02 -0.13856882689E+03  0.16394064869E+03  0.00000000000E+00 0. -1.
<scales pt_clust_5="13000.00000" pt_clust_6="13000.00000" pt_clust_7="13000.00000" pt_clust_8="13000.00000" pt_clust_9="13000.00000"></scales>
<clustering>
<clus scale="   93.044">  7  8 -1 -1</clus>
<clus scale="   99.848">  1  7  2 -1</clus>
<clus scale="  110.220">  5  6 -1 -1</clus>
<clus scale="  102.171">  5  9 -1 -1</clus>
<clus scale="  255.054">  2  5  1 -1</clus>
</clustering>
</event>
<event>
 9    1  0.2728138E-005  0.1725616E+03  0.7546771E-02  0.1200671E+00
          1   -1    0    0  502    0 -0.00000000000E+00  0.00000000000E+00  0.59814508856E+03  0.59814508856E+03  0.00000000000E+00 0. -1.
         21   -1    0    0  501  502  0.00000000000E+00 -0.00000000000E+00 -0.40450092104E+02  0.40450092104E+02  0.00000000000E+00 0. -1.
         23    2    1    2    0    0 -0.32654791106E+02  0.15795088124E+02  0.37361837953E+03  0.38628243281E+03  0.91146059618E+02 0.  0.
        -24    2    1    2    0    0 -0.35832353764E+02  0.27042023072E+02  0.92233562950E+02  0.12999899690E+03  0.79859128930E+02 0.  0.
         11    1    4    4    0    0  0.23912799005E+02  0.10251207570E+02  0.12234636372E+02  0.28750574604E+02  0.00000000000E+00 0. -1.
        -12    1    4    4    0    0 -0.59745152769E+02  0.16790815502E+02  0.79998926577E+02  0.10124842230E+03  0.00000000000E+00 0.  1.
        -13    1    3    3    0    0  0.24049871259E+02 -0.29992914021E+01  0.35860695481E+02  0.43282577752E+02  0.00000000000E+00 0.  1.
         13    1    3    3    0    0 -0.56704662364E+02  0.18794379526E+02  0.33775768405E+03  0.34299985506E+03  0.00000000000E+00 0. -1.
          2    1    1    2  501    0  0.68487144870E+02 -0.42837111195E+02  0.91843053977E+02  0.12231375095E+03  0.00000000000E+00 0. -1.
<scales pt_clust_5="13000.00000" pt_clust_6="13000.00000" pt_clust_7="13000.00000" pt_clust_8="13000.00000" pt_clust_9="13000.00000"></scales>
<clustering>
<clus scale="   79.859">  5  6 -1 -1</clus>
<clus scale="   80.781">  5  9 -1 -1</clus>
<clus scale="   91.146">  7  8 -1 -1</clus>
<clus scale="   98.099">  1  7  2 -1</clus>
<clus scale="  172.562">  2  5  1 -1</clus>
</clustering>
</event>
<event>
 9    1  0.2728138E-005  0.2751161E+03  0.7546771E-02  0.1127162E+00
         21   -1    0    0  501  502  0.00000000000E+00  0.00000000000E+00  0.57523303161E+02  0.57523303161E+02  0.00000000000E+00 0. -1.
          1   -1    0    0  502    0 -0.00000000000E+00 -0.00000000000E+00 -0.93793836641E+03  0.93793836641E+03  0.00000000000E+00 0. -1.
         23    2    1    2    0    0 -0.83575852468E+02 -0.47102857776E+02 -0.54867142099E+03  0.56448288902E+03  0.91635154027E+02 0.  0.
        -24    2    1    2    0    0 -0.73319813042E+02  0.29695094420E+02 -0.17148546922E+03  0.20602998170E+03  0.82361966885E+02 0.  0.
         13    1    4    4    0    0 -0.50909542070E+02  0.13394465433E+02 -0.27481154478E+02  0.59383558579E+02  0.00000000000E+00 0. -1.
        -14    1    4    4    0    0 -0.22410270971E+02  0.16300628987E+02 -0.14400431474E+03  0.14664642312E+03  0.00000000000E+00 0.  1.
        -11    1    3    3    0    0 -0.53189761869E+02 -0.73611868324E+02 -0.33808386490E+03  0.35006936117E+03  0.00000000000E+00 0. -1.
         11    1    3    3    0    0 -0.30386090598E+02  0.26509010548E+02 -0.21058755609E+03  0.21441352785E+03  0.00000000000E+00 0.  1.
          2    1    1    2  501    0  0.15689566551E+03  0.17407763357E+02 -0.16025817304E+03  0.22494879886E+03  0.00000000000E+00 0. -1.
<scales pt_clust_5="13000.00000" pt_clust_6="13000.00000" pt_clust_7="13000.00000" pt_clust_8="13000.00000" pt_clust_9="13000.00000"></scales>
<clustering>
<clus scale="   82.362">  5  6 -1 -1</clus>
<clus scale="   91.635">  7  8 -1 -1</clus>
<clus scale="  132.667">  2  7  1 -1</clus>
<clus scale="  114.864">  5  9 -1 -1</clus>
<clus scale="  275.116">  1  5  2 -1</clus>
</clustering>
</event>
<event>
 9    1  0.2728138E-005  0.4315354E+03  0.7546771E-02  0.1046515E+00
         21   -1    0    0  501  502  0.00000000000E+00  0.00000000000E+00  0.20359200913E+03  0.20359200913E+03  0.00000000000E+00 0. -1.
          1   -1    0    0  502    0 -0.00000000000E+00 -0.00000000000E+00 -0.64843999820E+03  0.64843999820E+03  0.00000000000E+00 0. -1.
         23    2    1    2    0    0  0.69890845582E+02  0.27090634342E+03 -0.19915251952E+03  0.35545468658E+03  0.91713308643E+02 0.  0.
        -24    2    1    2    0    0  0.43363049180E+02  0.38247937882E+02 -0.56375505162E+02  0.11678150292E+03  0.84359131431E+02 0.  0.
         13    1    4    4    0    0 -0.16448407888E+01  0.33644883694E+02 -0.62624664670E+02  0.71109298443E+02  0.00000000000E+00 0. -1.
        -14    1    4    4    0    0  0.45007889969E+02  0.46030541871E+01  0.62491595083E+01  0.45672204477E+02  0.00000000000E+00 0.  1.
        -11    1    3    3    0    0  0.25069462112E+02  0.85273173705E+01 -0.30279666446E+02  0.40225008045E+02  0.00000000000E+00 0.  1.
         11    1    3    3    0    0  0.44821383470E+02  0.26237902605E+03 -0.16887285307E+03  0.31522967853E+03  0.00000000000E+00 0. -1.
          2    1    1    2  501    0 -0.11325389476E+03 -0.30915428130E+03 -0.18931996440E+03  0.37979581783E+03  0.00000000000E+00 0. -1.
<scales pt_clust_5="13000.00000" pt_clust_6="13000.00000" pt_clust_7="13000.00000" pt_clust_8="13000.00000" pt_clust_9="13000.00000"></scales>
<clustering>
<clus scale="   84.359">  5  6 -1 -1</clus>
<clus scale="   91.713">  7  8 -1 -1</clus>
<clus scale="  294.425">  2  7  1 -1</clus>
<clus scale="  117.691">  5  9 -1 -1</clus>
<clus scale="  431.535">  1  5  2 -1</clus>
</clustering>
</event>
<event>
 9    1  0.2728138E-005  0.1834129E+03  0.7546771E-02  0.1186060E+00
         21   -1    0    0  501  502  0.00000000000E+00  0.00000000000E+00  0.77380105258E+02  0.77380105258E+02  0.00000000000E+00 0. -1.
          1   -1    0    0  502    0 -0.00000000000E+00 -0.00000000000E+00 -0.30257452896E+03  0.30257452896E+03  0.00000000000E+00 0. -1.
         23    2    1    2    0    0 -0.28420174999E+02 -0.59313400844E+02 -0.13425743333E+03  0.17523577878E+03  0.91415173209E+02 0.  0.
        -24    2    1    2    0    0 -0.33801941828E+02  0.69590906793E+02 -0.28164743837E+02  0.11573810535E+03  0.81342428385E+02 0.  0.
         13    1    4    4    0    0 -0.36477168769E+02  0.67701937151E+02  0.98952952509E+01  0.77537429694E+02  0.00000000000E+00 0. -1.
        -14    1    4    4    0    0  0.26752269403E+01  0.18889696422E+01 -0.38060039087E+02  0.38200675659E+02  0.00000000000E+00 0.  1.
        -11    1    3    3    0    0  0.26310466928E+02 -0.10441311075E+02 -0.83577654174E+01  0.29514638566E+02  0.00000000000E+00 0.  1.
         11    1    3    3    0    0 -0.54730641927E+02 -0.48872089769E+02 -0.12589966791E+03  0.14572114021E+03  0.00000000000E+00 0. -1.
          2    1    1    2  501    0  0.62222116827E+02 -0.10277505949E+02 -0.62772246540E+02  0.88980750091E+02  0.00000000000E+00 0. -1.
<scales pt_clust_5="13000.00000" pt_clust_6="13000.00000" pt_clust_7="13000.00000" pt_clust_8="13000.00000" pt_clust_9="13000.00000"></scales>
<clustering>
<clus scale="   81.342">  5  6 -1 -1</clus>
<clus scale="   63.065">  5  9 -1 -1</clus>
<clus scale="   91.415">  7  8 -1 -1</clus>
<clus scale="  112.617">  2  7  1 -1</clus>
<clus scale="  183.413">  1  5  2 -1</clus>
</clustering>
</event>
<event>
 9    1  0.2728138E-005  0.1923549E+03  0.7546771E-02  0.1170107E+00
         21   -1    0    0  501  502  0.00000000000E+00  0.00000000000E+00  0.23758816775E+02  0.23758816775E+02  0.00000000000E+00 0. -1.
          1   -1    0    0  502    0 -0.00000000000E+00 -0.00000000000E+00 -0.12539147639E+04  0.12539147639E+04  0.00000000000E+00 0. -1.
         23    2    1    2    0    0  0.57741859321E+02  0.46997748427E+02 -0.69638517488E+03  0.71030099053E+03  0.11845790255E+03 0.  0.
        -24    2    1    2    0    0 -0.10700614273E+03 -0.26774293565E+02 -0.33515419995E+03  0.36174063607E+03  0.79754452330E+02 0.  0.
         13    1    4    4    0    0 -0.11114054864E+03 -0.31332784712E+02 -0.23945025906E+03  0.26583903309E+03  0.00000000000E+00 0. -1.
        -14    1    4    4    0    0  0.41344059091E+01  0.45584911471E+01 -0.95703940886E+02  0.95901602983E+02  0.00000000000E+00 0.  1.
        -13    1    3    3    0    0  0.81238355596E+02  0.69549298168E+02 -0.51000572103E+03  0.52109750601E+03  0.00000000000E+00 0. -1.
         13    1    3    3    0    0 -0.23496496275E+02 -0.22551549740E+02 -0.18637945385E+03  0.18920348451E+03  0.00000000000E+00 0.  1.
          2    1    1    2  501    0  0.49264283405E+02 -0.20223454862E+02 -0.19861657233E+03  0.20563195411E+03  0.00000000000E+00 0. -1.
<scales pt_clust_5="13000.00000" pt_clust_6="13000.00000" pt_clust_7="13000.00000" pt_clust_8="13000.00000" pt_clust_9="13000.00000"></scales>
<clustering>
<clus scale="   79.754">  5  6 -1 -1</clus>
<clus scale="   53.254">  5  9 -1 -1</clus>
<clus scale="  118.458">  7  8 -1 -1</clus>
<clus scale="  139.911">  2  7  1 -1</clus>
<clus scale="  192.355">  1  5  2 -1</clus>
</clustering>
</event>
<event>
 9    1  0.2728138E-005  0.1841972E+03  0.7546771E-02  0.1195036E+00
         21   -1    0    0  501  502  0.00000000000E+00  0.00000000000E+00  0.29079678432E+03  0.29079678432E+03  0.00000000000E+00 0.  1.
          3   -1    0    0  502    0 -0.00000000000E+00 -0.00000000000E+00 -0.67553977736E+02  0.67553977736E+02  0.00000000000E+00 0. -1.
         23    2    1    2    0    0  0.77373298289E+01 -0.75238527259E+01  0.10677013989E+03  0.14041847372E+03  0.90559429975E+02 0.  0.
        -24    2    1    2    0    0 -0.23434081748E+02 -0.57303772333E+02  0.25101294160E+02  0.10480520621E+03  0.80753809627E+02 0.  0.
         11    1    4    4    0    0 -0.48472887332E+02 -0.14254555133E+02  0.21387222415E+02  0.54865530445E+02  0.00000000000E+00 0. -1.
        -12    1    4    4    0    0  0.25038805584E+02 -0.43049217199E+02  0.37140717453E+01  0.49939675765E+02  0.00000000000E+00 0.  1.
        -13    1    3    3    0    0  0.36513152335E+02 -0.10261620881E+02  0.10479269939E+03  0.11144514795E+03  0.00000000000E+00 0.  1.
         13    1    3    3    0    0 -0.28775822506E+02  0.27377681550E+01  0.19774405035E+01  0.28973325772E+02  0.00000000000E+00 0. -1.
          4    1    1    2  501    0  0.15696751919E+02  0.64827625058E+02  0.91371372534E+02  0.11312708213E+03  0.00000000000E+00 0. -1.
<scales pt_clust_5="13000.00000" pt_clust_6="13000.00000" pt_clust_7="13000.00000" pt_clust_8="13000.00000" pt_clust_9="13000.00000"></scales>
<clustering>
<clus scale="   80.754">  5  6 -1 -1</clus>
<clus scale="   66.701">  5  9 -1 -1</clus>
<clus scale="   90.559">  7  8 -1 -1</clus>
<clus scale="   91.200">  2  7  1 -1</clus>
<clus scale="  184.197">  1  5  2 -1</clus>
</clustering>
</event>
<event>
 9    1  0.2728138E-005  0.3625849E+03  0.7546771E-02  0.1103921E+00
         21   -1    0    0  501  502  0.00000000000E+00  0.00000000000E+00  0.68536630662E+02  0.68536630662E+02  0.00000000000E+00 0. -1.
          1   -1    0    0  502    0 -0.00000000000E+00 -0.00000000000E+00 -0.79461422202E+03  0.79461422202E+03  0.00000000000E+00 0. -1.
         23    2    1    2    0    0  0.48566393651E+02  0.18212940893E+02 -0.15942133612E+03  0.19041976472E+03  0.90300158227E+02 0.  0.
        -24    2    1    2    0    0  0.87002772135E+02  0.37456039922E+02 -0.49400259782E+03  0.50915667654E+03  0.78927291387E+02 0.  0.
         13    1    4    4    0    0  0.28664301362E+02  0.48980263924E+02 -0.32687565731E+03  0.33176558557E+03  0.00000000000E+00 0. -1.
        -14    1    4    4    0    0  0.58338470773E+02 -0.11524224002E+02 -0.16712694050E+03  0.17739109096E+03  0.00000000000E+00 0.  1.
        -11    1    3    3    0    0  0.43455356344E+02  0.44645357201E+02 -0.14908898053E+03  0.16158310565E+03  0.00000000000E+00 0.  1.
         11    1    3    3    0    0  0.51110373071E+01 -0.26432416308E+02 -0.10332355590E+02  0.28836659070E+02  0.00000000000E+00 0. -1.
          2    1    1    2  501    0 -0.13556916579E+03 -0.55668980815E+02 -0.72653657413E+02  0.16357441142E+03  0.00000000000E+00 0. -1.
<scales pt_clust_5="13000.00000" pt_clust_6="13000.00000" pt_clust_7="13000.00000" pt_clust_8="13000.00000" pt_clust_9="13000.00000"></scales>
<clustering>
<clus scale="   78.927">  5  6 -1 -1</clus>
<clus scale="   90.300">  7  8 -1 -1</clus>
<clus scale="  104.137">  2  7  1 -1</clus>
<clus scale="  136.673">  5  9 -1 -1</clus>
<clus scale="  362.585">  1  5  2 -1</clus>
</clustering>
</event>
<event>
 9    1  0.2728138E-005  0.2052670E+03  0.7546771E-02  0.1177458E+00
         21   -1    0    0  501  502  0.00000000000E+00  0.00000000000E+00  0.15852510783E+03  0.15852510783E+03  0.00000000000E+00 0.  1.
          1   -1    0    0  502    0 -0.00000000000E+00 -0.00000000000E+00 -0.41171394896E+03  0.41171394896E+03  0.00000000000E+00 0. -1.
         23    2    1    2    0    0 -0.29101816587E+02  0.77799408039E+01 -0.33529362102E+03  0.34916048996E+03  0.92648757395E+02 0.  0.
        -24    2    1    2    0    0  0.25338027839E+02  0.14651031550E+02 -0.40068484613E+02  0.96806199896E+02  0.83122130019E+02 0.  0.
         13    1    4    4    0    0  0.55846282330E+01  0.22141617121E+02 -0.62170579664E+02  0.66231565412E+02  0.00000000000E+00 0. -1.
        -14    1    4    4    0    0  0.19753399606E+02 -0.74905855704E+01  0.22102095051E+02  0.30574634484E+02  0.00000000000E+00 0.  1.
        -11    1    3    3    0    0  0.32728449966E+02  0.90822279520E+01 -0.90146741493E+02  0.96333137100E+02  0.00000000000E+00 0.  1.
         11    1    3    3    0    0 -0.61830266552E+02 -0.13022871481E+01 -0.24514687952E+03  0.25282735286E+03  0.00000000000E+00 0. -1.
          2    1    1    2  501    0  0.37637887473E+01 -0.22430972354E+02  0.12217326449E+03  0.12427236693E+03  0.00000000000E+00 0. -1.
<scales pt_clust_5="13000.00000" pt_clust_6="13000.00000" pt_clust_7="13000.00000" pt_clust_8="13000.00000" pt_clust_9="13000.00000"></scales>
<clustering>
<clus scale="   83.122">  5  6 -1 -1</clus>
<clus scale="   22.745">  5  9 -1 -1</clus>
<clus scale="   92.649">  7  8 -1 -1</clus>
<clus scale="   97.423">  2  7  1 -1</clus>
<clus scale="  205.267">  1  5  2 -1</clus>
</clustering>
</event>
<event>
 9    1  0.2728138E-005  0.2535248E+03  0.7546771E-02  0.1131148E+00
          1   -1    0    0  502    0 -0.00000000000E+00  0.00000000000E+00  0.42296948626E+03  0.42296948626E+03  0.00000000000E+00 0. -1.
         21   -1    0    0  501  502  0.00000000000E+00 -0.00000000000E+00 -0.10939886680E+03  0.10939886680E+03  0.00000000000E+00 0. -1.
         23    2    1    2    0    0  0.24892865527E+02  0.12015730617E+03  0.38829501286E+02  0.15852680402E+03  0.92550442702E+02 0.  0.
        -24    2    1    2    0    0 -0.50995713382E+02  0.15390867189E+02  0.47914928962E+02  0.10831417553E+03  0.81232251158E+02 0.  0.
         13    1    4    4    0    0 -0.50160063134E+02  0.29842789965E+02  0.11091076843E+00  0.58366397419E+02  0.00000000000E+00 0. -1.
        -14    1    4    4    0    0 -0.83565024815E+00 -0.14451922776E+02  0.47804018193E+02  0.49947778115E+02  0.00000000000E+00 0.  1.
        -11    1    3    3    0    0  0.42583745266E+02  0.70496623291E+02  0.59811742739E+02  0.10178700224E+03  0.00000000000E+00 0. -1.
         11    1    3    3    0    0 -0.17690879739E+02  0.49660682876E+02 -0.20982241453E+02  0.56739801780E+02  0.00000000000E+00 0.  1.
          2    1    1    2  501    0  0.26102847854E+02 -0.13554817336E+03  0.22682618922E+03  0.26552737350E+03  0.00000000000E+00 0. -1.
<scales pt_clust_5="13000.00000" pt_clust_6="13000.00000" pt_clust_7="13000.00000" pt_clust_8="13000.00000" pt_clust_9="13000.00000"></scales>
<clustering>
<clus scale="   81.232">  5  6 -1 -1</clus>
<clus scale="   92.550">  7  8 -1 -1</clus>
<clus scale="  138.039">  5  9 -1 -1</clus>
<clus scale="  153.698">  1  7  2 -1</clus>
<clus scale="  253.525">  2  5  1 -1</clus>
</clustering>
</event>
<event>
 9    1  0.2728138E-005  0.2600002E+03  0.7546771E-02  0.1134955E+00
         21   -1    0    0  501  502  0.00000000000E+00  0.00000000000E+00  0.41594739347E+02  0.41594739347E+02  0.00000000000E+00 0. -1.
          1   -1    0    0  502    0 -0.00000000000E+00 -0.00000000000E+00 -0.95443256286E+03  0.95443256286E+03  0.00000000000E+00 0. -1.
         23    2    1    2    0    0  0.22564520496E+02 -0.90758350911E+02 -0.21304305066E+03  0.24949343162E+03  0.90074386706E+02 0.  0.
        -24    2    1    2    0    0  0.66532347162E+02 -0.30139948700E+02 -0.32994109655E+03  0.34735171599E+03  0.80356192560E+02 0.  0.
         11    1    4    4    0    0  0.73587570545E+01 -0.42376700468E+02 -0.19196096609E+03  0.19672048330E+03  0.00000000000E+00 0. -1.
        -12    1    4    4    0    0  0.59173590107E+02  0.12236751768E+02 -0.13798013046E+03  0.15063123269E+03  0.00000000000E+00 0.  1.
        -13    1    3    3    0    0  0.42425687335E+02 -0.86397114555E+02 -0.20699440135E+03  0.22827851966E+03  0.00000000000E+00 0.  1.
         13    1    3    3    0    0 -0.19861166839E+02 -0.43612363557E+01 -0.60486493103E+01  0.21214911954E+02  0.00000000000E+00 0. -1.
          2    1    1    2  501    0 -0.89096867658E+02  0.12089829961E+03 -0.36985367630E+03  0.39918215460E+03  0.00000000000E+00 0. -1.
<scales pt_clust_5="13000.00000" pt_clust_6="13000.00000" pt_clust_7="13000.00000" pt_clust_8="13000.00000" pt_clust_9="13000.00000"></scales>
<clustering>
<clus scale="   80.356">  5  6 -1 -1</clus>
<clus scale="   90.074">  7  8 -1 -1</clus>
<clus scale="  129.845">  2  7  1 -1</clus>
<clus scale="  105.929">  5  9 -1 -1</clus>
<clus scale="  260.000">  1  5  2 -1</clus>
</clustering>
</event>
<event>
 9    1  0.2728138E-005  0.2494485E+03  0.7546771E-02  0.1139278E+00
          1   -1    0    0  502    0 -0.00000000000E+00  0.00000000000E+00  0.47079000152E+03  0.47079000152E+03  0.00000000000E+00 0. -1.
         21   -1    0    0  501  502  0.00000000000E+00 -0.00000000000E+00 -0.78443513347E+02  0.78443513347E+02  0.00000000000E+00 0. -1.
         23    2    1    2    0    0  0.66393338385E+02 -0.69255108891E+02  0.16659200164E+03  0.21279682616E+03  0.91242800943E+02 0.  0.
        -24    2    1    2    0    0 -0.44034193168E+02 -0.57875230870E+02  0.62272429306E+02  0.12813777441E+03  0.85163849506E+02 0.  0.
         11    1    4    4    0    0 -0.39928444381E+02 -0.41689682134E+02 -0.58283892089E+01  0.58019655186E+02  0.00000000000E+00 0. -1.
        -12    1    4    4    0    0 -0.41057487867E+01 -0.16185548736E+02  0.68100818515E+02  0.70118119223E+02  0.00000000000E+00 0.  1.
        -11    1    3    3    0    0 -0.21972164573E+02 -0.40295762223E+01  0.23644458493E+02  0.32528048173E+02  0.00000000000E+00 0. -1.
         11    1    3    3    0    0  0.88365502958E+02 -0.65225532669E+02  0.14294754315E+03  0.18026877799E+03  0.00000000000E+00 0.  1.
          2    1    1    2  501    0 -0.22359145217E+02  0.12713033976E+03  0.16348205722E+03  0.20829891429E+03  0.00000000000E+00 0. -1.
<scales pt_clust_5="13000.00000" pt_clust_6="13000.00000" pt_clust_7="13000.00000" pt_clust_8="13000.00000" pt_clust_9="13000.00000"></scales>
<clustering>
<clus scale="   85.164">  5  6 -1 -1</clus>
<clus scale="   91.243">  7  8 -1 -1</clus>
<clus scale="  129.082">  5  9 -1 -1</clus>
<clus scale="  132.399">  1  7  2 -1</clus>
<clus scale="  249.449">  2  5  1 -1</clus>
</clustering>
</event>
<event>
 9    1  0.2728138E-005  0.2297846E+03  0.7546771E-02  0.1147775E+00
         21   -1    0    0  501  502  0.00000000000E+00  0.00000000000E+00  0.14719906554E+03  0.14719906554E+03  0.00000000000E+00 0.  1.
          1   -1    0    0  502    0 -0.00000000000E+00 -0.00000000000E+00 -0.23099366061E+03  0.23099366061E+03  0.00000000000E+00 0. -1.
         23    2    1    2    0    0 -0.34375042076E+02 -0.63250737118E+02 -0.19154551137E+02  0.13948939823E+03  0.11793259145E+03 0.  0.
        -24    2    1    2    0    0 -0.55456289467E+02  0.57289387957E+02 -0.93276509011E+02  0.14422977108E+03  0.75790802332E+02 0.  0.
         11    1    4    4    0    0 -0.10252068355E+02  0.33676417068E+02 -0.85728115295E+02  0.92674245204E+02  0.00000000000E+00 0. -1.
        -12    1    4    4    0    0 -0.45204221112E+02  0.23612970889E+02 -0.75483937162E+01  0.51555525875E+02  0.00000000000E+00 0.  1.
        -13    1    3    3    0    0  0.22978262104E+02 -0.68821176014E+02 -0.33787650263E+02  0.80037242004E+02  0.00000000000E+00 0. -1.
         13    1    3    3    0    0 -0.57353304180E+02  0.55704388964E+01  0.14633099125E+02  0.59452156225E+02  0.00000000000E+00 0.  1.
          2    1    1    2  501    0  0.89831331543E+02  0.59613491608E+01  0.28636465080E+02  0.94473556845E+02  0.00000000000E+00 0. -1.
<scales pt_clust_5="13000.00000" pt_clust_6="13000.00000" pt_clust_7="13000.00000" pt_clust_8="13000.00000" pt_clust_9="13000.00000"></scales>
<clustering>
<clus scale="   75.791">  5  6 -1 -1</clus>
<clus scale="   90.029">  5  9 -1 -1</clus>
<clus scale="  117.933">  7  8 -1 -1</clus>
<clus scale="  138.168">  2  7  1 -1</clus>
<clus scale="  229.785">  1  5  2 -1</clus>
</clustering>
</event>
<event>
 9    1  0.2728138E-005  0.4414672E+03  0.7546771E-02  0.1042698E+00
         21   -1    0    0  501  502  0.00000000000E+00  0.00000000000E+00  0.45250780374E+03  0.45250780374E+03  0.00000000000E+00 0.  1.
          1   -1    0    0  502    0 -0.00000000000E+00 -0.00000000000E+00 -0.44637128366E+03  0.44637128366E+03  0.00000000000E+00 0. -1.
         23    2    1    2    0    0  0.29265357039E+03 -0.17007556768E+02  0.24876465831E+03  0.39513139994E+03  0.91157000540E+02 0.  0.
        -24    2    1    2    0    0  0.18281763493E+02  0.21001209373E+02  0.29876642395E+02  0.90279929857E+02  0.80514460208E+02 0.  0.
         11    1    4    4    0    0 -0.11175790721E+02 -0.25434760259E+02  0.20425688417E+02  0.34482373396E+02  0.00000000000E+00 0. -1.
        -12    1    4    4    0    0  0.29457554215E+02  0.46435969632E+02  0.94509539772E+01  0.55797556461E+02  0.00000000000E+00 0.  1.
        -13    1    3    3    0    0  0.19569512098E+03 -0.33687136640E+02  0.11628594539E+03  0.23011698035E+03  0.00000000000E+00 0.  1.
         13    1    3    3    0    0  0.96958449410E+02  0.16679579872E+02  0.13247871292E+03  0.16501441959E+03  0.00000000000E+00 0. -1.
          2    1    1    2  501    0 -0.31093533388E+03 -0.39936526046E+01 -0.27250478062E+03  0.41346775761E+03  0.00000000000E+00 0. -1.
<scales pt_clust_5="13000.00000" pt_clust_6="13000.00000" pt_clust_7="13000.00000" pt_clust_8="13000.00000" pt_clust_9="13000.00000"></scales>
<clustering>
<clus scale="   80.514">  5  6 -1 -1</clus>
<clus scale="   91.157">  7  8 -1 -1</clus>
<clus scale="  306.994">  2  7  1 -1</clus>
<clus scale="   46.328">  5  9 -1 -1</clus>
<clus scale="  441.467">  1  5  2 -1</clus>
</clustering>
</event>
<event>
 9    1  0.2728138E-005  0.3699452E+03  0.7546771E-02  0.1099198E+00
         21   -1    0    0  501  502  0.00000000000E+00  0.00000000000E+00  0.39666710659E+03  0.39666710659E+03  0.00000000000E+00 0. -1.
          1   -1    0    0  502    0 -0.00000000000E+00 -0.00000000000E+00 -0.56706123819E+03  0.56706123819E+03  0.00000000000E+00 0. -1.
         23    2    1    2    0    0  0.18143630809E+01  0.57523714809E+02 -0.47299009042E+03  0.48579138127E+03  0.94664517099E+02 0.  0.
        -24    2    1    2    0    0  0.33600189971E+02  0.13075191243E+02 -0.60333581747E+02  0.10651234461E+03  0.80030026094E+02 0.  0.
         11    1    4    4    0    0  0.14972761753E+02  0.16899260884E+02  0.16111816834E+02  0.27737326018E+02  0.00000000000E+00 0. -1.
        -12    1    4    4    0    0  0.18627428218E+02 -0.38240696403E+01 -0.76445398581E+02  0.78775018596E+02  0.00000000000E+00 0.  1.
        -13    1    3    3    0    0  0.51694566889E-01 -0.22849711368E+02 -0.46740263421E+02  0.52026572120E+02  0.00000000000E+00 0.  1.
         13    1    3    3    0    0  0.17626685141E+01  0.80373426178E+02 -0.42624982700E+03  0.43376480915E+03  0.00000000000E+00 0. -1.
          2    1    1    2  501    0 -0.35414553052E+02 -0.70598906053E+02  0.36292954057E+03  0.37142461890E+03  0.00000000000E+00 0. -1.
<scales pt_clust_5="13000.00000" pt_clust_6="13000.00000" pt_clust_7="13000.00000" pt_clust_8="13000.00000" pt_clust_9="13000.00000"></scales>
<clustering>
<clus scale="   80.030">  5  6 -1 -1</clus>
<clus scale="   78.984">  5  9 -1 -1</clus>
<clus scale="   94.665">  7  8 -1 -1</clus>
<clus scale="  110.786">  2  7  1 -1</clus>
<clus scale="  369.945">  1  5  2 -1</clus>
</clustering>
</event>
<event>
 9    1  0.2728138E-005  0.1576908E+03  0.7546771E-02  0.1215731E+00
          1   -1    0    0  502    0 -0.00000000000E+00  0.00000000000E+00  0.67637418355E+03  0.67637418355E+03  0.00000000000E+00 0. -1.
         21   -1    0    0  501  502  0.00000000000E+00 -0.00000000000E+00 -0.31720117102E+02  0.31720117102E+02  0.00000000000E+00 0. -1.
         23    2    1    2    0    0  0.71614191625E+01  0.16254823797E+02  0.83031919416E+02  0.12475407854E+03  0.91398989317E+02 0.  0.
        -24    2    1    2    0    0  0.49000753993E+02 -0.25863293951E+02  0.32144918148E+03  0.33650107252E+03  0.82664452255E+02 0.  0.
         11    1    4    4    0    0  0.59999492454E+02 -0.44459391758E+02  0.27964219012E+03  0.28944141221E+03  0.00000000000E+00 0. -1.
        -12    1    4    4    0    0 -0.10998738461E+02  0.18596097807E+02  0.41806991367E+02  0.47059660311E+02  0.00000000000E+00 0.  1.
        -11    1    3    3    0    0  0.47503278282E+02  0.20070779272E+02  0.37255644910E+02  0.63619027859E+02  0.00000000000E+00 0. -1.
         11    1    3    3    0    0 -0.40341859120E+02 -0.38159554747E+01  0.45776274506E+02  0.61135050676E+02  0.00000000000E+00 0.  1.
          2    1    1    2  501    0 -0.56162173156E+02  0.96084701537E+01  0.24017296555E+03  0.24683914960E+03  0.00000000000E+00 0. -1.
<scales pt_clust_5="13000.00000" pt_clust_6="13000.00000" pt_clust_7="13000.00000" pt_clust_8="13000.00000" pt_clust_9="13000.00000"></scales>
<clustering>
<clus scale="   82.664">  5  6 -1 -1</clus>
<clus scale="   56.978">  5  9 -1 -1</clus>
<clus scale="   91.399">  7  8 -1 -1</clus>
<clus scale="   93.109">  1  7  2 -1</clus>
<clus scale="  157.691">  2  5  1 -1</clus>
</clustering>
</event>
<event>
 9    1  0.2728138E-005  0.3916999E+03  0.7546771E-02  0.1096276E+00
         21   -1    0    0  501  502  0.00000000000E+00  0.00000000000E+00  0.12183098089E+03  0.12183098089E+03  0.00000000000E+00 0. -1.
          1   -1    0    0  502    0 -0.00000000000E+00 -0.00000000000E+00 -0.49789803458E+03  0.49789803458E+03  0.00000000000E+00 0. -1.
         23    2    1    2    0    0  0.33952698896E+02  0.30105148191E+02 -0.70522610833E+02  0.12295317403E+03  0.89916286935E+02 0.  0.
        -24    2    1    2    0    0  0.25823878869E+02  0.14715622885E+03 -0.44107117250E+02  0.17530374270E+03  0.80399850770E+02 0.  0.
         13    1    4    4    0    0  0.16211972743E+02  0.12960045019E+03 -0.42223221980E+01  0.13067873872E+03  0.00000000000E+00 0. -1.
        -14    1    4    4    0    0  0.96119061251E+01  0.17555778662E+02 -0.39884795052E+02  0.44625003979E+02  0.00000000000E+00 0.  1.
        -13    1    3    3    0    0 -0.71390365821E+01  0.52237682786E+02 -0.47258967198E+02  0.70803610973E+02  0.00000000000E+00 0. -1.
         13    1    3    3    0    0  0.41091735478E+02 -0.22132534595E+02 -0.23263643635E+02  0.52149563060E+02  0.00000000000E+00 0.  1.
          2    1    1    2  501    0 -0.59776577765E+02 -0.17726137704E+03 -0.26143732561E+03  0.32147209873E+03  0.00000000000E+00 0. -1.
<scales pt_clust_5="13000.00000" pt_clust_6="13000.00000" pt_clust_7="13000.00000" pt_clust_8="13000.00000" pt_clust_9="13000.00000"></scales>
<clustering>
<clus scale="   80.400">  5  6 -1 -1</clus>
<clus scale="   89.916">  7  8 -1 -1</clus>
<clus scale="  100.718">  2  7  1 -1</clus>
<clus scale="  159.306">  5  9 -1 -1</clus>
<clus scale="  391.700">  1  5  2 -1</clus>
</clustering>
</event>
<event>
 9    1  0.2728138E-005  0.3103503E+03  0.7546771E-02  0.1123510E+00
          3   -1    0    0  502    0 -0.00000000000E+00  0.00000000000E+00  0.48554733987E+03  0.48554733987E+03  0.00000000000E+00 0. -1.
         21   -1    0    0  501  502  0.00000000000E+00 -0.00000000000E+00 -0.10064502692E+03  0.10064502692E+03  0.00000000000E+00 0. -1.
         23    2    1    2    0    0  0.16337526391E+02  0.40342412085E+02  0.20209814819E+03  0.22600535571E+03  0.91325430884E+02 0.  0.
        -24    2    1    2    0    0 -0.50548176302E+02 -0.14870901090E+03  0.46357050545E+02  0.18261588932E+03  0.80809027020E+02 0.  0.
         11    1    4    4    0    0 -0.28971872399E+02 -0.11677963494E+03 -0.25551415745E+01  0.12034692051E+03  0.00000000000E+00 0. -1.
        -12    1    4    4    0    0 -0.21576303903E+02 -0.31929375956E+02  0.48912192119E+02  0.62268968813E+02  0.00000000000E+00 0.  1.
        -13    1    3    3    0    0  0.54118751464E+02  0.17819689207E+02  0.12112692962E+03  0.13385855843E+03  0.00000000000E+00 0. -1.
         13    1    3    3    0    0 -0.37781225073E+02  0.22522722877E+02  0.80971218569E+02  0.92146797287E+02  0.00000000000E+00 0.  1.
          4    1    1    2  501    0  0.34210649911E+02  0.10836659882E+03  0.13644711421E+03  0.17757112176E+03  0.00000000000E+00 0. -1.
<scales pt_clust_5="13000.00000" pt_clust_6="13000.00000" pt_clust_7="13000.00000" pt_clust_8="13000.00000" pt_clust_9="13000.00000"></scales>
<clustering>
<clus scale="   80.809">  5  6 -1 -1</clus>
<clus scale="   91.325">  7  8 -1 -1</clus>
<clus scale="  101.167">  1  7  2 -1</clus>
<clus scale="  138.745">  5  9 -1 -1</clus>
<clus scale="  310.350">  2  5  1 -1</clus>
</clustering>
</event>
<event>
 9    1  0.2728138E-005  0.1050798E+03  0.7546771E-02  0.1276533E+00
         21   -1    0    0  501  502  0.00000000000E+00  0.00000000000E+00  0.61438009897E+03  0.61438009897E+03  0.00000000000E+00 0. -1.
          3   -1    0    0  502    0 -0.00000000000E+00 -0.00000000000E+00 -0.17918549391E+02  0.17918549391E+02  0.00000000000E+00 0. -1.
         23    2    1    2    0    0  0.23053588112E+02 -0.16570088217E+01  0.38740891276E+03  0.39832264114E+03  0.89671886107E+02 0.  0.
        -24    2    1    2    0    0  0.29000018790E+01 -0.82077447870E+00  0.16229899440E+03  0.18044441539E+03  0.78804440122E+02 0.  0.
         13    1    4    4    0    0  0.40307877343E+02  0.62535602474E+01  0.83486373273E+02  0.92918278686E+02  0.00000000000E+00 0. -1.
        -14    1    4    4    0    0 -0.37407875464E+02 -0.70743347261E+01  0.78812621124E+02  0.87526136708E+02  0.00000000000E+00 0.  1.
        -11    1    3    3    0    0  0.28411506133E+02 -0.39958818868E+02  0.27773361304E+03  0.28202815586E+03  0.00000000000E+00 0. -1.
         11    1    3    3    0    0 -0.53579180207E+01  0.38301810046E+02  0.10967529972E+03  0.11629448528E+03  0.00000000000E+00 0.  1.
          4    1    1    2  501    0 -0.25953589991E+02  0.24777833004E+01  0.46753642423E+02  0.53531591825E+02  0.00000000000E+00 0. -1.
<scales pt_clust_5="13000.00000" pt_clust_6="13000.00000" pt_clust_7="13000.00000" pt_clust_8="13000.00000" pt_clust_9="13000.00000"></scales>
<clustering>
<clus scale="   78.804">  5  6 -1 -1</clus>
<clus scale="   26.072">  5  9 -1 -1</clus>
<clus scale="   89.672">  7  8 -1 -1</clus>
<clus scale="   92.603">  2  7  1 -1</clus>
<clus scale="  105.080">  1  5  2 -1</clus>
</clustering>
</event>
<event>
 9    1  0.2728138E-005  0.2184085E+03  0.7546771E-02  0.1167571E+00
         21   -1    0    0  501  502  0.00000000000E+00  0.00000000000E+00  0.10425442144E+03  0.10425442144E+03  0.00000000000E+00 0. -1.
          1   -1    0    0  502    0 -0.00000000000E+00 -0.00000000000E+00 -0.25385343612E+03  0.25385343612E+03  0.00000000000E+00 0. -1.
         23    2    1    2    0    0 -0.21288982230E+02 -0.41521030804E+02 -0.79363146214E+02  0.12868386659E+03  0.89910020470E+02 0.  0.
        -24    2    1    2    0    0 -0.45780541940E+02 -0.45815516514E+02 -0.55916226674E+02  0.11837874924E+03  0.81804549333E+02 0.  0.
         11    1    4    4    0    0 -0.30267878678E+02 -0.38536186940E+01  0.15410392477E+02  0.34182964368E+02  0.00000000000E+00 0. -1.
        -12    1    4    4    0    0 -0.15512663263E+02 -0.41961897821E+02 -0.71326619151E+02  0.84195784869E+02  0.00000000000E+00 0.  1.
        -11    1    3    3    0    0  0.30164672220E+02 -0.15422601796E+02 -0.45112356757E+01  0.34177702433E+02  0.00000000000E+00 0.  1.
         11    1    3    3    0    0 -0.51453654450E+02 -0.26098429008E+02 -0.74851910538E+02  0.94506164160E+02  0.00000000000E+00 0. -1.
          2    1    1    2  501    0  0.67069524171E+02  0.87336547318E+02 -0.14319641788E+02  0.11104524173E+03  0.00000000000E+00 0. -1.
<scales pt_clust_5="13000.00000" pt_clust_6="13000.00000" pt_clust_7="13000.00000" pt_clust_8="13000.00000" pt_clust_9="13000.00000"></scales>
<clustering>
<clus scale="   81.805">  5  6 -1 -1</clus>
<clus scale="   89.910">  7  8 -1 -1</clus>
<clus scale="  101.297">  2  7  1 -1</clus>
<clus scale="   90.985">  5  9 -1 -1</clus>
<clus scale="  218.409">  1  5  2 -1</clus>
</clustering>
</event>
<event>
 9    1  0.2728138E-005  0.2580258E+03  0.7546771E-02  0.1125115E+00
          1   -1    0    0  502    0 -0.00000000000E+00  0.00000000000E+00  0.33528088662E+03  0.33528088662E+03  0.00000000000E+00 0. -1.
         21   -1    0    0  501  502  0.00000000000E+00 -0.00000000000E+00 -0.14716774131E+03  0.14716774131E+03  0.00000000000E+00 0. -1.
         23    2    1    2    0    0  0.23552570593E+02 -0.14015567711E+03  0.14086358617E+03  0.22013231181E+03  0.91746102848E+02 0.  0.
        -24    2    1    2    0    0 -0.20263453886E+02  0.17611048445E+01 -0.45870636542E+02  0.95477331570E+02  0.81228667927E+02 0.  0.
         13    1    4    4    0    0  0.18057539196E+01  0.28122322836E+02 -0.53311835947E+02  0.60301555875E+02  0.00000000000E+00 0. -1.
        -14    1    4    4    0    0 -0.22069207806E+02 -0.26361217991E+02  0.74411994052E+01  0.35175775695E+02  0.00000000000E+00 0.  1.
        -13    1    3    3    0    0 -0.87834854732E+01 -0.75220560047E+02  0.18622384261E+02  0.77987662270E+02  0.00000000000E+00 0.  1.
         13    1    3    3    0    0  0.32336056066E+02 -0.64935117068E+02  0.12224120191E+03  0.14214464954E+03  0.00000000000E+00 0. -1.
          2    1    1    2  501    0 -0.32891167069E+01  0.13839457227E+03  0.93120195684E+02  0.16683898455E+03  0.00000000000E+00 0. -1.
<scales pt_clust_5="13000.00000" pt_clust_6="13000.00000" pt_clust_7="13000.00000" pt_clust_8="13000.00000" pt_clust_9="13000.00000"></scales>
<clustering>
<clus scale="   81.229">  5  6 -1 -1</clus>
<clus scale="   91.746">  7  8 -1 -1</clus>
<clus scale="  138.434">  5  9 -1 -1</clus>
<clus scale="  169.162">  1  7  2 -1</clus>
<clus scale="  258.026">  2  5  1 -1</clus>
</clustering>
</event>
<event>
 9    1  0.2728138E-005  0.1939693E+03  0.7546771E-02  0.1185416E+00
         21   -1    0    0  501  502  0.00000000000E+00  0.00000000000E+00  0.33998329087E+03  0.33998329087E+03  0.00000000000E+00 0. -1.
          3   -1    0    0  502    0 -0.00000000000E+00 -0.00000000000E+00 -0.15698071731E+03  0.15698071731E+03  0.00000000000E+00 0. -1.
         23    2    1    2    0    0 -0.31767759932E+02  0.35361594427E+01 -0.10948743429E+03  0.14600174904E+03  0.91144486718E+02 0.  0.
        -24    2    1    2    0    0 -0.27250847506E+02 -0.65990610067E+02  0.15349445200E+03  0.18755014523E+03  0.80728810698E+02 0.  0.
         13    1    4    4    0    0 -0.24477258029E+02 -0.61826888782E+02  0.48177381796E+02  0.82114313331E+02  0.00000000000E+00 0. -1.
        -14    1    4    4    0    0 -0.27735894774E+01 -0.41637212858E+01  0.10531707020E+03  0.10543583190E+03  0.00000000000E+00 0.  1.
        -11    1    3    3    0    0  0.18135533628E+02 -0.14524492423E+02  0.11823614300E+01  0.23264918626E+02  0.00000000000E+00 0.  1.
         11    1    3    3    0    0 -0.49903293561E+02  0.18060651866E+02 -0.11066979572E+03  0.12273683041E+03  0.00000000000E+00 0. -1.
          4    1    1    2  501    0  0.59018607439E+02  0.62454450625E+02  0.13899555585E+03  0.16341211391E+03  0.00000000000E+00 0. -1.
<scales pt_clust_5="13000.00000" pt_clust_6="13000.00000" pt_clust_7="13000.00000" pt_clust_8="13000.00000" pt_clust_9="13000.00000"></scales>
<clustering>
<clus scale="   80.729">  5  6 -1 -1</clus>
<clus scale="   85.929">  5  9 -1 -1</clus>
<clus scale="   91.144">  7  8 -1 -1</clus>
<clus scale="   96.587">  2  7  1 -1</clus>
<clus scale="  193.969">  1  5  2 -1</clus>
</clustering>
</event>
<event>
 9    1  0.2728138E-005  0.2965366E+03  0.7546771E-02  0.1116092E+00
          1   -1    0    0  502    0 -0.00000000000E+00  0.00000000000E+00  0.16151652202E+03  0.16151652202E+03  0.00000000000E+00 0. -1.
         21   -1    0    0  501  502  0.00000000000E+00 -0.00000000000E+00 -0.29906207041E+03  0.29906207041E+03  0.00000000000E+00 0. -1.
         23    2    1    2    0    0  0.85217186186E+02 -0.44630933252E+02 -0.71115799286E+02  0.15669232299E+03  0.10119850864E+03 0.  0.
        -24    2    1    2    0    0 -0.11523156335E+03  0.42544333010E+02 -0.15326594631E+03  0.21198555190E+03  0.79743905440E+02 0.  0.
         11    1    4    4    0    0 -0.12222787229E+03  0.53389578101E+02 -0.13675386796E+03  0.19102806133E+03  0.00000000000E+00 0. -1.
        -12    1    4    4    0    0  0.69963089357E+01 -0.10845245091E+02 -0.16512078344E+02  0.20957490572E+02  0.00000000000E+00 0.  1.
        -11    1    3    3    0    0 -0.21784744998E+02 -0.16804485769E+02 -0.52829101967E+01  0.28015620584E+02  0.00000000000E+00 0.  1.
         11    1    3    3    0    0  0.10700193118E+03 -0.27826447483E+02 -0.65832889089E+02  0.12867670241E+03  0.00000000000E+00 0. -1.
          2    1    1    2  501    0  0.30014377165E+02  0.20866002420E+01  0.86836197204E+02  0.91900717527E+02  0.00000000000E+00 0. -1.
<scales pt_clust_5="13000.00000" pt_clust_6="13000.00000" pt_clust_7="13000.00000" pt_clust_8="13000.00000" pt_clust_9="13000.00000"></scales>
<clustering>
<clus scale="   79.744">  5  6 -1 -1</clus>
<clus scale="   30.087">  5  9 -1 -1</clus>
<clus scale="  101.199">  7  8 -1 -1</clus>
<clus scale="  139.625">  1  7  2 -1</clus>
<clus scale="  296.537">  2  5  1 -1</clus>
</clustering>
</event>
<event>
 9    1  0.2728138E-005  0.1066216E+03  0.7546771E-02  0.1276226E+00
         21   -1    0    0  501  502  0.00000000000E+00  0.00000000000E+00  0.15131124958E+03  0.15131124958E+03  0.00000000000E+00 0.  1.
          1   -1    0    0  502    0 -0.00000000000E+00 -0.00000000000E+00 -0.13651944230E+03  0.13651944230E+03  0.00000000000E+00 0. -1.
         23    2    1    2    0    0  0.90174823180E+01  0.28506259230E+01 -0.98086527066E+02  0.13255777483E+03  0.88663159313E+02 0.  0.
        -24    2    1    2    0    0 -0.14810210736E+02  0.17368312751E+02  0.10140302494E+03  0.13131370360E+03  0.80247832719E+02 0.  0.
         13    1    4    4    0    0 -0.28085517990E+02  0.19621096449E+02  0.57768177397E+01  0.34744141518E+02  0.00000000000E+00 0. -1.
        -14    1    4    4    0    0  0.13275307254E+02 -0.22527836978E+01  0.95626207198E+02  0.96569562079E+02  0.00000000000E+00 0.  1.
        -13    1    3    3    0    0  0.18328280079E+02  0.30286495154E+02 -0.58534386748E+01  0.35881198192E+02  0.00000000000E+00 0.  1.
         13    1    3    3    0    0 -0.93107977613E+01 -0.27435869231E+02 -0.92233088391E+02  0.96676576634E+02  0.00000000000E+00 0. -1.
          2    1    1    2  501    0  0.57927284179E+01 -0.20218938674E+02  0.11475309407E+02  0.23959213460E+02  0.00000000000E+00 0. -1.
<scales pt_clust_5="13000.00000" pt_clust_6="13000.00000" pt_clust_7="13000.00000" pt_clust_8="13000.00000" pt_clust_9="13000.00000"></scales>
<clustering>
<clus scale="   80.248">  5  6 -1 -1</clus>
<clus scale="   21.032">  5  9 -1 -1</clus>
<clus scale="   88.663">  7  8 -1 -1</clus>
<clus scale="   89.166">  2  7  1 -1</clus>
<clus scale="  106.622">  1  5  2 -1</clus>
</clustering>
</event>
<event>
 9    1  0.2728138E-005  0.2207023E+03  0.7546771E-02  0.1149141E+00
          3   -1    0    0  502    0 -0.00000000000E+00  0.00000000000E+00  0.48094966265E+03  0.48094966265E+03  0.00000000000E+00 0. -1.
         21   -1    0    0  501  502  0.00000000000E+00 -0.00000000000E+00 -0.86395269018E+02  0.86395269018E+02  0.00000000000E+00 0.  1.
         23    2    1    2    0    0 -0.65318603816E+02 -0.10116610395E+03  0.51639784915E+02  0.15954601892E+03  0.91033862779E+02 0.  0.
        -24    2    1    2    0    0  0.29978559452E+02 -0.10858294587E+02  0.65293660203E+02  0.10634945487E+03  0.77655185920E+02 0.  0.
         13    1    4    4    0    0  0.51445328215E+02 -0.39182960854E+00  0.64431954849E+02  0.82451513820E+02  0.00000000000E+00 0. -1.
        -14    1    4    4    0    0 -0.21466768763E+02 -0.10466464978E+02  0.86170535342E+00  0.23897941049E+02  0.00000000000E+00 0.  1.
        -13    1    3    3    0    0 -0.87055651773E+02 -0.83542767946E+02  0.30436002273E+02  0.12443645292E+03  0.00000000000E+00 0.  1.
         13    1    3    3    0    0  0.21737047957E+02 -0.17623336007E+02  0.21203782642E+02  0.35109565993E+02  0.00000000000E+00 0. -1.
          4    1    1    2  501    0  0.35340044364E+02  0.11202439854E+03  0.27762094851E+03  0.30144945788E+03  0.00000000000E+00 0. -1.
<scales pt_clust_5="13000.00000" pt_clust_6="13000.00000" pt_clust_7="13000.00000" pt_clust_8="13000.00000" pt_clust_9="13000.00000"></scales>
<clustering>
<clus scale="   77.655">  5  6 -1 -1</clus>
<clus scale="   91.034">  7  8 -1 -1</clus>
<clus scale="  117.467">  5  9 -1 -1</clus>
<clus scale="  150.958">  1  7  2 -1</clus>
<clus scale="  220.702">  2  5  1 -1</clus>
</clustering>
</event>
<event>
 9    1  0.2728138E-005  0.4100907E+03  0.7546771E-02  0.1094473E+00
         21   -1    0    0  501  502  0.00000000000E+00  0.00000000000E+00  0.26713130385E+03  0.26713130385E+03  0.00000000000E+00 0. -1.
          1   -1    0    0  502    0 -0.00000000000E+00 -0.00000000000E+00 -0.31704735836E+03  0.31704735836E+03  0.00000000000E+00 0. -1.
         23    2    1    2    0    0 -0.25337024382E+02  0.15291323869E+02 -0.13691841537E+03  0.16496061972E+03  0.87118104900E+02 0.  0.
        -24    2    1    2    0    0  0.13982278690E+02  0.16966328120E+03 -0.39394343093E+02  0.19491186122E+03  0.86357317407E+02 0.  0.
         11    1    4    4    0    0  0.49498299846E+02  0.10655788033E+03 -0.14727757782E+02  0.11841271215E+03  0.00000000000E+00 0. -1.
        -12    1    4    4    0    0 -0.35516021156E+02  0.63105400872E+02 -0.24666585311E+02  0.76499149073E+02  0.00000000000E+00 0.  1.
        -13    1    3    3    0    0 -0.54232314341E+01  0.46001816880E+02 -0.11051404745E+03  0.11982876649E+03  0.00000000000E+00 0.  1.
         13    1    3    3    0    0 -0.19913792948E+02 -0.30710493011E+02 -0.26404367919E+02  0.45131853227E+02  0.00000000000E+00 0. -1.
          2    1    1    2  501    0  0.11354745692E+02 -0.18495460507E+03  0.12639670395E+03  0.22430618127E+03  0.00000000000E+00 0. -1.
<scales pt_clust_5="13000.00000" pt_clust_6="13000.00000" pt_clust_7="13000.00000" pt_clust_8="13000.00000" pt_clust_9="13000.00000"></scales>
<clustering>
<clus scale="   86.357">  5  6 -1 -1</clus>
<clus scale="   87.118">  7  8 -1 -1</clus>
<clus scale="   92.007">  2  7  1 -1</clus>
<clus scale="  180.490">  5  9 -1 -1</clus>
<clus scale="  410.091">  1  5  2 -1</clus>
</clustering>
</event>
<event>
 9    1  0.2728138E-005  0.1776354E+03  0.7546771E-02  0.1184767E+00
         -4   -1    0    0    0  501 -0.00000000000E+00  0.00000000000E+00  0.21124248105E+03  0.21124248105E+03  0.00000000000E+00 0.  1.
         21   -1    0    0  501  502  0.00000000000E+00 -0.00000000000E+00 -0.11028246116E+03  0.11028246116E+03  0.00000000000E+00 0. -1.
         23    2    1    2    0    0  0.72784663152E+02 -0.51519829409E+02  0.44720954447E+02  0.13519954142E+03  0.91252683366E+02 0.  0.
        -24    2    1    2    0    0 -0.14180624994E+02  0.31330310118E+02 -0.18983340367E+02  0.88855096014E+02  0.79700579790E+02 0.  0.
         11    1    4    4    0    0 -0.20642614963E+02  0.45428228231E+02 -0.39143779442E+02  0.63419846592E+02  0.00000000000E+00 0. -1.
        -12    1    4    4    0    0  0.64619899686E+01 -0.14097918113E+02  0.20160439075E+02  0.25435249422E+02  0.00000000000E+00 0.  1.
        -11    1    3    3    0    0  0.42099583276E+02 -0.68740647061E+02  0.56111407954E+02  0.98214772682E+02  0.00000000000E+00 0. -1.
         11    1    3    3    0    0  0.30685079875E+02  0.17220817653E+02 -0.11390453507E+02  0.36984768739E+02  0.00000000000E+00 0.  1.
         -3    1    1    2    0  502 -0.58604038157E+02  0.20189519291E+02  0.75222405812E+02  0.97470304779E+02  0.00000000000E+00 0.  1.
<scales pt_clust_5="13000.00000" pt_clust_6="13000.00000" pt_clust_7="13000.00000" pt_clust_8="13000.00000" pt_clust_9="13000.00000"></scales>
<clustering>
<clus scale="   79.701">  5  6 -1 -1</clus>
<clus scale="   61.984">  5  9 -1 -1</clus>
<clus scale="   91.253">  7  8 -1 -1</clus>
<clus scale="  127.589">  1  7  2 -1</clus>
<clus scale="  177.635">  2  5  1 -1</clus>
</clustering>
</event>
<event>
 9    1  0.2728138E-005  0.3735727E+03  0.7546771E-02  0.1089232E+00
          3   -1    0    0  502    0 -0.00000000000E+00  0.00000000000E+00  0.63136505857E+03  0.63136505857E+03  0.00000000000E+00 0. -1.
         21   -1    0    0  501  502  0.00000000000E+00 -0.00000000000E+00 -0.19850955076E+03  0.19850955076E+03  0.00000000000E+00 0. -1.
         23    2    1    2    0    0  0.32799714130E+02 -0.10257995085E+03  0.43437719768E+03  0.45629884929E+03  0.89031581115E+02 0.  0.
        -24    2    1    2    0    0 -0.20882346454E+02 -0.18451089225E+02  0.15410719180E+03  0.17606402590E+03  0.80454953628E+02 0.  0.
         13    1    4    4    0    0 -0.24993947299E+02 -0.47858975847E+02  0.11421233357E+03  0.12633145337E+03  0.00000000000E+00 0. -1.
        -14    1    4    4    0    0  0.41116008445E+01  0.29407886622E+02  0.39894858236E+02  0.49732572533E+02  0.00000000000E+00 0.  1.
        -11    1    3    3    0    0  0.32272202628E+02 -0.81544871567E+02  0.42374227217E+03  0.43272228319E+03  0.00000000000E+00 0. -1.
         11    1    3    3    0    0  0.52751150263E+00 -0.21035079281E+02  0.10634925513E+02  0.23576566107E+02  0.00000000000E+00 0.  1.
          4    1    1    2  501    0 -0.11917367676E+02  0.12103104007E+03 -0.15562888167E+03  0.19751173414E+03  0.00000000000E+00 0. -1.
<scales pt_clust_5="13000.00000" pt_clust_6="13000.00000" pt_clust_7="13000.00000" pt_clust_8="13000.00000" pt_clust_9="13000.00000"></scales>
<clustering>
<clus scale="   80.455">  5  6 -1 -1</clus>
<clus scale="   89.032">  7  8 -1 -1</clus>
<clus scale="  121.616">  5  9 -1 -1</clus>
<clus scale="  139.732">  1  7  2 -1</clus>
<clus scale="  373.573">  2  5  1 -1</clus>
</clustering>
</event>
<event>
 9    1  0.2728138E-005  0.3791133E+03  0.7546771E-02  0.1077967E+00
         21   -1    0    0  501  502  0.00000000000E+00  0.00000000000E+00  0.68947825145E+02  0.68947825145E+02  0.00000000000E+00 0. -1.
          1   -1    0    0  502    0 -0.00000000000E+00 -0.00000000000E+00 -0.12145446102E+04  0.12145446102E+04  0.00000000000E+00 0. -1.
         23    2    1    2    0    0 -0.14806388403E+03 -0.55350244344E+02 -0.53576957657E+03  0.56542826517E+03  0.87598633374E+02 0.  0.
        -24    2    1    2    0    0  0.24099704155E+03  0.36124498996E+02 -0.30381414630E+03  0.39767347856E+03  0.80353012349E+02 0.  0.
         13    1    4    4    0    0  0.23471693499E+03  0.49340767414E+02 -0.27192564455E+03  0.36258806801E+03  0.00000000000E+00 0. -1.
        -14    1    4    4    0    0  0.62801065575E+01 -0.13216268418E+02 -0.31888501756E+02  0.35085410551E+02  0.00000000000E+00 0.  1.
        -13    1    3    3    0    0 -0.46193997351E+02 -0.41282856142E+02 -0.32568006002E+03  0.33152022728E+03  0.00000000000E+00 0.  1.
         13    1    3    3    0    0 -0.10186988668E+03 -0.14067388202E+02 -0.21008951655E+03  0.23390803789E+03  0.00000000000E+00 0. -1.
          2    1    1    2  501    0 -0.92933157515E+02  0.19225745348E+02 -0.30601306221E+03  0.32039069165E+03  0.00000000000E+00 0. -1.
<scales pt_clust_5="13000.00000" pt_clust_6="13000.00000" pt_clust_7="13000.00000" pt_clust_8="13000.00000" pt_clust_9="13000.00000"></scales>
<clustering>
<clus scale="   80.353">  5  6 -1 -1</clus>
<clus scale="   87.599">  7  8 -1 -1</clus>
<clus scale="   94.901">  5  9 -1 -1</clus>
<clus scale="  180.721">  2  7  1 -1</clus>
<clus scale="  379.113">  1  5  2 -1</clus>
</clustering>
</event>
<event>
 9    1  0.2728138E-005  0.3765730E+03  0.7546771E-02  0.1094978E+00
         21   -1    0    0  501  502  0.00000000000E+00  0.00000000000E+00  0.63223959340E+03  0.63223959340E+03  0.00000000000E+00 0. -1.
          1   -1    0    0  502    0 -0.00000000000E+00 -0.00000000000E+00 -0.10853181463E+03  0.10853181463E+03  0.00000000000E+00 0. -1.
         23    2    1    2    0    0  0.70828297569E+02 -0.46324327025E+01  0.32231910511E+02  0.12161410524E+03  0.93343384176E+02 0.  0.
        -24    2    1    2    0    0  0.17609982078E+02 -0.12115714966E+01 -0.33438601778E+02  0.86812787893E+02  0.78145637617E+02 0.  0.
         11    1    4    4    0    0  0.32516756371E+01 -0.39027412490E+02 -0.11602212766E+02  0.40845117960E+02  0.00000000000E+00 0. -1.
        -12    1    4    4    0    0  0.14358306441E+02  0.37815840994E+02 -0.21836389012E+02  0.45967669932E+02  0.00000000000E+00 0.  1.
        -11    1    3    3    0    0 -0.66675069363E+01 -0.26313776469E+02  0.30901943184E+02  0.41131503417E+02  0.00000000000E+00 0.  1.
         11    1    3    3    0    0  0.77495804505E+02  0.21681343767E+02  0.13299673273E+01  0.80482601825E+02  0.00000000000E+00 0. -1.
          2    1    1    2  501    0 -0.88438279647E+02  0.58440041990E+01  0.52491447004E+03  0.53234451490E+03  0.00000000000E+00 0. -1.
<scales pt_clust_5="13000.00000" pt_clust_6="13000.00000" pt_clust_7="13000.00000" pt_clust_8="13000.00000" pt_clust_9="13000.00000"></scales>
<clustering>
<clus scale="   78.146">  5  6 -1 -1</clus>
<clus scale="   88.631">  5  9 -1 -1</clus>
<clus scale="   93.343">  7  8 -1 -1</clus>
<clus scale="  117.265">  2  7  1 -1</clus>
<clus scale="  376.573">  1  5  2 -1</clus>
</clustering>
</event>
<event>
 9    1  0.2728138E-005  0.2770003E+03  0.7546771E-02  0.1132557E+00
         21   -1    0    0  501  502  0.00000000000E+00  0.00000000000E+00  0.51735902488E+03  0.51735902488E+03  0.00000000000E+00 0. -1.
          3   -1    0    0  502    0 -0.00000000000E+00 -0.00000000000E+00 -0.20861321483E+03  0.20861321483E+03  0.00000000000E+00 0. -1.
         23    2    1    2    0    0  0.67704743363E+02 -0.19087995313E+02 -0.15107217485E+03  0.18916522451E+03  0.89511989746E+02 0.  0.
        -24    2    1    2    0    0  0.23837895626E+02 -0.58643632970E+02  0.58390077122E+02  0.11780030174E+03  0.80375301107E+02 0.  0.
         13    1    4    4    0    0  0.21641208613E+02 -0.68268444332E+02  0.71626253135E+02  0.10128791902E+03  0.00000000000E+00 0. -1.
        -14    1    4    4    0    0  0.21966870133E+01  0.96248113617E+01 -0.13236176013E+02  0.16512382718E+02  0.00000000000E+00 0.  1.
        -11    1    3    3    0    0  0.45098056143E+02 -0.34726170677E+02 -0.28702611729E+02  0.63746227479E+02  0.00000000000E+00 0.  1.
         11    1    3    3    0    0  0.22606687220E+02  0.15638175364E+02 -0.12236956312E+03  0.12541899703E+03  0.00000000000E+00 0. -1.
          4    1    1    2  501    0 -0.91542638990E+02  0.77731628283E+02  0.40142790778E+03  0.41900671347E+03  0.00000000000E+00 0. -1.
<scales pt_clust_5="13000.00000" pt_clust_6="13000.00000" pt_clust_7="13000.00000" pt_clust_8="13000.00000" pt_clust_9="13000.00000"></scales>
<clustering>
<clus scale="   80.375">  5  6 -1 -1</clus>
<clus scale="   89.512">  7  8 -1 -1</clus>
<clus scale="  113.845">  2  7  1 -1</clus>
<clus scale="  105.699">  5  9 -1 -1</clus>
<clus scale="  277.000">  1  5  2 -1</clus>
</clustering>
</event>
<event>
 9    1  0.3384837E-005  0.2772326E+03  0.7546771E-02  0.1130466E+00
         21   -1    0    0  501  502  0.00000000000E+00  0.00000000000E+00  0.31093234207E+03  0.31093234207E+03  0.00000000000E+00 0. -1.
         -4   -1    0    0    0  501 -0.00000000000E+00 -0.00000000000E+00 -0.22552647640E+03  0.22552647640E+03  0.00000000000E+00 0.  1.
         23    2    1    2    0    0  0.20584025012E+02 -0.71166771566E+02  0.20279421390E+03  0.23539744991E+03  0.93797946523E+02 0.  0.
        -24    2    1    2    0    0  0.24017252162E+02 -0.81181891072E+02 -0.64884617182E+02  0.13386079827E+03  0.80878748305E+02 0.  0.
         13    1    4    4    0    0 -0.21377042142E+02 -0.57266048914E+02 -0.53662242396E+02  0.81338887059E+02  0.00000000000E+00 0. -1.
        -14    1    4    4    0    0  0.45394294304E+02 -0.23915842158E+02 -0.11222374786E+02  0.52521911211E+02  0.00000000000E+00 0.  1.
        -13    1    3    3    0    0 -0.18195865127E+02 -0.74846993103E+02  0.10576759292E+03  0.13084320998E+03  0.00000000000E+00 0.  1.
         13    1    3    3    0    0  0.38779890139E+02  0.36802215377E+01  0.97026620975E+02  0.10455423993E+03  0.00000000000E+00 0. -1.
         -3    1    1    2    0  502 -0.44601277174E+02  0.15234866264E+03 -0.52503731047E+02  0.16720057029E+03  0.00000000000E+00 0.  1.
<scales pt_clust_5="13000.00000" pt_clust_6="13000.00000" pt_clust_7="13000.00000" pt_clust_8="13000.00000" pt_clust_9="13000.00000"></scales>
<clustering>
<clus scale="   80.879">  5  6 -1 -1</clus>
<clus scale="   93.798">  7  8 -1 -1</clus>
<clus scale="  119.526">  2  7  1 -1</clus>
<clus scale="  119.846">  5  9 -1 -1</clus>
<clus scale="  277.233">  1  5  2 -1</clus>
</clustering>
</event>
<event>
 9    1  0.2728138E-005  0.2167624E+03  0.7546771E-02  0.1144258E+00
          1   -1    0    0  502    0 -0.00000000000E+00  0.00000000000E+00  0.41985012357E+03  0.41985012357E+03  0.00000000000E+00 0. -1.
         21   -1    0    0  501  502  0.00000000000E+00 -0.00000000000E+00 -0.98975022949E+02  0.98975022949E+02  0.00000000000E+00 0. -1.
         23    2    1    2    0    0 -0.12560430852E+03 -0.79877023464E+02  0.83983719382E+02  0.19772784489E+03  0.99429645115E+02 0.  0.
        -24    2    1    2    0    0  0.94934281890E+01  0.42689499185E+02  0.75350704567E+02  0.11871143574E+03  0.80635958335E+02 0.  0.
         13    1    4    4    0    0 -0.41776142015E+00  0.38316427927E+02 -0.40892115507E+01  0.38536279333E+02  0.00000000000E+00 0. -1.
        -14    1    4    4    0    0  0.99111896092E+01  0.43730712575E+01  0.79439916118E+02  0.80175156404E+02  0.00000000000E+00 0.  1.
        -13    1    3    3    0    0 -0.24312227185E+02 -0.36377745172E+02  0.75376135922E+02  0.87154957410E+02  0.00000000000E+00 0. -1.
         13    1    3    3    0    0 -0.10129208133E+03 -0.43499278292E+02  0.86075834600E+01  0.11057288748E+03  0.00000000000E+00 0.  1.
          2    1    1    2  501    0  0.11611088033E+03  0.37187524280E+02  0.16154067667E+03  0.20238586589E+03  0.00000000000E+00 0. -1.
<scales pt_clust_5="13000.00000" pt_clust_6="13000.00000" pt_clust_7="13000.00000" pt_clust_8="13000.00000" pt_clust_9="13000.00000"></scales>
<clustering>
<clus scale="   80.636">  5  6 -1 -1</clus>
<clus scale="   99.430">  7  8 -1 -1</clus>
<clus scale="  121.921">  5  9 -1 -1</clus>
<clus scale="  179.006">  1  7  2 -1</clus>
<clus scale="  216.762">  2  5  1 -1</clus>
</clustering>
</event>
<event>
 9    1  0.2728138E-005  0.2776076E+03  0.7546771E-02  0.1123378E+00
         21   -1    0    0  501  502  0.00000000000E+00  0.00000000000E+00  0.68229672158E+02  0.68229672158E+02  0.00000000000E+00 0. -1.
          1   -1    0    0  502    0 -0.00000000000E+00 -0.00000000000E+00 -0.87687369721E+03  0.87687369721E+03  0.00000000000E+00 0. -1.
         23    2    1    2    0    0  0.89809157042E+02  0.58052807613E+02 -0.54176315235E+03  0.56001714302E+03  0.93145445807E+02 0.  0.
        -24    2    1    2    0    0 -0.35418422825E+02  0.67968328721E+02 -0.35884938289E+02  0.11638788157E+03  0.79901513095E+02 0.  0.
         11    1    4    4    0    0 -0.42445026535E+02  0.69381537853E+02 -0.15884529751E+01  0.81350484051E+02  0.00000000000E+00 0. -1.
        -12    1    4    4    0    0  0.70266037099E+01 -0.14132091318E+01 -0.34296485314E+02  0.35037397516E+02  0.00000000000E+00 0.  1.
        -11    1    3    3    0    0  0.10261959037E+03  0.41855856016E+02 -0.51157121065E+03  0.52343843628E+03  0.00000000000E+00 0. -1.
         11    1    3    3    0    0 -0.12810433331E+02  0.16196951597E+02 -0.30191941696E+02  0.36578706737E+02  0.00000000000E+00 0.  1.
          2    1    1    2  501    0 -0.54390734217E+02 -0.12602113633E+03 -0.23099593441E+03  0.26869834478E+03  0.00000000000E+00 0. -1.
<scales pt_clust_5="13000.00000" pt_clust_6="13000.00000" pt_clust_7="13000.00000" pt_clust_8="13000.00000" pt_clust_9="13000.00000"></scales>
<clustering>
<clus scale="   79.902">  5  6 -1 -1</clus>
<clus scale="   93.145">  7  8 -1 -1</clus>
<clus scale="  137.258">  5  9 -1 -1</clus>
<clus scale="  141.816">  2  7  1 -1</clus>
<clus scale="  277.608">  1  5  2 -1</clus>
</clustering>
</event>
<event>
 9    1  0.2728138E-005  0.2992966E+03  0.7546771E-02  0.1103324E+00
          1   -1    0    0  502    0 -0.00000000000E+00  0.00000000000E+00  0.60053295051E+03  0.60053295051E+03  0.00000000000E+00 0. -1.
         21   -1    0    0  501  502  0.00000000000E+00 -0.00000000000E+00 -0.14453907917E+03  0.14453907917E+03  0.00000000000E+00 0. -1.
         23    2    1    2    0    0  0.21470391807E+02 -0.16283586328E+03 -0.13264870801E+02  0.18849122257E+03  0.91523156050E+02 0.  0.
        -24    2    1    2    0    0  0.10124455347E+02 -0.31368926137E+02  0.23540271774E+03  0.25096278613E+03  0.80506933734E+02 0.  0.
         13    1    4    4    0    0  0.32312992863E+02 -0.50580748410E+00  0.18517161386E+03  0.18797050813E+03  0.00000000000E+00 0. -1.
        -14    1    4    4    0    0 -0.22188537516E+02 -0.30863118653E+02  0.50231103889E+02  0.62992278003E+02  0.00000000000E+00 0.  1.
        -13    1    3    3    0    0  0.25917409487E+02 -0.14061235786E+03 -0.44639114023E+02  0.14978717501E+03  0.00000000000E+00 0. -1.
         13    1    3    3    0    0 -0.44470176797E+01 -0.22223505419E+02  0.31374243222E+02  0.38704047554E+02  0.00000000000E+00 0.  1.
          2    1    1    2  501    0 -0.31594847154E+02  0.19420478942E+03  0.23385602440E+03  0.30561802098E+03  0.00000000000E+00 0. -1.
<scales pt_clust_5="13000.00000" pt_clust_6="13000.00000" pt_clust_7="13000.00000" pt_clust_8="13000.00000" pt_clust_9="13000.00000"></scales>
<clustering>
<clus scale="   80.507">  5  6 -1 -1</clus>
<clus scale="   91.523">  7  8 -1 -1</clus>
<clus scale="  188.024">  1  7  2 -1</clus>
<clus scale="  110.454">  5  9 -1 -1</clus>
<clus scale="  299.297">  2  5  1 -1</clus>
</clustering>
</event>
<event>
 9    1  0.2728138E-005  0.1318155E+03  0.7546771E-02  0.1231591E+00
          1   -1    0    0  502    0 -0.00000000000E+00  0.00000000000E+00  0.11169254328E+03  0.11169254328E+03  0.00000000000E+00 0. -1.
         21   -1    0    0  501  502  0.00000000000E+00 -0.00000000000E+00 -0.15051101581E+03  0.15051101581E+03  0.00000000000E+00 0. -1.
         23    2    1    2    0    0  0.58431943099E+02  0.35483783142E+02  0.22736357106E+02  0.11672393337E+03  0.91837594951E+02 0.  0.
        -24    2    1    2    0    0 -0.35335907680E+02 -0.48066012912E+02 -0.31527814113E+02  0.10556269925E+03  0.81181971156E+02 0.  0.
         11    1    4    4    0    0 -0.54451655467E+02 -0.37287833790E+02 -0.44940260562E+02  0.79843549215E+02  0.00000000000E+00 0. -1.
        -12    1    4    4    0    0  0.19115747787E+02 -0.10778179122E+02  0.13412446450E+02  0.25719150032E+02  0.00000000000E+00 0.  1.
        -11    1    3    3    0    0 -0.22725644893E+02  0.68857271343E+00 -0.66025909540E+01  0.23675372764E+02  0.00000000000E+00 0.  1.
         11    1    3    3    0    0  0.81157587993E+02  0.34795210428E+02  0.29338948060E+02  0.93048560606E+02  0.00000000000E+00 0. -1.
          2    1    1    2  501    0 -0.23096035419E+02  0.12582229770E+02 -0.30027015518E+02  0.39916926472E+02  0.00000000000E+00 0. -1.
<scales pt_clust_5="13000.00000" pt_clust_6="13000.00000" pt_clust_7="13000.00000" pt_clust_8="13000.00000" pt_clust_9="13000.00000"></scales>
<clustering>
<clus scale="   81.182">  5  6 -1 -1</clus>
<clus scale="   26.301">  5  9 -1 -1</clus>
<clus scale="   91.838">  7  8 -1 -1</clus>
<clus scale="  114.488">  1  7  2 -1</clus>
<clus scale="  131.815">  2  5  1 -1</clus>
</clustering>
</event>
<event>
 9    1  0.2728138E-005  0.1986740E+03  0.7546771E-02  0.1168502E+00
          3   -1    0    0  502    0 -0.00000000000E+00  0.00000000000E+00  0.10222726949E+03  0.10222726949E+03  0.00000000000E+00 0. -1.
         21   -1    0    0  501  502  0.00000000000E+00 -0.00000000000E+00 -0.37095310340E+03  0.37095310340E+03  0.00000000000E+00 0. -1.
         23    2    1    2    0    0  0.43282748795E+02  0.85798065210E+02  0.86219679521E+01  0.13201597203E+03  0.90106460377E+02 0.  0.
        -24    2    1    2    0    0 -0.43125930554E+02 -0.86141062576E+01 -0.60294325237E+02  0.11079600063E+03  0.81891998312E+02 0.  0.
         13    1    4    4    0    0 -0.49721440323E+02  0.19116547279E+02 -0.62601452010E+02  0.82198575422E+02  0.00000000000E+00 0. -1.
        -14    1    4    4    0    0  0.65955097695E+01 -0.27730653536E+02  0.23071267732E+01  0.28597425210E+02  0.00000000000E+00 0.  1.
        -13    1    3    3    0    0 -0.14304448181E+02  0.31792350266E+02 -0.28259536797E+02  0.44877301536E+02  0.00000000000E+00 0.  1.
         13    1    3    3    0    0  0.57587196976E+02  0.54005714945E+02  0.36881504749E+02  0.87138670491E+02  0.00000000000E+00 0. -1.
          4    1    1    2  501    0 -0.15681824123E+00 -0.77183958953E+02 -0.21705347662E+03  0.23036840023E+03  0.00000000000E+00 0. -1.
<scales pt_clust_5="13000.00000" pt_clust_6="13000.00000" pt_clust_7="13000.00000" pt_clust_8="13000.00000" pt_clust_9="13000.00000"></scales>
<clustering>
<clus scale="   81.892">  5  6 -1 -1</clus>
<clus scale="   77.184">  5  9 -1 -1</clus>
<clus scale="   90.106">  7  8 -1 -1</clus>
<clus scale="  131.734">  1  7  2 -1</clus>
<clus scale="  198.674">  2  5  1 -1</clus>
</clustering>
</event>
<event>
 9    1  0.2728138E-005  0.3362238E+03  0.7546771E-02  0.1116293E+00
          1   -1    0    0  502    0 -0.00000000000E+00  0.00000000000E+00  0.35395426528E+03  0.35395426528E+03  0.00000000000E+00 0. -1.
         21   -1    0    0  501  502  0.00000000000E+00 -0.00000000000E+00 -0.16598884593E+03  0.16598884593E+03  0.00000000000E+00 0. -1.
         23    2    1    2    0    0 -0.14393742091E+02  0.29150366226E+01  0.15520050716E+03  0.18212665222E+03  0.94166038327E+02 0.  0.
        -24    2    1    2    0    0  0.14667084885E+03 -0.57578448949E+02 -0.34756634426E+02  0.17956197761E+03  0.78783656194E+02 0.  0.
         13    1    4    4    0    0  0.14399103530E+03 -0.66075040427E+02 -0.46230717220E+02  0.16503517331E+03  0.00000000000E+00 0. -1.
        -14    1    4    4    0    0  0.26798135464E+01  0.84965914776E+01  0.11474082794E+02  0.14526804306E+02  0.00000000000E+00 0.  1.
        -13    1    3    3    0    0  0.33917829437E+02 -0.20938184383E+02  0.82628469090E+02  0.91740343487E+02  0.00000000000E+00 0. -1.
         13    1    3    3    0    0 -0.48311571527E+02  0.23853221005E+02  0.72572038072E+02  0.90386308730E+02  0.00000000000E+00 0.  1.
          2    1    1    2  501    0 -0.13227710676E+03  0.54663412326E+02  0.67521546613E+02  0.15825448138E+03  0.00000000000E+00 0. -1.
<scales pt_clust_5="13000.00000" pt_clust_6="13000.00000" pt_clust_7="13000.00000" pt_clust_8="13000.00000" pt_clust_9="13000.00000"></scales>
<clustering>
<clus scale="   78.784">  5  6 -1 -1</clus>
<clus scale="   94.166">  7  8 -1 -1</clus>
<clus scale="   95.304">  1  7  2 -1</clus>
<clus scale="  151.919">  5  9 -1 -1</clus>
<clus scale="  336.224">  2  5  1 -1</clus>
</clustering>
</event>
<event>
 9    1  0.2728138E-005  0.9082502E+03  0.7546771E-02  0.1007535E+00
         -2   -1    0    0    0  501 -0.00000000000E+00  0.00000000000E+00  0.22490571797E+03  0.22490571797E+03  0.00000000000E+00 0.  1.
         21   -1    0    0  501  502  0.00000000000E+00 -0.00000000000E+00 -0.11809753702E+04  0.11809753702E+04  0.00000000000E+00 0.  1.
         23    2    1    2    0    0 -0.45516223957E+02  0.30126810953E+01 -0.22928043437E+02  0.10370147895E+03  0.90263495777E+02 0.  0.
        -24    2    1    2    0    0 -0.79212979706E+02 -0.62726949903E+02  0.15675122521E+03  0.20354884424E+03  0.81558684334E+02 0.  0.
         11    1    4    4    0    0 -0.89708172760E+02 -0.37106652425E+02  0.94784262919E+02  0.13567798794E+03  0.00000000000E+00 0. -1.
        -12    1    4    4    0    0  0.10495193054E+02 -0.25620297478E+02  0.61966962287E+02  0.67870856302E+02  0.00000000000E+00 0.  1.
        -13    1    3    3    0    0 -0.44558717857E+02 -0.38890495942E+02 -0.15415109564E+02  0.61119355482E+02  0.00000000000E+00 0.  1.
         13    1    3    3    0    0 -0.95750609993E+00  0.41903177037E+02 -0.75129338725E+01  0.42582123468E+02  0.00000000000E+00 0. -1.
         -1    1    1    2    0  502  0.12472920366E+03  0.59714268808E+02 -0.10898928340E+04  0.10986307650E+04  0.00000000000E+00 0.  1.
<scales pt_clust_5="13000.00000" pt_clust_6="13000.00000" pt_clust_7="13000.00000" pt_clust_8="13000.00000" pt_clust_9="13000.00000"></scales>
<clustering>
<clus scale="   81.559">  5  6 -1 -1</clus>
<clus scale="   90.263">  7  8 -1 -1</clus>
<clus scale="  101.135">  1  7  2 -1</clus>
<clus scale="  137.346">  5  9 -1 -1</clus>
<clus scale="  908.250">  2  5  1 -1</clus>
</clustering>
</event>
<event>
 9    1  0.2728138E-005  0.1640773E+03  0.7546771E-02  0.1190350E+00
         21   -1    0    0  501  502  0.00000000000E+00  0.00000000000E+00  0.17721582586E+03  0.17721582586E+03  0.00000000000E+00 0.  1.
          1   -1    0    0  502    0 -0.00000000000E+00 -0.00000000000E+00 -0.20071902925E+03  0.20071902925E+03  0.00000000000E+00 0. -1.
         23    2    1    2    0    0  0.50945913710E+02  0.66981506474E+02 -0.12075903970E+03  0.18719930296E+03  0.11566687091E+03 0.  0.
        -24    2    1    2    0    0 -0.34024414785E+02 -0.30686254612E+02  0.81232424282E+01  0.93020140239E+02  0.80544722974E+02 0.  0.
         11    1    4    4    0    0 -0.13205806881E+02 -0.40083726101E+02  0.37052635674E+02  0.56160450888E+02  0.00000000000E+00 0. -1.
        -12    1    4    4    0    0 -0.20818607904E+02  0.93974714894E+01 -0.28929393246E+02  0.36859689351E+02  0.00000000000E+00 0.  1.
        -11    1    3    3    0    0 -0.34865607496E+02  0.29431080225E+01 -0.39604252750E+02  0.52846658426E+02  0.00000000000E+00 0.  1.
         11    1    3    3    0    0  0.85811521206E+02  0.64038398452E+02 -0.81154786954E+02  0.13435264453E+03  0.00000000000E+00 0. -1.
          2    1    1    2  501    0 -0.16921498925E+02 -0.36295251862E+02  0.89132593884E+02  0.97715411917E+02  0.00000000000E+00 0. -1.
<scales pt_clust_5="13000.00000" pt_clust_6="13000.00000" pt_clust_7="13000.00000" pt_clust_8="13000.00000" pt_clust_9="13000.00000"></scales>
<clustering>
<clus scale="   80.545">  5  6 -1 -1</clus>
<clus scale="   40.046">  5  9 -1 -1</clus>
<clus scale="  115.667">  7  8 -1 -1</clus>
<clus scale="  143.041">  2  7  1 -1</clus>
<clus scale="  164.077">  1  5  2 -1</clus>
</clustering>
</event>
<event>
 9    1  0.2728138E-005  0.2192519E+03  0.7546771E-02  0.1168462E+00
         21   -1    0    0  501  502  0.00000000000E+00  0.00000000000E+00  0.17644337095E+03  0.17644337095E+03  0.00000000000E+00 0. -1.
          1   -1    0    0  502    0 -0.00000000000E+00 -0.00000000000E+00 -0.19325250963E+03  0.19325250963E+03  0.00000000000E+00 0. -1.
         23    2    1    2    0    0 -0.26444863201E+02 -0.16945906598E+02 -0.95343378778E+02  0.13680314932E+03  0.92942171522E+02 0.  0.
        -24    2    1    2    0    0  0.76530483952E+02  0.55618447681E+02  0.10656079898E+03  0.16368563016E+03  0.80544738786E+02 0.  0.
         13    1    4    4    0    0  0.78512294301E+02  0.12065127429E+02  0.79436291325E+02  0.11233820381E+03  0.00000000000E+00 0. -1.
        -14    1    4    4    0    0 -0.19818103490E+01  0.43553320252E+02  0.27124507651E+02  0.51347426348E+02  0.00000000000E+00 0.  1.
        -11    1    3    3    0    0  0.30758085510E+02 -0.56354717991E+01 -0.62483320098E+02  0.69871193328E+02  0.00000000000E+00 0. -1.
         11    1    3    3    0    0 -0.57202948711E+02 -0.11310434799E+02 -0.32860058680E+02  0.66931955993E+02  0.00000000000E+00 0.  1.
          2    1    1    2  501    0 -0.50085620751E+02 -0.38672541083E+02 -0.28026558881E+02  0.69207101099E+02  0.00000000000E+00 0. -1.
<scales pt_clust_5="13000.00000" pt_clust_6="13000.00000" pt_clust_7="13000.00000" pt_clust_8="13000.00000" pt_clust_9="13000.00000"></scales>
<clustering>
<clus scale="   80.545">  5  6 -1 -1</clus>
<clus scale="   63.278">  5  9 -1 -1</clus>
<clus scale="   92.942">  7  8 -1 -1</clus>
<clus scale="   98.106">  2  7  1 -1</clus>
<clus scale="  219.252">  1  5  2 -1</clus>
</clustering>
</event>
<event>
 9    1  0.2728138E-005  0.5563527E+03  0.7546771E-02  0.1053861E+00
         21   -1    0    0  501  502  0.00000000000E+00  0.00000000000E+00  0.32883736792E+03  0.32883736792E+03  0.00000000000E+00 0. -1.
          1   -1    0    0  502    0 -0.00000000000E+00 -0.00000000000E+00 -0.40883955273E+03  0.40883955273E+03  0.00000000000E+00 0. -1.
         23    2    1    2    0    0  0.52135631551E+02 -0.40624922961E+02  0.10326467316E+03  0.15191662904E+03  0.89702625455E+02 0.  0.
        -24    2    1    2    0    0  0.56119180685E+02  0.19008588571E+03  0.11047154992E+03  0.23885982169E+03  0.74619331881E+02 0.  0.
         13    1    4    4    0    0  0.57312066319E+02  0.14653252096E+03  0.11523991026E+03  0.19502997093E+03  0.00000000000E+00 0. -1.
        -14    1    4    4    0    0 -0.11928856339E+01  0.43553364752E+02 -0.47683603434E+01  0.43829850761E+02  0.00000000000E+00 0.  1.
        -13    1    3    3    0    0  0.29815886879E+02  0.19509072147E+02  0.71140329584E+01  0.36334563040E+02  0.00000000000E+00 0.  1.
         13    1    3    3    0    0  0.22319744672E+02 -0.60133995108E+02  0.96150640197E+02  0.11558206600E+03  0.00000000000E+00 0. -1.
          2    1    1    2  501    0 -0.10825481224E+03 -0.14946096275E+03 -0.29373840789E+03  0.34690046991E+03  0.00000000000E+00 0. -1.
<scales pt_clust_5="13000.00000" pt_clust_6="13000.00000" pt_clust_7="13000.00000" pt_clust_8="13000.00000" pt_clust_9="13000.00000"></scales>
<clustering>
<clus scale="   74.619">  5  6 -1 -1</clus>
<clus scale="   89.703">  7  8 -1 -1</clus>
<clus scale="  111.423">  2  7  1 -1</clus>
<clus scale="  194.428">  5  9 -1 -1</clus>
<clus scale="  556.353">  1  5  2 -1</clus>
</clustering>
</event>
<event>
 9    1  0.2728138E-005  0.2330436E+03  0.7546771E-02  0.1160581E+00
         21   -1    0    0  501  502  0.00000000000E+00  0.00000000000E+00  0.39103984674E+02  0.39103984674E+02  0.00000000000E+00 0. -1.
          1   -1    0    0  502    0 -0.00000000000E+00 -0.00000000000E+00 -0.73716376512E+03  0.73716376512E+03  0.00000000000E+00 0. -1.
         23    2    1    2    0    0 -0.32045329246E+02  0.21854959402E+02 -0.13446098465E+03  0.16638831854E+03  0.90004298655E+02 0.  0.
        -24    2    1    2    0    0  0.25067381808E+02  0.64321807372E+02 -0.13281623434E+03  0.17050630721E+03  0.81649128335E+02 0.  0.
         11    1    4    4    0    0  0.40896519971E+02  0.65986520904E+02 -0.66232112322E+02  0.10204625907E+03  0.00000000000E+00 0. -1.
        -12    1    4    4    0    0 -0.15829138162E+02 -0.16647135319E+01 -0.66584122020E+02  0.68460048140E+02  0.00000000000E+00 0.  1.
        -11    1    3    3    0    0 -0.54946917064E+02  0.40581285221E+02 -0.90054749093E+02  0.11303035981E+03  0.00000000000E+00 0.  1.
         11    1    3    3    0    0  0.22901587818E+02 -0.18726325819E+02 -0.44406235553E+02  0.53357958725E+02  0.00000000000E+00 0. -1.
          2    1    1    2  501    0  0.69779474372E+01 -0.86176766774E+02 -0.43078256146E+03  0.43937312405E+03  0.00000000000E+00 0. -1.
<scales pt_clust_5="13000.00000" pt_clust_6="13000.00000" pt_clust_7="13000.00000" pt_clust_8="13000.00000" pt_clust_9="13000.00000"></scales>
<clustering>
<clus scale="   81.649">  5  6 -1 -1</clus>
<clus scale="   86.459">  5  9 -1 -1</clus>
<clus scale="   90.004">  7  8 -1 -1</clus>
<clus scale="   98.007">  2  7  1 -1</clus>
<clus scale="  233.044">  1  5  2 -1</clus>
</clustering>
</event>
<event>
 9    1  0.2728138E-005  0.5371771E+03  0.7546771E-02  0.1064174E+00
          1   -1    0    0  502    0 -0.00000000000E+00  0.00000000000E+00  0.70026724821E+03  0.70026724821E+03  0.00000000000E+00 0. -1.
         21   -1    0    0  501  502  0.00000000000E+00 -0.00000000000E+00 -0.19142559921E+03  0.19142559921E+03  0.00000000000E+00 0. -1.
         23    2    1    2    0    0 -0.15463889465E+02  0.13449404676E+02  0.30226934931E+03  0.31616581132E+03  0.90410410620E+02 0.  0.
        -24    2    1    2    0    0  0.19102610809E+03  0.10465461188E+03 -0.55894447107E+02  0.23839287215E+03  0.79141711583E+02 0.  0.
         13    1    4    4    0    0  0.87590616366E+02  0.59896511398E+02 -0.66441316241E+02  0.12519647222E+03  0.00000000000E+00 0. -1.
        -14    1    4    4    0    0  0.10343549173E+03  0.44758100487E+02  0.10546869134E+02  0.11319639993E+03  0.00000000000E+00 0.  1.
        -13    1    3    3    0    0  0.31112493603E+02 -0.13051376123E+02  0.17247892499E+03  0.17574784563E+03  0.00000000000E+00 0.  1.
         13    1    3    3    0    0 -0.46576383068E+02  0.26500780799E+02  0.12979042432E+03  0.14041796569E+03  0.00000000000E+00 0. -1.
          2    1    1    2  501    0 -0.17556221863E+03 -0.11810401656E+03  0.26246674679E+03  0.33713416396E+03  0.00000000000E+00 0. -1.
<scales pt_clust_5="13000.00000" pt_clust_6="13000.00000" pt_clust_7="13000.00000" pt_clust_8="13000.00000" pt_clust_9="13000.00000"></scales>
<clustering>
<clus scale="   79.142">  5  6 -1 -1</clus>
<clus scale="   90.410">  7  8 -1 -1</clus>
<clus scale="   92.704">  1  7  2 -1</clus>
<clus scale="  216.205">  5  9 -1 -1</clus>
<clus scale="  537.177">  2  5  1 -1</clus>
</clustering>
</event>
<event>
 9    1  0.2728138E-005  0.4851923E+03  0.7546771E-02  0.1079261E+00
          1   -1    0    0  502    0 -0.00000000000E+00  0.00000000000E+00  0.30345148692E+03  0.30345148692E+03  0.00000000000E+00 0. -1.
         21   -1    0    0  501  502  0.00000000000E+00 -0.00000000000E+00 -0.26688122137E+03  0.26688122137E+03  0.00000000000E+00 0. -1.
         23    2    1    2    0    0  0.45001244711E+02  0.20243440221E+02 -0.47224255469E+01  0.83386472331E+02  0.67052916173E+02 0.  0.
        -24    2    1    2    0    0 -0.22953688892E+03  0.60959876826E+02 -0.62071567223E+02  0.26038155958E+03  0.86846917917E+02 0.  0.
         11    1    4    4    0    0 -0.10185211326E+03 -0.16761340536E+02 -0.20619276678E+02  0.10526134183E+03  0.00000000000E+00 0. -1.
        -12    1    4    4    0    0 -0.12768477566E+03  0.77721217362E+02 -0.41452290545E+02  0.15512021775E+03  0.00000000000E+00 0.  1.
        -13    1    3    3    0    0 -0.14042035687E+02  0.19497959674E+02  0.10920817055E+01  0.24052896710E+02  0.00000000000E+00 0. -1.
         13    1    3    3    0    0  0.59043280398E+02  0.74548054647E+00 -0.58145072525E+01  0.59333575621E+02  0.00000000000E+00 0.  1.
          2    1    1    2  501    0  0.18453564421E+03 -0.81203317046E+02  0.10336425832E+03  0.22656467638E+03  0.00000000000E+00 0. -1.
<scales pt_clust_5="13000.00000" pt_clust_6="13000.00000" pt_clust_7="13000.00000" pt_clust_8="13000.00000" pt_clust_9="13000.00000"></scales>
<clustering>
<clus scale="   67.053">  7  8 -1 -1</clus>
<clus scale="   83.253">  1  7  2 -1</clus>
<clus scale="   86.847">  5  6 -1 -1</clus>
<clus scale="  223.422">  5  9 -1 -1</clus>
<clus scale="  485.192">  2  5  1 -1</clus>
</clustering>
</event>
<event>
 9    1  0.2728138E-005  0.3696521E+03  0.7546771E-02  0.1087528E+00
         -2   -1    0    0    0  501 -0.00000000000E+00  0.00000000000E+00  0.41316732836E+03  0.41316732836E+03  0.00000000000E+00 0.  1.
         21   -1    0    0  501  502  0.00000000000E+00 -0.00000000000E+00 -0.17310233305E+03  0.17310233305E+03  0.00000000000E+00 0. -1.
         23    2    1    2    0    0 -0.62233938286E+02 -0.11536969436E+03  0.10768983475E+02  0.15127619935E+03  0.74734784643E+02 0.  0.
        -24    2    1    2    0    0  0.15357843024E+03  0.54963030765E+02  0.37884019894E+00  0.18123008272E+03  0.78974238708E+02 0.  0.
         13    1    4    4    0    0  0.15974187520E+03  0.52239028239E+02  0.11246871249E+02  0.16844249724E+03  0.00000000000E+00 0. -1.
        -14    1    4    4    0    0 -0.61634449637E+01  0.27240025258E+01 -0.10868031050E+02  0.12787585483E+02  0.00000000000E+00 0.  1.
        -13    1    3    3    0    0 -0.69415781588E+02 -0.59769698991E+02 -0.84987842169E+01  0.91995635680E+02  0.00000000000E+00 0. -1.
         13    1    3    3    0    0  0.71818433020E+01 -0.55599995364E+02  0.19267767692E+02  0.59280563674E+02  0.00000000000E+00 0.  1.
         -1    1    1    2    0  502 -0.91344491950E+02  0.60406663590E+02  0.22891717164E+03  0.25376337933E+03  0.00000000000E+00 0.  1.
<scales pt_clust_5="13000.00000" pt_clust_6="13000.00000" pt_clust_7="13000.00000" pt_clust_8="13000.00000" pt_clust_9="13000.00000"></scales>
<clustering>
<clus scale="   74.735">  7  8 -1 -1</clus>
<clus scale="   78.974">  5  6 -1 -1</clus>
<clus scale="  109.512">  5  9 -1 -1</clus>
<clus scale="  150.892">  1  7  2 -1</clus>
<clus scale="  369.652">  2  5  1 -1</clus>
</clustering>
</event>
<event>
 9    1  0.2728138E-005  0.1889308E+03  0.7546771E-02  0.1165300E+00
         21   -1    0    0  501  502  0.00000000000E+00  0.00000000000E+00  0.15792294422E+03  0.15792294422E+03  0.00000000000E+00 0. -1.
          1   -1    0    0  502    0 -0.00000000000E+00 -0.00000000000E+00 -0.56375807332E+03  0.56375807332E+03  0.00000000000E+00 0. -1.
         23    2    1    2    0    0  0.15411192690E+02  0.13181672673E+03 -0.48840955503E+03  0.51549331470E+03  0.97858621272E+02 0.  0.
        -24    2    1    2    0    0 -0.45646801774E+02 -0.59812542876E+02  0.35432397168E+02  0.11496728064E+03  0.79377893970E+02 0.  0.
         13    1    4    4    0    0 -0.58208845928E+02 -0.56059815937E+02  0.50264877010E+02  0.95171059509E+02  0.00000000000E+00 0. -1.
        -14    1    4    4    0    0  0.12562044155E+02 -0.37527269394E+01 -0.14832479841E+02  0.19796221131E+02  0.00000000000E+00 0.  1.
        -13    1    3    3    0    0 -0.24425649434E+02  0.65886989177E+01 -0.33476300066E+02  0.41960528712E+02  0.00000000000E+00 0.  1.
         13    1    3    3    0    0  0.39836842123E+02  0.12522802781E+03 -0.45493325496E+03  0.47353278599E+03  0.00000000000E+00 0. -1.
          2    1    1    2  501    0  0.30235609084E+02 -0.72004183851E+02  0.47142028758E+02  0.91220422188E+02  0.00000000000E+00 0. -1.
<scales pt_clust_5="13000.00000" pt_clust_6="13000.00000" pt_clust_7="13000.00000" pt_clust_8="13000.00000" pt_clust_9="13000.00000"></scales>
<clustering>
<clus scale="   79.378">  5  6 -1 -1</clus>
<clus scale="   78.095">  5  9 -1 -1</clus>
<clus scale="   97.859">  7  8 -1 -1</clus>
<clus scale="  164.892">  2  7  1 -1</clus>
<clus scale="  188.931">  1  5  2 -1</clus>
</clustering>
</event>
<event>
 9    1  0.2728138E-005  0.1449405E+03  0.7546771E-02  0.1229579E+00
         -4   -1    0    0    0  501 -0.00000000000E+00  0.00000000000E+00  0.52562188090E+03  0.52562188090E+03  0.00000000000E+00 0.  1.
         21   -1    0    0  501  502  0.00000000000E+00 -0.00000000000E+00 -0.27772675858E+02  0.27772675858E+02  0.00000000000E+00 0.  1.
         23    2    1    2    0    0 -0.14451914525E+02  0.11277284573E+02  0.12963900032E+03  0.15768444871E+03  0.87875366171E+02 0.  0.
        -24    2    1    2    0    0 -0.22839025288E+02  0.76643757534E+01  0.15065366319E+03  0.17416948096E+03  0.84012606991E+02 0.  0.
         13    1    4    4    0    0  0.25743327024E+02  0.23185452520E+02  0.78554300986E+02  0.85854890939E+02  0.00000000000E+00 0. -1.
        -14    1    4    4    0    0 -0.48582352313E+02 -0.15521076766E+02  0.72099362200E+02  0.88314590017E+02  0.00000000000E+00 0.  1.
        -11    1    3    3    0    0  0.25476686838E+02 -0.25091324510E+02  0.51678738415E+02  0.62843680208E+02  0.00000000000E+00 0.  1.
         11    1    3    3    0    0 -0.39928601363E+02  0.36368609083E+02  0.77960261905E+02  0.94840768500E+02  0.00000000000E+00 0. -1.
         -3    1    1    2    0  502  0.37290939814E+02 -0.18941660327E+02  0.21755654153E+03  0.22154062709E+03  0.00000000000E+00 0.  1.
<scales pt_clust_5="13000.00000" pt_clust_6="13000.00000" pt_clust_7="13000.00000" pt_clust_8="13000.00000" pt_clust_9="13000.00000"></scales>
<clustering>
<clus scale="   84.013">  5  6 -1 -1</clus>
<clus scale="   41.826">  5  9 -1 -1</clus>
<clus scale="   87.875">  7  8 -1 -1</clus>
<clus scale="   89.767">  1  7  2 -1</clus>
<clus scale="  144.940">  2  5  1 -1</clus>
</clustering>
</event>
<event>
 9    1  0.2728138E-005  0.3422287E+03  0.7546771E-02  0.1117900E+00
         21   -1    0    0  501  502  0.00000000000E+00  0.00000000000E+00  0.54344448680E+03  0.54344448680E+03  0.00000000000E+00 0. -1.
          1   -1    0    0  502    0 -0.00000000000E+00 -0.00000000000E+00 -0.85258785481E+02  0.85258785481E+02  0.00000000000E+00 0. -1.
         23    2    1    2    0    0 -0.26886447310E+02  0.17991001146E+02  0.11459875106E+03  0.14375743830E+03  0.80540487647E+02 0.  0.
        -24    2    1    2    0    0 -0.13729142314E+03 -0.83158660521E+01  0.24817509900E+03  0.29481061172E+03  0.80027048720E+02 0.  0.
         11    1    4    4    0    0 -0.14660530168E+03 -0.15120787545E+02  0.23384197054E+03  0.27641240905E+03  0.00000000000E+00 0. -1.
        -12    1    4    4    0    0  0.93138785373E+01  0.68049214932E+01  0.14333128460E+02  0.18398202668E+02  0.00000000000E+00 0.  1.
        -13    1    3    3    0    0  0.37561611480E+01  0.20394916595E+02  0.11087292573E+03  0.11279568710E+03  0.00000000000E+00 0. -1.
         13    1    3    3    0    0 -0.30642608458E+02 -0.24039154497E+01  0.37258253298E+01  0.30961751194E+02  0.00000000000E+00 0.  1.
          2    1    1    2  501    0  0.16417787045E+03 -0.96751350935E+01  0.95411851270E+02  0.19013522227E+03  0.00000000000E+00 0. -1.
<scales pt_clust_5="13000.00000" pt_clust_6="13000.00000" pt_clust_7="13000.00000" pt_clust_8="13000.00000" pt_clust_9="13000.00000"></scales>
<clustering>
<clus scale="   80.027">  5  6 -1 -1</clus>
<clus scale="   80.540">  7  8 -1 -1</clus>
<clus scale="   86.795">  2  7  1 -1</clus>
<clus scale="  146.181">  5  9 -1 -1</clus>
<clus scale="  342.229">  1  5  2 -1</clus>
</clustering>
</event>
<event>
 9    1  0.2728138E-005  0.4927423E+03  0.7546771E-02  0.1073163E+00
          3   -1    0    0  502    0 -0.00000000000E+00  0.00000000000E+00  0.72970279564E+03  0.72970279564E+03  0.00000000000E+00 0. -1.
         21   -1    0    0  501  502  0.00000000000E+00 -0.00000000000E+00 -0.19924666029E+03  0.19924666029E+03  0.00000000000E+00 0. -1.
         23    2    1    2    0    0 -0.32156068802E+02  0.34067918925E+01  0.41149914323E+03  0.42205128156E+03  0.88034768083E+02 0.  0.
        -24    2    1    2    0    0  0.91395289670E+02 -0.21040422074E+03 -0.29852181485E+02  0.24517047047E+03  0.81205737306E+02 0.  0.
         11    1    4    4    0    0  0.22441036149E+02 -0.65988028862E+02 -0.47232734184E+02  0.84195909847E+02  0.00000000000E+00 0. -1.
        -12    1    4    4    0    0  0.68954253520E+02 -0.14441619188E+03  0.17380552698E+02  0.16097456062E+03  0.00000000000E+00 0.  1.
        -11    1    3    3    0    0 -0.46570331859E+02  0.33348219062E+02  0.31010498084E+03  0.31535059642E+03  0.00000000000E+00 0. -1.
         11    1    3    3    0    0  0.14414263057E+02 -0.29941427169E+02  0.10139416239E+03  0.10670068513E+03  0.00000000000E+00 0.  1.
          4    1    1    2  501    0 -0.59239220868E+02  0.20699742885E+03  0.14880917361E+03  0.26172770390E+03  0.00000000000E+00 0. -1.
<scales pt_clust_5="13000.00000" pt_clust_6="13000.00000" pt_clust_7="13000.00000" pt_clust_8="13000.00000" pt_clust_9="13000.00000"></scales>
<clustering>
<clus scale="   81.206">  5  6 -1 -1</clus>
<clus scale="   88.035">  7  8 -1 -1</clus>
<clus scale="   93.786">  1  7  2 -1</clus>
<clus scale="  224.124">  5  9 -1 -1</clus>
<clus scale="  492.742">  2  5  1 -1</clus>
</clustering>
</event>
<event>
 9    1  0.2728138E-005  0.6280061E+03  0.7546771E-02  0.1021658E+00
         21   -1    0    0  501  502  0.00000000000E+00  0.00000000000E+00  0.17739325517E+03  0.17739325517E+03  0.00000000000E+00 0. -1.
          3   -1    0    0  502    0 -0.00000000000E+00 -0.00000000000E+00 -0.10299892586E+04  0.10299892586E+04  0.00000000000E+00 0. -1.
         23    2    1    2    0    0  0.39245654762E+02  0.16966249288E+03 -0.35248153895E+03  0.40457114235E+03  0.95441034211E+02 0.  0.
        -24    2    1    2    0    0  0.17493102051E+03  0.41815432762E+02 -0.45857678710E+03  0.49896940608E+03  0.79551280187E+02 0.  0.
         11    1    4    4    0    0  0.13938400596E+03  0.64656836782E+02 -0.34056117958E+03  0.37361788595E+03  0.00000000000E+00 0. -1.
        -12    1    4    4    0    0  0.35547014541E+02 -0.22841404020E+02 -0.11801560752E+03  0.12535152013E+03  0.00000000000E+00 0.  1.
        -11    1    3    3    0    0 -0.55591241204E+01  0.12816642646E+03 -0.29046862779E+03  0.31753670727E+03  0.00000000000E+00 0. -1.
         11    1    3    3    0    0  0.44804778883E+02  0.41496066421E+02 -0.62012911164E+02  0.87034435082E+02  0.00000000000E+00 0.  1.
          4    1    1    2  501    0 -0.21417667527E+03 -0.21147792564E+03 -0.41537677386E+02  0.30384196535E+03  0.00000000000E+00 0. -1.
<scales pt_clust_5="13000.00000" pt_clust_6="13000.00000" pt_clust_7="13000.00000" pt_clust_8="13000.00000" pt_clust_9="13000.00000"></scales>
<clustering>
<clus scale="   79.551">  5  6 -1 -1</clus>
<clus scale="   95.441">  7  8 -1 -1</clus>
<clus scale="  198.581">  2  7  1 -1</clus>
<clus scale="  263.149">  5  9 -1 -1</clus>
<clus scale="  628.006">  1  5  2 -1</clus>
</clustering>
</event>
<event>
 9    1  0.2728138E-005  0.3045142E+03  0.7546771E-02  0.1127721E+00
         21   -1    0    0  501  502  0.00000000000E+00  0.00000000000E+00  0.55664782718E+02  0.55664782718E+02  0.00000000000E+00 0. -1.
          1   -1    0    0  502    0 -0.00000000000E+00 -0.00000000000E+00 -0.73986978941E+03  0.73986978941E+03  0.00000000000E+00 0. -1.
         23    2    1    2    0    0  0.99197245163E+01 -0.28147921430E+02 -0.11610389784E+03  0.15096666986E+03  0.91761178611E+02 0.  0.
        -24    2    1    2    0    0  0.12999342073E+03  0.13843701676E+02 -0.21303025437E+03  0.26265742766E+03  0.80728542129E+02 0.  0.
         11    1    4    4    0    0  0.90652801151E+02  0.41070684098E+02 -0.17587476837E+03  0.20208083927E+03  0.00000000000E+00 0. -1.
        -12    1    4    4    0    0  0.39340619583E+02 -0.27226982422E+02 -0.37155486003E+02  0.60576588391E+02  0.00000000000E+00 0.  1.
        -13    1    3    3    0    0  0.30885179637E+02 -0.38052571381E+02 -0.11792936996E+03  0.12770759104E+03  0.00000000000E+00 0.  1.
         13    1    3    3    0    0 -0.20965455120E+02  0.99046499514E+01  0.18254721227E+01  0.23259078820E+02  0.00000000000E+00 0. -1.
          2    1    1    2  501    0 -0.13991314525E+03  0.14304219754E+02 -0.35507085448E+03  0.38191047461E+03  0.00000000000E+00 0. -1.
<scales pt_clust_5="13000.00000" pt_clust_6="13000.00000" pt_clust_7="13000.00000" pt_clust_8="13000.00000" pt_clust_9="13000.00000"></scales>
<clustering>
<clus scale="   80.729">  5  6 -1 -1</clus>
<clus scale="   91.761">  7  8 -1 -1</clus>
<clus scale="   96.493">  2  7  1 -1</clus>
<clus scale="  133.914">  5  9 -1 -1</clus>
<clus scale="  304.514">  1  5  2 -1</clus>
</clustering>
</event>
<event>
 9    1  0.2728138E-005  0.6997920E+03  0.7546771E-02  0.1014368E+00
         21   -1    0    0  501  502  0.00000000000E+00  0.00000000000E+00  0.30976202971E+03  0.30976202971E+03  0.00000000000E+00 0. -1.
          1   -1    0    0  502    0 -0.00000000000E+00 -0.00000000000E+00 -0.62345574763E+03  0.62345574763E+03  0.00000000000E+00 0. -1.
         23    2    1    2    0    0  0.10201334581E+02 -0.15486754248E+03 -0.65384001591E+02  0.19067718559E+03  0.89413077909E+02 0.  0.
        -24    2    1    2    0    0  0.16222426809E+03 -0.20803539934E+03 -0.19453892524E+03  0.33717602545E+03  0.79036941784E+02 0.  0.
         11    1    4    4    0    0  0.62789391666E+02 -0.11921595777E+03 -0.59126043799E+02  0.14714224868E+03  0.00000000000E+00 0. -1.
        -12    1    4    4    0    0  0.99434876422E+02 -0.88819441571E+02 -0.13541288144E+03  0.19003377676E+03  0.00000000000E+00 0.  1.
        -11    1    3    3    0    0 -0.97934160209E+01 -0.14186120969E+03 -0.79547203332E+02  0.16293640284E+03  0.00000000000E+00 0. -1.
         11    1    3    3    0    0  0.19994750602E+02 -0.13006332784E+02  0.14163201741E+02  0.27740782751E+02  0.00000000000E+00 0.  1.
          2    1    1    2  501    0 -0.17242560267E+03  0.36290294182E+03 -0.53770791089E+02  0.40536456630E+03  0.00000000000E+00 0. -1.
<scales pt_clust_5="13000.00000" pt_clust_6="13000.00000" pt_clust_7="13000.00000" pt_clust_8="13000.00000" pt_clust_9="13000.00000"></scales>
<clustering>
<clus scale="   79.037">  5  6 -1 -1</clus>
<clus scale="   89.413">  7  8 -1 -1</clus>
<clus scale="  179.117">  2  7  1 -1</clus>
<clus scale="  335.985">  5  9 -1 -1</clus>
<clus scale="  699.792">  1  5  2 -1</clus>
</clustering>
</event>
<event>
 9    1  0.2728138E-005  0.2995552E+03  0.7546771E-02  0.1096137E+00
         21   -1    0    0  501  502  0.00000000000E+00  0.00000000000E+00  0.20057905636E+03  0.20057905636E+03  0.00000000000E+00 0. -1.
          1   -1    0    0  502    0 -0.00000000000E+00 -0.00000000000E+00 -0.35138515010E+03  0.35138515010E+03  0.00000000000E+00 0. -1.
         23    2    1    2    0    0  0.73973663893E+01  0.20560549109E+03 -0.26157867572E+02  0.22751006041E+03  0.93532104403E+02 0.  0.
        -24    2    1    2    0    0 -0.64326506912E+02 -0.20540543257E+02 -0.32488755672E+02  0.11001690591E+03  0.80550524095E+02 0.  0.
         13    1    4    4    0    0 -0.22643951189E+02  0.96609183449E+01  0.23449523900E+02  0.33999441758E+02  0.00000000000E+00 0. -1.
        -14    1    4    4    0    0 -0.41682555724E+02 -0.30201461602E+02 -0.55938279573E+02  0.76017464152E+02  0.00000000000E+00 0.  1.
        -13    1    3    3    0    0  0.35678112710E+02  0.33716052529E+02  0.87071120172E+01  0.49854926781E+02  0.00000000000E+00 0.  1.
         13    1    3    3    0    0 -0.28280746321E+02  0.17188943856E+03 -0.34864979589E+02  0.17765513362E+03  0.00000000000E+00 0. -1.
          2    1    1    2  501    0  0.56929140523E+02 -0.18506494783E+03 -0.92159470503E+02  0.21443724014E+03  0.00000000000E+00 0. -1.
<scales pt_clust_5="13000.00000" pt_clust_6="13000.00000" pt_clust_7="13000.00000" pt_clust_8="13000.00000" pt_clust_9="13000.00000"></scales>
<clustering>
<clus scale="   80.551">  5  6 -1 -1</clus>
<clus scale="   93.532">  7  8 -1 -1</clus>
<clus scale="  193.623">  5  9 -1 -1</clus>
<clus scale="  226.001">  2  7  1 -1</clus>
<clus scale="  299.555">  1  5  2 -1</clus>
</clustering>
</event>
<event>
 9    1  0.2728138E-005  0.4493851E+03  0.7546771E-02  0.1083280E+00
          1   -1    0    0  502    0 -0.00000000000E+00  0.00000000000E+00  0.29937144185E+03  0.29937144185E+03  0.00000000000E+00 0. -1.
         21   -1    0    0  501  502  0.00000000000E+00 -0.00000000000E+00 -0.24669574497E+03  0.24669574497E+03  0.00000000000E+00 0.  1.
         23    2    1    2    0    0 -0.53172100306E+01 -0.24461192096E+02  0.55610800165E+01  0.94218992659E+02  0.90662397527E+02 0.  0.
        -24    2    1    2    0    0 -0.20889636277E+03 -0.20349853570E+02  0.58232757803E+02  0.23271559129E+03  0.81937082144E+02 0.  0.
         13    1    4    4    0    0 -0.19599261759E+02  0.13638131970E+02  0.29981117409E+02  0.38327498043E+02  0.00000000000E+00 0. -1.
        -14    1    4    4    0    0 -0.18929710101E+03 -0.33987985540E+02  0.28251640394E+02  0.19438809325E+03  0.00000000000E+00 0.  1.
        -13    1    3    3    0    0  0.81275580292E+01  0.32986307618E+02 -0.48193862365E+01  0.34312973836E+02  0.00000000000E+00 0.  1.
         13    1    3    3    0    0 -0.13444768060E+02 -0.57447499714E+02  0.10380466253E+02  0.59906018823E+02  0.00000000000E+00 0. -1.
          2    1    1    2  501    0  0.21421357280E+03  0.44811045666E+02 -0.11118140941E+02  0.21913260288E+03  0.00000000000E+00 0. -1.
<scales pt_clust_5="13000.00000" pt_clust_6="13000.00000" pt_clust_7="13000.00000" pt_clust_8="13000.00000" pt_clust_9="13000.00000"></scales>
<clustering>
<clus scale="   81.937">  5  6 -1 -1</clus>
<clus scale="   90.662">  7  8 -1 -1</clus>
<clus scale="   94.055">  1  7  2 -1</clus>
<clus scale="  214.804">  5  9 -1 -1</clus>
<clus scale="  449.385">  2  5  1 -1</clus>
</clustering>
</event>
<event>
 9    1  0.2728138E-005  0.2072580E+03  0.7546771E-02  0.1170117E+00
         21   -1    0    0  501  502  0.00000000000E+00  0.00000000000E+00  0.62641952585E+02  0.62641952585E+02  0.00000000000E+00 0.  1.
         -4   -1    0    0    0  501 -0.00000000000E+00 -0.00000000000E+00 -0.49493180515E+03  0.49493180515E+03  0.00000000000E+00 0.  1.
         23    2    1    2    0    0 -0.62187550819E+02 -0.20621601801E+02 -0.27661543816E+03  0.29836262349E+03  0.90617948141E+02 0.  0.
        -24    2    1    2    0    0  0.10404038911E+03  0.16741615455E+02 -0.16888609464E+03  0.21515136959E+03  0.81626678356E+02 0.  0.
         13    1    4    4    0    0  0.13658137148E+01 -0.21653817884E+02 -0.43454147348E+02  0.48569704527E+02  0.00000000000E+00 0. -1.
        -14    1    4    4    0    0  0.10267457539E+03  0.38395433339E+02 -0.12543194729E+03  0.16658166506E+03  0.00000000000E+00 0.  1.
        -13    1    3    3    0    0  0.21383419782E+02 -0.18087422075E+02 -0.61821666804E+02  0.67869904709E+02  0.00000000000E+00 0.  1.
         13    1    3    3    0    0 -0.83570970601E+02 -0.25341797260E+01 -0.21479377136E+03  0.23049271878E+03  0.00000000000E+00 0. -1.
         -3    1    1    2    0  502 -0.41852838289E+02  0.38799863465E+01  0.13211680240E+02  0.44059764658E+02  0.00000000000E+00 0.  1.
<scales pt_clust_5="13000.00000" pt_clust_6="13000.00000" pt_clust_7="13000.00000" pt_clust_8="13000.00000" pt_clust_9="13000.00000"></scales>
<clustering>
<clus scale="   81.627">  5  6 -1 -1</clus>
<clus scale="   42.032">  5  9 -1 -1</clus>
<clus scale="   90.618">  7  8 -1 -1</clus>
<clus scale="  111.822">  2  7  1 -1</clus>
<clus scale="  207.258">  1  5  2 -1</clus>
</clustering>
</event>
<event>
 9    1  0.2728138E-005  0.2373755E+03  0.7546771E-02  0.1147191E+00
          1   -1    0    0  502    0 -0.00000000000E+00  0.00000000000E+00  0.10869964475E+03  0.10869964475E+03  0.00000000000E+00 0. -1.
         21   -1    0    0  501  502  0.00000000000E+00 -0.00000000000E+00 -0.41080669504E+03  0.41080669504E+03  0.00000000000E+00 0. -1.
         23    2    1    2    0    0 -0.70180699478E+02 -0.56092748177E+02 -0.24401353068E+03  0.27512554254E+03  0.89887340756E+02 0.  0.
        -24    2    1    2    0    0  0.97051846977E+02  0.11605114530E+03 -0.37469215092E+02  0.17551549475E+03  0.80714419346E+02 0.  0.
         11    1    4    4    0    0  0.10968840808E+03  0.11288923198E+03 -0.39621780807E+02  0.16231269537E+03  0.00000000000E+00 0. -1.
        -12    1    4    4    0    0 -0.12636561100E+02  0.31619133162E+01  0.21525657154E+01  0.13202799378E+02  0.00000000000E+00 0.  1.
        -13    1    3    3    0    0 -0.34674069358E+02  0.17062996409E+02 -0.40557736590E+02  0.56021129314E+02  0.00000000000E+00 0.  1.
         13    1    3    3    0    0 -0.35506630120E+02 -0.73155744586E+02 -0.20345579409E+03  0.21910441323E+03  0.00000000000E+00 0. -1.
          2    1    1    2  501    0 -0.26871147499E+02 -0.59958397118E+02 -0.20624304519E+02  0.68865302509E+02  0.00000000000E+00 0. -1.
<scales pt_clust_5="13000.00000" pt_clust_6="13000.00000" pt_clust_7="13000.00000" pt_clust_8="13000.00000" pt_clust_9="13000.00000"></scales>
<clustering>
<clus scale="   80.714">  5  6 -1 -1</clus>
<clus scale="   65.704">  5  9 -1 -1</clus>
<clus scale="   89.887">  7  8 -1 -1</clus>
<clus scale="  127.088">  1  7  2 -1</clus>
<clus scale="  237.375">  2  5  1 -1</clus>
</clustering>
</event>
<event>
 9    1  0.2728138E-005  0.6027885E+03  0.7546771E-02  0.1047298E+00
         21   -1    0    0  501  502  0.00000000000E+00  0.00000000000E+00  0.39063698784E+03  0.39063698784E+03  0.00000000000E+00 0.  1.
         -4   -1    0    0    0  501 -0.00000000000E+00 -0.00000000000E+00 -0.33091406064E+03  0.33091406064E+03  0.00000000000E+00 0.  1.
         23    2    1    2    0    0 -0.30509735768E+02  0.45901477639E+02  0.54237203853E+02  0.11873760978E+03  0.90106359751E+02 0.  0.
        -24    2    1    2    0    0  0.51660414557E+02 -0.85386312198E+02 -0.28327077814E+03  0.31060337638E+03  0.79199134633E+02 0.  0.
         13    1    4    4    0    0 -0.12927006321E+02 -0.53864461243E+02 -0.11606270565E+03  0.12860419636E+03  0.00000000000E+00 0. -1.
        -14    1    4    4    0    0  0.64587420877E+02 -0.31521850955E+02 -0.16720807249E+03  0.18199918002E+03  0.00000000000E+00 0.  1.
        -13    1    3    3    0    0  0.18324887912E+01  0.58702954214E+02  0.56774622544E+01  0.59005325406E+02  0.00000000000E+00 0. -1.
         13    1    3    3    0    0 -0.32342224559E+02 -0.12801476576E+02  0.48559741599E+02  0.59732284370E+02  0.00000000000E+00 0.  1.
         -3    1    1    2    0  502 -0.21150678788E+02  0.39484834560E+02  0.28875650149E+03  0.29221006233E+03  0.00000000000E+00 0.  1.
<scales pt_clust_5="13000.00000" pt_clust_6="13000.00000" pt_clust_7="13000.00000" pt_clust_8="13000.00000" pt_clust_9="13000.00000"></scales>
<clustering>
<clus scale="   79.199">  5  6 -1 -1</clus>
<clus scale="   44.793">  5  9 -1 -1</clus>
<clus scale="   90.106">  7  8 -1 -1</clus>
<clus scale="  105.626">  2  7  1 -1</clus>
<clus scale="  602.788">  1  5  2 -1</clus>
</clustering>
</event>
<event>
 9    1  0.2728138E-005  0.4314739E+03  0.7546771E-02  0.1084566E+00
         21   -1    0    0  501  502  0.00000000000E+00  0.00000000000E+00  0.22552616376E+03  0.22552616376E+03  0.00000000000E+00 0.  1.
          1   -1    0    0  502    0 -0.00000000000E+00 -0.00000000000E+00 -0.36684906938E+03  0.36684906938E+03  0.00000000000E+00 0. -1.
         23    2    1    2    0    0 -0.37751012311E+02  0.21533946083E+02  0.57083066167E+02  0.11747029717E+03  0.93015829356E+02 0.  0.
        -24    2    1    2    0    0  0.38252636419E+02  0.51162679140E+02  0.11497800869E+03  0.15319921615E+03  0.78544085824E+02 0.  0.
         13    1    4    4    0    0 -0.22101796289E+02  0.15873707085E+02  0.53831603512E+02  0.60318367953E+02  0.00000000000E+00 0. -1.
        -14    1    4    4    0    0  0.60354432708E+02  0.35288972055E+02  0.61146405173E+02  0.92880848197E+02  0.00000000000E+00 0.  1.
        -13    1    3    3    0    0 -0.43485705860E+02 -0.28645160830E+02  0.26517270017E+02  0.58435583870E+02  0.00000000000E+00 0.  1.
         13    1    3    3    0    0  0.57346935491E+01  0.50179106912E+02  0.30565796151E+02  0.59034713305E+02  0.00000000000E+00 0. -1.
          2    1    1    2  501    0 -0.50162410828E+00 -0.72696625222E+02 -0.31338398047E+03  0.32170571981E+03  0.00000000000E+00 0. -1.
<scales pt_clust_5="13000.00000" pt_clust_6="13000.00000" pt_clust_7="13000.00000" pt_clust_8="13000.00000" pt_clust_9="13000.00000"></scales>
<clustering>
<clus scale="   78.544">  5  6 -1 -1</clus>
<clus scale="   72.698">  5  9 -1 -1</clus>
<clus scale="   93.016">  7  8 -1 -1</clus>
<clus scale="  102.668">  2  7  1 -1</clus>
<clus scale="  431.474">  1  5  2 -1</clus>
</clustering>
</event>
<event>
 9    1  0.2728138E-005  0.3214575E+03  0.7546771E-02  0.1098965E+00
          1   -1    0    0  502    0 -0.00000000000E+00  0.00000000000E+00  0.80500224623E+03  0.80500224623E+03  0.00000000000E+00 0. -1.
         21   -1    0    0  501  502  0.00000000000E+00 -0.00000000000E+00 -0.85251626633E+02  0.85251626633E+02  0.00000000000E+00 0. -1.
         23    2    1    2    0    0  0.72975642137E+02 -0.12408711252E+03  0.41018386492E+03  0.44397314593E+03  0.90212501521E+02 0.  0.
        -24    2    1    2    0    0  0.73886049729E+02  0.10169918843E+03  0.67646655910E+02  0.16238830035E+03  0.77408118193E+02 0.  0.
         11    1    4    4    0    0  0.62334725360E+02  0.22289004161E+02  0.20424450411E+02  0.69278971318E+02  0.00000000000E+00 0. -1.
        -12    1    4    4    0    0  0.11551324368E+02  0.79410184268E+02  0.47222205499E+02  0.93109329030E+02  0.00000000000E+00 0.  1.
        -13    1    3    3    0    0  0.33121418179E+02 -0.12522209708E+03  0.32729368114E+03  0.35199255057E+03  0.00000000000E+00 0. -1.
         13    1    3    3    0    0  0.39854223958E+02  0.11349845594E+01  0.82890183776E+02  0.91980595365E+02  0.00000000000E+00 0.  1.
          2    1    1    2  501    0 -0.14686169187E+03  0.22387924092E+02  0.24192009877E+03  0.28389242659E+03  0.00000000000E+00 0. -1.
<scales pt_clust_5="13000.00000" pt_clust_6="13000.00000" pt_clust_7="13000.00000" pt_clust_8="13000.00000" pt_clust_9="13000.00000"></scales>
<clustering>
<clus scale="   77.408">  5  6 -1 -1</clus>
<clus scale="   90.213">  7  8 -1 -1</clus>
<clus scale="  148.558">  5  9 -1 -1</clus>
<clus scale="  169.886">  1  7  2 -1</clus>
<clus scale="  321.457">  2  5  1 -1</clus>
</clustering>
</event>
<event>
 9    1  0.2728138E-005  0.2497738E+03  0.7546771E-02  0.1148029E+00
         -4   -1    0    0    0  501 -0.00000000000E+00  0.00000000000E+00  0.43679167724E+03  0.43679167724E+03  0.00000000000E+00 0.  1.
         21   -1    0    0  501  502  0.00000000000E+00 -0.00000000000E+00 -0.81242509361E+02  0.81242509361E+02  0.00000000000E+00 0. -1.
         23    2    1    2    0    0 -0.56553296417E+02  0.12641350614E+02  0.36817541889E+02  0.11309366599E+03  0.89869721347E+02 0.  0.
        -24    2    1    2    0    0  0.20612022672E+01  0.27516624980E+02  0.32607127564E+03  0.33685291686E+03  0.79912437009E+02 0.  0.
         13    1    4    4    0    0 -0.20583208234E+02  0.48184385942E+02  0.17382088145E+03  0.18154641923E+03  0.00000000000E+00 0. -1.
        -14    1    4    4    0    0  0.22644410502E+02 -0.20667760962E+02  0.15225039420E+03  0.15530649762E+03  0.00000000000E+00 0.  1.
        -11    1    3    3    0    0 -0.25464523145E+02 -0.16196878226E+02  0.58232647490E+02  0.65588276673E+02  0.00000000000E+00 0.  1.
         11    1    3    3    0    0 -0.31088773271E+02  0.28838228839E+02 -0.21415105601E+02  0.47505389315E+02  0.00000000000E+00 0. -1.
         -3    1    1    2    0  502  0.54492094149E+02 -0.40157975594E+02 -0.73396496537E+01  0.68087603759E+02  0.00000000000E+00 0.  1.
<scales pt_clust_5="13000.00000" pt_clust_6="13000.00000" pt_clust_7="13000.00000" pt_clust_8="13000.00000" pt_clust_9="13000.00000"></scales>
<clustering>
<clus scale="   79.912">  5  6 -1 -1</clus>
<clus scale="   67.691">  5  9 -1 -1</clus>
<clus scale="   89.870">  7  8 -1 -1</clus>
<clus scale="  106.933">  1  7  2 -1</clus>
<clus scale="  249.774">  2  5  1 -1</clus>
</clustering>
</event>
<event>
 9    1  0.2728138E-005  0.4036429E+03  0.7546771E-02  0.1079971E+00
          1   -1    0    0  502    0 -0.00000000000E+00  0.00000000000E+00  0.63597209389E+03  0.63597209389E+03  0.00000000000E+00 0. -1.
         21   -1    0    0  501  502  0.00000000000E+00 -0.00000000000E+00 -0.16241771664E+03  0.16241771664E+03  0.00000000000E+00 0. -1.
         23    2    1    2    0    0  0.96431441741E+02  0.50317791644E+02  0.34779224744E+03  0.37560887270E+03  0.91058633656E+02 0.  0.
        -24    2    1    2    0    0 -0.56412987514E+02 -0.21360809043E+03  0.58597385936E+02  0.24173867431E+03  0.78696197877E+02 0.  0.
         13    1    4    4    0    0 -0.72153895796E+02 -0.18454234976E+03  0.35218585463E+02  0.20125211128E+03  0.00000000000E+00 0. -1.
        -14    1    4    4    0    0  0.15740908282E+02 -0.29065740678E+02  0.23378800473E+02  0.40486563033E+02  0.00000000000E+00 0.  1.
        -11    1    3    3    0    0  0.53403725954E+02  0.44789245264E+02  0.88194372690E+02  0.11241121746E+03  0.00000000000E+00 0.  1.
         11    1    3    3    0    0  0.43027715787E+02  0.55285463803E+01  0.25959787475E+03  0.26319765524E+03  0.00000000000E+00 0. -1.
          2    1    1    2  501    0 -0.40018454227E+02  0.16329029879E+03  0.67164743881E+02  0.18104226351E+03  0.00000000000E+00 0. -1.
<scales pt_clust_5="13000.00000" pt_clust_6="13000.00000" pt_clust_7="13000.00000" pt_clust_8="13000.00000" pt_clust_9="13000.00000"></scales>
<clustering>
<clus scale="   78.696">  5  6 -1 -1</clus>
<clus scale="   91.059">  7  8 -1 -1</clus>
<clus scale="  141.854">  1  7  2 -1</clus>
<clus scale="  186.094">  5  9 -1 -1</clus>
<clus scale="  403.643">  2  5  1 -1</clus>
</clustering>
</event>
<event>
 9    1  0.2728138E-005  0.5124046E+03  0.7546771E-02  0.1040787E+00
         21   -1    0    0  501  502  0.00000000000E+00  0.00000000000E+00  0.12073948376E+03  0.12073948376E+03  0.00000000000E+00 0. -1.
          1   -1    0    0  502    0 -0.00000000000E+00 -0.00000000000E+00 -0.10754714381E+04  0.10754714381E+04  0.00000000000E+00 0. -1.
         23    2    1    2    0    0  0.17345114981E+03 -0.68408693724E+02 -0.25038350281E+03  0.32519700424E+03  0.91083161691E+02 0.  0.
        -24    2    1    2    0    0 -0.31061660383E+02 -0.14573760698E+03 -0.53969896264E+03  0.56565698060E+03  0.80551676535E+02 0.  0.
         11    1    4    4    0    0 -0.35241638645E+02 -0.15460274641E+03 -0.49059998718E+03  0.51558930333E+03  0.00000000000E+00 0. -1.
        -12    1    4    4    0    0  0.41799782622E+01  0.88651394331E+01 -0.49098975463E+02  0.50067677267E+02  0.00000000000E+00 0.  1.
        -11    1    3    3    0    0  0.35054070182E+02 -0.40216835164E+02 -0.24302827924E+02  0.58624304789E+02  0.00000000000E+00 0.  1.
         11    1    3    3    0    0  0.13839707963E+03 -0.28191858560E+02 -0.22608067489E+03  0.26657269946E+03  0.00000000000E+00 0. -1.
          2    1    1    2  501    0 -0.14238948942E+03  0.21414630070E+03 -0.16464948893E+03  0.30535693705E+03  0.00000000000E+00 0. -1.
<scales pt_clust_5="13000.00000" pt_clust_6="13000.00000" pt_clust_7="13000.00000" pt_clust_8="13000.00000" pt_clust_9="13000.00000"></scales>
<clustering>
<clus scale="   80.552">  5  6 -1 -1</clus>
<clus scale="   91.083">  7  8 -1 -1</clus>
<clus scale="  207.512">  2  7  1 -1</clus>
<clus scale="  213.892">  5  9 -1 -1</clus>
<clus scale="  512.405">  1  5  2 -1</clus>
</clustering>
</event>
<event>
 9    1  0.2728138E-005  0.4921240E+03  0.7546771E-02  0.1036920E+00
         21   -1    0    0  501  502  0.00000000000E+00  0.00000000000E+00  0.17460440466E+04  0.17460440466E+04  0.00000000000E+00 0. -1.
          3   -1    0    0  502    0 -0.00000000000E+00 -0.00000000000E+00 -0.13998751892E+03  0.13998751892E+03  0.00000000000E+00 0. -1.
         23    2    1    2    0    0  0.74526108656E+02 -0.23482333773E+03  0.67593141667E+02  0.27077442587E+03  0.89743055954E+02 0.  0.
        -24    2    1    2    0    0 -0.11368992087E+03 -0.26083501986E+02  0.17004237838E+03  0.22163515456E+03  0.81252594463E+02 0.  0.
         13    1    4    4    0    0 -0.92118454738E+02 -0.44235858442E+02  0.16331463722E+03  0.19265069843E+03  0.00000000000E+00 0. -1.
        -14    1    4    4    0    0 -0.21571466132E+02  0.18152356455E+02  0.67277411642E+01  0.28984456130E+02  0.00000000000E+00 0.  1.
        -13    1    3    3    0    0  0.50848939942E+02 -0.21897835062E+03  0.35046847119E+02  0.22752014026E+03  0.00000000000E+00 0. -1.
         13    1    3    3    0    0  0.23677168713E+02 -0.15844987116E+02  0.32546294548E+02  0.43254285612E+02  0.00000000000E+00 0.  1.
          4    1    1    2  501    0  0.39163812214E+02  0.26090683972E+03  0.13684210077E+04  0.13936219851E+04  0.00000000000E+00 0. -1.
<scales pt_clust_5="13000.00000" pt_clust_6="13000.00000" pt_clust_7="13000.00000" pt_clust_8="13000.00000" pt_clust_9="13000.00000"></scales>
<clustering>
<clus scale="   81.253">  5  6 -1 -1</clus>
<clus scale="   89.743">  7  8 -1 -1</clus>
<clus scale="  262.202">  2  7  1 -1</clus>
<clus scale="  194.543">  5  9 -1 -1</clus>
<clus scale="  492.124">  1  5  2 -1</clus>
</clustering>
</event>
<event>
 9    1  0.2728138E-005  0.2656770E+03  0.7546771E-02  0.1112465E+00
         21   -1    0    0  501  502  0.00000000000E+00  0.00000000000E+00  0.51491867762E+02  0.51491867762E+02  0.00000000000E+00 0. -1.
          3   -1    0    0  502    0 -0.00000000000E+00 -0.00000000000E+00 -0.11938253365E+04  0.11938253365E+04  0.00000000000E+00 0. -1.
         23    2    1    2    0    0  0.15631587383E+03  0.11164863738E+03 -0.67500532743E+03  0.70774871670E+03  0.91520398208E+02 0.  0.
        -24    2    1    2    0    0 -0.53929082175E+02 -0.12888673812E+03 -0.28851152639E+03  0.33079424112E+03  0.81644301247E+02 0.  0.
         11    1    4    4    0    0 -0.19144972137E+02 -0.84467595378E+02 -0.92041107679E+02  0.12638382068E+03  0.00000000000E+00 0. -1.
        -12    1    4    4    0    0 -0.34784110038E+02 -0.44419142747E+02 -0.19647041871E+03  0.20441042044E+03  0.00000000000E+00 0.  1.
        -13    1    3    3    0    0  0.47560963308E+02  0.53121914076E+02 -0.12369287636E+03  0.14277223347E+03  0.00000000000E+00 0.  1.
         13    1    3    3    0    0  0.10875491053E+03  0.58526723302E+02 -0.55131245107E+03  0.56497648323E+03  0.00000000000E+00 0. -1.
          4    1    1    2  501    0 -0.10238679166E+03  0.17238100746E+02 -0.17881661490E+03  0.20677424643E+03  0.00000000000E+00 0. -1.
<scales pt_clust_5="13000.00000" pt_clust_6="13000.00000" pt_clust_7="13000.00000" pt_clust_8="13000.00000" pt_clust_9="13000.00000"></scales>
<clustering>
<clus scale="   81.644">  5  6 -1 -1</clus>
<clus scale="   91.520">  7  8 -1 -1</clus>
<clus scale="  103.828">  5  9 -1 -1</clus>
<clus scale="  212.782">  2  7  1 -1</clus>
<clus scale="  265.677">  1  5  2 -1</clus>
</clustering>
</event>
<event>
 9    1  0.2728138E-005  0.1481520E+03  0.7546771E-02  0.1220586E+00
         -2   -1    0    0    0  501 -0.00000000000E+00  0.00000000000E+00  0.18144986126E+03  0.18144986126E+03  0.00000000000E+00 0.  1.
         21   -1    0    0  501  502  0.00000000000E+00 -0.00000000000E+00 -0.12322646787E+03  0.12322646787E+03  0.00000000000E+00 0.  1.
         23    2    1    2    0    0 -0.40357668627E+02  0.13414367072E+02  0.10825723799E+03  0.14830372478E+03  0.92009122087E+02 0.  0.
        -24    2    1    2    0    0  0.70164040893E+00  0.40406446223E+01  0.12296278513E+02  0.80462642844E+02  0.79411707701E+02 0.  0.
         13    1    4    4    0    0 -0.26690963120E+02 -0.24226419303E+02  0.18659477775E+02  0.40589444629E+02  0.00000000000E+00 0. -1.
        -14    1    4    4    0    0  0.27392603529E+02  0.28267063925E+02 -0.63631992615E+01  0.39873198215E+02  0.00000000000E+00 0.  1.
        -11    1    3    3    0    0 -0.67599885293E+02  0.21146073661E+01  0.93299932887E+02  0.11523494927E+03  0.00000000000E+00 0.  1.
         11    1    3    3    0    0  0.27242216666E+02  0.11299759706E+02  0.14957305102E+02  0.33068775517E+02  0.00000000000E+00 0. -1.
         -1    1    1    2    0  502  0.39656028218E+02 -0.17455011694E+02 -0.62330123111E+02  0.75909961496E+02  0.00000000000E+00 0.  1.
<scales pt_clust_5="13000.00000" pt_clust_6="13000.00000" pt_clust_7="13000.00000" pt_clust_8="13000.00000" pt_clust_9="13000.00000"></scales>
<clustering>
<clus scale="   79.412">  5  6 -1 -1</clus>
<clus scale="   43.328">  5  9 -1 -1</clus>
<clus scale="   92.009">  7  8 -1 -1</clus>
<clus scale="  101.363">  1  7  2 -1</clus>
<clus scale="  148.152">  2  5  1 -1</clus>
</clustering>
</event>
<event>
 9    1  0.2728138E-005  0.1515808E+03  0.7546771E-02  0.1218988E+00
          1   -1    0    0  502    0 -0.00000000000E+00  0.00000000000E+00  0.52016365208E+03  0.52016365208E+03  0.00000000000E+00 0. -1.
         21   -1    0    0  501  502  0.00000000000E+00 -0.00000000000E+00 -0.36931392469E+02  0.36931392469E+02  0.00000000000E+00 0. -1.
         23    2    1    2    0    0 -0.10389837456E+02  0.44547744946E+02  0.31867023097E+03  0.33335990542E+03  0.86519709507E+02 0.  0.
        -24    2    1    2    0    0  0.51583364008E+02 -0.33501219372E+01  0.95149417753E+02  0.13311361121E+03  0.77419345333E+02 0.  0.
         11    1    4    4    0    0  0.53356218185E+02 -0.66003041470E+01  0.19221785628E+02  0.57095771092E+02  0.00000000000E+00 0. -1.
        -12    1    4    4    0    0 -0.17728541777E+01  0.32501822099E+01  0.75927632125E+02  0.76017840120E+02  0.00000000000E+00 0.  1.
        -11    1    3    3    0    0  0.48283600683E+01 -0.25508311207E+02  0.75250772911E+02  0.79603177231E+02  0.00000000000E+00 0.  1.
         11    1    3    3    0    0 -0.15218197524E+02  0.70056056153E+02  0.24341945806E+03  0.25375672819E+03  0.00000000000E+00 0. -1.
          2    1    1    2  501    0 -0.41193526552E+02 -0.41197623009E+02  0.69412610884E+02  0.90621527913E+02  0.00000000000E+00 0. -1.
<scales pt_clust_5="13000.00000" pt_clust_6="13000.00000" pt_clust_7="13000.00000" pt_clust_8="13000.00000" pt_clust_9="13000.00000"></scales>
<clustering>
<clus scale="   77.419">  5  6 -1 -1</clus>
<clus scale="   58.259">  5  9 -1 -1</clus>
<clus scale="   86.520">  7  8 -1 -1</clus>
<clus scale="   97.868">  1  7  2 -1</clus>
<clus scale="  151.581">  2  5  1 -1</clus>
</clustering>
</event>
<event>
 9    1  0.2728138E-005  0.3338938E+03  0.7546771E-02  0.1115240E+00
         -2   -1    0    0    0  501 -0.00000000000E+00  0.00000000000E+00  0.36675484221E+03  0.36675484221E+03  0.00000000000E+00 0.  1.
         21   -1    0    0  501  502  0.00000000000E+00 -0.00000000000E+00 -0.13432593343E+03  0.13432593343E+03  0.00000000000E+00 0.  1.
         23    2    1    2    0    0 -0.19376426667E+01  0.42897172569E+02  0.10149441242E+03  0.14243205792E+03  0.90232219843E+02 0.  0.
        -24    2    1    2    0    0  0.11336132547E+03  0.86364947523E+02  0.66437840917E+02  0.17621036828E+03  0.79538751017E+02 0.  0.
         11    1    4    4    0    0 -0.66463209765E+01  0.27731002736E+02  0.40853845418E+01  0.28807507044E+02  0.00000000000E+00 0. -1.
        -12    1    4    4    0    0  0.12000764644E+03  0.58633944787E+02  0.62352456375E+02  0.14740286124E+03  0.00000000000E+00 0.  1.
        -11    1    3    3    0    0 -0.31411844078E+02  0.44491169124E+02  0.98768586901E+02  0.11278919202E+03  0.00000000000E+00 0.  1.
         11    1    3    3    0    0  0.29474201412E+02 -0.15939965551E+01  0.27258255153E+01  0.29642865897E+02  0.00000000000E+00 0. -1.
         -1    1    1    2    0  502 -0.11142368280E+03 -0.12926212009E+03  0.64496655444E+02  0.18243834943E+03  0.00000000000E+00 0.  1.
<scales pt_clust_5="13000.00000" pt_clust_6="13000.00000" pt_clust_7="13000.00000" pt_clust_8="13000.00000" pt_clust_9="13000.00000"></scales>
<clustering>
<clus scale="   79.539">  5  6 -1 -1</clus>
<clus scale="   90.232">  7  8 -1 -1</clus>
<clus scale="   99.929">  1  7  2 -1</clus>
<clus scale="  155.619">  5  9 -1 -1</clus>
<clus scale="  333.894">  2  5  1 -1</clus>
</clustering>
</event>
<event>
 9    1  0.2728138E-005  0.5538627E+03  0.7546771E-02  0.1036146E+00
         21   -1    0    0  501  502  0.00000000000E+00  0.00000000000E+00  0.17437665591E+03  0.17437665591E+03  0.00000000000E+00 0. -1.
          3   -1    0    0  502    0 -0.00000000000E+00 -0.00000000000E+00 -0.80611549844E+03  0.80611549844E+03  0.00000000000E+00 0. -1.
         23    2    1    2    0    0  0.14971194427E+03 -0.65227002393E+02 -0.22514712438E+03  0.29341081512E+03  0.93436880935E+02 0.  0.
        -24    2    1    2    0    0  0.13758713335E+03 -0.90219987528E+02 -0.28426684718E+03  0.33827207798E+03  0.80935115475E+02 0.  0.
         11    1    4    4    0    0  0.69454239050E+02 -0.58955954384E+02 -0.82039132476E+02  0.12259737002E+03  0.00000000000E+00 0. -1.
        -12    1    4    4    0    0  0.68132894304E+02 -0.31264033144E+02 -0.20222771471E+03  0.21567470795E+03  0.00000000000E+00 0.  1.
        -11    1    3    3    0    0  0.24869014737E+01 -0.20934202394E+02 -0.37063650866E+00  0.21084659832E+02  0.00000000000E+00 0.  1.
         11    1    3    3    0    0  0.14722504280E+03 -0.44292799998E+02 -0.22477648787E+03  0.27232615529E+03  0.00000000000E+00 0. -1.
          4    1    1    2  501    0 -0.28729907762E+03  0.15544698992E+03 -0.12232487097E+03  0.34880926126E+03  0.00000000000E+00 0. -1.
<scales pt_clust_5="13000.00000" pt_clust_6="13000.00000" pt_clust_7="13000.00000" pt_clust_8="13000.00000" pt_clust_9="13000.00000"></scales>
<clustering>
<clus scale="   80.935">  5  6 -1 -1</clus>
<clus scale="   93.437">  7  8 -1 -1</clus>
<clus scale="  188.145">  2  7  1 -1</clus>
<clus scale="  256.632">  5  9 -1 -1</clus>
<clus scale="  553.863">  1  5  2 -1</clus>
</clustering>
</event>
<event>
 9    1  0.2728138E-005  0.1683726E+03  0.7546771E-02  0.1199523E+00
         21   -1    0    0  501  502  0.00000000000E+00  0.00000000000E+00  0.28373258312E+02  0.28373258312E+02  0.00000000000E+00 0. -1.
          1   -1    0    0  502    0 -0.00000000000E+00 -0.00000000000E+00 -0.80515041108E+03  0.80515041108E+03  0.00000000000E+00 0. -1.
         23    2    1    2    0    0  0.50682845300E+02  0.24959354419E+02 -0.15307712045E+03  0.18749652651E+03  0.92361368904E+02 0.  0.
        -24    2    1    2    0    0  0.24050588786E+02 -0.58203669591E+01 -0.22736098391E+03  0.24224994157E+03  0.79873084910E+02 0.  0.
         13    1    4    4    0    0  0.19013508034E+02 -0.22786397286E+02 -0.24127919835E+02  0.38247743784E+02  0.00000000000E+00 0. -1.
        -14    1    4    4    0    0  0.50370807522E+01  0.16966030326E+02 -0.20323306408E+03  0.20400219778E+03  0.00000000000E+00 0.  1.
        -13    1    3    3    0    0 -0.70210201176E+01  0.38290517196E+02 -0.24663944384E+02  0.46084363760E+02  0.00000000000E+00 0.  1.
         13    1    3    3    0    0  0.57703865417E+02 -0.13331162777E+02 -0.12841317607E+03  0.14141216275E+03  0.00000000000E+00 0. -1.
          2    1    1    2  501    0 -0.74733434086E+02 -0.19138987460E+02 -0.39633904841E+03  0.40377720132E+03  0.00000000000E+00 0. -1.
<scales pt_clust_5="13000.00000" pt_clust_6="13000.00000" pt_clust_7="13000.00000" pt_clust_8="13000.00000" pt_clust_9="13000.00000"></scales>
<clustering>
<clus scale="   79.873">  5  6 -1 -1</clus>
<clus scale="   77.145">  5  9 -1 -1</clus>
<clus scale="   92.361">  7  8 -1 -1</clus>
<clus scale="  108.270">  2  7  1 -1</clus>
<clus scale="  168.373">  1  5  2 -1</clus>
</clustering>
</event>
<event>
 9    1  0.2728138E-005  0.4485290E+03  0.7546771E-02  0.1077219E+00
         21   -1    0    0  501  502  0.00000000000E+00  0.00000000000E+00  0.73468969800E+02  0.73468969800E+02  0.00000000000E+00 0. -1.
          1   -1    0    0  502    0 -0.00000000000E+00 -0.00000000000E+00 -0.11174676428E+04  0.11174676428E+04  0.00000000000E+00 0. -1.
         23    2    1    2    0    0  0.52758076343E+02  0.33715993797E+02 -0.11931229738E+03  0.16320942465E+03  0.92096194994E+02 0.  0.
        -24    2    1    2    0    0 -0.24204469958E+03  0.24816767231E+01 -0.55784561703E+03  0.61334591514E+03  0.80060501295E+02 0.  0.
         11    1    4    4    0    0 -0.13652924963E+03  0.48749972605E+01 -0.40642821815E+03  0.42877488046E+03  0.00000000000E+00 0. -1.
        -12    1    4    4    0    0 -0.10551544994E+03 -0.23933205375E+01 -0.15141739888E+03  0.18457103468E+03  0.00000000000E+00 0.  1.
        -13    1    3    3    0    0  0.65860961944E+02 -0.90490198296E+01 -0.75537356528E+02  0.10062526174E+03  0.00000000000E+00 0.  1.
         13    1    3    3    0    0 -0.13102885601E+02  0.42765013626E+02 -0.43774940851E+02  0.62584162917E+02  0.00000000000E+00 0. -1.
          2    1    1    2  501    0  0.18928662323E+03 -0.36197670520E+02 -0.36684075855E+03  0.41438127277E+03  0.00000000000E+00 0. -1.
<scales pt_clust_5="13000.00000" pt_clust_6="13000.00000" pt_clust_7="13000.00000" pt_clust_8="13000.00000" pt_clust_9="13000.00000"></scales>
<clustering>
<clus scale="   80.061">  5  6 -1 -1</clus>
<clus scale="   92.096">  7  8 -1 -1</clus>
<clus scale="  111.364">  2  7  1 -1</clus>
<clus scale="  211.619">  5  9 -1 -1</clus>
<clus scale="  448.529">  1  5  2 -1</clus>
</clustering>
</event>
<event>
 9    1  0.2728138E-005  0.3864442E+03  0.7546771E-02  0.1074876E+00
         21   -1    0    0  501  502  0.00000000000E+00  0.00000000000E+00  0.42741687840E+03  0.42741687840E+03  0.00000000000E+00 0. -1.
          1   -1    0    0  502    0 -0.00000000000E+00 -0.00000000000E+00 -0.33924945178E+03  0.33924945178E+03  0.00000000000E+00 0. -1.
         23    2    1    2    0    0 -0.15892429955E+03 -0.27044973693E+02 -0.20877250894E+03  0.27931384650E+03  0.91879816974E+02 0.  0.
        -24    2    1    2    0    0 -0.23807514278E+02 -0.27440015418E+02  0.28233770364E+03  0.29611243819E+03  0.81536770679E+02 0.  0.
         11    1    4    4    0    0  0.18940865178E+02 -0.40215292237E+02  0.15068177326E+03  0.15710195065E+03  0.00000000000E+00 0. -1.
        -12    1    4    4    0    0 -0.42748379456E+02  0.12775276819E+02  0.13165593037E+03  0.13901048754E+03  0.00000000000E+00 0.  1.
        -11    1    3    3    0    0 -0.68504338870E+02 -0.40089237117E+02 -0.43596817720E+02  0.90557572251E+02  0.00000000000E+00 0.  1.
         11    1    3    3    0    0 -0.90419960677E+02  0.13044263424E+02 -0.16517569122E+03  0.18875627425E+03  0.00000000000E+00 0. -1.
          2    1    1    2  501    0  0.18273181382E+03  0.54484989111E+02  0.14602231935E+02  0.19124004549E+03  0.00000000000E+00 0. -1.
<scales pt_clust_5="13000.00000" pt_clust_6="13000.00000" pt_clust_7="13000.00000" pt_clust_8="13000.00000" pt_clust_9="13000.00000"></scales>
<clustering>
<clus scale="   81.537">  5  6 -1 -1</clus>
<clus scale="   91.880">  7  8 -1 -1</clus>
<clus scale="  185.554">  2  7  1 -1</clus>
<clus scale="   45.941">  5  9 -1 -1</clus>
<clus scale="  386.444">  1  5  2 -1</clus>
</clustering>
</event>
<event>
 9    1  0.2728138E-005  0.1992605E+03  0.7546771E-02  0.1165268E+00
          1   -1    0    0  502    0 -0.00000000000E+00  0.00000000000E+00  0.73148240556E+03  0.73148240556E+03  0.00000000000E+00 0. -1.
         21   -1    0    0  501  502  0.00000000000E+00 -0.00000000000E+00 -0.88939529904E+02  0.88939529904E+02  0.00000000000E+00 0. -1.
         23    2    1    2    0    0 -0.90456114955E+02 -0.55664323648E+02  0.60052762397E+03  0.61678006942E+03  0.92213888442E+02 0.  0.
        -24    2    1    2    0    0  0.67861668858E+02 -0.23069052708E+02  0.28486421800E+02  0.12062088806E+03  0.92739070063E+02 0.  0.
         13    1    4    4    0    0  0.67649788457E+02 -0.40542751570E+02 -0.88834387654E+01  0.79367021284E+02  0.00000000000E+00 0. -1.
        -14    1    4    4    0    0  0.21188040070E+00  0.17473698862E+02  0.37369860565E+02  0.41253866775E+02  0.00000000000E+00 0.  1.
        -11    1    3    3    0    0  0.19011913058E+02 -0.76785680073E+01  0.69140411376E+02  0.72116639758E+02  0.00000000000E+00 0.  1.
         11    1    3    3    0    0 -0.10946802801E+03 -0.47985755641E+02  0.53138721260E+03  0.54466342966E+03  0.00000000000E+00 0. -1.
          2    1    1    2  501    0  0.22594446098E+02  0.78733376356E+02  0.13528829880E+02  0.83020977980E+02  0.00000000000E+00 0. -1.
<scales pt_clust_5="13000.00000" pt_clust_6="13000.00000" pt_clust_7="13000.00000" pt_clust_8="13000.00000" pt_clust_9="13000.00000"></scales>
<clustering>
<clus scale="   92.214">  7  8 -1 -1</clus>
<clus scale="   92.739">  5  6 -1 -1</clus>
<clus scale="   81.911">  5  9 -1 -1</clus>
<clus scale="  140.656">  1  7  2 -1</clus>
<clus scale="  199.260">  2  5  1 -1</clus>
</clustering>
</event>
<event>
 9    1  0.2728138E-005  0.1833202E+03  0.7546771E-02  0.1179513E+00
          3   -1    0    0  502    0 -0.00000000000E+00  0.00000000000E+00  0.18085308317E+03  0.18085308317E+03  0.00000000000E+00 0. -1.
         21   -1    0    0  501  502  0.00000000000E+00 -0.00000000000E+00 -0.13832533510E+03  0.13832533510E+03  0.00000000000E+00 0. -1.
         23    2    1    2    0    0  0.48702105338E+01 -0.94464237380E+02  0.37228663621E+02  0.13578164701E+03  0.90019282239E+02 0.  0.
        -24    2    1    2    0    0  0.33757750537E+02  0.64366360931E+01 -0.37077438880E+01  0.86845743714E+02  0.79670696187E+02 0.  0.
         11    1    4    4    0    0  0.22488786336E+02  0.25595987298E+02 -0.34749448934E+02  0.48666459475E+02  0.00000000000E+00 0. -1.
        -12    1    4    4    0    0  0.11268964201E+02 -0.19159351205E+02  0.31041705046E+02  0.38179284238E+02  0.00000000000E+00 0.  1.
        -11    1    3    3    0    0  0.20112298191E+02 -0.17531869180E+02 -0.24308116750E+02  0.36093704651E+02  0.00000000000E+00 0.  1.
         11    1    3    3    0    0 -0.15242087657E+02 -0.76932368200E+02  0.61536780371E+02  0.99687942357E+02  0.00000000000E+00 0. -1.
          4    1    1    2  501    0 -0.38627961071E+02  0.88027601286E+02  0.90068283325E+01  0.96551027552E+02  0.00000000000E+00 0. -1.
<scales pt_clust_5="13000.00000" pt_clust_6="13000.00000" pt_clust_7="13000.00000" pt_clust_8="13000.00000" pt_clust_9="13000.00000"></scales>
<clustering>
<clus scale="   79.671">  5  6 -1 -1</clus>
<clus scale="   90.019">  7  8 -1 -1</clus>
<clus scale="   96.130">  5  9 -1 -1</clus>
<clus scale="  130.578">  1  7  2 -1</clus>
<clus scale="  183.320">  2  5  1 -1</clus>
</clustering>
</event>
<event>
 9    1  0.2728138E-005  0.1590273E+03  0.7546771E-02  0.1211872E+00
         -4   -1    0    0    0  501 -0.00000000000E+00  0.00000000000E+00  0.38586287359E+03  0.38586287359E+03  0.00000000000E+00 0.  1.
         21   -1    0    0  501  502  0.00000000000E+00 -0.00000000000E+00 -0.48104560096E+02  0.48104560096E+02  0.00000000000E+00 0. -1.
         23    2    1    2    0    0  0.19002623001E+02  0.33128383720E+02  0.64363364467E+02  0.11768517655E+03  0.90821630709E+02 0.  0.
        -24    2    1    2    0    0  0.21575270454E+01 -0.22868514642E+02  0.27939765733E+03  0.29201191783E+03  0.81733012573E+02 0.  0.
         13    1    4    4    0    0  0.33870085606E+02  0.33901261192E+01  0.61810305026E+02  0.70563371954E+02  0.00000000000E+00 0. -1.
        -14    1    4    4    0    0 -0.31712558560E+02 -0.26258640761E+02  0.21758735231E+03  0.22144854587E+03  0.00000000000E+00 0.  1.
        -11    1    3    3    0    0 -0.17961475064E+02  0.20451983790E+02  0.72787225369E+02  0.77710220720E+02  0.00000000000E+00 0.  1.
         11    1    3    3    0    0  0.36964098065E+02  0.12676399930E+02 -0.84238609019E+01  0.39974955828E+02  0.00000000000E+00 0. -1.
         -3    1    1    2    0  502 -0.21160150046E+02 -0.10259869079E+02 -0.60027083027E+01  0.24270339315E+02  0.00000000000E+00 0.  1.
<scales pt_clust_5="13000.00000" pt_clust_6="13000.00000" pt_clust_7="13000.00000" pt_clust_8="13000.00000" pt_clust_9="13000.00000"></scales>
<clustering>
<clus scale="   81.733">  5  6 -1 -1</clus>
<clus scale="   23.516">  5  9 -1 -1</clus>
<clus scale="   90.822">  7  8 -1 -1</clus>
<clus scale="   98.525">  1  7  2 -1</clus>
<clus scale="  159.027">  2  5  1 -1</clus>
</clustering>
</event>
<event>
 9    1  0.2728138E-005  0.1820882E+03  0.7546771E-02  0.1190486E+00
          1   -1    0    0  502    0 -0.00000000000E+00  0.00000000000E+00  0.14692652126E+03  0.14692652126E+03  0.00000000000E+00 0. -1.
         21   -1    0    0  501  502  0.00000000000E+00 -0.00000000000E+00 -0.30072733642E+03  0.30072733642E+03  0.00000000000E+00 0. -1.
         23    2    1    2    0    0  0.37406351689E+01  0.54469528839E+02  0.93801403318E+02  0.14030554617E+03  0.88915809048E+02 0.  0.
        -24    2    1    2    0    0 -0.37229899432E+02  0.18206510974E+02 -0.18342635829E+03  0.20477210269E+03  0.81048397087E+02 0.  0.
         13    1    4    4    0    0 -0.49630279064E+02  0.21761732963E+02 -0.60705178707E+02  0.81374789360E+02  0.00000000000E+00 0. -1.
        -14    1    4    4    0    0  0.12400379632E+02 -0.35552219886E+01 -0.12272117959E+03  0.12339731333E+03  0.00000000000E+00 0.  1.
        -11    1    3    3    0    0  0.24419167642E+02  0.39423455515E+02  0.10313600959E+03  0.11308201036E+03  0.00000000000E+00 0. -1.
         11    1    3    3    0    0 -0.20678532473E+02  0.15046073324E+02 -0.93346062731E+01  0.27223535810E+02  0.00000000000E+00 0.  1.
          2    1    1    2  501    0  0.33489264263E+02 -0.72676039813E+02 -0.64175860182E+02  0.10257620881E+03  0.00000000000E+00 0. -1.
<scales pt_clust_5="13000.00000" pt_clust_6="13000.00000" pt_clust_7="13000.00000" pt_clust_8="13000.00000" pt_clust_9="13000.00000"></scales>
<clustering>
<clus scale="   81.048">  5  6 -1 -1</clus>
<clus scale="   80.021">  5  9 -1 -1</clus>
<clus scale="   88.916">  7  8 -1 -1</clus>
<clus scale="  104.341">  1  7  2 -1</clus>
<clus scale="  182.088">  2  5  1 -1</clus>
</clustering>
</event>
<event>
 9    1  0.2728138E-005  0.1221235E+03  0.7546771E-02  0.1253915E+00
          1   -1    0    0  502    0 -0.00000000000E+00  0.00000000000E+00  0.47808283034E+03  0.47808283034E+03  0.00000000000E+00 0. -1.
         21   -1    0    0  501  502  0.00000000000E+00 -0.00000000000E+00 -0.29737759802E+02  0.29737759802E+02  0.00000000000E+00 0. -1.
         23    2    1    2    0    0  0.20937828381E+01  0.12924142171E+02  0.31006984910E+03  0.32333700719E+03  0.90730874126E+02 0.  0.
        -24    2    1    2    0    0  0.26502676299E+02  0.11132058215E+02  0.94770687145E+02  0.12713288325E+03  0.79718080074E+02 0.  0.
         11    1    4    4    0    0  0.39524159890E+02  0.16556274416E+01  0.99420330730E+01  0.40789022284E+02  0.00000000000E+00 0. -1.
        -12    1    4    4    0    0 -0.13021483591E+02  0.94764307735E+01  0.84828654071E+02  0.86343860967E+02  0.00000000000E+00 0.  1.
        -13    1    3    3    0    0 -0.38901052024E+02  0.16161234550E+02  0.88882092243E+02  0.98359054856E+02  0.00000000000E+00 0. -1.
         13    1    3    3    0    0  0.40994834862E+02 -0.32370923786E+01  0.22118775686E+03  0.22497795233E+03  0.00000000000E+00 0.  1.
          2    1    1    2  501    0 -0.28596459137E+02 -0.24056200386E+02  0.43504534290E+02  0.57350699699E+02  0.00000000000E+00 0. -1.
<scales pt_clust_5="13000.00000" pt_clust_6="13000.00000" pt_clust_7="13000.00000" pt_clust_8="13000.00000" pt_clust_9="13000.00000"></scales>
<clustering>
<clus scale="   79.718">  5  6 -1 -1</clus>
<clus scale="   37.369">  5  9 -1 -1</clus>
<clus scale="   90.731">  7  8 -1 -1</clus>
<clus scale="   91.671">  1  7  2 -1</clus>
<clus scale="  122.124">  2  5  1 -1</clus>
</clustering>
</event>
<event>
 9    1  0.2728138E-005  0.4990360E+03  0.7546771E-02  0.1069853E+00
         21   -1    0    0  501  502  0.00000000000E+00  0.00000000000E+00  0.14612743086E+03  0.14612743086E+03  0.00000000000E+00 0. -1.
          3   -1    0    0  502    0 -0.00000000000E+00 -0.00000000000E+00 -0.66129372768E+03  0.66129372768E+03  0.00000000000E+00 0. -1.
         23    2    1    2    0    0 -0.20241335784E+01  0.40659161762E+02 -0.18286857720E+03  0.20787242927E+03  0.90070893043E+02 0.  0.
        -24    2    1    2    0    0 -0.20471062651E+03 -0.14206994164E+03 -0.12694173572E+03  0.29101269017E+03  0.80522497809E+02 0.  0.
         13    1    4    4    0    0 -0.18637516899E+03 -0.14154950182E+03 -0.91843628649E+02  0.25141045564E+03  0.00000000000E+00 0. -1.
        -14    1    4    4    0    0 -0.18335457511E+02 -0.52043981657E+00 -0.35098107073E+02  0.39602234531E+02  0.00000000000E+00 0.  1.
        -13    1    3    3    0    0 -0.33266408481E+02  0.52039218519E+02 -0.89355476639E+02  0.10862382521E+03  0.00000000000E+00 0. -1.
         13    1    3    3    0    0  0.31242274903E+02 -0.11380056757E+02 -0.93513100556E+02  0.99248604063E+02  0.00000000000E+00 0.  1.
          4    1    1    2  501    0  0.20673476008E+03  0.10141077987E+03 -0.20535598390E+03  0.30853603910E+03  0.00000000000E+00 0. -1.
<scales pt_clust_5="13000.00000" pt_clust_6="13000.00000" pt_clust_7="13000.00000" pt_clust_8="13000.00000" pt_clust_9="13000.00000"></scales>
<clustering>
<clus scale="   80.522">  5  6 -1 -1</clus>
<clus scale="   90.071">  7  8 -1 -1</clus>
<clus scale="   98.843">  2  7  1 -1</clus>
<clus scale="  240.029">  5  9 -1 -1</clus>
<clus scale="  499.036">  1  5  2 -1</clus>
</clustering>
</event>
<event>
 9    1  0.2728138E-005  0.1918851E+03  0.7546771E-02  0.1180144E+00
         21   -1    0    0  501  502  0.00000000000E+00  0.00000000000E+00  0.23562369724E+03  0.23562369724E+03  0.00000000000E+00 0.  1.
         -2   -1    0    0    0  501 -0.00000000000E+00 -0.00000000000E+00 -0.11313069028E+03  0.11313069028E+03  0.00000000000E+00 0.  1.
         23    2    1    2    0    0 -0.65599321579E+02 -0.12417398856E+01 -0.14210058283E+02  0.11315385007E+03  0.91088172232E+02 0.  0.
        -24    2    1    2    0    0 -0.18495132749E+02 -0.59074079771E+02  0.39694369529E+02  0.93753569227E+02  0.58157303362E+02 0.  0.
         11    1    4    4    0    0  0.58623779483E+01 -0.40447345590E+02 -0.32349549550E+01  0.40997806942E+02  0.00000000000E+00 0. -1.
        -12    1    4    4    0    0 -0.24357510697E+02 -0.18626734180E+02  0.42929324484E+02  0.52755762285E+02  0.00000000000E+00 0.  1.
        -11    1    3    3    0    0 -0.52673407915E+02  0.15460675329E+02 -0.48255408585E+02  0.73089704068E+02  0.00000000000E+00 0.  1.
         11    1    3    3    0    0 -0.12925913664E+02 -0.16702415214E+02  0.34045350302E+02  0.40064146006E+02  0.00000000000E+00 0. -1.
         -1    1    1    2    0  502  0.84094454328E+02  0.60315819656E+02  0.97008695717E+02  0.14184696822E+03  0.00000000000E+00 0.  1.
<scales pt_clust_5="13000.00000" pt_clust_6="13000.00000" pt_clust_7="13000.00000" pt_clust_8="13000.00000" pt_clust_9="13000.00000"></scales>
<clustering>
<clus scale="   58.157">  5  6 -1 -1</clus>
<clus scale="   91.088">  7  8 -1 -1</clus>
<clus scale="  103.489">  5  9 -1 -1</clus>
<clus scale="  112.258">  2  7  1 -1</clus>
<clus scale="  191.885">  1  5  2 -1</clus>
</clustering>
</event>
<event>
 9    1  0.2728138E-005  0.3954617E+03  0.7546771E-02  0.1094412E+00
         21   -1    0    0  501  502  0.00000000000E+00  0.00000000000E+00  0.70234634086E+03  0.70234634086E+03  0.00000000000E+00 0.  1.
         -4   -1    0    0    0  501 -0.00000000000E+00 -0.00000000000E+00 -0.10090989869E+03  0.10090989869E+03  0.00000000000E+00 0.  1.
         23    2    1    2    0    0  0.34947428680E+02 -0.32906641852E+02  0.26435940739E+03  0.28363050513E+03  0.90863619322E+02 0.  0.
        -24    2    1    2    0    0 -0.12690151599E+03  0.54259831957E+02 -0.11751428694E+02  0.15824946261E+03  0.76528897917E+02 0.  0.
         13    1    4    4    0    0 -0.50814133382E+02  0.33361817475E+01  0.28364793791E+02  0.58290374736E+02  0.00000000000E+00 0. -1.
        -14    1    4    4    0    0 -0.76087382605E+02  0.50923650210E+02 -0.40116222485E+02  0.99959087875E+02  0.00000000000E+00 0.  1.
        -13    1    3    3    0    0 -0.20815489026E+02 -0.35927160752E+02  0.69811516251E+02  0.81226185830E+02  0.00000000000E+00 0.  1.
         13    1    3    3    0    0  0.55762917706E+02  0.30205188997E+01  0.19454789114E+03  0.20240431930E+03  0.00000000000E+00 0. -1.
         -3    1    1    2    0  502  0.91954087308E+02 -0.21353190105E+02  0.34882846346E+03  0.36137627180E+03  0.00000000000E+00 0.  1.
<scales pt_clust_5="13000.00000" pt_clust_6="13000.00000" pt_clust_7="13000.00000" pt_clust_8="13000.00000" pt_clust_9="13000.00000"></scales>
<clustering>
<clus scale="   76.529">  5  6 -1 -1</clus>
<clus scale="   90.864">  7  8 -1 -1</clus>
<clus scale="   94.401">  5  9 -1 -1</clus>
<clus scale="  102.764">  2  7  1 -1</clus>
<clus scale="  395.462">  1  5  2 -1</clus>
</clustering>
</event>
<event>
 9    1  0.2728138E-005  0.1864309E+03  0.7546771E-02  0.1188085E+00
         21   -1    0    0  501  502  0.00000000000E+00  0.00000000000E+00  0.22228969379E+03  0.22228969379E+03  0.00000000000E+00 0. -1.
          3   -1    0    0  502    0 -0.00000000000E+00 -0.00000000000E+00 -0.12282382173E+03  0.12282382173E+03  0.00000000000E+00 0. -1.
         23    2    1    2    0    0 -0.47054191169E+02  0.40719633698E+01 -0.42300340719E+02  0.11090387299E+03  0.90992705349E+02 0.  0.
        -24    2    1    2    0    0 -0.27472370238E+02 -0.50461960964E+02  0.85818469519E+02  0.13011165885E+03  0.79139708278E+02 0.  0.
         13    1    4    4    0    0 -0.54966026598E+02 -0.26231627502E+02  0.57986313750E+02  0.84093846051E+02  0.00000000000E+00 0. -1.
        -14    1    4    4    0    0  0.27493656360E+02 -0.24230333462E+02  0.27832155769E+02  0.46017812795E+02  0.00000000000E+00 0.  1.
        -11    1    3    3    0    0 -0.28998029626E+02  0.28798703069E+02  0.16923253855E+02  0.44234008881E+02  0.00000000000E+00 0.  1.
         11    1    3    3    0    0 -0.18056161543E+02 -0.24726739699E+02 -0.59223594574E+02  0.66669864107E+02  0.00000000000E+00 0. -1.
          4    1    1    2  501    0  0.74526561407E+02  0.46389997595E+02  0.55947743256E+02  0.10409798369E+03  0.00000000000E+00 0. -1.
<scales pt_clust_5="13000.00000" pt_clust_6="13000.00000" pt_clust_7="13000.00000" pt_clust_8="13000.00000" pt_clust_9="13000.00000"></scales>
<clustering>
<clus scale="   79.140">  5  6 -1 -1</clus>
<clus scale="   87.785">  5  9 -1 -1</clus>
<clus scale="   90.993">  7  8 -1 -1</clus>
<clus scale="  102.520">  2  7  1 -1</clus>
<clus scale="  186.431">  1  5  2 -1</clus>
</clustering>
</event>
<event>
 9    1  0.2728138E-005  0.1327298E+03  0.7546771E-02  0.1239532E+00
          1   -1    0    0  502    0 -0.00000000000E+00  0.00000000000E+00  0.10242441829E+03  0.10242441829E+03  0.00000000000E+00 0. -1.
         21   -1    0    0  501  502  0.00000000000E+00 -0.00000000000E+00 -0.13289098219E+03  0.13289098219E+03  0.00000000000E+00 0. -1.
         23    2    1    2    0    0 -0.25503968459E+02 -0.20307013078E+02  0.11726907580E+02  0.96040514237E+02  0.89573616798E+02 0.  0.
        -24    2    1    2    0    0 -0.19101250726E+02  0.19851011584E+02 -0.41213393105E+02  0.94656570841E+02  0.80637473870E+02 0.  0.
         13    1    4    4    0    0 -0.14583915077E+02  0.46004693377E+02 -0.47138512542E+02  0.67462298778E+02  0.00000000000E+00 0. -1.
        -14    1    4    4    0    0 -0.45173356486E+01 -0.26153681793E+02  0.59251194376E+01  0.27194272064E+02  0.00000000000E+00 0.  1.
        -13    1    3    3    0    0  0.21714555480E+02 -0.14289208654E+02  0.34561949615E+02  0.43246176304E+02  0.00000000000E+00 0.  1.
         13    1    3    3    0    0 -0.47218523939E+02 -0.60178044232E+01 -0.22835042036E+02  0.52794337933E+02  0.00000000000E+00 0. -1.
          2    1    1    2  501    0  0.44605219185E+02  0.45600149403E+00 -0.98007838145E+00  0.44618315404E+02  0.00000000000E+00 0. -1.
<scales pt_clust_5="13000.00000" pt_clust_6="13000.00000" pt_clust_7="13000.00000" pt_clust_8="13000.00000" pt_clust_9="13000.00000"></scales>
<clustering>
<clus scale="   80.637">  5  6 -1 -1</clus>
<clus scale="   44.608">  5  9 -1 -1</clus>
<clus scale="   89.574">  7  8 -1 -1</clus>
<clus scale="   95.322">  1  7  2 -1</clus>
<clus scale="  132.730">  2  5  1 -1</clus>
</clustering>
</event>
<event>
 9    1  0.2728138E-005  0.5981653E+03  0.7546771E-02  0.1023453E+00
         21   -1    0    0  501  502  0.00000000000E+00  0.00000000000E+00  0.69874372115E+03  0.69874372115E+03  0.00000000000E+00 0. -1.
          3   -1    0    0  502    0 -0.00000000000E+00 -0.00000000000E+00 -0.23873837258E+03  0.23873837258E+03  0.00000000000E+00 0. -1.
         23    2    1    2    0    0 -0.11407353561E+03 -0.16154058723E+03  0.14340956306E+03  0.26069956671E+03  0.91048495075E+02 0.  0.
        -24    2    1    2    0    0  0.64796800508E+01  0.33879157613E+03  0.31473259625E+03  0.46942336447E+03  0.80498258739E+02 0.  0.
         13    1    4    4    0    0  0.60926410968E+01  0.33616248601E+03  0.31959731350E+03  0.46388013545E+03  0.00000000000E+00 0. -1.
        -14    1    4    4    0    0  0.38703895406E+00  0.26290901205E+01 -0.48647172486E+01  0.55432290159E+01  0.00000000000E+00 0.  1.
        -11    1    3    3    0    0 -0.11865097665E+02 -0.30976007371E+02 -0.10165090205E+02  0.34693264967E+02  0.00000000000E+00 0. -1.
         11    1    3    3    0    0 -0.10220843794E+03 -0.13056457986E+03  0.15357465327E+03  0.22600630174E+03  0.00000000000E+00 0.  1.
          4    1    1    2  501    0  0.10759385556E+03 -0.17725098889E+03  0.18631892567E+01  0.20735916255E+03  0.00000000000E+00 0. -1.
<scales pt_clust_5="13000.00000" pt_clust_6="13000.00000" pt_clust_7="13000.00000" pt_clust_8="13000.00000" pt_clust_9="13000.00000"></scales>
<clustering>
<clus scale="   80.498">  5  6 -1 -1</clus>
<clus scale="   91.048">  7  8 -1 -1</clus>
<clus scale="  207.351">  5  9 -1 -1</clus>
<clus scale="  217.711">  2  7  1 -1</clus>
<clus scale="  598.165">  1  5  2 -1</clus>
</clustering>
</event>
<event>
 9    1  0.2728138E-005  0.2829009E+03  0.7546771E-02  0.1112295E+00
         21   -1    0    0  501  502  0.00000000000E+00  0.00000000000E+00  0.15095043452E+03  0.15095043452E+03  0.00000000000E+00 0. -1.
          1   -1    0    0  502    0 -0.00000000000E+00 -0.00000000000E+00 -0.39341138752E+03  0.39341138752E+03  0.00000000000E+00 0. -1.
         23    2    1    2    0    0 -0.20179600647E+02  0.14870859284E+03 -0.18432831561E+03  0.25554986420E+03  0.93847446910E+02 0.  0.
        -24    2    1    2    0    0 -0.61585180464E+02 -0.97516238320E+01 -0.57760582642E+02  0.12758337140E+03  0.95149372724E+02 0.  0.
         13    1    4    4    0    0 -0.44651336307E+02  0.40323735547E+02 -0.23501922724E+02  0.64591685643E+02  0.00000000000E+00 0. -1.
        -14    1    4    4    0    0 -0.16933844157E+02 -0.50075359379E+02 -0.34258659918E+02  0.62991685755E+02  0.00000000000E+00 0.  1.
        -13    1    3    3    0    0 -0.51575160805E+02  0.10532576977E+03 -0.15539492706E+03  0.19468204423E+03  0.00000000000E+00 0. -1.
         13    1    3    3    0    0  0.31395560158E+02  0.43382823063E+02 -0.28933388545E+02  0.60867819965E+02  0.00000000000E+00 0.  1.
          2    1    1    2  501    0  0.81764781111E+02 -0.13895696900E+03 -0.37205475091E+00  0.16122858645E+03  0.00000000000E+00 0. -1.
<scales pt_clust_5="13000.00000" pt_clust_6="13000.00000" pt_clust_7="13000.00000" pt_clust_8="13000.00000" pt_clust_9="13000.00000"></scales>
<clustering>
<clus scale="   93.847">  7  8 -1 -1</clus>
<clus scale="   95.149">  5  6 -1 -1</clus>
<clus scale="  161.228">  5  9 -1 -1</clus>
<clus scale="  176.999">  2  7  1 -1</clus>
<clus scale="  282.901">  1  5  2 -1</clus>
</clustering>
</event>
<event>
 9    1  0.2728138E-005  0.3248396E+03  0.7546771E-02  0.1090045E+00
          3   -1    0    0  502    0 -0.00000000000E+00  0.00000000000E+00  0.83455052504E+02  0.83455052504E+02  0.00000000000E+00 0. -1.
         21   -1    0    0  501  502  0.00000000000E+00 -0.00000000000E+00 -0.85169841576E+03  0.85169841576E+03  0.00000000000E+00 0. -1.
         23    2    1    2    0    0  0.18785598323E+03  0.88499367154E+00 -0.31688650836E+03  0.37905652684E+03  0.89309225233E+02 0.  0.
        -24    2    1    2    0    0  0.23743947766E+02  0.22927209159E+02 -0.46412120040E+02  0.98579958036E+02  0.80464223506E+02 0.  0.
         13    1    4    4    0    0  0.20856960365E+02  0.48001102452E+02 -0.50828969509E+02  0.72956855563E+02  0.00000000000E+00 0. -1.
        -14    1    4    4    0    0  0.28869874003E+01 -0.25073893293E+02  0.44168494690E+01  0.25623102473E+02  0.00000000000E+00 0.  1.
        -11    1    3    3    0    0  0.18273591605E+02 -0.30314709447E+02 -0.60113261951E+02  0.69760375726E+02  0.00000000000E+00 0.  1.
         11    1    3    3    0    0  0.16958239162E+03  0.31199703118E+02 -0.25677324641E+03  0.30929615112E+03  0.00000000000E+00 0. -1.
          4    1    1    2  501    0 -0.21159993099E+03 -0.23812202831E+02 -0.40494473486E+03  0.45751698339E+03  0.00000000000E+00 0. -1.
<scales pt_clust_5="13000.00000" pt_clust_6="13000.00000" pt_clust_7="13000.00000" pt_clust_8="13000.00000" pt_clust_9="13000.00000"></scales>
<clustering>
<clus scale="   80.464">  5  6 -1 -1</clus>
<clus scale="   89.309">  7  8 -1 -1</clus>
<clus scale="  208.007">  1  7  2 -1</clus>
<clus scale="  119.614">  5  9 -1 -1</clus>
<clus scale="  324.840">  2  5  1 -1</clus>
</clustering>
</event>
<event>
 9    1  0.2728138E-005  0.2749662E+03  0.7546771E-02  0.1129216E+00
         21   -1    0    0  501  502  0.00000000000E+00  0.00000000000E+00  0.93212906838E+03  0.93212906838E+03  0.00000000000E+00 0. -1.
          3   -1    0    0  502    0 -0.00000000000E+00 -0.00000000000E+00 -0.14281874380E+03  0.14281874380E+03  0.00000000000E+00 0. -1.
         23    2    1    2    0    0  0.65777184209E+02  0.58543195172E+02 -0.89047958396E+02  0.15455675931E+03  0.90577642341E+02 0.  0.
        -24    2    1    2    0    0  0.51236979659E+02  0.35859258495E+02  0.18595131642E+03  0.21184920855E+03  0.79944234190E+02 0.  0.
         11    1    4    4    0    0  0.53138454512E+02 -0.66640728114E+01  0.13633389493E+03  0.14647537718E+03  0.00000000000E+00 0. -1.
        -12    1    4    4    0    0 -0.19014748529E+01  0.42523331307E+02  0.49617421486E+02  0.65373831362E+02  0.00000000000E+00 0.  1.
        -13    1    3    3    0    0  0.13121520329E+02  0.53062440059E+02 -0.45571023312E+01  0.54850378507E+02  0.00000000000E+00 0.  1.
         13    1    3    3    0    0  0.52655663880E+02  0.54807551137E+01 -0.84490856065E+02  0.99706380808E+02  0.00000000000E+00 0. -1.
          4    1    1    2  501    0 -0.11701416387E+03 -0.94402453668E+02  0.69240696656E+03  0.70854184431E+03  0.00000000000E+00 0. -1.
<scales pt_clust_5="13000.00000" pt_clust_6="13000.00000" pt_clust_7="13000.00000" pt_clust_8="13000.00000" pt_clust_9="13000.00000"></scales>
<clustering>
<clus scale="   79.944">  5  6 -1 -1</clus>
<clus scale="   90.578">  7  8 -1 -1</clus>
<clus scale="  126.326">  2  7  1 -1</clus>
<clus scale="  116.596">  5  9 -1 -1</clus>
<clus scale="  274.966">  1  5  2 -1</clus>
</clustering>
</event>
<event>
 9    1  0.2728138E-005  0.1417736E+03  0.7546771E-02  0.1227933E+00
         21   -1    0    0  501  502  0.00000000000E+00  0.00000000000E+00  0.11892974875E+03  0.11892974875E+03  0.00000000000E+00 0. -1.
         -2   -1    0    0    0  501 -0.00000000000E+00 -0.00000000000E+00 -0.12821230760E+03  0.12821230760E+03  0.00000000000E+00 0.  1.
         23    2    1    2    0    0 -0.28098748646E+02  0.40351234293E+02  0.22704702079E+02  0.10180469265E+03  0.86202843140E+02 0.  0.
        -24    2    1    2    0    0  0.83525518077E+01 -0.54639865082E+02  0.64360623616E+01  0.99835396360E+02  0.82887897124E+02 0.  0.
         13    1    4    4    0    0 -0.25155443372E+00  0.20298917250E+02 -0.10006953370E+02  0.22632906064E+02  0.00000000000E+00 0. -1.
        -14    1    4    4    0    0  0.86041062414E+01 -0.74938782332E+02  0.16443015731E+02  0.77202490296E+02  0.00000000000E+00 0.  1.
        -13    1    3    3    0    0 -0.24672758317E+02  0.11150996096E+02  0.53045487923E+02  0.59555969524E+02  0.00000000000E+00 0. -1.
         13    1    3    3    0    0 -0.34259903295E+01  0.29200238197E+02 -0.30340785844E+02  0.42248723130E+02  0.00000000000E+00 0.  1.
         -1    1    1    2    0  502  0.19746196838E+02  0.14288630788E+02 -0.38423323289E+02  0.45501967342E+02  0.00000000000E+00 0.  1.
<scales pt_clust_5="13000.00000" pt_clust_6="13000.00000" pt_clust_7="13000.00000" pt_clust_8="13000.00000" pt_clust_9="13000.00000"></scales>
<clustering>
<clus scale="   82.888">  5  6 -1 -1</clus>
<clus scale="   24.374">  5  9 -1 -1</clus>
<clus scale="   86.203">  7  8 -1 -1</clus>
<clus scale="   99.241">  2  7  1 -1</clus>
<clus scale="  141.774">  1  5  2 -1</clus>
</clustering>
</event>
<event>
 9    1  0.2728138E-005  0.4809774E+03  0.7546771E-02  0.1036889E+00
         -4   -1    0    0    0  501 -0.00000000000E+00  0.00000000000E+00  0.87185535912E+02  0.87185535912E+02  0.00000000000E+00 0.  1.
         21   -1    0    0  501  502  0.00000000000E+00 -0.00000000000E+00 -0.18206652448E+04  0.18206652448E+04  0.00000000000E+00 0. -1.
         23    2    1    2    0    0  0.22693810831E+03 -0.13933798907E+03 -0.38909420795E+03  0.48001617493E+03  0.90029136054E+02 0.  0.
        -24    2    1    2    0    0  0.97002665614E+02 -0.46085651675E+01 -0.35305639709E+03  0.37503280695E+03  0.81055726210E+02 0.  0.
         13    1    4    4    0    0  0.47957896828E+02  0.12505098737E+02 -0.28573190910E+03  0.28999838144E+03  0.00000000000E+00 0. -1.
        -14    1    4    4    0    0  0.49044768786E+02 -0.17113663904E+02 -0.67324487993E+02  0.85034425505E+02  0.00000000000E+00 0.  1.
        -11    1    3    3    0    0  0.40666163390E+02 -0.68027735474E+02 -0.83802915025E+02  0.11534486640E+03  0.00000000000E+00 0.  1.
         11    1    3    3    0    0  0.18627194492E+03 -0.71310253595E+02 -0.30529129292E+03  0.36467130853E+03  0.00000000000E+00 0. -1.
         -3    1    1    2    0  502 -0.32394077392E+03  0.14394655424E+03 -0.99132910389E+03  0.10528017989E+04  0.00000000000E+00 0.  1.
<scales pt_clust_5="13000.00000" pt_clust_6="13000.00000" pt_clust_7="13000.00000" pt_clust_8="13000.00000" pt_clust_9="13000.00000"></scales>
<clustering>
<clus scale="   81.056">  5  6 -1 -1</clus>
<clus scale="   90.029">  7  8 -1 -1</clus>
<clus scale="  281.107">  1  7  2 -1</clus>
<clus scale="  162.117">  5  9 -1 -1</clus>
<clus scale="  480.977">  2  5  1 -1</clus>
</clustering>
</event>
<event>
 9    1  0.2728138E-005  0.2357460E+03  0.7546771E-02  0.1162728E+00
         21   -1    0    0  501  502  0.00000000000E+00  0.00000000000E+00  0.34556773737E+03  0.34556773737E+03  0.00000000000E+00 0. -1.
          1   -1    0    0  502    0 -0.00000000000E+00 -0.00000000000E+00 -0.77208633000E+02  0.77208633000E+02  0.00000000000E+00 0. -1.
         23    2    1    2    0    0 -0.49161261460E+01 -0.83536256759E+01  0.60735797652E+02  0.10863687944E+03  0.89549891678E+02 0.  0.
        -24    2    1    2    0    0  0.86634593660E+02  0.47856003416E+02  0.17666829874E+03  0.21824080325E+03  0.81373279028E+02 0.  0.
         13    1    4    4    0    0  0.94655717471E+02  0.47046141361E+02  0.18060928514E+03  0.20926719319E+03  0.00000000000E+00 0. -1.
        -14    1    4    4    0    0 -0.80211238112E+01  0.80986205550E+00 -0.39409863942E+01  0.89736100596E+01  0.00000000000E+00 0.  1.
        -11    1    3    3    0    0 -0.27298102731E+02  0.29943186521E+02  0.47314654071E+02  0.62293316829E+02  0.00000000000E+00 0.  1.
         11    1    3    3    0    0  0.22381976585E+02 -0.38296812197E+02  0.13421143582E+02  0.46343562610E+02  0.00000000000E+00 0. -1.
          2    1    1    2  501    0 -0.81718467514E+02 -0.39502377740E+02  0.30955007969E+02  0.95898687678E+02  0.00000000000E+00 0. -1.
<scales pt_clust_5="13000.00000" pt_clust_6="13000.00000" pt_clust_7="13000.00000" pt_clust_8="13000.00000" pt_clust_9="13000.00000"></scales>
<clustering>
<clus scale="   81.373">  5  6 -1 -1</clus>
<clus scale="   89.550">  7  8 -1 -1</clus>
<clus scale="   90.073">  2  7  1 -1</clus>
<clus scale="   95.737">  5  9 -1 -1</clus>
<clus scale="  235.746">  1  5  2 -1</clus>
</clustering>
</event>
<event>
 9    1  0.2728138E-005  0.6807827E+03  0.7546771E-02  0.1014695E+00
         21   -1    0    0  501  502  0.00000000000E+00  0.00000000000E+00  0.23413971685E+03  0.23413971685E+03  0.00000000000E+00 0. -1.
          1   -1    0    0  502    0 -0.00000000000E+00 -0.00000000000E+00 -0.82222138205E+03  0.82222138205E+03  0.00000000000E+00 0. -1.
         23    2    1    2    0    0 -0.42487327864E+02  0.16056322821E+03 -0.17382060918E+03  0.25944374841E+03  0.97528104320E+02 0.  0.
        -24    2    1    2    0    0 -0.13892098863E+03 -0.15483300547E+03  0.10523269861E+03  0.24663053996E+03  0.80500942334E+02 0.  0.
         11    1    4    4    0    0 -0.10233608143E+03 -0.12227289058E+03  0.11512611071E+03  0.19666559104E+03  0.00000000000E+00 0. -1.
        -12    1    4    4    0    0 -0.36584907201E+02 -0.32560114893E+02 -0.98934121027E+01  0.49964948912E+02  0.00000000000E+00 0.  1.
        -13    1    3    3    0    0 -0.69627545906E+02  0.14389400560E+03 -0.15376871663E+03  0.22180689396E+03  0.00000000000E+00 0.  1.
         13    1    3    3    0    0  0.27140218042E+02  0.16669222607E+02 -0.20051892553E+02  0.37636854447E+02  0.00000000000E+00 0. -1.
          2    1    1    2  501    0  0.18140831650E+03 -0.57302227354E+01 -0.51949375463E+03  0.55028681053E+03  0.00000000000E+00 0. -1.
<scales pt_clust_5="13000.00000" pt_clust_6="13000.00000" pt_clust_7="13000.00000" pt_clust_8="13000.00000" pt_clust_9="13000.00000"></scales>
<clustering>
<clus scale="   80.501">  5  6 -1 -1</clus>
<clus scale="   97.528">  7  8 -1 -1</clus>
<clus scale="  181.499">  5  9 -1 -1</clus>
<clus scale="  192.607">  2  7  1 -1</clus>
<clus scale="  680.783">  1  5  2 -1</clus>
</clustering>
</event>
<event>
 9    1  0.2728138E-005  0.3113011E+03  0.7546771E-02  0.1091220E+00
         21   -1    0    0  501  502  0.00000000000E+00  0.00000000000E+00  0.22728322317E+03  0.22728322317E+03  0.00000000000E+00 0. -1.
          1   -1    0    0  502    0 -0.00000000000E+00 -0.00000000000E+00 -0.35427030960E+03  0.35427030960E+03  0.00000000000E+00 0. -1.
         23    2    1    2    0    0 -0.17295043767E+03 -0.11961196630E+03  0.33099699742E+02  0.23150188702E+03  0.90987126566E+02 0.  0.
        -24    2    1    2    0    0  0.29582327320E+02 -0.40588370580E+02 -0.57571902140E+02  0.11187552510E+03  0.81725634191E+02 0.  0.
         11    1    4    4    0    0  0.90009448250E+01 -0.21584800071E+02 -0.75216790504E+02  0.78768560832E+02  0.00000000000E+00 0. -1.
        -12    1    4    4    0    0  0.20581382495E+02 -0.19003570509E+02  0.17644888364E+02  0.33106964265E+02  0.00000000000E+00 0.  1.
        -11    1    3    3    0    0 -0.11380712378E+03 -0.49646020154E+02  0.57295583454E+02  0.13674638066E+03  0.00000000000E+00 0.  1.
         11    1    3    3    0    0 -0.59143313889E+02 -0.69965946146E+02 -0.24195883712E+02  0.94755506365E+02  0.00000000000E+00 0. -1.
          2    1    1    2  501    0  0.14336811035E+03  0.16020033688E+03 -0.10251488403E+03  0.23817612065E+03  0.00000000000E+00 0. -1.
<scales pt_clust_5="13000.00000" pt_clust_6="13000.00000" pt_clust_7="13000.00000" pt_clust_8="13000.00000" pt_clust_9="13000.00000"></scales>
<clustering>
<clus scale="   81.726">  5  6 -1 -1</clus>
<clus scale="   90.987">  7  8 -1 -1</clus>
<clus scale="  214.985">  5  9 -1 -1</clus>
<clus scale="  229.124">  2  7  1 -1</clus>
<clus scale="  311.301">  1  5  2 -1</clus>
</clustering>
</event>
<event>
 9    1  0.2728138E-005  0.1529912E+03  0.7546771E-02  0.1211059E+00
          3   -1    0    0  502    0 -0.00000000000E+00  0.00000000000E+00  0.60621916770E+02  0.60621916770E+02  0.00000000000E+00 0. -1.
         21   -1    0    0  501  502  0.00000000000E+00 -0.00000000000E+00 -0.51469205681E+03  0.51469205681E+03  0.00000000000E+00 0. -1.
         23    2    1    2    0    0  0.60109165095E+02  0.21042489278E+02 -0.19063032067E+02  0.11418763948E+03  0.92841368657E+02 0.  0.
        -24    2    1    2    0    0 -0.25139003454E+02  0.25557437733E+02 -0.19977951198E+03  0.21879084904E+03  0.81684944142E+02 0.  0.
         11    1    4    4    0    0  0.29342088014E+02  0.11775267074E+01 -0.72003963139E+02  0.77761914881E+02  0.00000000000E+00 0. -1.
        -12    1    4    4    0    0 -0.54481091468E+02  0.24379911026E+02 -0.12777554884E+03  0.14102893416E+03  0.00000000000E+00 0.  1.
        -13    1    3    3    0    0 -0.23148767606E+02  0.11528912748E+02  0.63316369633E+01  0.26624629528E+02  0.00000000000E+00 0.  1.
         13    1    3    3    0    0  0.83257932702E+02  0.95135765300E+01 -0.25394669030E+02  0.87563009949E+02  0.00000000000E+00 0. -1.
          4    1    1    2  501    0 -0.34970161641E+02 -0.46599927012E+02 -0.23522759599E+03  0.24233548506E+03  0.00000000000E+00 0. -1.
<scales pt_clust_5="13000.00000" pt_clust_6="13000.00000" pt_clust_7="13000.00000" pt_clust_8="13000.00000" pt_clust_9="13000.00000"></scales>
<clustering>
<clus scale="   81.685">  5  6 -1 -1</clus>
<clus scale="   58.262">  5  9 -1 -1</clus>
<clus scale="   92.841">  7  8 -1 -1</clus>
<clus scale="  112.585">  1  7  2 -1</clus>
<clus scale="  152.991">  2  5  1 -1</clus>
</clustering>
</event>
<event>
 9    1  0.2728138E-005  0.3872506E+03  0.7546771E-02  0.1096285E+00
          3   -1    0    0  502    0 -0.00000000000E+00  0.00000000000E+00  0.62237028514E+03  0.62237028514E+03  0.00000000000E+00 0. -1.
         21   -1    0    0  501  502  0.00000000000E+00 -0.00000000000E+00 -0.10154322403E+03  0.10154322403E+03  0.00000000000E+00 0. -1.
         23    2    1    2    0    0  0.33564360067E+02  0.35495010771E+02  0.53970418910E+02  0.11735094120E+03  0.92043333424E+02 0.  0.
        -24    2    1    2    0    0 -0.90176167350E+02 -0.18655927341E+03  0.31090772572E+03  0.38218482237E+03  0.80408462761E+02 0.  0.
         11    1    4    4    0    0 -0.10208768078E+03 -0.13575775424E+03  0.24499317672E+03  0.29811695531E+03  0.00000000000E+00 0. -1.
        -12    1    4    4    0    0  0.11911513430E+02 -0.50801519167E+02  0.65914548996E+02  0.84067867055E+02  0.00000000000E+00 0.  1.
        -13    1    3    3    0    0  0.59893616335E+02  0.64431456817E+00  0.24804393089E+02  0.64829918521E+02  0.00000000000E+00 0.  1.
         13    1    3    3    0    0 -0.26329256268E+02  0.34850696202E+02  0.29166025821E+02  0.52521022683E+02  0.00000000000E+00 0. -1.
          4    1    1    2  501    0  0.56611807283E+02  0.15106426264E+03  0.15594891648E+03  0.22437774560E+03  0.00000000000E+00 0. -1.
<scales pt_clust_5="13000.00000" pt_clust_6="13000.00000" pt_clust_7="13000.00000" pt_clust_8="13000.00000" pt_clust_9="13000.00000"></scales>
<clustering>
<clus scale="   80.408">  5  6 -1 -1</clus>
<clus scale="   92.043">  7  8 -1 -1</clus>
<clus scale="  104.204">  1  7  2 -1</clus>
<clus scale="  177.401">  5  9 -1 -1</clus>
<clus scale="  387.251">  2  5  1 -1</clus>
</clustering>
</event>
<event>
 9    1  0.2728138E-005  0.4549278E+03  0.7546771E-02  0.1062963E+00
          1   -1    0    0  502    0 -0.00000000000E+00  0.00000000000E+00  0.14424957801E+03  0.14424957801E+03  0.00000000000E+00 0. -1.
         21   -1    0    0  501  502  0.00000000000E+00 -0.00000000000E+00 -0.65821600378E+03  0.65821600378E+03  0.00000000000E+00 0. -1.
         23    2    1    2    0    0  0.90459751318E+02 -0.91648562558E+02 -0.96410200787E+02  0.18496053867E+03  0.91285532376E+02 0.  0.
        -24    2    1    2    0    0  0.14159808234E+03  0.47675841870E+02 -0.43166275867E+02  0.17484007690E+03  0.79891941379E+02 0.  0.
         13    1    4    4    0    0  0.10294575078E+03  0.44928594451E+02 -0.65588893686E+02  0.13007040085E+03  0.00000000000E+00 0. -1.
        -14    1    4    4    0    0  0.38652331555E+02  0.27472474184E+01  0.22422617819E+02  0.44769676041E+02  0.00000000000E+00 0.  1.
        -11    1    3    3    0    0  0.57915908582E+02 -0.21362011049E+02 -0.87373539161E+02  0.10698001369E+03  0.00000000000E+00 0.  1.
         11    1    3    3    0    0  0.32543842736E+02 -0.70286551508E+02 -0.90366616258E+01  0.77980524981E+02  0.00000000000E+00 0. -1.
          2    1    1    2  501    0 -0.23205783365E+03  0.43972720688E+02 -0.37438994912E+03  0.44266496623E+03  0.00000000000E+00 0. -1.
<scales pt_clust_5="13000.00000" pt_clust_6="13000.00000" pt_clust_7="13000.00000" pt_clust_8="13000.00000" pt_clust_9="13000.00000"></scales>
<clustering>
<clus scale="   79.892">  5  6 -1 -1</clus>
<clus scale="   91.286">  7  8 -1 -1</clus>
<clus scale="  157.846">  1  7  2 -1</clus>
<clus scale="  201.568">  5  9 -1 -1</clus>
<clus scale="  454.928">  2  5  1 -1</clus>
</clustering>
</event>
<event>
 9    1  0.2728138E-005  0.3623303E+03  0.7546771E-02  0.1067105E+00
         21   -1    0    0  501  502  0.00000000000E+00  0.00000000000E+00  0.57166515809E+02  0.57166515809E+02  0.00000000000E+00 0. -1.
          1   -1    0    0  502    0 -0.00000000000E+00 -0.00000000000E+00 -0.18257786058E+04  0.18257786058E+04  0.00000000000E+00 0. -1.
         23    2    1    2    0    0 -0.15559221167E+03 -0.21707517669E+03 -0.65169612478E+03  0.70872855753E+03  0.79106008260E+02 0.  0.
        -24    2    1    2    0    0  0.42409730244E+02  0.16704490672E+03 -0.93550178646E+03  0.95461600336E+03  0.80159436827E+02 0.  0.
         11    1    4    4    0    0  0.19620971535E+02  0.14110509401E+03 -0.57184160368E+03  0.58932032867E+03  0.00000000000E+00 0. -1.
        -12    1    4    4    0    0  0.22788758709E+02  0.25939812705E+02 -0.36366018278E+03  0.36529567469E+03  0.00000000000E+00 0.  1.
        -11    1    3    3    0    0 -0.11730210710E+03 -0.15422585690E+03 -0.37109545252E+03  0.41863735399E+03  0.00000000000E+00 0. -1.
         11    1    3    3    0    0 -0.38290104569E+02 -0.62849319787E+02 -0.28060067225E+03  0.29009120354E+03  0.00000000000E+00 0.  1.
          2    1    1    2  501    0  0.11318248143E+03  0.50030269972E+02 -0.18141417874E+03  0.21960056071E+03  0.00000000000E+00 0. -1.
<scales pt_clust_5="13000.00000" pt_clust_6="13000.00000" pt_clust_7="13000.00000" pt_clust_8="13000.00000" pt_clust_9="13000.00000"></scales>
<clustering>
<clus scale="   79.106">  7  8 -1 -1</clus>
<clus scale="   80.159">  5  6 -1 -1</clus>
<clus scale="  123.747">  5  9 -1 -1</clus>
<clus scale="  278.547">  2  7  1 -1</clus>
<clus scale="  362.330">  1  5  2 -1</clus>
</clustering>
</event>
<event>
 9    1  0.2728138E-005  0.2153941E+03  0.7546771E-02  0.1143240E+00
          1   -1    0    0  502    0 -0.00000000000E+00  0.00000000000E+00  0.58746806169E+03  0.58746806169E+03  0.00000000000E+00 0. -1.
         21   -1    0    0  501  502  0.00000000000E+00 -0.00000000000E+00 -0.36612781587E+03  0.36612781587E+03  0.00000000000E+00 0. -1.
         23    2    1    2    0    0 -0.23840669073E+02  0.15864225513E+03  0.53860286143E+03  0.57012463802E+03  0.95986029836E+02 0.  0.
        -24    2    1    2    0    0  0.44265617296E+01 -0.13602357899E+03 -0.31641881159E+03  0.35365137905E+03  0.80164986620E+02 0.  0.
         11    1    4    4    0    0  0.42854950544E+01 -0.14441718241E+03 -0.31270992530E+03  0.34447378046E+03  0.00000000000E+00 0. -1.
        -12    1    4    4    0    0  0.14106667520E+00  0.83936034230E+01 -0.37088862946E+01  0.91775985844E+01  0.00000000000E+00 0.  1.
        -11    1    3    3    0    0 -0.39190804297E+02  0.36135507945E+02  0.87758293766E+02  0.10268014511E+03  0.00000000000E+00 0.  1.
         11    1    3    3    0    0  0.15350135224E+02  0.12250674718E+03  0.45084456766E+03  0.46744449291E+03  0.00000000000E+00 0. -1.
          2    1    1    2  501    0  0.19414107343E+02 -0.22618676136E+02 -0.84380401503E+00  0.29819860484E+02  0.00000000000E+00 0. -1.
<scales pt_clust_5="13000.00000" pt_clust_6="13000.00000" pt_clust_7="13000.00000" pt_clust_8="13000.00000" pt_clust_9="13000.00000"></scales>
<clustering>
<clus scale="   80.165">  5  6 -1 -1</clus>
<clus scale="   29.808">  5  9 -1 -1</clus>
<clus scale="   95.986">  7  8 -1 -1</clus>
<clus scale="  186.947">  1  7  2 -1</clus>
<clus scale="  215.394">  2  5  1 -1</clus>
</clustering>
</event>
<event>
 9    1  0.2728138E-005  0.2071400E+03  0.7546771E-02  0.1169882E+00
         21   -1    0    0  501  502  0.00000000000E+00  0.00000000000E+00  0.38175319697E+03  0.38175319697E+03  0.00000000000E+00 0. -1.
          3   -1    0    0  502    0 -0.00000000000E+00 -0.00000000000E+00 -0.68462144696E+02  0.68462144696E+02  0.00000000000E+00 0. -1.
         23    2    1    2    0    0  0.31969988158E+02  0.60416759046E+02  0.79436652521E+02  0.13781357905E+03  0.89499362514E+02 0.  0.
        -24    2    1    2    0    0 -0.32822944897E+02 -0.87033913046E+02  0.25204598291E+03  0.28015065225E+03  0.79403795385E+02 0.  0.
         11    1    4    4    0    0 -0.40187924961E+02 -0.90365183360E+02  0.25334428812E+03  0.27196371816E+03  0.00000000000E+00 0. -1.
        -12    1    4    4    0    0  0.73649800632E+01  0.33312703140E+01 -0.12983052085E+01  0.81869340813E+01  0.00000000000E+00 0.  1.
        -13    1    3    3    0    0 -0.21043954189E+02  0.31596430864E+02 -0.11854823955E+00  0.37963093985E+02  0.00000000000E+00 0.  1.
         13    1    3    3    0    0  0.53013942346E+02  0.28820328181E+02  0.79555200760E+02  0.99850485064E+02  0.00000000000E+00 0. -1.
          4    1    1    2  501    0  0.85295673931E+00  0.26617154000E+02 -0.18191583157E+02  0.32251110369E+02  0.00000000000E+00 0. -1.
<scales pt_clust_5="13000.00000" pt_clust_6="13000.00000" pt_clust_7="13000.00000" pt_clust_8="13000.00000" pt_clust_9="13000.00000"></scales>
<clustering>
<clus scale="   79.404">  5  6 -1 -1</clus>
<clus scale="   26.631">  5  9 -1 -1</clus>
<clus scale="   89.499">  7  8 -1 -1</clus>
<clus scale="  112.616">  2  7  1 -1</clus>
<clus scale="  207.140">  1  5  2 -1</clus>
</clustering>
</event>
<event>
 9    1  0.2728138E-005  0.2076468E+03  0.7546771E-02  0.1173497E+00
         21   -1    0    0  501  502  0.00000000000E+00  0.00000000000E+00  0.14697014045E+03  0.14697014045E+03  0.00000000000E+00 0. -1.
          3   -1    0    0  502    0 -0.00000000000E+00 -0.00000000000E+00 -0.16895715271E+03  0.16895715271E+03  0.00000000000E+00 0. -1.
         23    2    1    2    0    0  0.38151380875E+02 -0.27519276937E+02  0.17875912087E+02  0.10448875844E+03  0.91572451867E+02 0.  0.
        -24    2    1    2    0    0 -0.98000125488E+02  0.44492740627E+01  0.15894526501E+02  0.12645035561E+03  0.78187184529E+02 0.  0.
         13    1    4    4    0    0 -0.99921373077E+02  0.24788350119E+02  0.44786983831E+01  0.10304757075E+03  0.00000000000E+00 0. -1.
        -14    1    4    4    0    0  0.19212475889E+01 -0.20339076057E+02  0.11415828118E+02  0.23402784850E+02  0.00000000000E+00 0.  1.
        -11    1    3    3    0    0  0.33375653588E+02 -0.56602544116E+02 -0.67854551509E+01  0.66059251089E+02  0.00000000000E+00 0. -1.
         11    1    3    3    0    0  0.47757272868E+01  0.29083267179E+02  0.24661367238E+02  0.38429507348E+02  0.00000000000E+00 0.  1.
          4    1    1    2  501    0  0.59848744613E+02  0.23070002874E+02 -0.55757450851E+02  0.84988179118E+02  0.00000000000E+00 0. -1.
<scales pt_clust_5="13000.00000" pt_clust_6="13000.00000" pt_clust_7="13000.00000" pt_clust_8="13000.00000" pt_clust_9="13000.00000"></scales>
<clustering>
<clus scale="   78.187">  5  6 -1 -1</clus>
<clus scale="   64.141">  5  9 -1 -1</clus>
<clus scale="   91.572">  7  8 -1 -1</clus>
<clus scale="  102.948">  2  7  1 -1</clus>
<clus scale="  207.647">  1  5  2 -1</clus>
</clustering>
</event>
<event>
 9    1  0.2728138E-005  0.4477550E+03  0.7546771E-02  0.1069067E+00
          3   -1    0    0  502    0 -0.00000000000E+00  0.00000000000E+00  0.15412470947E+03  0.15412470947E+03  0.00000000000E+00 0. -1.
         21   -1    0    0  501  502  0.00000000000E+00 -0.00000000000E+00 -0.84087727995E+03  0.84087727995E+03  0.00000000000E+00 0. -1.
         23    2    1    2    0    0  0.26568747537E+02 -0.10742566447E+03  0.36362164929E+02  0.14448483810E+03  0.85483856205E+02 0.  0.
        -24    2    1    2    0    0  0.54797372801E+02  0.16331628057E+03 -0.72678523496E+03  0.75173618617E+03  0.84944430510E+02 0.  0.
         13    1    4    4    0    0  0.30762813460E+02  0.11549279828E+03 -0.62906172733E+03  0.64031523014E+03  0.00000000000E+00 0. -1.
        -14    1    4    4    0    0  0.24034559341E+02  0.47823482284E+02 -0.97723507629E+02  0.11142095604E+03  0.00000000000E+00 0.  1.
        -13    1    3    3    0    0  0.31057910879E+02  0.50772196370E+00  0.14448052312E+02  0.34257814077E+02  0.00000000000E+00 0.  1.
         13    1    3    3    0    0 -0.44891633417E+01 -0.10793338643E+03  0.21914112617E+02  0.11022702403E+03  0.00000000000E+00 0. -1.
          4    1    1    2  501    0 -0.81366120338E+02 -0.55890616099E+02  0.36704995567E+01  0.98780965139E+02  0.00000000000E+00 0. -1.
<scales pt_clust_5="13000.00000" pt_clust_6="13000.00000" pt_clust_7="13000.00000" pt_clust_8="13000.00000" pt_clust_9="13000.00000"></scales>
<clustering>
<clus scale="   84.944">  5  6 -1 -1</clus>
<clus scale="   85.484">  7  8 -1 -1</clus>
<clus scale="   98.713">  5  9 -1 -1</clus>
<clus scale="  139.834">  1  7  2 -1</clus>
<clus scale="  447.755">  2  5  1 -1</clus>
</clustering>
</event>
<event>
 9    1  0.2728138E-005  0.5755037E+03  0.7546771E-02  0.1060414E+00
          1   -1    0    0  502    0 -0.00000000000E+00  0.00000000000E+00  0.11919377708E+04  0.11919377708E+04  0.00000000000E+00 0. -1.
         21   -1    0    0  501  502  0.00000000000E+00 -0.00000000000E+00 -0.92166012499E+02  0.92166012499E+02  0.00000000000E+00 0. -1.
         23    2    1    2    0    0 -0.10175662089E+01 -0.94417178476E+01  0.98944217577E+02  0.12960809184E+03  0.83175223486E+02 0.  0.
        -24    2    1    2    0    0 -0.87906205113E+02 -0.19487970681E+01  0.10468073717E+04  0.10537419035E+04  0.82674221905E+02 0.  0.
         11    1    4    4    0    0 -0.22400208882E+02 -0.26148749401E+02  0.13707651278E+03  0.14133469782E+03  0.00000000000E+00 0. -1.
        -12    1    4    4    0    0 -0.65505996231E+02  0.24199952333E+02  0.90973085896E+03  0.91240720569E+03  0.00000000000E+00 0.  1.
        -13    1    3    3    0    0  0.39598247954E+02  0.24859844760E+01  0.60953705236E+02  0.72729330685E+02  0.00000000000E+00 0.  1.
         13    1    3    3    0    0 -0.40615814163E+02 -0.11927702324E+02  0.37990512341E+02  0.56878761157E+02  0.00000000000E+00 0. -1.
          2    1    1    2  501    0  0.88923771322E+02  0.11390514916E+02 -0.45979830982E+02  0.10075378798E+03  0.00000000000E+00 0. -1.
<scales pt_clust_5="13000.00000" pt_clust_6="13000.00000" pt_clust_7="13000.00000" pt_clust_8="13000.00000" pt_clust_9="13000.00000"></scales>
<clustering>
<clus scale="   82.674">  5  6 -1 -1</clus>
<clus scale="   83.175">  7  8 -1 -1</clus>
<clus scale="   83.716">  1  7  2 -1</clus>
<clus scale="   89.595">  5  9 -1 -1</clus>
<clus scale="  575.504">  2  5  1 -1</clus>
</clustering>
</event>
<event>
 9    1  0.2728138E-005  0.3960160E+03  0.7546771E-02  0.1074385E+00
         21   -1    0    0  501  502  0.00000000000E+00  0.00000000000E+00  0.39863600064E+03  0.39863600064E+03  0.00000000000E+00 0.  1.
          1   -1    0    0  502    0 -0.00000000000E+00 -0.00000000000E+00 -0.21207919878E+03  0.21207919878E+03  0.00000000000E+00 0. -1.
         23    2    1    2    0    0 -0.10034408654E+03 -0.11214664538E+03  0.11253571376E+03  0.20784081764E+03  0.88812796554E+02 0.  0.
        -24    2    1    2    0    0  0.19350552205E+02 -0.51230565050E+02 -0.10724841950E+03  0.14575437113E+03  0.82116372013E+02 0.  0.
         13    1    4    4    0    0 -0.16242917751E+02  0.13371685728E+02 -0.89574150379E+01  0.22866342962E+02  0.00000000000E+00 0. -1.
        -14    1    4    4    0    0  0.35593469956E+02 -0.64602250779E+02 -0.98291004458E+02  0.12288802817E+03  0.00000000000E+00 0.  1.
        -13    1    3    3    0    0 -0.47272298218E+02 -0.85674348945E+02  0.11173965744E+03  0.14852782665E+03  0.00000000000E+00 0.  1.
         13    1    3    3    0    0 -0.53071788321E+02 -0.26472296436E+02  0.79605632540E+00  0.59312990987E+02  0.00000000000E+00 0. -1.
          2    1    1    2  501    0  0.80993534334E+02  0.16337721043E+03  0.18126950759E+03  0.25712001065E+03  0.00000000000E+00 0. -1.
<scales pt_clust_5="13000.00000" pt_clust_6="13000.00000" pt_clust_7="13000.00000" pt_clust_8="13000.00000" pt_clust_9="13000.00000"></scales>
<clustering>
<clus scale="   82.116">  5  6 -1 -1</clus>
<clus scale="   88.813">  7  8 -1 -1</clus>
<clus scale="  174.739">  2  7  1 -1</clus>
<clus scale="  149.183">  5  9 -1 -1</clus>
<clus scale="  396.016">  1  5  2 -1</clus>
</clustering>
</event>
<event>
 9    1  0.2728138E-005  0.2350135E+03  0.7546771E-02  0.1150271E+00
         21   -1    0    0  501  502  0.00000000000E+00  0.00000000000E+00  0.36228240625E+02  0.36228240625E+02  0.00000000000E+00 0.  1.
          3   -1    0    0  502    0 -0.00000000000E+00 -0.00000000000E+00 -0.99732400387E+03  0.99732400387E+03  0.00000000000E+00 0. -1.
         23    2    1    2    0    0 -0.58187333497E+02 -0.51543375369E+02 -0.17567089742E+03  0.21372081258E+03  0.93668757904E+02 0.  0.
        -24    2    1    2    0    0  0.89928166854E+02  0.10981395773E+03 -0.46829799868E+03  0.49583700120E+03  0.80032091571E+02 0.  0.
         13    1    4    4    0    0  0.35416749946E+02  0.86300953168E+02 -0.19499014687E+03  0.21615586522E+03  0.00000000000E+00 0. -1.
        -14    1    4    4    0    0  0.54511416909E+02  0.23513004558E+02 -0.27330785182E+03  0.27968113598E+03  0.00000000000E+00 0.  1.
        -13    1    3    3    0    0 -0.65161387202E+02 -0.76497164844E+01 -0.14660466793E+03  0.16061585602E+03  0.00000000000E+00 0.  1.
         13    1    3    3    0    0  0.69740537050E+01 -0.43893658885E+02 -0.29066229487E+02  0.53104956567E+02  0.00000000000E+00 0. -1.
          4    1    1    2  501    0 -0.31740833357E+02 -0.58270582356E+02 -0.31712686714E+03  0.32399443072E+03  0.00000000000E+00 0. -1.
<scales pt_clust_5="13000.00000" pt_clust_6="13000.00000" pt_clust_7="13000.00000" pt_clust_8="13000.00000" pt_clust_9="13000.00000"></scales>
<clustering>
<clus scale="   80.032">  5  6 -1 -1</clus>
<clus scale="   66.355">  5  9 -1 -1</clus>
<clus scale="   93.669">  7  8 -1 -1</clus>
<clus scale="  121.722">  2  7  1 -1</clus>
<clus scale="  235.014">  1  5  2 -1</clus>
</clustering>
</event>
<event>
 9    1  0.2728138E-005  0.8142146E+03  0.7546771E-02  0.9983741E-01
         21   -1    0    0  501  502  0.00000000000E+00  0.00000000000E+00  0.42802265458E+03  0.42802265458E+03  0.00000000000E+00 0. -1.
          1   -1    0    0  502    0 -0.00000000000E+00 -0.00000000000E+00 -0.58862232247E+03  0.58862232247E+03  0.00000000000E+00 0. -1.
         23    2    1    2    0    0  0.14260850597E+03 -0.80069878387E+02 -0.15975119594E+01  0.18705046602E+03  0.90757662999E+02 0.  0.
        -24    2    1    2    0    0 -0.16249698233E+03  0.30411717275E+02 -0.47452726160E+03  0.50956704851E+03  0.84571349207E+02 0.  0.
         13    1    4    4    0    0 -0.91787763054E+02  0.53431013274E+02 -0.33539895249E+03  0.35181291044E+03  0.00000000000E+00 0. -1.
        -14    1    4    4    0    0 -0.70709219272E+02 -0.23019295999E+02 -0.13912830912E+03  0.15775413806E+03  0.00000000000E+00 0.  1.
        -11    1    3    3    0    0  0.67542742085E+01 -0.43031881181E+02  0.13066659776E+02  0.45476374259E+02  0.00000000000E+00 0. -1.
         11    1    3    3    0    0  0.13585423176E+03 -0.37037997205E+02 -0.14664171735E+02  0.14157409176E+03  0.00000000000E+00 0.  1.
          2    1    1    2  501    0  0.19888476358E+02  0.49658161112E+02  0.31552510568E+03  0.32002746252E+03  0.00000000000E+00 0. -1.
<scales pt_clust_5="13000.00000" pt_clust_6="13000.00000" pt_clust_7="13000.00000" pt_clust_8="13000.00000" pt_clust_9="13000.00000"></scales>
<clustering>
<clus scale="   84.571">  5  6 -1 -1</clus>
<clus scale="   53.493">  5  9 -1 -1</clus>
<clus scale="   90.758">  7  8 -1 -1</clus>
<clus scale="  187.044">  2  7  1 -1</clus>
<clus scale="  814.215">  1  5  2 -1</clus>
</clustering>
</event>
<event>
 9    1  0.2728138E-005  0.2257789E+03  0.7546771E-02  0.1157952E+00
         21   -1    0    0  501  502  0.00000000000E+00  0.00000000000E+00  0.95932715925E+02  0.95932715925E+02  0.00000000000E+00 0.  1.
         -2   -1    0    0    0  501 -0.00000000000E+00 -0.00000000000E+00 -0.32290725888E+03  0.32290725888E+03  0.00000000000E+00 0.  1.
         23    2    1    2    0    0 -0.44801455071E+02 -0.54489514742E+02 -0.12950687285E+03  0.17292113129E+03  0.90296234341E+02 0.  0.
        -24    2    1    2    0    0  0.97655127321E+02 -0.71996115620E+01 -0.10481044301E+03  0.16435307075E+03  0.80239295865E+02 0.  0.
         11    1    4    4    0    0  0.49723350253E+02  0.35182638542E+02 -0.64580391098E+02  0.88774188419E+02  0.00000000000E+00 0. -1.
        -12    1    4    4    0    0  0.47931777068E+02 -0.42382250104E+02 -0.40230051912E+02  0.75578882326E+02  0.00000000000E+00 0.  1.
        -11    1    3    3    0    0  0.20921217293E+02 -0.28276760255E+02 -0.14833107266E+02  0.38174514727E+02  0.00000000000E+00 0.  1.
         11    1    3    3    0    0 -0.65722672364E+02 -0.26212754487E+02 -0.11467376558E+03  0.13474661656E+03  0.00000000000E+00 0. -1.
         -1    1    1    2    0  502 -0.52853672250E+02  0.61689126304E+02  0.73427729054E+01  0.81565772775E+02  0.00000000000E+00 0.  1.
<scales pt_clust_5="13000.00000" pt_clust_6="13000.00000" pt_clust_7="13000.00000" pt_clust_8="13000.00000" pt_clust_9="13000.00000"></scales>
<clustering>
<clus scale="   80.239">  5  6 -1 -1</clus>
<clus scale="   81.235">  5  9 -1 -1</clus>
<clus scale="   90.296">  7  8 -1 -1</clus>
<clus scale="  114.585">  2  7  1 -1</clus>
<clus scale="  225.779">  1  5  2 -1</clus>
</clustering>
</event>
<event>
 9    1  0.2728138E-005  0.1465590E+04  0.7546771E-02  0.9310435E-01
         21   -1    0    0  501  502  0.00000000000E+00  0.00000000000E+00  0.22140519085E+04  0.22140519085E+04  0.00000000000E+00 0. -1.
          3   -1    0    0  502    0 -0.00000000000E+00 -0.00000000000E+00 -0.41876140004E+03  0.41876140004E+03  0.00000000000E+00 0. -1.
         23    2    1    2    0    0  0.56341656500E+02  0.29644656901E+03  0.27373003256E+00  0.31547848564E+03  0.92041563668E+02 0.  0.
        -24    2    1    2    0    0  0.81481812972E+02 -0.85116734080E+02 -0.23065230832E+03  0.27601396207E+03  0.95389075160E+02 0.  0.
         13    1    4    4    0    0  0.43383543783E+02 -0.42719391120E+02 -0.20436927284E+03  0.21324605021E+03  0.00000000000E+00 0. -1.
        -14    1    4    4    0    0  0.38098269189E+02 -0.42397342960E+02 -0.26283035476E+02  0.62767911859E+02  0.00000000000E+00 0.  1.
        -13    1    3    3    0    0  0.22253257105E+02  0.17215266599E+03  0.44534301866E+02  0.17920672951E+03  0.00000000000E+00 0.  1.
         13    1    3    3    0    0  0.34088399395E+02  0.12429390302E+03 -0.44260571833E+02  0.13627175614E+03  0.00000000000E+00 0. -1.
          4    1    1    2  501    0 -0.13782346947E+03 -0.21132983493E+03  0.20256690868E+04  0.20413208608E+04  0.00000000000E+00 0. -1.
<scales pt_clust_5="13000.00000" pt_clust_6="13000.00000" pt_clust_7="13000.00000" pt_clust_8="13000.00000" pt_clust_9="13000.00000"></scales>
<clustering>
<clus scale="   92.042">  7  8 -1 -1</clus>
<clus scale="   95.389">  5  6 -1 -1</clus>
<clus scale="  252.301">  5  9 -1 -1</clus>
<clus scale="  315.478">  2  7  1 -1</clus>
<clus scale=" 1465.590">  1  5  2 -1</clus>
</clustering>
</event>
<event>
 9    1  0.2728138E-005  0.2219346E+03  0.7546771E-02  0.1134972E+00
          3   -1    0    0  502    0 -0.00000000000E+00  0.00000000000E+00  0.70858116150E+02  0.70858116150E+02  0.00000000000E+00 0. -1.
         21   -1    0    0  501  502  0.00000000000E+00 -0.00000000000E+00 -0.66091671918E+03  0.66091671918E+03  0.00000000000E+00 0. -1.
         23    2    1    2    0    0  0.70634330614E+02  0.17206155002E+03 -0.32280993943E+03  0.38438911996E+03  0.94627442599E+02 0.  0.
        -24    2    1    2    0    0 -0.14474050241E+02 -0.83330136888E+02 -0.14042450776E+03  0.18272968823E+03  0.80732191458E+02 0.  0.
         11    1    4    4    0    0 -0.37469675860E+01 -0.93936215320E+02 -0.90184888317E+02  0.13027419697E+03  0.00000000000E+00 0. -1.
        -12    1    4    4    0    0 -0.10727082655E+02  0.10606078432E+02 -0.50239619445E+02  0.52455491266E+02  0.00000000000E+00 0.  1.
        -13    1    3    3    0    0  0.33561605533E+02  0.28155783213E+02 -0.15101084825E+03  0.15723678254E+03  0.00000000000E+00 0.  1.
         13    1    3    3    0    0  0.37072725081E+02  0.14390576681E+03 -0.17179909118E+03  0.22715233742E+03  0.00000000000E+00 0. -1.
          4    1    1    2  501    0 -0.56160280373E+02 -0.88731413131E+02 -0.12682415583E+03  0.16465602713E+03  0.00000000000E+00 0. -1.
<scales pt_clust_5="13000.00000" pt_clust_6="13000.00000" pt_clust_7="13000.00000" pt_clust_8="13000.00000" pt_clust_9="13000.00000"></scales>
<clustering>
<clus scale="   80.732">  5  6 -1 -1</clus>
<clus scale="   94.627">  7  8 -1 -1</clus>
<clus scale="  105.011">  5  9 -1 -1</clus>
<clus scale="  208.683">  1  7  2 -1</clus>
<clus scale="  221.935">  2  5  1 -1</clus>
</clustering>
</event>
<event>
 9    1  0.2728138E-005  0.4233051E+03  0.7546771E-02  0.1064643E+00
         21   -1    0    0  501  502  0.00000000000E+00  0.00000000000E+00  0.11327188219E+03  0.11327188219E+03  0.00000000000E+00 0. -1.
          1   -1    0    0  502    0 -0.00000000000E+00 -0.00000000000E+00 -0.92488277921E+03  0.92488277921E+03  0.00000000000E+00 0. -1.
         23    2    1    2    0    0  0.13201124347E+03  0.96311609112E+02 -0.10502088663E+03  0.21446987391E+03  0.90912296950E+02 0.  0.
        -24    2    1    2    0    0  0.49718574061E+02  0.99624963349E+02 -0.13273495476E+03  0.19065517374E+03  0.79584905169E+02 0.  0.
         11    1    4    4    0    0  0.17183475797E+02  0.10274818821E+03 -0.10131270286E+03  0.14531595157E+03  0.00000000000E+00 0. -1.
        -12    1    4    4    0    0  0.32535098264E+02 -0.31232248590E+01 -0.31422251897E+02  0.45339222169E+02  0.00000000000E+00 0.  1.
        -13    1    3    3    0    0  0.21704194694E+02 -0.14835422163E+02 -0.67977923471E+00  0.26298743656E+02  0.00000000000E+00 0.  1.
         13    1    3    3    0    0  0.11030704878E+03  0.11114703128E+03 -0.10434110739E+03  0.18817113026E+03  0.00000000000E+00 0. -1.
          2    1    1    2  501    0 -0.18172981753E+03 -0.19593657246E+03 -0.57385505563E+03  0.63302961374E+03  0.00000000000E+00 0. -1.
<scales pt_clust_5="13000.00000" pt_clust_6="13000.00000" pt_clust_7="13000.00000" pt_clust_8="13000.00000" pt_clust_9="13000.00000"></scales>
<clustering>
<clus scale="   79.585">  5  6 -1 -1</clus>
<clus scale="   90.912">  7  8 -1 -1</clus>
<clus scale="  186.997">  2  7  1 -1</clus>
<clus scale="  142.895">  5  9 -1 -1</clus>
<clus scale="  423.305">  1  5  2 -1</clus>
</clustering>
</event>
<event>
 9    1  0.2728138E-005  0.2646907E+03  0.7546771E-02  0.1114162E+00
         21   -1    0    0  501  502  0.00000000000E+00  0.00000000000E+00  0.76611445643E+02  0.76611445643E+02  0.00000000000E+00 0.  1.
          1   -1    0    0  502    0 -0.00000000000E+00 -0.00000000000E+00 -0.77981552691E+03  0.77981552691E+03  0.00000000000E+00 0. -1.
         23    2    1    2    0    0  0.12411822727E+03 -0.13687579784E+03 -0.19662879303E+03  0.28486797525E+03  0.91359524383E+02 0.  0.
        -24    2    1    2    0    0 -0.12076977889E+03  0.39855129667E+02 -0.20160998718E+03  0.25151516123E+03  0.80246610805E+02 0.  0.
         13    1    4    4    0    0 -0.48486964904E+02  0.58249176480E+02 -0.10222443443E+03  0.12725481257E+03  0.00000000000E+00 0. -1.
        -14    1    4    4    0    0 -0.72282813990E+02 -0.18394046813E+02 -0.99385552744E+02  0.12426034867E+03  0.00000000000E+00 0.  1.
        -11    1    3    3    0    0  0.64478568303E+02 -0.86512520529E+02 -0.50356391464E+02  0.11907001361E+03  0.00000000000E+00 0.  1.
         11    1    3    3    0    0  0.59639658965E+02 -0.50363277315E+02 -0.14627240157E+03  0.16579796164E+03  0.00000000000E+00 0. -1.
          2    1    1    2  501    0 -0.33484483748E+01  0.97020668178E+02 -0.30496530105E+03  0.32004383607E+03  0.00000000000E+00 0. -1.
<scales pt_clust_5="13000.00000" pt_clust_6="13000.00000" pt_clust_7="13000.00000" pt_clust_8="13000.00000" pt_clust_9="13000.00000"></scales>
<clustering>
<clus scale="   80.247">  5  6 -1 -1</clus>
<clus scale="   91.360">  7  8 -1 -1</clus>
<clus scale="   97.078">  5  9 -1 -1</clus>
<clus scale="  206.124">  2  7  1 -1</clus>
<clus scale="  264.691">  1  5  2 -1</clus>
</clustering>
</event>
<event>
 9    1  0.2728138E-005  0.1559563E+03  0.7546771E-02  0.1206707E+00
         21   -1    0    0  501  502  0.00000000000E+00  0.00000000000E+00  0.32599819035E+03  0.32599819035E+03  0.00000000000E+00 0. -1.
          3   -1    0    0  502    0 -0.00000000000E+00 -0.00000000000E+00 -0.85764710727E+02  0.85764710727E+02  0.00000000000E+00 0. -1.
         23    2    1    2    0    0 -0.37081956524E+02  0.66399329664E+02 -0.98114703469E+01  0.11706838624E+03  0.88457897487E+02 0.  0.
        -24    2    1    2    0    0 -0.15655824799E+02 -0.54751575330E+02  0.18889294970E+03  0.21310707158E+03  0.80568217420E+02 0.  0.
         13    1    4    4    0    0 -0.32351118330E+02 -0.16125753725E+02  0.15475745222E+03  0.15892294928E+03  0.00000000000E+00 0. -1.
        -14    1    4    4    0    0  0.16695293531E+02 -0.38625821604E+02  0.34135497480E+02  0.54184122295E+02  0.00000000000E+00 0.  1.
        -13    1    3    3    0    0 -0.28046573128E+02 -0.10831067348E+02 -0.23443858769E+02  0.38125277679E+02  0.00000000000E+00 0.  1.
         13    1    3    3    0    0 -0.90353833965E+01  0.77230397012E+02  0.13632388422E+02  0.78943108565E+02  0.00000000000E+00 0. -1.
          4    1    1    2  501    0  0.52737781324E+02 -0.11647754335E+02  0.61152000265E+02  0.81587443252E+02  0.00000000000E+00 0. -1.
<scales pt_clust_5="13000.00000" pt_clust_6="13000.00000" pt_clust_7="13000.00000" pt_clust_8="13000.00000" pt_clust_9="13000.00000"></scales>
<clustering>
<clus scale="   80.568">  5  6 -1 -1</clus>
<clus scale="   54.009">  5  9 -1 -1</clus>
<clus scale="   88.458">  7  8 -1 -1</clus>
<clus scale="  116.657">  2  7  1 -1</clus>
<clus scale="  155.956">  1  5  2 -1</clus>
</clustering>
</event>
<event>
 9    1  0.2728138E-005  0.1885738E+03  0.7546771E-02  0.1188032E+00
          1   -1    0    0  502    0 -0.00000000000E+00  0.00000000000E+00  0.36821400129E+03  0.36821400129E+03  0.00000000000E+00 0. -1.
         21   -1    0    0  501  502  0.00000000000E+00 -0.00000000000E+00 -0.56271438907E+02  0.56271438907E+02  0.00000000000E+00 0. -1.
         23    2    1    2    0    0  0.12075451608E+02  0.25328273486E+01  0.10143413340E+03  0.14186577350E+03  0.98411292675E+02 0.  0.
        -24    2    1    2    0    0 -0.62499131069E+02 -0.38617422485E+02  0.71808788923E+02  0.13069127696E+03  0.80785277140E+02 0.  0.
         13    1    4    4    0    0  0.52760902772E+01 -0.40255816386E+02  0.19378466062E+02  0.44987696412E+02  0.00000000000E+00 0. -1.
        -14    1    4    4    0    0 -0.67775221346E+02  0.16383939018E+01  0.52430322861E+02  0.85703580546E+02  0.00000000000E+00 0.  1.
        -11    1    3    3    0    0  0.98204436257E+01 -0.37142461500E+02  0.93850026262E+02  0.10140922536E+03  0.00000000000E+00 0.  1.
         11    1    3    3    0    0  0.22550079828E+01  0.39675288849E+02  0.75841071421E+01  0.40456548139E+02  0.00000000000E+00 0. -1.
          2    1    1    2  501    0  0.50423679460E+02  0.36084595136E+02  0.13869964005E+03  0.15192838973E+03  0.00000000000E+00 0. -1.
<scales pt_clust_5="13000.00000" pt_clust_6="13000.00000" pt_clust_7="13000.00000" pt_clust_8="13000.00000" pt_clust_9="13000.00000"></scales>
<clustering>
<clus scale="   80.785">  5  6 -1 -1</clus>
<clus scale="   62.005">  5  9 -1 -1</clus>
<clus scale="   98.411">  7  8 -1 -1</clus>
<clus scale="   99.182">  1  7  2 -1</clus>
<clus scale="  188.574">  2  5  1 -1</clus>
</clustering>
</event>
<event>
 9    1  0.2728138E-005  0.2828456E+03  0.7546771E-02  0.1103729E+00
          3   -1    0    0  502    0 -0.00000000000E+00  0.00000000000E+00  0.21894716643E+03  0.21894716643E+03  0.00000000000E+00 0. -1.
         21   -1    0    0  501  502  0.00000000000E+00 -0.00000000000E+00 -0.42442807201E+03  0.42442807201E+03  0.00000000000E+00 0. -1.
         23    2    1    2    0    0  0.74100552676E+02  0.18776855181E+03  0.86533510954E+02  0.23683613315E+03  0.88630606955E+02 0.  0.
        -24    2    1    2    0    0 -0.31434561482E+02 -0.21450985017E+02 -0.18090740841E+03  0.20202336730E+03  0.81471922183E+02 0.  0.
         13    1    4    4    0    0 -0.48323179813E+02  0.34489092673E+01 -0.15474840873E+03  0.16215453952E+03  0.00000000000E+00 0. -1.
        -14    1    4    4    0    0  0.16888618331E+02 -0.24899894285E+02 -0.26158999686E+02  0.39868827786E+02  0.00000000000E+00 0.  1.
        -13    1    3    3    0    0  0.15340523770E+02  0.80974695536E+02 -0.76886689353E+01  0.82772873677E+02  0.00000000000E+00 0.  1.
         13    1    3    3    0    0  0.58760028906E+02  0.10679385628E+03  0.94222179889E+02  0.15406325947E+03  0.00000000000E+00 0. -1.
          4    1    1    2  501    0 -0.42665991194E+02 -0.16631756679E+03 -0.11110700812E+03  0.20451573798E+03  0.00000000000E+00 0. -1.
<scales pt_clust_5="13000.00000" pt_clust_6="13000.00000" pt_clust_7="13000.00000" pt_clust_8="13000.00000" pt_clust_9="13000.00000"></scales>
<clustering>
<clus scale="   81.472">  5  6 -1 -1</clus>
<clus scale="   88.631">  7  8 -1 -1</clus>
<clus scale="  171.703">  5  9 -1 -1</clus>
<clus scale="  220.462">  1  7  2 -1</clus>
<clus scale="  282.846">  2  5  1 -1</clus>
</clustering>
</event>
<event>
 9    1  0.2728138E-005  0.1078987E+03  0.7546771E-02  0.1269358E+00
         21   -1    0    0  501  502  0.00000000000E+00  0.00000000000E+00  0.16849943034E+02  0.16849943034E+02  0.00000000000E+00 0. -1.
          1   -1    0    0  502    0 -0.00000000000E+00 -0.00000000000E+00 -0.67215704730E+03  0.67215704730E+03  0.00000000000E+00 0. -1.
         23    2    1    2    0    0  0.41010369178E+01 -0.26202930178E+02 -0.39916373192E+03  0.41106535338E+03  0.94549605033E+02 0.  0.
        -24    2    1    2    0    0  0.23348978650E+02  0.40389263099E+01 -0.15882688205E+03  0.17442716596E+03  0.68098238112E+02 0.  0.
         13    1    4    4    0    0  0.35959179577E+02  0.27625716084E+02 -0.98411118038E+02  0.10835585327E+03  0.00000000000E+00 0. -1.
        -14    1    4    4    0    0 -0.12610200927E+02 -0.23586789774E+02 -0.60415764015E+02  0.66071312692E+02  0.00000000000E+00 0.  1.
        -13    1    3    3    0    0  0.44030153352E+02  0.57972992285E+01 -0.13917018038E+03  0.14608422978E+03  0.00000000000E+00 0. -1.
         13    1    3    3    0    0 -0.39929116434E+02 -0.32000229406E+02 -0.25999355154E+03  0.26498112360E+03  0.00000000000E+00 0.  1.
          2    1    1    2  501    0 -0.27450015567E+02  0.22164003868E+02 -0.97316490291E+02  0.10351447099E+03  0.00000000000E+00 0. -1.
<scales pt_clust_5="13000.00000" pt_clust_6="13000.00000" pt_clust_7="13000.00000" pt_clust_8="13000.00000" pt_clust_9="13000.00000"></scales>
<clustering>
<clus scale="   68.098">  5  6 -1 -1</clus>
<clus scale="   35.281">  5  9 -1 -1</clus>
<clus scale="   94.550">  7  8 -1 -1</clus>
<clus scale="   98.199">  2  7  1 -1</clus>
<clus scale="  107.899">  1  5  2 -1</clus>
</clustering>
</event>
<event>
 9    1  0.2728138E-005  0.1597721E+03  0.7546771E-02  0.1203915E+00
          3   -1    0    0  502    0 -0.00000000000E+00  0.00000000000E+00  0.24264981598E+03  0.24264981598E+03  0.00000000000E+00 0. -1.
         21   -1    0    0  501  502  0.00000000000E+00 -0.00000000000E+00 -0.95502729352E+02  0.95502729352E+02  0.00000000000E+00 0. -1.
         23    2    1    2    0    0  0.29944513485E+02  0.32872811969E+02  0.13563454614E+03  0.17796624450E+03  0.10629185492E+03 0.  0.
        -24    2    1    2    0    0 -0.49429415208E+02  0.48958660556E+01 -0.31927909031E+02  0.99414538556E+02  0.79978887895E+02 0.  0.
         11    1    4    4    0    0 -0.64089667995E+02  0.19528980087E+02 -0.39004409991E+02  0.77525548084E+02  0.00000000000E+00 0. -1.
        -12    1    4    4    0    0  0.14660252787E+02 -0.14633114031E+02  0.70765009596E+01  0.21888990472E+02  0.00000000000E+00 0.  1.
        -13    1    3    3    0    0 -0.31956565128E+02  0.21177318034E+02  0.13684015468E+02  0.40705689200E+02  0.00000000000E+00 0.  1.
         13    1    3    3    0    0  0.61901078613E+02  0.11695493935E+02  0.12195053067E+03  0.13726055531E+03  0.00000000000E+00 0. -1.
          4    1    1    2  501    0  0.19484901724E+02 -0.37768678025E+02  0.43440449516E+02  0.60771762267E+02  0.00000000000E+00 0. -1.
<scales pt_clust_5="13000.00000" pt_clust_6="13000.00000" pt_clust_7="13000.00000" pt_clust_8="13000.00000" pt_clust_9="13000.00000"></scales>
<clustering>
<clus scale="   79.979">  5  6 -1 -1</clus>
<clus scale="   42.499">  5  9 -1 -1</clus>
<clus scale="  106.292">  7  8 -1 -1</clus>
<clus scale="  115.218">  1  7  2 -1</clus>
<clus scale="  159.772">  2  5  1 -1</clus>
</clustering>
</event>
<event>
 9    1  0.2728138E-005  0.2263858E+03  0.7546771E-02  0.1163239E+00
         21   -1    0    0  501  502  0.00000000000E+00  0.00000000000E+00  0.44446681158E+02  0.44446681158E+02  0.00000000000E+00 0. -1.
          1   -1    0    0  502    0 -0.00000000000E+00 -0.00000000000E+00 -0.69605207681E+03  0.69605207681E+03  0.00000000000E+00 0. -1.
         23    2    1    2    0    0  0.18041170642E+02  0.36439087164E+02 -0.34517762813E+03  0.35951514473E+03  0.91925259964E+02 0.  0.
        -24    2    1    2    0    0 -0.63374378342E+02  0.35535646058E+02 -0.26524386521E+03  0.28647659893E+03  0.80221192528E+02 0.  0.
         13    1    4    4    0    0 -0.55029402509E+02  0.45634781849E+02 -0.11329917983E+03  0.13396817758E+03  0.00000000000E+00 0. -1.
        -14    1    4    4    0    0 -0.83449758327E+01 -0.10099135791E+02 -0.15194468539E+03  0.15250842135E+03  0.00000000000E+00 0.  1.
        -11    1    3    3    0    0  0.47469959709E+02  0.79653089498E+01 -0.10046921152E+03  0.11140424446E+03  0.00000000000E+00 0. -1.
         11    1    3    3    0    0 -0.29428789066E+02  0.28473778215E+02 -0.24470841662E+03  0.24811090027E+03  0.00000000000E+00 0.  1.
          2    1    1    2  501    0  0.45333207700E+02 -0.71974733222E+02 -0.41183902304E+02  0.94507014300E+02  0.00000000000E+00 0. -1.
<scales pt_clust_5="13000.00000" pt_clust_6="13000.00000" pt_clust_7="13000.00000" pt_clust_8="13000.00000" pt_clust_9="13000.00000"></scales>
<clustering>
<clus scale="   80.221">  5  6 -1 -1</clus>
<clus scale="   85.062">  5  9 -1 -1</clus>
<clus scale="   91.925">  7  8 -1 -1</clus>
<clus scale="  100.516">  2  7  1 -1</clus>
<clus scale="  226.386">  1  5  2 -1</clus>
</clustering>
</event>
<event>
 9    1  0.2728138E-005  0.1618665E+03  0.7546771E-02  0.1205147E+00
         21   -1    0    0  501  502  0.00000000000E+00  0.00000000000E+00  0.13845922308E+03  0.13845922308E+03  0.00000000000E+00 0. -1.
          1   -1    0    0  502    0 -0.00000000000E+00 -0.00000000000E+00 -0.14693690588E+03  0.14693690588E+03  0.00000000000E+00 0. -1.
         23    2    1    2    0    0  0.28681069406E+02  0.47448784119E+02 -0.49046371525E+02  0.11852322018E+03  0.92564660128E+02 0.  0.
        -24    2    1    2    0    0  0.28939219192E+01 -0.82187916901E+02  0.25423057772E+02  0.11754565911E+03  0.80046371816E+02 0.  0.
         13    1    4    4    0    0  0.31604751330E+02 -0.35877992777E+02  0.38643535711E+02  0.61476934899E+02  0.00000000000E+00 0. -1.
        -14    1    4    4    0    0 -0.28710829411E+02 -0.46309924124E+02 -0.13220477939E+02  0.56068724212E+02  0.00000000000E+00 0.  1.
        -11    1    3    3    0    0 -0.70996175622E+01 -0.22249835238E+02  0.42888111413E+01  0.23745602512E+02  0.00000000000E+00 0.  1.
         11    1    3    3    0    0  0.35780686968E+02  0.69698619357E+02 -0.53335182667E+02  0.94777617665E+02  0.00000000000E+00 0. -1.
          2    1    1    2  501    0 -0.31574991325E+02  0.34739132782E+02  0.15145630957E+02  0.49327249677E+02  0.00000000000E+00 0. -1.
<scales pt_clust_5="13000.00000" pt_clust_6="13000.00000" pt_clust_7="13000.00000" pt_clust_8="13000.00000" pt_clust_9="13000.00000"></scales>
<clustering>
<clus scale="   80.046">  5  6 -1 -1</clus>
<clus scale="   46.945">  5  9 -1 -1</clus>
<clus scale="   92.565">  7  8 -1 -1</clus>
<clus scale="  107.899">  2  7  1 -1</clus>
<clus scale="  161.866">  1  5  2 -1</clus>
</clustering>
</event>
<event>
 9    1  0.2728138E-005  0.5799588E+03  0.7546771E-02  0.1046799E+00
          1   -1    0    0  502    0 -0.00000000000E+00  0.00000000000E+00  0.15249216794E+03  0.15249216794E+03  0.00000000000E+00 0. -1.
         21   -1    0    0  501  502  0.00000000000E+00 -0.00000000000E+00 -0.80395354594E+03  0.80395354594E+03  0.00000000000E+00 0. -1.
         23    2    1    2    0    0 -0.67893540656E+02  0.42628086693E+02 -0.11383792376E+03  0.16562890873E+03  0.89706052647E+02 0.  0.
        -24    2    1    2    0    0 -0.10789401804E+03 -0.12800435181E+03 -0.56398691310E+03  0.59362298071E+03  0.79251320952E+02 0.  0.
         13    1    4    4    0    0 -0.35890396236E+02 -0.98302888965E+02 -0.27234027300E+03  0.29175469631E+03  0.00000000000E+00 0. -1.
        -14    1    4    4    0    0 -0.72003621803E+02 -0.29701462846E+02 -0.29164664009E+03  0.30186828440E+03  0.00000000000E+00 0.  1.
        -11    1    3    3    0    0 -0.21568942332E+02  0.63113990174E+02 -0.46237477251E+02  0.81157250641E+02  0.00000000000E+00 0. -1.
         11    1    3    3    0    0 -0.46324598325E+02 -0.20485903481E+02 -0.67600446510E+02  0.84471658085E+02  0.00000000000E+00 0.  1.
          2    1    1    2  501    0  0.17578755870E+03  0.85376265119E+02  0.26363458860E+02  0.19719382445E+03  0.00000000000E+00 0. -1.
<scales pt_clust_5="13000.00000" pt_clust_6="13000.00000" pt_clust_7="13000.00000" pt_clust_8="13000.00000" pt_clust_9="13000.00000"></scales>
<clustering>
<clus scale="   79.251">  5  6 -1 -1</clus>
<clus scale="   89.706">  7  8 -1 -1</clus>
<clus scale="  120.307">  1  7  2 -1</clus>
<clus scale="  168.973">  5  9 -1 -1</clus>
<clus scale="  579.959">  2  5  1 -1</clus>
</clustering>
</event>
<event>
 9    1  0.2728138E-005  0.2920417E+03  0.7546771E-02  0.1124006E+00
          1   -1    0    0  502    0 -0.00000000000E+00  0.00000000000E+00  0.74315767650E+03  0.74315767650E+03  0.00000000000E+00 0. -1.
         21   -1    0    0  501  502  0.00000000000E+00 -0.00000000000E+00 -0.58404098697E+02  0.58404098697E+02  0.00000000000E+00 0. -1.
         23    2    1    2    0    0  0.74448460164E+02 -0.24779574758E+02  0.14785983155E+03  0.19037990591E+03  0.90693871037E+02 0.  0.
        -24    2    1    2    0    0  0.76135911132E+02 -0.12439041052E+02  0.10769635035E+03  0.15481438261E+03  0.80109815118E+02 0.  0.
         11    1    4    4    0    0  0.85478338441E+02  0.10087764961E+02  0.76007820930E+02  0.11482812455E+03  0.00000000000E+00 0. -1.
        -12    1    4    4    0    0 -0.93424273086E+01 -0.22526806013E+02  0.31688529416E+02  0.39986258061E+02  0.00000000000E+00 0.  1.
        -11    1    3    3    0    0  0.71339260925E+02  0.18650444034E+02  0.11138162896E+03  0.13357767958E+03  0.00000000000E+00 0.  1.
         11    1    3    3    0    0  0.31091992385E+01 -0.43430018792E+02  0.36478202584E+02  0.56802226329E+02  0.00000000000E+00 0. -1.
          2    1    1    2  501    0 -0.15058437130E+03  0.37218615809E+02  0.42919739591E+03  0.45636748668E+03  0.00000000000E+00 0. -1.
<scales pt_clust_5="13000.00000" pt_clust_6="13000.00000" pt_clust_7="13000.00000" pt_clust_8="13000.00000" pt_clust_9="13000.00000"></scales>
<clustering>
<clus scale="   80.110">  5  6 -1 -1</clus>
<clus scale="   90.694">  7  8 -1 -1</clus>
<clus scale="  119.925">  1  7  2 -1</clus>
<clus scale="   94.902">  5  9 -1 -1</clus>
<clus scale="  292.042">  2  5  1 -1</clus>
</clustering>
</event>
<event>
 9    1  0.2728138E-005  0.7751794E+03  0.7546771E-02  0.1019123E+00
          1   -1    0    0  502    0 -0.00000000000E+00  0.00000000000E+00  0.19852676335E+03  0.19852676335E+03  0.00000000000E+00 0. -1.
         21   -1    0    0  501  502  0.00000000000E+00 -0.00000000000E+00 -0.99643986901E+03  0.99643986901E+03  0.00000000000E+00 0. -1.
         23    2    1    2    0    0 -0.53048773441E+02  0.49403009528E+02 -0.11387114311E+03  0.16113080801E+03  0.87986762322E+02 0.  0.
        -24    2    1    2    0    0 -0.23744107532E+03  0.24142996062E+03 -0.41907776706E+03  0.54478143713E+03  0.80585043641E+02 0.  0.
         13    1    4    4    0    0 -0.16881783933E+03  0.13796745470E+03 -0.31320171535E+03  0.38161472185E+03  0.00000000000E+00 0. -1.
        -14    1    4    4    0    0 -0.68623235992E+02  0.10346250592E+03 -0.10587605171E+03  0.16316671528E+03  0.00000000000E+00 0.  1.
        -11    1    3    3    0    0 -0.37946086878E+01  0.58741151634E+02 -0.84649997243E+02  0.10310452940E+03  0.00000000000E+00 0.  1.
         11    1    3    3    0    0 -0.49254164753E+02 -0.93381421059E+01 -0.29221145868E+02  0.58026278610E+02  0.00000000000E+00 0. -1.
          2    1    1    2  501    0  0.29048984876E+03 -0.29083297015E+03 -0.26496419548E+03  0.48905438721E+03  0.00000000000E+00 0. -1.
<scales pt_clust_5="13000.00000" pt_clust_6="13000.00000" pt_clust_7="13000.00000" pt_clust_8="13000.00000" pt_clust_9="13000.00000"></scales>
<clustering>
<clus scale="   80.585">  5  6 -1 -1</clus>
<clus scale="   87.987">  7  8 -1 -1</clus>
<clus scale="  114.002">  1  7  2 -1</clus>
<clus scale="  364.652">  5  9 -1 -1</clus>
<clus scale="  775.179">  2  5  1 -1</clus>
</clustering>
</event>
<event>
 9    1  0.2728138E-005  0.1739635E+03  0.7546771E-02  0.1194164E+00
         21   -1    0    0  501  502  0.00000000000E+00  0.00000000000E+00  0.21494393661E+03  0.21494393661E+03  0.00000000000E+00 0. -1.
          3   -1    0    0  502    0 -0.00000000000E+00 -0.00000000000E+00 -0.11960426001E+03  0.11960426001E+03  0.00000000000E+00 0. -1.
         23    2    1    2    0    0  0.56056201405E+02  0.20606907251E+02 -0.36544734222E+02  0.11624382955E+03  0.92790990767E+02 0.  0.
        -24    2    1    2    0    0 -0.12088372640E+02 -0.62981646616E+02  0.11683519348E+03  0.15541345004E+03  0.79937859943E+02 0.  0.
         11    1    4    4    0    0 -0.15452728401E+02 -0.41186652613E+02  0.12451824660E+03  0.13206029268E+03  0.00000000000E+00 0. -1.
        -12    1    4    4    0    0  0.33643557607E+01 -0.21794994003E+02 -0.76830531105E+01  0.23353157353E+02  0.00000000000E+00 0.  1.
        -13    1    3    3    0    0  0.55785186574E+02 -0.23407904577E+02 -0.39300749397E+02  0.72141984593E+02  0.00000000000E+00 0. -1.
         13    1    3    3    0    0  0.27101483088E+00  0.44014811828E+02  0.27560151753E+01  0.44101844961E+02  0.00000000000E+00 0.  1.
          4    1    1    2  501    0 -0.43967828765E+02  0.42374739365E+02  0.15049217333E+02  0.62890917030E+02  0.00000000000E+00 0. -1.
<scales pt_clust_5="13000.00000" pt_clust_6="13000.00000" pt_clust_7="13000.00000" pt_clust_8="13000.00000" pt_clust_9="13000.00000"></scales>
<clustering>
<clus scale="   79.938">  5  6 -1 -1</clus>
<clus scale="   61.064">  5  9 -1 -1</clus>
<clus scale="   92.791">  7  8 -1 -1</clus>
<clus scale="  110.350">  2  7  1 -1</clus>
<clus scale="  173.963">  1  5  2 -1</clus>
</clustering>
</event>
<event>
 9    1  0.2728138E-005  0.1785103E+03  0.7546771E-02  0.1193141E+00
         21   -1    0    0  501  502  0.00000000000E+00  0.00000000000E+00  0.12654685100E+03  0.12654685100E+03  0.00000000000E+00 0. -1.
          1   -1    0    0  502    0 -0.00000000000E+00 -0.00000000000E+00 -0.38930678200E+03  0.38930678200E+03  0.00000000000E+00 0. -1.
         23    2    1    2    0    0  0.48609230113E+02 -0.17999551832E+02 -0.31336080443E+03  0.33031019762E+03  0.90680713383E+02 0.  0.
        -24    2    1    2    0    0 -0.81573358216E+02 -0.31734238978E+02  0.27161832644E+02  0.12143826925E+03  0.79675676294E+02 0.  0.
         13    1    4    4    0    0 -0.76242555112E+02 -0.33913124136E+02  0.50408639630E+02  0.97488759086E+02  0.00000000000E+00 0. -1.
        -14    1    4    4    0    0 -0.53308031038E+01  0.21788851579E+01 -0.23246806987E+02  0.23949510169E+02  0.00000000000E+00 0.  1.
        -11    1    3    3    0    0  0.46747967480E+02  0.25538992229E+02 -0.10856982398E+03  0.12093394588E+03  0.00000000000E+00 0. -1.
         11    1    3    3    0    0  0.18612626331E+01 -0.43538544061E+02 -0.20479098045E+03  0.20937625174E+03  0.00000000000E+00 0.  1.
          2    1    1    2  501    0  0.32964128102E+02  0.49733790811E+02  0.23439040792E+02  0.64105166119E+02  0.00000000000E+00 0. -1.
<scales pt_clust_5="13000.00000" pt_clust_6="13000.00000" pt_clust_7="13000.00000" pt_clust_8="13000.00000" pt_clust_9="13000.00000"></scales>
<clustering>
<clus scale="   79.676">  5  6 -1 -1</clus>
<clus scale="   59.666">  5  9 -1 -1</clus>
<clus scale="   90.681">  7  8 -1 -1</clus>
<clus scale="  104.450">  2  7  1 -1</clus>
<clus scale="  178.510">  1  5  2 -1</clus>
</clustering>
</event>
<event>
 9    1  0.2728138E-005  0.2658685E+03  0.7546771E-02  0.1120231E+00
         21   -1    0    0  501  502  0.00000000000E+00  0.00000000000E+00  0.99243228006E+02  0.99243228006E+02  0.00000000000E+00 0.  1.
         -2   -1    0    0    0  501 -0.00000000000E+00 -0.00000000000E+00 -0.49500983955E+03  0.49500983955E+03  0.00000000000E+00 0.  1.
         23    2    1    2    0    0  0.87447296577E+02 -0.10442898149E+03 -0.19005357193E+03  0.25809254742E+03  0.10926555257E+03 0.  0.
        -24    2    1    2    0    0  0.32351718855E+02  0.76560657594E+02 -0.31582336489E+02  0.12297058288E+03  0.84947938596E+02 0.  0.
         13    1    4    4    0    0 -0.11742353527E+02  0.17505956787E+02 -0.43475983368E+02  0.48316689862E+02  0.00000000000E+00 0. -1.
        -14    1    4    4    0    0  0.44094072382E+02  0.59054700808E+02  0.11893646879E+02  0.74653893019E+02  0.00000000000E+00 0.  1.
        -11    1    3    3    0    0 -0.25485319771E+02 -0.13854210412E+02 -0.22852629540E+02  0.36928083444E+02  0.00000000000E+00 0. -1.
         11    1    3    3    0    0  0.11293261635E+03 -0.90574771079E+02 -0.16720094239E+03  0.22116446398E+03  0.00000000000E+00 0.  1.
         -1    1    1    2    0  502 -0.11979901543E+03  0.27868323896E+02 -0.17413070312E+03  0.21318993725E+03  0.00000000000E+00 0.  1.
<scales pt_clust_5="13000.00000" pt_clust_6="13000.00000" pt_clust_7="13000.00000" pt_clust_8="13000.00000" pt_clust_9="13000.00000"></scales>
<clustering>
<clus scale="   84.948">  5  6 -1 -1</clus>
<clus scale="  109.266">  7  8 -1 -1</clus>
<clus scale="  122.998">  5  9 -1 -1</clus>
<clus scale="  174.618">  2  7  1 -1</clus>
<clus scale="  265.868">  1  5  2 -1</clus>
</clustering>
</event>
<event>
 9    1  0.2728138E-005  0.5120955E+03  0.7546771E-02  0.1059847E+00
          1   -1    0    0  502    0 -0.00000000000E+00  0.00000000000E+00  0.54352332460E+03  0.54352332460E+03  0.00000000000E+00 0. -1.
         21   -1    0    0  501  502  0.00000000000E+00 -0.00000000000E+00 -0.18945194258E+03  0.18945194258E+03  0.00000000000E+00 0.  1.
         23    2    1    2    0    0  0.69024500257E+02  0.39501027279E+02  0.11896463505E+03  0.16948884446E+03  0.90824948181E+02 0.  0.
        -24    2    1    2    0    0  0.13514144085E+03 -0.44302141623E+02 -0.82803263598E+02  0.18563253955E+03  0.85890456333E+02 0.  0.
         11    1    4    4    0    0  0.76179631699E+02 -0.29965523042E+02  0.13637363272E+01  0.81872636660E+02  0.00000000000E+00 0. -1.
        -12    1    4    4    0    0  0.58961809148E+02 -0.14336618582E+02 -0.84166999925E+02  0.10375990289E+03  0.00000000000E+00 0.  1.
        -13    1    3    3    0    0  0.34904714553E+02 -0.23640923050E+02  0.18539935648E+02  0.46053898364E+02  0.00000000000E+00 0.  1.
         13    1    3    3    0    0  0.34119785704E+02  0.63141950330E+02  0.10042469940E+03  0.12343494609E+03  0.00000000000E+00 0. -1.
          2    1    1    2  501    0 -0.20416594110E+03  0.48011143442E+01  0.31791001057E+03  0.37785388317E+03  0.00000000000E+00 0. -1.
<scales pt_clust_5="13000.00000" pt_clust_6="13000.00000" pt_clust_7="13000.00000" pt_clust_8="13000.00000" pt_clust_9="13000.00000"></scales>
<clustering>
<clus scale="   85.890">  5  6 -1 -1</clus>
<clus scale="   90.825">  7  8 -1 -1</clus>
<clus scale="  120.722">  1  7  2 -1</clus>
<clus scale="  149.273">  5  9 -1 -1</clus>
<clus scale="  512.095">  2  5  1 -1</clus>
</clustering>
</event>
<event>
 9    1  0.2728138E-005  0.1560148E+03  0.7546771E-02  0.1214664E+00
         21   -1    0    0  501  502  0.00000000000E+00  0.00000000000E+00  0.31011092187E+02  0.31011092187E+02  0.00000000000E+00 0. -1.
          1   -1    0    0  502    0 -0.00000000000E+00 -0.00000000000E+00 -0.55088908332E+03  0.55088908332E+03  0.00000000000E+00 0. -1.
         23    2    1    2    0    0 -0.18752821576E+02  0.31287152524E+02 -0.26962503742E+03  0.28699820638E+03  0.91322261426E+02 0.  0.
        -24    2    1    2    0    0  0.46774536140E+01 -0.55623285590E+02 -0.92850979253E+02  0.13500905209E+03  0.80562468462E+02 0.  0.
         13    1    4    4    0    0 -0.82837982478E+01 -0.60588801889E+02 -0.25522509609E+02  0.66264792496E+02  0.00000000000E+00 0. -1.
        -14    1    4    4    0    0  0.12961251862E+02  0.49655162990E+01 -0.67328469644E+02  0.68744259590E+02  0.00000000000E+00 0.  1.
        -11    1    3    3    0    0  0.33634227573E+02  0.28051518564E+02 -0.94084846407E+02  0.10377912739E+03  0.00000000000E+00 0. -1.
         11    1    3    3    0    0 -0.52387049149E+02  0.32356339593E+01 -0.17554019101E+03  0.18321907899E+03  0.00000000000E+00 0.  1.
          2    1    1    2  501    0  0.14075367961E+02  0.24336133067E+02 -0.15740197447E+03  0.15989291705E+03  0.00000000000E+00 0. -1.
<scales pt_clust_5="13000.00000" pt_clust_6="13000.00000" pt_clust_7="13000.00000" pt_clust_8="13000.00000" pt_clust_9="13000.00000"></scales>
<clustering>
<clus scale="   80.562">  5  6 -1 -1</clus>
<clus scale="   28.113">  5  9 -1 -1</clus>
<clus scale="   91.322">  7  8 -1 -1</clus>
<clus scale="   98.338">  2  7  1 -1</clus>
<clus scale="  156.015">  1  5  2 -1</clus>
</clustering>
</event>
<event>
 9    1  0.2728138E-005  0.5546792E+03  0.7546771E-02  0.1036553E+00
         21   -1    0    0  501  502  0.00000000000E+00  0.00000000000E+00  0.14710022608E+03  0.14710022608E+03  0.00000000000E+00 0.  1.
          1   -1    0    0  502    0 -0.00000000000E+00 -0.00000000000E+00 -0.10070053484E+04  0.10070053484E+04  0.00000000000E+00 0. -1.
         23    2    1    2    0    0  0.30055418399E+01  0.16340770577E+03 -0.91661605413E+02  0.20654705953E+03  0.86883406388E+02 0.  0.
        -24    2    1    2    0    0 -0.68125181409E+01  0.15877114184E+03 -0.95942751517E+02  0.20203720603E+03  0.79745439771E+02 0.  0.
         13    1    4    4    0    0 -0.11587573882E+02  0.39336282714E+02  0.10116761310E+02  0.42236996409E+02  0.00000000000E+00 0. -1.
        -14    1    4    4    0    0  0.47750557412E+01  0.11943485913E+03 -0.10605951283E+03  0.15980020962E+03  0.00000000000E+00 0.  1.
        -11    1    3    3    0    0 -0.28266776037E+02  0.14359909471E+03 -0.61313695287E+02  0.15867917273E+03  0.00000000000E+00 0.  1.
         11    1    3    3    0    0  0.31272317877E+02  0.19808611066E+02 -0.30347910126E+02  0.47867886801E+02  0.00000000000E+00 0. -1.
          2    1    1    2  501    0  0.38069763010E+01 -0.32217884762E+03 -0.67230076544E+03  0.74552130897E+03  0.00000000000E+00 0. -1.
<scales pt_clust_5="13000.00000" pt_clust_6="13000.00000" pt_clust_7="13000.00000" pt_clust_8="13000.00000" pt_clust_9="13000.00000"></scales>
<clustering>
<clus scale="   79.745">  5  6 -1 -1</clus>
<clus scale="   86.883">  7  8 -1 -1</clus>
<clus scale="  185.094">  2  7  1 -1</clus>
<clus scale="  187.256">  5  9 -1 -1</clus>
<clus scale="  554.679">  1  5  2 -1</clus>
</clustering>
</event>
<event>
 9    1  0.2728138E-005  0.3821727E+03  0.7546771E-02  0.1083783E+00
         21   -1    0    0  501  502  0.00000000000E+00  0.00000000000E+00  0.44791150444E+03  0.44791150444E+03  0.00000000000E+00 0. -1.
          1   -1    0    0  502    0 -0.00000000000E+00 -0.00000000000E+00 -0.26125968363E+03  0.26125968363E+03  0.00000000000E+00 0. -1.
         23    2    1    2    0    0  0.92512729319E+02 -0.76005276435E+02 -0.14045054077E+03  0.20612852941E+03  0.91799831704E+02 0.  0.
        -24    2    1    2    0    0  0.46944668379E+02 -0.43998299585E+02 -0.31358875967E+01  0.12501286453E+03  0.10713883634E+03 0.  0.
         11    1    4    4    0    0  0.40589140797E+02  0.10254638417E+02  0.38073176037E+02  0.56588008388E+02  0.00000000000E+00 0. -1.
        -12    1    4    4    0    0  0.63555275815E+01 -0.54252938001E+02 -0.41209063634E+02  0.68424856143E+02  0.00000000000E+00 0.  1.
        -11    1    3    3    0    0  0.61890079124E+02 -0.82882814291E+02 -0.14083456857E+03  0.17474071793E+03  0.00000000000E+00 0. -1.
         11    1    3    3    0    0  0.30622650196E+02  0.68775378568E+01  0.38402779833E+00  0.31387811477E+02  0.00000000000E+00 0.  1.
          2    1    1    2  501    0 -0.13945739770E+03  0.12000357602E+03  0.33023824918E+03  0.37802979413E+03  0.00000000000E+00 0. -1.
<scales pt_clust_5="13000.00000" pt_clust_6="13000.00000" pt_clust_7="13000.00000" pt_clust_8="13000.00000" pt_clust_9="13000.00000"></scales>
<clustering>
<clus scale="   91.800">  7  8 -1 -1</clus>
<clus scale="  107.139">  5  6 -1 -1</clus>
<clus scale="  150.873">  2  7  1 -1</clus>
<clus scale="  151.469">  5  9 -1 -1</clus>
<clus scale="  382.173">  1  5  2 -1</clus>
</clustering>
</event>
<event>
 9    1  0.2728138E-005  0.4409140E+03  0.7546771E-02  0.1062211E+00
         -2   -1    0    0    0  501 -0.00000000000E+00  0.00000000000E+00  0.15905588194E+03  0.15905588194E+03  0.00000000000E+00 0.  1.
         21   -1    0    0  501  502  0.00000000000E+00 -0.00000000000E+00 -0.73636056164E+03  0.73636056164E+03  0.00000000000E+00 0.  1.
         23    2    1    2    0    0 -0.59648843537E+02  0.13875286150E+03 -0.10565237626E+02  0.17736441297E+03  0.92391393712E+02 0.  0.
        -24    2    1    2    0    0  0.17753494597E+03 -0.88562961633E+02 -0.54847294609E+03  0.58863091922E+03  0.79383444440E+02 0.  0.
         13    1    4    4    0    0  0.27358259070E+02 -0.36711505269E+02 -0.20706314474E+03  0.21206450638E+03  0.00000000000E+00 0. -1.
        -14    1    4    4    0    0  0.15017668690E+03 -0.51851456364E+02 -0.34140980136E+03  0.37656641284E+03  0.00000000000E+00 0.  1.
        -11    1    3    3    0    0 -0.37803409250E+02  0.10107898282E+03  0.35851720150E+02  0.11371633285E+03  0.00000000000E+00 0.  1.
         11    1    3    3    0    0 -0.21845434287E+02  0.37673878684E+02 -0.46416957776E+02  0.63648080124E+02  0.00000000000E+00 0. -1.
         -1    1    1    2    0  502 -0.11788610244E+03 -0.50189899869E+02 -0.18266495984E+02  0.12942111139E+03  0.00000000000E+00 0.  1.
<scales pt_clust_5="13000.00000" pt_clust_6="13000.00000" pt_clust_7="13000.00000" pt_clust_8="13000.00000" pt_clust_9="13000.00000"></scales>
<clustering>
<clus scale="   79.383">  5  6 -1 -1</clus>
<clus scale="   92.391">  7  8 -1 -1</clus>
<clus scale="  128.126">  5  9 -1 -1</clus>
<clus scale="  177.049">  1  7  2 -1</clus>
<clus scale="  440.914">  2  5  1 -1</clus>
</clustering>
</event>
<event>
 9    1  0.2728138E-005  0.2537321E+03  0.7546771E-02  0.1131757E+00
         21   -1    0    0  501  502  0.00000000000E+00  0.00000000000E+00  0.21955922898E+03  0.21955922898E+03  0.00000000000E+00 0. -1.
          1   -1    0    0  502    0 -0.00000000000E+00 -0.00000000000E+00 -0.35680532969E+03  0.35680532969E+03  0.00000000000E+00 0. -1.
         23    2    1    2    0    0 -0.77053775463E+02 -0.87152706848E+02 -0.25520156585E+03  0.29655487010E+03  0.96353895308E+02 0.  0.
        -24    2    1    2    0    0  0.30324394089E+02  0.71145813278E+02 -0.36784562379E+02  0.11737714305E+03  0.80268263080E+02 0.  0.
         13    1    4    4    0    0 -0.26124488785E+02  0.34352061277E+02 -0.21795416735E+02  0.48348663052E+02  0.00000000000E+00 0. -1.
        -14    1    4    4    0    0  0.56448882874E+02  0.36793752001E+02 -0.14989145644E+02  0.69028480001E+02  0.00000000000E+00 0.  1.
        -13    1    3    3    0    0 -0.50401092803E+02 -0.20063518071E+02 -0.34359968782E+02  0.64213879869E+02  0.00000000000E+00 0.  1.
         13    1    3    3    0    0 -0.26652682660E+02 -0.67089188777E+02 -0.22084159707E+03  0.23234099023E+03  0.00000000000E+00 0. -1.
          2    1    1    2  501    0  0.46729381374E+02  0.16006893570E+02  0.15474002752E+03  0.16243254552E+03  0.00000000000E+00 0. -1.
<scales pt_clust_5="13000.00000" pt_clust_6="13000.00000" pt_clust_7="13000.00000" pt_clust_8="13000.00000" pt_clust_9="13000.00000"></scales>
<clustering>
<clus scale="   80.268">  5  6 -1 -1</clus>
<clus scale="   49.395">  5  9 -1 -1</clus>
<clus scale="   96.354">  7  8 -1 -1</clus>
<clus scale="  151.053">  2  7  1 -1</clus>
<clus scale="  253.732">  1  5  2 -1</clus>
</clustering>
</event>
<event>
 9    1  0.2728138E-005  0.2728434E+03  0.7546771E-02  0.1122326E+00
         21   -1    0    0  501  502  0.00000000000E+00  0.00000000000E+00  0.54357178472E+02  0.54357178472E+02  0.00000000000E+00 0.  1.
         -2   -1    0    0    0  501 -0.00000000000E+00 -0.00000000000E+00 -0.86147398488E+03  0.86147398488E+03  0.00000000000E+00 0.  1.
         23    2    1    2    0    0 -0.62080116699E+02  0.10690938382E+03 -0.37046771020E+03  0.40094676681E+03  0.90710684481E+02 0.  0.
        -24    2    1    2    0    0 -0.58462804146E+02 -0.11395131527E+03 -0.26461456637E+03  0.30470336975E+03  0.80127854597E+02 0.  0.
         13    1    4    4    0    0 -0.38534296350E+02 -0.53482309436E+02 -0.21230253249E+03  0.22230073036E+03  0.00000000000E+00 0. -1.
        -14    1    4    4    0    0 -0.19928507795E+02 -0.60469005836E+02 -0.52312033878E+02  0.82402639388E+02  0.00000000000E+00 0.  1.
        -11    1    3    3    0    0  0.20476009581E+01  0.79768060026E+02 -0.15232670144E+03  0.17196092591E+03  0.00000000000E+00 0. -1.
         11    1    3    3    0    0 -0.64127717657E+02  0.27141323797E+02 -0.21814100876E+03  0.22898584090E+03  0.00000000000E+00 0.  1.
         -1    1    1    2    0  502  0.12054292084E+03  0.70419314490E+01 -0.17203452985E+03  0.21018102679E+03  0.00000000000E+00 0.  1.
<scales pt_clust_5="13000.00000" pt_clust_6="13000.00000" pt_clust_7="13000.00000" pt_clust_8="13000.00000" pt_clust_9="13000.00000"></scales>
<clustering>
<clus scale="   80.128">  5  6 -1 -1</clus>
<clus scale="   90.711">  7  8 -1 -1</clus>
<clus scale="  120.748">  5  9 -1 -1</clus>
<clus scale="  153.336">  2  7  1 -1</clus>
<clus scale="  272.843">  1  5  2 -1</clus>
</clustering>
</event>
<event>
 9    1  0.2728138E-005  0.1748908E+03  0.7546771E-02  0.1193144E+00
         21   -1    0    0  501  502  0.00000000000E+00  0.00000000000E+00  0.13180896392E+03  0.13180896392E+03  0.00000000000E+00 0. -1.
          1   -1    0    0  502    0 -0.00000000000E+00 -0.00000000000E+00 -0.17971041211E+03  0.17971041211E+03  0.00000000000E+00 0. -1.
         23    2    1    2    0    0 -0.37093959434E+02  0.60876444238E+01 -0.75732555072E+02  0.13442801228E+03  0.10451052265E+03 0.  0.
        -24    2    1    2    0    0  0.91014923565E+02  0.87455033878E+00  0.26895969341E+02  0.12271474184E+03  0.77788389547E+02 0.  0.
         13    1    4    4    0    0  0.77526357132E+02  0.14752810295E+02  0.49345290454E+02  0.93074911506E+02  0.00000000000E+00 0. -1.
        -14    1    4    4    0    0  0.13488566432E+02 -0.13878259957E+02 -0.22449321113E+02  0.29639830334E+02  0.00000000000E+00 0.  1.
        -11    1    3    3    0    0 -0.85252544238E+01  0.50574390248E+02 -0.60691441810E+02  0.79460052988E+02  0.00000000000E+00 0. -1.
         11    1    3    3    0    0 -0.28568705010E+02 -0.44486745824E+02 -0.15041113262E+02  0.54967959287E+02  0.00000000000E+00 0.  1.
          2    1    1    2  501    0 -0.53920964130E+02 -0.69621947626E+01  0.93513754451E+00  0.54376621915E+02  0.00000000000E+00 0. -1.
<scales pt_clust_5="13000.00000" pt_clust_6="13000.00000" pt_clust_7="13000.00000" pt_clust_8="13000.00000" pt_clust_9="13000.00000"></scales>
<clustering>
<clus scale="   77.788">  5  6 -1 -1</clus>
<clus scale="   54.369">  5  9 -1 -1</clus>
<clus scale="  104.511">  7  8 -1 -1</clus>
<clus scale="  111.065">  2  7  1 -1</clus>
<clus scale="  174.891">  1  5  2 -1</clus>
</clustering>
</event>
<event>
 9    1  0.2728138E-005  0.5623449E+03  0.7546771E-02  0.1043490E+00
         21   -1    0    0  501  502  0.00000000000E+00  0.00000000000E+00  0.99865071884E+03  0.99865071884E+03  0.00000000000E+00 0. -1.
          1   -1    0    0  502    0 -0.00000000000E+00 -0.00000000000E+00 -0.23029454505E+03  0.23029454505E+03  0.00000000000E+00 0. -1.
         23    2    1    2    0    0 -0.10410729670E+03 -0.34792740557E+02 -0.11266197292E+03  0.18375400854E+03  0.94994481375E+02 0.  0.
        -24    2    1    2    0    0  0.84756417544E+01 -0.18642510253E+03  0.96209458844E+02  0.22421170378E+03  0.78666846803E+02 0.  0.
         13    1    4    4    0    0  0.38636027748E+02 -0.59684464733E+02  0.22754711772E+02  0.74650886655E+02  0.00000000000E+00 0. -1.
        -14    1    4    4    0    0 -0.30160385994E+02 -0.12674063779E+03  0.73454747072E+02  0.14956081712E+03  0.00000000000E+00 0.  1.
        -11    1    3    3    0    0 -0.10594599738E+03 -0.57024674055E+02 -0.10631925983E+03  0.16056199059E+03  0.00000000000E+00 0. -1.
         11    1    3    3    0    0  0.18387006827E+01  0.22231933499E+02 -0.63427130945E+01  0.23192017952E+02  0.00000000000E+00 0.  1.
          2    1    1    2  501    0  0.95631654944E+02  0.22121784308E+03  0.78480868787E+03  0.82097955156E+03  0.00000000000E+00 0. -1.
<scales pt_clust_5="13000.00000" pt_clust_6="13000.00000" pt_clust_7="13000.00000" pt_clust_8="13000.00000" pt_clust_9="13000.00000"></scales>
<clustering>
<clus scale="   78.667">  5  6 -1 -1</clus>
<clus scale="   94.994">  7  8 -1 -1</clus>
<clus scale="  145.165">  2  7  1 -1</clus>
<clus scale="  225.586">  5  9 -1 -1</clus>
<clus scale="  562.345">  1  5  2 -1</clus>
</clustering>
</event>
<event>
 9    1  0.2728138E-005  0.1998217E+03  0.7546771E-02  0.1152823E+00
         21   -1    0    0  501  502  0.00000000000E+00  0.00000000000E+00  0.28716941550E+03  0.28716941550E+03  0.00000000000E+00 0. -1.
          1   -1    0    0  502    0 -0.00000000000E+00 -0.00000000000E+00 -0.13076332403E+03  0.13076332403E+03  0.00000000000E+00 0. -1.
         23    2    1    2    0    0 -0.16156021449E+03  0.11229646655E+02  0.92639547036E+02  0.20818320075E+03  0.92359902175E+02 0.  0.
        -24    2    1    2    0    0  0.90660919009E+02 -0.39107452873E+02  0.43727855884E+02  0.13097497932E+03  0.74118315695E+02 0.  0.
         11    1    4    4    0    0  0.97048842216E+02 -0.51142102295E+02  0.36934372683E+02  0.11575033602E+03  0.00000000000E+00 0. -1.
        -12    1    4    4    0    0 -0.63879232072E+01  0.12034649422E+02  0.67934832014E+01  0.15224643301E+02  0.00000000000E+00 0.  1.
        -13    1    3    3    0    0 -0.81206579971E+02 -0.34710256023E+02  0.70527227091E+02  0.11301946852E+03  0.00000000000E+00 0.  1.
         13    1    3    3    0    0 -0.80353634518E+02  0.45939902678E+02  0.22112319945E+02  0.95163732229E+02  0.00000000000E+00 0. -1.
          2    1    1    2  501    0  0.70899295479E+02  0.27877806218E+02  0.20038688549E+02  0.78774559458E+02  0.00000000000E+00 0. -1.
<scales pt_clust_5="13000.00000" pt_clust_6="13000.00000" pt_clust_7="13000.00000" pt_clust_8="13000.00000" pt_clust_9="13000.00000"></scales>
<clustering>
<clus scale="   74.118">  5  6 -1 -1</clus>
<clus scale="   76.183">  5  9 -1 -1</clus>
<clus scale="   92.360">  7  8 -1 -1</clus>
<clus scale="  186.435">  2  7  1 -1</clus>
<clus scale="  199.822">  1  5  2 -1</clus>
</clustering>
</event>
<event>
 9    1  0.2728138E-005  0.4570178E+03  0.7546771E-02  0.1069833E+00
         21   -1    0    0  501  502  0.00000000000E+00  0.00000000000E+00  0.10299550689E+03  0.10299550689E+03  0.00000000000E+00 0. -1.
          1   -1    0    0  502    0 -0.00000000000E+00 -0.00000000000E+00 -0.86809562951E+03  0.86809562951E+03  0.00000000000E+00 0. -1.
         23    2    1    2    0    0  0.61562413660E+02 -0.66387844142E+02 -0.95147216669E+02  0.16010275991E+03  0.91556672432E+02 0.  0.
        -24    2    1    2    0    0 -0.15752130118E+03 -0.86109184568E+02 -0.57405880974E+03  0.60688269418E+03  0.80841421703E+02 0.  0.
         13    1    4    4    0    0 -0.95857921612E+02 -0.90704207748E+02 -0.33772666337E+03  0.36259522003E+03  0.00000000000E+00 0. -1.
        -14    1    4    4    0    0 -0.61663379570E+02  0.45950231809E+01 -0.23633214637E+03  0.24428747415E+03  0.00000000000E+00 0.  1.
        -13    1    3    3    0    0  0.31707926577E+02 -0.73407701169E+02 -0.10106034460E+03  0.12886922227E+03  0.00000000000E+00 0.  1.
         13    1    3    3    0    0  0.29854487083E+02  0.70198570266E+01  0.59131279305E+01  0.31233537641E+02  0.00000000000E+00 0. -1.
          2    1    1    2  501    0  0.95958887522E+02  0.15249702871E+03 -0.95894096212E+02  0.20410568230E+03  0.00000000000E+00 0. -1.
<scales pt_clust_5="13000.00000" pt_clust_6="13000.00000" pt_clust_7="13000.00000" pt_clust_8="13000.00000" pt_clust_9="13000.00000"></scales>
<clustering>
<clus scale="   80.841">  5  6 -1 -1</clus>
<clus scale="   91.557">  7  8 -1 -1</clus>
<clus scale="  128.763">  2  7  1 -1</clus>
<clus scale="  176.328">  5  9 -1 -1</clus>
<clus scale="  457.018">  1  5  2 -1</clus>
</clustering>
</event>
<event>
 9    1  0.2728138E-005  0.3039029E+03  0.7546771E-02  0.1094057E+00
         21   -1    0    0  501  502  0.00000000000E+00  0.00000000000E+00  0.14668035178E+04  0.14668035178E+04  0.00000000000E+00 0. -1.
          1   -1    0    0  502    0 -0.00000000000E+00 -0.00000000000E+00 -0.51772237141E+02  0.51772237141E+02  0.00000000000E+00 0. -1.
         23    2    1    2    0    0 -0.93663714474E+01  0.20420458266E+03  0.80825734575E+03  0.83995096494E+03  0.10222742313E+03 0.  0.
        -24    2    1    2    0    0 -0.41599566694E+02 -0.12728747096E+02  0.11035590561E+03  0.14412373082E+03  0.81857674855E+02 0.  0.
         11    1    4    4    0    0 -0.39983800070E+02  0.26981216833E+02  0.82584141496E+02  0.95639065013E+02  0.00000000000E+00 0. -1.
        -12    1    4    4    0    0 -0.16157666236E+01 -0.39709963929E+02  0.27771764111E+02  0.48484665812E+02  0.00000000000E+00 0.  1.
        -11    1    3    3    0    0 -0.25715330326E+02  0.17590690220E+03  0.76692083871E+03  0.78725605066E+03  0.00000000000E+00 0. -1.
         11    1    3    3    0    0  0.16348958878E+02  0.28297680461E+02  0.41336507040E+02  0.52694914272E+02  0.00000000000E+00 0.  1.
          2    1    1    2  501    0  0.50965938141E+02 -0.19147583556E+03  0.49641802931E+03  0.53450105919E+03  0.00000000000E+00 0. -1.
<scales pt_clust_5="13000.00000" pt_clust_6="13000.00000" pt_clust_7="13000.00000" pt_clust_8="13000.00000" pt_clust_9="13000.00000"></scales>
<clustering>
<clus scale="   81.858">  5  6 -1 -1</clus>
<clus scale="  102.227">  7  8 -1 -1</clus>
<clus scale="  198.143">  5  9 -1 -1</clus>
<clus scale="  228.556">  2  7  1 -1</clus>
<clus scale="  303.903">  1  5  2 -1</clus>
</clustering>
</event>
<event>
 9    1  0.2728138E-005  0.2774613E+03  0.7546771E-02  0.1127518E+00
         21   -1    0    0  501  502  0.00000000000E+00  0.00000000000E+00  0.16102802420E+03  0.16102802420E+03  0.00000000000E+00 0.  1.
         -2   -1    0    0    0  501 -0.00000000000E+00 -0.00000000000E+00 -0.28212203502E+03  0.28212203502E+03  0.00000000000E+00 0.  1.
         23    2    1    2    0    0 -0.23537855874E+02  0.65736135071E+02  0.23400052801E+02  0.13031893009E+03  0.10751832846E+03 0.  0.
        -24    2    1    2    0    0 -0.10083484303E+03 -0.71018374691E+02 -0.40766768702E+02  0.15079464560E+03  0.76588645363E+02 0.  0.
         13    1    4    4    0    0 -0.54345283481E+02  0.54812100648E+01 -0.24265750065E+02  0.59768554664E+02  0.00000000000E+00 0. -1.
        -14    1    4    4    0    0 -0.46489559545E+02 -0.76499584756E+02 -0.16501018638E+02  0.91026090934E+02  0.00000000000E+00 0.  1.
        -13    1    3    3    0    0 -0.32634119564E+02  0.30151183923E+02 -0.38203651813E+02  0.58596916843E+02  0.00000000000E+00 0.  1.
         13    1    3    3    0    0  0.90962636902E+01  0.35584951148E+02  0.61603704613E+02  0.71722013242E+02  0.00000000000E+00 0. -1.
         -1    1    1    2    0  502  0.12437269890E+03  0.52822396203E+01 -0.10372729491E+03  0.16203648354E+03  0.00000000000E+00 0.  1.
<scales pt_clust_5="13000.00000" pt_clust_6="13000.00000" pt_clust_7="13000.00000" pt_clust_8="13000.00000" pt_clust_9="13000.00000"></scales>
<clustering>
<clus scale="   76.589">  5  6 -1 -1</clus>
<clus scale="  107.518">  7  8 -1 -1</clus>
<clus scale="  124.485">  5  9 -1 -1</clus>
<clus scale="  128.201">  2  7  1 -1</clus>
<clus scale="  277.461">  1  5  2 -1</clus>
</clustering>
</event>
<event>
 9    1  0.2728138E-005  0.6406043E+03  0.7546771E-02  0.1015095E+00
         21   -1    0    0  501  502  0.00000000000E+00  0.00000000000E+00  0.42448694397E+03  0.42448694397E+03  0.00000000000E+00 0. -1.
          1   -1    0    0  502    0 -0.00000000000E+00 -0.00000000000E+00 -0.45492337282E+03  0.45492337282E+03  0.00000000000E+00 0. -1.
         23    2    1    2    0    0 -0.69275216734E+02  0.19781669482E+03  0.50027478250E+02  0.23377240914E+03  0.90643754851E+02 0.  0.
        -24    2    1    2    0    0 -0.20091742720E+02 -0.35863427855E+03 -0.20866220946E+03  0.42139796159E+03  0.70810313521E+02 0.  0.
         13    1    4    4    0    0 -0.32845898193E+01 -0.11180057911E+03 -0.28725178610E+02  0.11547854305E+03  0.00000000000E+00 0. -1.
        -14    1    4    4    0    0 -0.16807152900E+02 -0.24683369944E+03 -0.17993703085E+03  0.30591941854E+03  0.00000000000E+00 0.  1.
        -13    1    3    3    0    0  0.13099359534E+02  0.18531452861E+02  0.26782222859E+02  0.35104065671E+02  0.00000000000E+00 0.  1.
         13    1    3    3    0    0 -0.82374576269E+02  0.17928524196E+03  0.23245255391E+02  0.19866834347E+03  0.00000000000E+00 0. -1.
          2    1    1    2  501    0  0.89366959454E+02  0.16081758372E+03  0.12819830236E+03  0.22423994605E+03  0.00000000000E+00 0. -1.
<scales pt_clust_5="13000.00000" pt_clust_6="13000.00000" pt_clust_7="13000.00000" pt_clust_8="13000.00000" pt_clust_9="13000.00000"></scales>
<clustering>
<clus scale="   70.810">  5  6 -1 -1</clus>
<clus scale="   90.644">  7  8 -1 -1</clus>
<clus scale="  183.980">  5  9 -1 -1</clus>
<clus scale="  228.357">  2  7  1 -1</clus>
<clus scale="  640.604">  1  5  2 -1</clus>
</clustering>
</event>
<event>
 9    1  0.2728138E-005  0.2894100E+03  0.7546771E-02  0.1117680E+00
         21   -1    0    0  501  502  0.00000000000E+00  0.00000000000E+00  0.20804740899E+03  0.20804740899E+03  0.00000000000E+00 0. -1.
          1   -1    0    0  502    0 -0.00000000000E+00 -0.00000000000E+00 -0.29778423263E+03  0.29778423263E+03  0.00000000000E+00 0. -1.
         23    2    1    2    0    0  0.10745995857E+03  0.29582732831E+02  0.85271300144E+02  0.16762167142E+03  0.91668147806E+02 0.  0.
        -24    2    1    2    0    0 -0.13559327827E+02  0.91017808940E+01 -0.21430681146E+03  0.22931457586E+03  0.79944152230E+02 0.  0.
         11    1    4    4    0    0 -0.77575681756E+01  0.32190743592E+02 -0.34061192871E+02  0.47503565096E+02  0.00000000000E+00 0. -1.
        -12    1    4    4    0    0 -0.58017596516E+01 -0.23088962698E+02 -0.18024561859E+03  0.18181101076E+03  0.00000000000E+00 0.  1.
        -13    1    3    3    0    0  0.16579589399E+02 -0.16277164308E+02 -0.12580894636E+02  0.26421729171E+02  0.00000000000E+00 0.  1.
         13    1    3    3    0    0  0.90880369176E+02  0.45859897139E+02  0.97852194781E+02  0.14119994225E+03  0.00000000000E+00 0. -1.
          2    1    1    2  501    0 -0.93900630747E+02 -0.38684513725E+02  0.39298687674E+02  0.10889539435E+03  0.00000000000E+00 0. -1.
<scales pt_clust_5="13000.00000" pt_clust_6="13000.00000" pt_clust_7="13000.00000" pt_clust_8="13000.00000" pt_clust_9="13000.00000"></scales>
<clustering>
<clus scale="   79.944">  5  6 -1 -1</clus>
<clus scale="   91.668">  7  8 -1 -1</clus>
<clus scale="  101.557">  5  9 -1 -1</clus>
<clus scale="  144.312">  2  7  1 -1</clus>
<clus scale="  289.410">  1  5  2 -1</clus>
</clustering>
</event>
<event>
 9    1  0.2728138E-005  0.2831417E+03  0.7546771E-02  0.1137438E+00
          3   -1    0    0  502    0 -0.00000000000E+00  0.00000000000E+00  0.58573703930E+03  0.58573703930E+03  0.00000000000E+00 0. -1.
         21   -1    0    0  501  502  0.00000000000E+00 -0.00000000000E+00 -0.66275245292E+02  0.66275245292E+02  0.00000000000E+00 0. -1.
         23    2    1    2    0    0 -0.19649610781E+02  0.18792681889E+02  0.22200512326E+03  0.24134245197E+03  0.90667702496E+02 0.  0.
        -24    2    1    2    0    0 -0.10529578456E+03 -0.45955420298E+02  0.22162277511E+03  0.26200932710E+03  0.79580965921E+02 0.  0.
         13    1    4    4    0    0 -0.10437294601E+03 -0.11464635179E+02  0.17342173698E+03  0.20273196239E+03  0.00000000000E+00 0. -1.
        -14    1    4    4    0    0 -0.92283854521E+00 -0.34490785119E+02  0.48201038138E+02  0.59277364707E+02  0.00000000000E+00 0.  1.
        -13    1    3    3    0    0  0.25017349282E+02 -0.15655405016E+02  0.13092397945E+03  0.13420897089E+03  0.00000000000E+00 0.  1.
         13    1    3    3    0    0 -0.44666960063E+02  0.34448086904E+02  0.91081143805E+02  0.10713348109E+03  0.00000000000E+00 0. -1.
          4    1    1    2  501    0  0.12494539534E+03  0.27162738409E+02  0.75833895630E+02  0.14866050552E+03  0.00000000000E+00 0. -1.
<scales pt_clust_5="13000.00000" pt_clust_6="13000.00000" pt_clust_7="13000.00000" pt_clust_8="13000.00000" pt_clust_9="13000.00000"></scales>
<clustering>
<clus scale="   79.581">  5  6 -1 -1</clus>
<clus scale="   90.668">  7  8 -1 -1</clus>
<clus scale="   94.657">  1  7  2 -1</clus>
<clus scale="  123.250">  5  9 -1 -1</clus>
<clus scale="  283.142">  2  5  1 -1</clus>
</clustering>
</event>
<event>
 9    1  0.2728138E-005  0.1977522E+03  0.7546771E-02  0.1174741E+00
          1   -1    0    0  502    0 -0.00000000000E+00  0.00000000000E+00  0.27745068370E+03  0.27745068370E+03  0.00000000000E+00 0. -1.
         21   -1    0    0  501  502  0.00000000000E+00 -0.00000000000E+00 -0.33157042299E+03  0.33157042299E+03  0.00000000000E+00 0.  1.
         23    2    1    2    0    0 -0.74374539517E+02  0.14368350272E+02  0.23309924214E+03  0.26030824952E+03  0.87676145355E+02 0.  0.
        -24    2    1    2    0    0 -0.12406252322E+02  0.40458023350E+02 -0.10143699956E+03  0.13645880688E+03  0.80875053910E+02 0.  0.
         11    1    4    4    0    0  0.31237795090E+02  0.31107452618E+02 -0.66460759778E+02  0.79752780771E+02  0.00000000000E+00 0. -1.
        -12    1    4    4    0    0 -0.43644047412E+02  0.93505707318E+01 -0.34976239778E+02  0.56706026104E+02  0.00000000000E+00 0.  1.
        -13    1    3    3    0    0 -0.47958732100E+02  0.33730625617E+02  0.21507572390E+03  0.22292456594E+03  0.00000000000E+00 0.  1.
         13    1    3    3    0    0 -0.26415807416E+02 -0.19362275344E+02  0.18023518233E+02  0.37383683573E+02  0.00000000000E+00 0. -1.
          2    1    1    2  501    0  0.86780791839E+02 -0.54826373622E+02 -0.18578198187E+03  0.21225405029E+03  0.00000000000E+00 0. -1.
<scales pt_clust_5="13000.00000" pt_clust_6="13000.00000" pt_clust_7="13000.00000" pt_clust_8="13000.00000" pt_clust_9="13000.00000"></scales>
<clustering>
<clus scale="   80.875">  5  6 -1 -1</clus>
<clus scale="   87.676">  7  8 -1 -1</clus>
<clus scale="  102.649">  5  9 -1 -1</clus>
<clus scale="  115.867">  1  7  2 -1</clus>
<clus scale="  197.752">  2  5  1 -1</clus>
</clustering>
</event>
<event>
 9    1  0.2728138E-005  0.1662305E+03  0.7546771E-02  0.1202027E+00
         21   -1    0    0  501  502  0.00000000000E+00  0.00000000000E+00  0.21108201839E+03  0.21108201839E+03  0.00000000000E+00 0. -1.
          1   -1    0    0  502    0 -0.00000000000E+00 -0.00000000000E+00 -0.97487416159E+02  0.97487416159E+02  0.00000000000E+00 0. -1.
         23    2    1    2    0    0 -0.55199780619E+02  0.12707918849E+02 -0.11707154715E+01  0.10657029421E+03  0.90262672528E+02 0.  0.
        -24    2    1    2    0    0  0.76312414277E+02  0.31115763097E+02  0.94957268014E+02  0.14947660011E+03  0.80836847705E+02 0.  0.
         11    1    4    4    0    0  0.61676510151E+02  0.37724347684E+02  0.10718713266E+03  0.12929114324E+03  0.00000000000E+00 0. -1.
        -12    1    4    4    0    0  0.14635904127E+02 -0.66085845867E+01 -0.12229864647E+02  0.20185456872E+02  0.00000000000E+00 0.  1.
        -11    1    3    3    0    0 -0.67672907378E+02 -0.16077387610E+02  0.15179740765E+02  0.71193604453E+02  0.00000000000E+00 0. -1.
         11    1    3    3    0    0  0.12473126760E+02  0.28785306459E+02 -0.16350456237E+02  0.35376689758E+02  0.00000000000E+00 0.  1.
          2    1    1    2  501    0 -0.21112633659E+02 -0.43823681946E+02  0.19808049692E+02  0.52522540227E+02  0.00000000000E+00 0. -1.
<scales pt_clust_5="13000.00000" pt_clust_6="13000.00000" pt_clust_7="13000.00000" pt_clust_8="13000.00000" pt_clust_9="13000.00000"></scales>
<clustering>
<clus scale="   80.837">  5  6 -1 -1</clus>
<clus scale="   48.644">  5  9 -1 -1</clus>
<clus scale="   90.263">  7  8 -1 -1</clus>
<clus scale="  106.564">  2  7  1 -1</clus>
<clus scale="  166.230">  1  5  2 -1</clus>
</clustering>
</event>
<event>
 9    1  0.3109617E-005  0.7749423E+03  0.7546771E-02  0.1010946E+00
         21   -1    0    0  501  502  0.00000000000E+00  0.00000000000E+00  0.96253395851E+03  0.96253395851E+03  0.00000000000E+00 0. -1.
          1   -1    0    0  502    0 -0.00000000000E+00 -0.00000000000E+00 -0.22757259496E+03  0.22757259496E+03  0.00000000000E+00 0. -1.
         23    2    1    2    0    0 -0.62856626260E+02  0.11605174138E+03  0.20216827759E+03  0.24967896197E+03  0.63628684103E+02 0.  0.
        -24    2    1    2    0    0 -0.54930112096E+02  0.30444247600E+03  0.32809700082E+03  0.45815216205E+03  0.80951981051E+02 0.  0.
         11    1    4    4    0    0 -0.23286870474E+02  0.24173601515E+03  0.21154020159E+03  0.32206806151E+03  0.00000000000E+00 0. -1.
        -12    1    4    4    0    0 -0.31643241622E+02  0.62706460853E+02  0.11655679923E+03  0.13608410054E+03  0.00000000000E+00 0.  1.
        -13    1    3    3    0    0  0.12118893546E+01  0.41165709514E+02  0.97879822045E+02  0.10619107250E+03  0.00000000000E+00 0.  1.
         13    1    3    3    0    0 -0.64068515615E+02  0.74886031871E+02  0.10428845555E+03  0.14348788946E+03  0.00000000000E+00 0. -1.
          2    1    1    2  501    0  0.11778673836E+03 -0.42049421739E+03  0.20469608513E+03  0.48227542945E+03  0.00000000000E+00 0. -1.
<scales pt_clust_5="13000.00000" pt_clust_6="13000.00000" pt_clust_7="13000.00000" pt_clust_8="13000.00000" pt_clust_9="13000.00000"></scales>
<clustering>
<clus scale="   63.629">  7  8 -1 -1</clus>
<clus scale="   80.952">  5  6 -1 -1</clus>
<clus scale="  146.518">  2  7  1 -1</clus>
<clus scale="  349.605">  5  9 -1 -1</clus>
<clus scale="  774.942">  1  5  2 -1</clus>
</clustering>
</event>
<event>
 9    1  0.2728138E-005  0.4127819E+03  0.7546771E-02  0.1072116E+00
         21   -1    0    0  501  502  0.00000000000E+00  0.00000000000E+00  0.11472404025E+03  0.11472404025E+03  0.00000000000E+00 0. -1.
          1   -1    0    0  502    0 -0.00000000000E+00 -0.00000000000E+00 -0.76682969869E+03  0.76682969869E+03  0.00000000000E+00 0. -1.
         23    2    1    2    0    0 -0.40962065870E+02  0.12813096356E+03 -0.10006278217E+03  0.19224954668E+03  0.94084500112E+02 0.  0.
        -24    2    1    2    0    0  0.80128453814E+02  0.92292453773E+02 -0.37991079233E+03  0.40690386794E+03  0.79373052623E+02 0.  0.
         11    1    4    4    0    0  0.62783304499E+02  0.95201839580E+02 -0.23804228068E+03  0.26394935304E+03  0.00000000000E+00 0. -1.
        -12    1    4    4    0    0  0.17345149315E+02 -0.29093858063E+01 -0.14186851165E+03  0.14295451489E+03  0.00000000000E+00 0.  1.
        -11    1    3    3    0    0  0.30030611353E+02  0.39702275498E+02 -0.21109925419E+02  0.54071593736E+02  0.00000000000E+00 0.  1.
         11    1    3    3    0    0 -0.70992677223E+02  0.88428688059E+02 -0.78952856751E+02  0.13817795295E+03  0.00000000000E+00 0. -1.
          2    1    1    2  501    0 -0.39166387944E+02 -0.22042341733E+03 -0.17213208394E+03  0.28240032432E+03  0.00000000000E+00 0. -1.
<scales pt_clust_5="13000.00000" pt_clust_6="13000.00000" pt_clust_7="13000.00000" pt_clust_8="13000.00000" pt_clust_9="13000.00000"></scales>
<clustering>
<clus scale="   79.373">  5  6 -1 -1</clus>
<clus scale="   94.085">  7  8 -1 -1</clus>
<clus scale="  164.156">  2  7  1 -1</clus>
<clus scale="  181.765">  5  9 -1 -1</clus>
<clus scale="  412.782">  1  5  2 -1</clus>
</clustering>
</event>
<event>
 9    1  0.2728138E-005  0.2554873E+03  0.7546771E-02  0.1140776E+00
         21   -1    0    0  501  502  0.00000000000E+00  0.00000000000E+00  0.30888106105E+03  0.30888106105E+03  0.00000000000E+00 0.  1.
         -4   -1    0    0    0  501 -0.00000000000E+00 -0.00000000000E+00 -0.16985318557E+03  0.16985318557E+03  0.00000000000E+00 0.  1.
         23    2    1    2    0    0 -0.72319719272E+02 -0.19562203850E+02  0.18426432119E+03  0.21927304560E+03  0.92274085458E+02 0.  0.
        -24    2    1    2    0    0  0.21043848916E+02 -0.66183088983E+02 -0.98414242876E+02  0.14628280983E+03  0.83007544267E+02 0.  0.
         13    1    4    4    0    0  0.21730324282E+02 -0.51519722303E+02 -0.10177959871E+02  0.56833789657E+02  0.00000000000E+00 0. -1.
        -14    1    4    4    0    0 -0.68647536554E+00 -0.14663366680E+02 -0.88236283005E+02  0.89449020170E+02  0.00000000000E+00 0.  1.
        -11    1    3    3    0    0 -0.11576948917E+02 -0.47895312468E+02  0.56298638764E+02  0.74816598622E+02  0.00000000000E+00 0.  1.
         11    1    3    3    0    0 -0.60742770355E+02  0.28333108618E+02  0.12796568242E+03  0.14445644697E+03  0.00000000000E+00 0. -1.
         -3    1    1    2    0  502  0.51275870356E+02  0.85745292833E+02  0.53177797170E+02  0.11317839120E+03  0.00000000000E+00 0.  1.
<scales pt_clust_5="13000.00000" pt_clust_6="13000.00000" pt_clust_7="13000.00000" pt_clust_8="13000.00000" pt_clust_9="13000.00000"></scales>
<clustering>
<clus scale="   83.008">  5  6 -1 -1</clus>
<clus scale="   92.274">  7  8 -1 -1</clus>
<clus scale="   99.907">  5  9 -1 -1</clus>
<clus scale="  118.858">  2  7  1 -1</clus>
<clus scale="  255.487">  1  5  2 -1</clus>
</clustering>
</event>
<event>
 9    1  0.2728138E-005  0.2858232E+03  0.7546771E-02  0.1118413E+00
          1   -1    0    0  502    0 -0.00000000000E+00  0.00000000000E+00  0.19331165081E+03  0.19331165081E+03  0.00000000000E+00 0. -1.
         21   -1    0    0  501  502  0.00000000000E+00 -0.00000000000E+00 -0.25994501285E+03  0.25994501285E+03  0.00000000000E+00 0. -1.
         23    2    1    2    0    0 -0.10989704673E+03 -0.33250865201E+02  0.32678646279E+02  0.15067146264E+03  0.91929401254E+02 0.  0.
        -24    2    1    2    0    0  0.29081367763E+02  0.13079469145E+03 -0.33439188661E+02  0.15980845090E+03  0.80421293068E+02 0.  0.
         11    1    4    4    0    0  0.45690258883E+01  0.11983591583E+03 -0.48107633292E+02  0.12921248818E+03  0.00000000000E+00 0. -1.
        -12    1    4    4    0    0  0.24512341875E+02  0.10958775627E+02  0.14668444631E+02  0.30595962729E+02  0.00000000000E+00 0.  1.
        -13    1    3    3    0    0 -0.17811506303E+02 -0.38405746727E+02 -0.17343564585E+02  0.45749867442E+02  0.00000000000E+00 0.  1.
         13    1    3    3    0    0 -0.92085540422E+02  0.51548815261E+01  0.50022210864E+02  0.10492159519E+03  0.00000000000E+00 0. -1.
          2    1    1    2  501    0  0.80815678962E+02 -0.97543826253E+02 -0.65872819654E+02  0.14277675012E+03  0.00000000000E+00 0. -1.
<scales pt_clust_5="13000.00000" pt_clust_6="13000.00000" pt_clust_7="13000.00000" pt_clust_8="13000.00000" pt_clust_9="13000.00000"></scales>
<clustering>
<clus scale="   80.421">  5  6 -1 -1</clus>
<clus scale="   91.929">  7  8 -1 -1</clus>
<clus scale="  126.673">  5  9 -1 -1</clus>
<clus scale="  147.085">  1  7  2 -1</clus>
<clus scale="  285.823">  2  5  1 -1</clus>
</clustering>
</event>
<event>
 9    1  0.2728138E-005  0.2903847E+03  0.7546771E-02  0.1134531E+00
          1   -1    0    0  502    0 -0.00000000000E+00  0.00000000000E+00  0.28652414916E+03  0.28652414916E+03  0.00000000000E+00 0. -1.
         21   -1    0    0  501  502  0.00000000000E+00 -0.00000000000E+00 -0.36403320396E+03  0.36403320396E+03  0.00000000000E+00 0. -1.
         23    2    1    2    0    0 -0.22412438623E+02 -0.17693267887E+02  0.21725306371E+03  0.23678446087E+03  0.89736381044E+02 0.  0.
        -24    2    1    2    0    0 -0.16108766688E+02  0.13194927479E+03 -0.10007913979E+03  0.18477555476E+03  0.80349660446E+02 0.  0.
         13    1    4    4    0    0 -0.36792794594E+02  0.12724623247E+03 -0.76108772329E+02  0.15276733498E+03  0.00000000000E+00 0. -1.
        -14    1    4    4    0    0  0.20684027906E+02  0.47030423274E+01 -0.23970367458E+02  0.32008219782E+02  0.00000000000E+00 0.  1.
        -13    1    3    3    0    0 -0.40626099027E+02 -0.37037761882E+02  0.19345684859E+03  0.20111645382E+03  0.00000000000E+00 0.  1.
         13    1    3    3    0    0  0.18213660403E+02  0.19344493994E+02  0.23796215117E+02  0.35668007052E+02  0.00000000000E+00 0. -1.
          2    1    1    2  501    0  0.38521205311E+02 -0.11425600691E+03 -0.19468297873E+03  0.22899733749E+03  0.00000000000E+00 0. -1.
<scales pt_clust_5="13000.00000" pt_clust_6="13000.00000" pt_clust_7="13000.00000" pt_clust_8="13000.00000" pt_clust_9="13000.00000"></scales>
<clustering>
<clus scale="   80.350">  5  6 -1 -1</clus>
<clus scale="   89.736">  7  8 -1 -1</clus>
<clus scale="   94.170">  1  7  2 -1</clus>
<clus scale="  123.588">  5  9 -1 -1</clus>
<clus scale="  290.385">  2  5  1 -1</clus>
</clustering>
</event>
<event>
 9    1  0.2728138E-005  0.1394942E+03  0.7546771E-02  0.1226808E+00
          1   -1    0    0  502    0 -0.00000000000E+00  0.00000000000E+00  0.39992280110E+02  0.39992280110E+02  0.00000000000E+00 0. -1.
         21   -1    0    0  501  502  0.00000000000E+00 -0.00000000000E+00 -0.59367379761E+03  0.59367379761E+03  0.00000000000E+00 0. -1.
         23    2    1    2    0    0  0.97495881269E+01 -0.52773353308E+02 -0.63715817329E+02  0.12423010640E+03  0.92159278802E+02 0.  0.
        -24    2    1    2    0    0  0.51674074634E+01  0.73140446523E+02 -0.44339488576E+03  0.45646261955E+03  0.79892873958E+02 0.  0.
         11    1    4    4    0    0 -0.15200027165E+02  0.81467970624E+02 -0.39006483061E+03  0.39877141716E+03  0.00000000000E+00 0. -1.
        -12    1    4    4    0    0  0.20367434628E+02 -0.83275241009E+01 -0.53330055158E+02  0.57691202398E+02  0.00000000000E+00 0.  1.
        -11    1    3    3    0    0 -0.21454826571E+02  0.18332455327E+02 -0.23819537860E+02  0.36929106208E+02  0.00000000000E+00 0.  1.
         11    1    3    3    0    0  0.31204414697E+02 -0.71105808636E+02 -0.39896279470E+02  0.87301000188E+02  0.00000000000E+00 0. -1.
          2    1    1    2  501    0 -0.14916995590E+02 -0.20367093214E+02 -0.46570814407E+02  0.52973351772E+02  0.00000000000E+00 0. -1.
<scales pt_clust_5="13000.00000" pt_clust_6="13000.00000" pt_clust_7="13000.00000" pt_clust_8="13000.00000" pt_clust_9="13000.00000"></scales>
<clustering>
<clus scale="   79.893">  5  6 -1 -1</clus>
<clus scale="   25.246">  5  9 -1 -1</clus>
<clus scale="   92.159">  7  8 -1 -1</clus>
<clus scale="  106.646">  1  7  2 -1</clus>
<clus scale="  139.494">  2  5  1 -1</clus>
</clustering>
</event>
<event>
 9    1  0.2728138E-005  0.3948791E+03  0.7546771E-02  0.1083012E+00
         21   -1    0    0  501  502  0.00000000000E+00  0.00000000000E+00  0.58067427681E+03  0.58067427681E+03  0.00000000000E+00 0. -1.
          3   -1    0    0  502    0 -0.00000000000E+00 -0.00000000000E+00 -0.13207984813E+03  0.13207984813E+03  0.00000000000E+00 0. -1.
         23    2    1    2    0    0  0.20309456659E+02  0.10590276999E+03  0.41626843378E+02  0.14569849377E+03  0.88698287906E+02 0.  0.
        -24    2    1    2    0    0 -0.15313902078E+03  0.56196099149E+02  0.14729041508E+03  0.23336120627E+03  0.78443769492E+02 0.  0.
         13    1    4    4    0    0 -0.88381749866E+02  0.56669580852E+02  0.12848864599E+03  0.16592801828E+03  0.00000000000E+00 0. -1.
        -14    1    4    4    0    0 -0.64757270910E+02 -0.47348170288E+00  0.18801769089E+02  0.67433187983E+02  0.00000000000E+00 0.  1.
        -11    1    3    3    0    0  0.20532463409E+02  0.24463101389E+02  0.54577238014E+02  0.63235277278E+02  0.00000000000E+00 0.  1.
         11    1    3    3    0    0 -0.22300674994E+00  0.81439668599E+02 -0.12950394636E+02  0.82463216496E+02  0.00000000000E+00 0. -1.
          4    1    1    2  501    0  0.13282956412E+03 -0.16209886914E+03  0.25967717022E+03  0.33369442491E+03  0.00000000000E+00 0. -1.
<scales pt_clust_5="13000.00000" pt_clust_6="13000.00000" pt_clust_7="13000.00000" pt_clust_8="13000.00000" pt_clust_9="13000.00000"></scales>
<clustering>
<clus scale="   78.444">  5  6 -1 -1</clus>
<clus scale="   88.698">  7  8 -1 -1</clus>
<clus scale="  139.625">  2  7  1 -1</clus>
<clus scale="  181.730">  5  9 -1 -1</clus>
<clus scale="  394.879">  1  5  2 -1</clus>
</clustering>
</event>
<event>
 9    1  0.2728138E-005  0.3022975E+03  0.7546771E-02  0.1115638E+00
          1   -1    0    0  502    0 -0.00000000000E+00  0.00000000000E+00  0.61516886547E+03  0.61516886547E+03  0.00000000000E+00 0. -1.
         21   -1    0    0  501  502  0.00000000000E+00 -0.00000000000E+00 -0.13887414301E+03  0.13887414301E+03  0.00000000000E+00 0. -1.
         23    2    1    2    0    0  0.27995497160E+02 -0.79646290698E+02 -0.53843859295E+02  0.14377198551E+03  0.10316948750E+03 0.  0.
        -24    2    1    2    0    0  0.40065378423E+02  0.75674602498E+02  0.52926128159E+03  0.54208871773E+03  0.80067432079E+02 0.  0.
         11    1    4    4    0    0  0.38764607649E+02  0.91352672400E+02  0.41232505910E+03  0.42409899779E+03  0.00000000000E+00 0. -1.
        -12    1    4    4    0    0  0.13007707743E+01 -0.15678069902E+02  0.11693622249E+03  0.11798971994E+03  0.00000000000E+00 0.  1.
        -13    1    3    3    0    0  0.23316045387E+02 -0.10476656703E+03 -0.47922317194E+02  0.11754241798E+03  0.00000000000E+00 0. -1.
         13    1    3    3    0    0  0.46794517732E+01  0.25120276332E+02 -0.59215421005E+01  0.26229567529E+02  0.00000000000E+00 0.  1.
          2    1    1    2  501    0 -0.68060875583E+02  0.39716881995E+01  0.87730015504E+00  0.68182305240E+02  0.00000000000E+00 0. -1.
<scales pt_clust_5="13000.00000" pt_clust_6="13000.00000" pt_clust_7="13000.00000" pt_clust_8="13000.00000" pt_clust_9="13000.00000"></scales>
<clustering>
<clus scale="   80.067">  5  6 -1 -1</clus>
<clus scale="   68.177">  5  9 -1 -1</clus>
<clus scale="  103.169">  7  8 -1 -1</clus>
<clus scale="  133.309">  1  7  2 -1</clus>
<clus scale="  302.298">  2  5  1 -1</clus>
</clustering>
</event>
<event>
 9    1  0.2728138E-005  0.2372352E+03  0.7546771E-02  0.1152490E+00
         21   -1    0    0  501  502  0.00000000000E+00  0.00000000000E+00  0.10703762027E+03  0.10703762027E+03  0.00000000000E+00 0. -1.
         -2   -1    0    0    0  501 -0.00000000000E+00 -0.00000000000E+00 -0.32707248817E+03  0.32707248817E+03  0.00000000000E+00 0.  1.
         23    2    1    2    0    0 -0.44232290870E+02  0.50734238723E+01 -0.26191067158E+01  0.11231798956E+03  0.10308363534E+03 0.  0.
        -24    2    1    2    0    0 -0.15758252385E+02 -0.89736238426E+02 -0.76888798260E+02  0.14710816209E+03  0.86185898217E+02 0.  0.
         11    1    4    4    0    0  0.22002452789E+02 -0.73469331571E+02 -0.72878483566E+02  0.10579756130E+03  0.00000000000E+00 0. -1.
        -12    1    4    4    0    0 -0.37760705174E+02 -0.16266906855E+02 -0.40103146937E+01  0.41310600793E+02  0.00000000000E+00 0.  1.
        -13    1    3    3    0    0 -0.76163997623E+02  0.48317613555E+01 -0.15517581601E+02  0.77878724889E+02  0.00000000000E+00 0. -1.
         13    1    3    3    0    0  0.31931706753E+02  0.24166251687E+00  0.12898474885E+02  0.34439264674E+02  0.00000000000E+00 0.  1.
         -1    1    1    2    0  502  0.59990543255E+02  0.84662814554E+02 -0.14052696292E+03  0.17468395678E+03  0.00000000000E+00 0.  1.
<scales pt_clust_5="13000.00000" pt_clust_6="13000.00000" pt_clust_7="13000.00000" pt_clust_8="13000.00000" pt_clust_9="13000.00000"></scales>
<clustering>
<clus scale="   86.186">  5  6 -1 -1</clus>
<clus scale="  103.084">  7  8 -1 -1</clus>
<clus scale="  103.763">  5  9 -1 -1</clus>
<clus scale="  112.288">  2  7  1 -1</clus>
<clus scale="  237.235">  1  5  2 -1</clus>
</clustering>
</event>
<event>
 9    1  0.2728138E-005  0.2436513E+03  0.7546771E-02  0.1155088E+00
         21   -1    0    0  501  502  0.00000000000E+00  0.00000000000E+00  0.95176431033E+03  0.95176431033E+03  0.00000000000E+00 0.  1.
         -2   -1    0    0    0  501 -0.00000000000E+00 -0.00000000000E+00 -0.31070604795E+02  0.31070604795E+02  0.00000000000E+00 0.  1.
         23    2    1    2    0    0 -0.37496327929E+02 -0.41299127625E+01  0.20988849248E+03  0.23142955242E+03  0.89907884366E+02 0.  0.
        -24    2    1    2    0    0 -0.29471184091E+00  0.53298427702E+02  0.67039052749E+03  0.67738474154E+03  0.81153061989E+02 0.  0.
         13    1    4    4    0    0 -0.22942991923E+02  0.59943182943E+02  0.33043534181E+03  0.33661117209E+03  0.00000000000E+00 0. -1.
        -14    1    4    4    0    0  0.22648280082E+02 -0.66447552409E+01  0.33995518568E+03  0.34077356944E+03  0.00000000000E+00 0.  1.
        -11    1    3    3    0    0 -0.50910371327E+01 -0.40385637679E+02  0.14334356700E+03  0.14901106198E+03  0.00000000000E+00 0.  1.
         11    1    3    3    0    0 -0.32405290797E+02  0.36255724916E+02  0.66544925475E+02  0.82418490445E+02  0.00000000000E+00 0. -1.
         -1    1    1    2    0  502  0.37791039770E+02 -0.49168514940E+02  0.40414685568E+02  0.74020621166E+02  0.00000000000E+00 0.  1.
<scales pt_clust_5="13000.00000" pt_clust_6="13000.00000" pt_clust_7="13000.00000" pt_clust_8="13000.00000" pt_clust_9="13000.00000"></scales>
<clustering>
<clus scale="   81.153">  5  6 -1 -1</clus>
<clus scale="   62.014">  5  9 -1 -1</clus>
<clus scale="   89.908">  7  8 -1 -1</clus>
<clus scale="   97.501">  2  7  1 -1</clus>
<clus scale="  243.651">  1  5  2 -1</clus>
</clustering>
</event>
<event>
 9    1  0.2728138E-005  0.3894842E+03  0.7546771E-02  0.1056056E+00
          1   -1    0    0  502    0 -0.00000000000E+00  0.00000000000E+00  0.63276162475E+03  0.63276162475E+03  0.00000000000E+00 0. -1.
         21   -1    0    0  501  502  0.00000000000E+00 -0.00000000000E+00 -0.19289452688E+03  0.19289452688E+03  0.00000000000E+00 0.  1.
         23    2    1    2    0    0 -0.24049238383E+03  0.16424133916E+03  0.14966358497E+03  0.33994428918E+03  0.91384500364E+02 0.  0.
        -24    2    1    2    0    0  0.29103841995E+00  0.16399576048E+02  0.10077304490E+03  0.13044896150E+03  0.81195407383E+02 0.  0.
         13    1    4    4    0    0 -0.30584463946E+02 -0.32312798651E+01  0.96153798217E+01  0.32222758006E+02  0.00000000000E+00 0. -1.
        -14    1    4    4    0    0  0.30875502366E+02  0.19630855914E+02  0.91157665079E+02  0.98226203494E+02  0.00000000000E+00 0.  1.
        -11    1    3    3    0    0 -0.20924404612E+03  0.16976863299E+03  0.11505171630E+03  0.29298695706E+03  0.00000000000E+00 0.  1.
         11    1    3    3    0    0 -0.31248337710E+02 -0.55272938245E+01  0.34611868671E+02  0.46957332117E+02  0.00000000000E+00 0. -1.
          2    1    1    2  501    0  0.24020134541E+03 -0.18064091521E+03  0.18943046800E+03  0.35526290095E+03  0.00000000000E+00 0. -1.
<scales pt_clust_5="13000.00000" pt_clust_6="13000.00000" pt_clust_7="13000.00000" pt_clust_8="13000.00000" pt_clust_9="13000.00000"></scales>
<clustering>
<clus scale="   81.195">  5  6 -1 -1</clus>
<clus scale="   91.385">  7  8 -1 -1</clus>
<clus scale="  300.546">  5  9 -1 -1</clus>
<clus scale="  305.226">  1  7  2 -1</clus>
<clus scale="  389.484">  2  5  1 -1</clus>
</clustering>
</event>
<event>
 9    1  0.2728138E-005  0.3898778E+03  0.7546771E-02  0.1092072E+00
         21   -1    0    0  501  502  0.00000000000E+00  0.00000000000E+00  0.10140631203E+04  0.10140631203E+04  0.00000000000E+00 0. -1.
          1   -1    0    0  502    0 -0.00000000000E+00 -0.00000000000E+00 -0.64750658655E+02  0.64750658655E+02  0.00000000000E+00 0. -1.
         23    2    1    2    0    0 -0.49844099680E+02  0.45297223332E+02  0.14066936594E+03  0.18108977325E+03  0.92029140740E+02 0.  0.
        -24    2    1    2    0    0 -0.84112628049E+02  0.85433762321E+02  0.13085474426E+03  0.19456538572E+03  0.79742481047E+02 0.  0.
         11    1    4    4    0    0 -0.79833156703E+02  0.98061331549E+02  0.12976823816E+03  0.18118817095E+03  0.00000000000E+00 0. -1.
        -12    1    4    4    0    0 -0.42794713460E+01 -0.12627569228E+02  0.10865060939E+01  0.13377214773E+02  0.00000000000E+00 0.  1.
        -13    1    3    3    0    0 -0.20379845635E+02  0.29115286781E+02  0.14304190283E+03  0.14739071883E+03  0.00000000000E+00 0.  1.
         13    1    3    3    0    0 -0.29464254045E+02  0.16181936552E+02 -0.23725368898E+01  0.33699054413E+02  0.00000000000E+00 0. -1.
          2    1    1    2  501    0  0.13395672773E+03 -0.13073098565E+03  0.67778835148E+03  0.70315862003E+03  0.00000000000E+00 0. -1.
<scales pt_clust_5="13000.00000" pt_clust_6="13000.00000" pt_clust_7="13000.00000" pt_clust_8="13000.00000" pt_clust_9="13000.00000"></scales>
<clustering>
<clus scale="   79.742">  5  6 -1 -1</clus>
<clus scale="   92.029">  7  8 -1 -1</clus>
<clus scale="  114.042">  2  7  1 -1</clus>
<clus scale="  168.008">  5  9 -1 -1</clus>
<clus scale="  389.878">  1  5  2 -1</clus>
</clustering>
</event>
<event>
 9    1  0.2728138E-005  0.1219371E+03  0.7546771E-02  0.1249865E+00
          1   -1    0    0  502    0 -0.00000000000E+00  0.00000000000E+00  0.51317402958E+03  0.51317402958E+03  0.00000000000E+00 0. -1.
         21   -1    0    0  501  502  0.00000000000E+00 -0.00000000000E+00 -0.24334591423E+02  0.24334591423E+02  0.00000000000E+00 0.  1.
         23    2    1    2    0    0  0.37862454820E+02 -0.41838052138E+01  0.25366286679E+03  0.27259983608E+03  0.92275408072E+02 0.  0.
        -24    2    1    2    0    0 -0.39695196041E+02 -0.29459506913E+02  0.11299525229E+03  0.13816689712E+03  0.62278353247E+02 0.  0.
         13    1    4    4    0    0 -0.38639976575E+02 -0.12976753127E+02  0.23272689153E+02  0.46936786978E+02  0.00000000000E+00 0. -1.
        -14    1    4    4    0    0 -0.10552194657E+01 -0.16482753786E+02  0.89722563134E+02  0.91230110139E+02  0.00000000000E+00 0.  1.
        -11    1    3    3    0    0  0.23501839120E+02  0.28340852266E+02  0.22187064971E+03  0.22490470327E+03  0.00000000000E+00 0. -1.
         11    1    3    3    0    0  0.14360615700E+02 -0.32524657480E+02  0.31792217072E+02  0.47695132810E+02  0.00000000000E+00 0.  1.
          2    1    1    2  501    0  0.18327412208E+01  0.33643312127E+02  0.12218131908E+03  0.12674188780E+03  0.00000000000E+00 0. -1.
<scales pt_clust_5="13000.00000" pt_clust_6="13000.00000" pt_clust_7="13000.00000" pt_clust_8="13000.00000" pt_clust_9="13000.00000"></scales>
<clustering>
<clus scale="   62.278">  5  6 -1 -1</clus>
<clus scale="   33.693">  5  9 -1 -1</clus>
<clus scale="   92.275">  7  8 -1 -1</clus>
<clus scale="   99.829">  1  7  2 -1</clus>
<clus scale="  121.937">  2  5  1 -1</clus>
</clustering>
</event>
<event>
 9    1  0.2728138E-005  0.2316347E+03  0.7546771E-02  0.1152402E+00
          1   -1    0    0  502    0 -0.00000000000E+00  0.00000000000E+00  0.34228595330E+03  0.34228595330E+03  0.00000000000E+00 0. -1.
         21   -1    0    0  501  502  0.00000000000E+00 -0.00000000000E+00 -0.11072284280E+03  0.11072284280E+03  0.00000000000E+00 0.  1.
         23    2    1    2    0    0 -0.14562449486E+02  0.77310709268E+02 -0.62359753516E+01  0.12104037704E+03  0.91776221228E+02 0.  0.
        -24    2    1    2    0    0 -0.62778846046E+02 -0.10740890317E+03  0.14091018434E+03  0.20439476775E+03  0.80272567182E+02 0.  0.
         13    1    4    4    0    0 -0.40630658705E+02 -0.11650686110E+03  0.11005101481E+03  0.16533579458E+03  0.00000000000E+00 0. -1.
        -14    1    4    4    0    0 -0.22148187341E+02  0.90979579262E+01  0.30859169524E+02  0.39058973165E+02  0.00000000000E+00 0.  1.
        -13    1    3    3    0    0 -0.65215826089E+01  0.55216675438E+02  0.40457108735E+02  0.68761834860E+02  0.00000000000E+00 0. -1.
         13    1    3    3    0    0 -0.80408668770E+01  0.22094033831E+02 -0.46693084086E+02  0.52278542181E+02  0.00000000000E+00 0.  1.
          2    1    1    2  501    0  0.77341295532E+02  0.30098193903E+02  0.96888901517E+02  0.12757365131E+03  0.00000000000E+00 0. -1.
<scales pt_clust_5="13000.00000" pt_clust_6="13000.00000" pt_clust_7="13000.00000" pt_clust_8="13000.00000" pt_clust_9="13000.00000"></scales>
<clustering>
<clus scale="   80.273">  5  6 -1 -1</clus>
<clus scale="   82.991">  5  9 -1 -1</clus>
<clus scale="   91.776">  7  8 -1 -1</clus>
<clus scale="  120.880">  1  7  2 -1</clus>
<clus scale="  231.635">  2  5  1 -1</clus>
</clustering>
</event>
<event>
 9    1  0.2728138E-005  0.3678363E+03  0.7546771E-02  0.1103277E+00
          1   -1    0    0  502    0 -0.00000000000E+00  0.00000000000E+00  0.31825965774E+03  0.31825965774E+03  0.00000000000E+00 0. -1.
         21   -1    0    0  501  502  0.00000000000E+00 -0.00000000000E+00 -0.36528070638E+03  0.36528070638E+03  0.00000000000E+00 0. -1.
         23    2    1    2    0    0  0.31252886947E+02 -0.22396272494E+02  0.21108644829E+03  0.23418194313E+03  0.93836868424E+02 0.  0.
        -24    2    1    2    0    0  0.90243543726E+02 -0.88475461775E+02 -0.24549001538E+03  0.28439440986E+03  0.68139769490E+02 0.  0.
         13    1    4    4    0    0  0.68819863851E+02 -0.93408591596E+02 -0.22966132101E+03  0.25730460745E+03  0.00000000000E+00 0. -1.
        -14    1    4    4    0    0  0.21423679875E+02  0.49331298214E+01 -0.15828694368E+02  0.27089802410E+02  0.00000000000E+00 0.  1.
        -13    1    3    3    0    0  0.33765173458E+02  0.15100770364E+02  0.25737705639E+02  0.45061621096E+02  0.00000000000E+00 0.  1.
         13    1    3    3    0    0 -0.25122865115E+01 -0.37497042857E+02  0.18534874265E+03  0.18912032204E+03  0.00000000000E+00 0. -1.
          2    1    1    2  501    0 -0.12149643067E+03  0.11087173427E+03 -0.12617481551E+02  0.16496401113E+03  0.00000000000E+00 0. -1.
<scales pt_clust_5="13000.00000" pt_clust_6="13000.00000" pt_clust_7="13000.00000" pt_clust_8="13000.00000" pt_clust_9="13000.00000"></scales>
<clustering>
<clus scale="   68.140">  5  6 -1 -1</clus>
<clus scale="   93.837">  7  8 -1 -1</clus>
<clus scale="  101.409">  1  7  2 -1</clus>
<clus scale="  134.114">  5  9 -1 -1</clus>
<clus scale="  367.836">  2  5  1 -1</clus>
</clustering>
</event>
<event>
 9    1  0.2728138E-005  0.1918621E+03  0.7546771E-02  0.1187942E+00
         21   -1    0    0  501  502  0.00000000000E+00  0.00000000000E+00  0.16057774828E+03  0.16057774828E+03  0.00000000000E+00 0.  1.
          1   -1    0    0  502    0 -0.00000000000E+00 -0.00000000000E+00 -0.18522504188E+03  0.18522504188E+03  0.00000000000E+00 0. -1.
         23    2    1    2    0    0  0.19905021079E+01  0.25180584088E+02  0.83119882717E+02  0.12574636418E+03  0.90913196445E+02 0.  0.
        -24    2    1    2    0    0  0.65758423194E+02 -0.54098452492E+00 -0.10559045600E+03  0.14793316442E+03  0.80065060122E+02 0.  0.
         11    1    4    4    0    0  0.37356833768E+01  0.25370580315E+02 -0.37602899613E+01  0.25918361376E+02  0.00000000000E+00 0. -1.
        -12    1    4    4    0    0  0.62022739817E+02 -0.25911564840E+02 -0.10183016604E+03  0.12201480305E+03  0.00000000000E+00 0.  1.
        -11    1    3    3    0    0  0.23379111227E+02 -0.21172989674E+02  0.63784470991E+02  0.71157129461E+02  0.00000000000E+00 0.  1.
         11    1    3    3    0    0 -0.21388609119E+02  0.46353573762E+02  0.19335411725E+02  0.54589234718E+02  0.00000000000E+00 0. -1.
          2    1    1    2  501    0 -0.67748925302E+02 -0.24639599563E+02 -0.21767203080E+01  0.72123261556E+02  0.00000000000E+00 0. -1.
<scales pt_clust_5="13000.00000" pt_clust_6="13000.00000" pt_clust_7="13000.00000" pt_clust_8="13000.00000" pt_clust_9="13000.00000"></scales>
<clustering>
<clus scale="   80.065">  5  6 -1 -1</clus>
<clus scale="   72.090">  5  9 -1 -1</clus>
<clus scale="   90.913">  7  8 -1 -1</clus>
<clus scale="   94.357">  2  7  1 -1</clus>
<clus scale="  191.862">  1  5  2 -1</clus>
</clustering>
</event>
<event>
 9    1  0.2728138E-005  0.1807833E+03  0.7546771E-02  0.1179304E+00
         21   -1    0    0  501  502  0.00000000000E+00  0.00000000000E+00  0.84855943634E+02  0.84855943634E+02  0.00000000000E+00 0. -1.
          3   -1    0    0  502    0 -0.00000000000E+00 -0.00000000000E+00 -0.30153174257E+03  0.30153174257E+03  0.00000000000E+00 0. -1.
         23    2    1    2    0    0 -0.65825140549E+02 -0.75860009386E+02 -0.11664373848E+03  0.17977448557E+03  0.92873105815E+02 0.  0.
        -24    2    1    2    0    0  0.43299568441E+02 -0.35602473978E+01 -0.53202852361E+01  0.80973640972E+02  0.68124130150E+02 0.  0.
         11    1    4    4    0    0  0.39137801321E+02  0.67939455898E+01  0.26167125929E+02  0.47567254160E+02  0.00000000000E+00 0. -1.
        -12    1    4    4    0    0  0.41617671198E+01 -0.10354192988E+02 -0.31487411165E+02  0.33406386813E+02  0.00000000000E+00 0.  1.
        -11    1    3    3    0    0 -0.16872722117E+02  0.20573767255E+02 -0.11655957035E+02  0.29048751868E+02  0.00000000000E+00 0.  1.
         11    1    3    3    0    0 -0.48952418432E+02 -0.96433776641E+02 -0.10498778145E+03  0.15072573370E+03  0.00000000000E+00 0. -1.
          4    1    1    2  501    0  0.22525572108E+02  0.79420256784E+02 -0.94711775219E+02  0.12563955966E+03  0.00000000000E+00 0. -1.
<scales pt_clust_5="13000.00000" pt_clust_6="13000.00000" pt_clust_7="13000.00000" pt_clust_8="13000.00000" pt_clust_9="13000.00000"></scales>
<clustering>
<clus scale="   68.124">  5  6 -1 -1</clus>
<clus scale="   82.553">  5  9 -1 -1</clus>
<clus scale="   92.873">  7  8 -1 -1</clus>
<clus scale="  136.796">  2  7  1 -1</clus>
<clus scale="  180.783">  1  5  2 -1</clus>
</clustering>
</event>
<event>
 9    1  0.2728138E-005  0.2572620E+03  0.7546771E-02  0.1147855E+00
          1   -1    0    0  502    0 -0.00000000000E+00  0.00000000000E+00  0.10251269650E+03  0.10251269650E+03  0.00000000000E+00 0. -1.
         21   -1    0    0  501  502  0.00000000000E+00 -0.00000000000E+00 -0.31533961979E+03  0.31533961979E+03  0.00000000000E+00 0. -1.
         23    2    1    2    0    0 -0.40003528195E+02  0.10782243009E+02 -0.87967475072E+02  0.13189143501E+03  0.89109679194E+02 0.  0.
        -24    2    1    2    0    0 -0.17276110461E+02 -0.72639676716E+02 -0.16037087663E+03  0.19448213698E+03  0.80805302470E+02 0.  0.
         11    1    4    4    0    0 -0.29001596607E+02 -0.70509820749E+02 -0.16494831963E+03  0.18171591999E+03  0.00000000000E+00 0. -1.
        -12    1    4    4    0    0  0.11725486146E+02 -0.21298559675E+01  0.45774430031E+01  0.12766216991E+02  0.00000000000E+00 0.  1.
        -13    1    3    3    0    0 -0.67232522808E+02 -0.52840749768E-01 -0.49287342649E+02  0.83363403605E+02  0.00000000000E+00 0. -1.
         13    1    3    3    0    0  0.27228994613E+02  0.10835083759E+02 -0.38680132423E+02  0.48528031404E+02  0.00000000000E+00 0.  1.
          2    1    1    2  501    0  0.57279638656E+02  0.61857433707E+02  0.35511428418E+02  0.91478744294E+02  0.00000000000E+00 0. -1.
<scales pt_clust_5="13000.00000" pt_clust_6="13000.00000" pt_clust_7="13000.00000" pt_clust_8="13000.00000" pt_clust_9="13000.00000"></scales>
<clustering>
<clus scale="   80.805">  5  6 -1 -1</clus>
<clus scale="   84.305">  5  9 -1 -1</clus>
<clus scale="   89.110">  7  8 -1 -1</clus>
<clus scale="   98.270">  1  7  2 -1</clus>
<clus scale="  257.262">  2  5  1 -1</clus>
</clustering>
</event>
<event>
 9    1  0.2728138E-005  0.4826297E+03  0.7546771E-02  0.1038941E+00
         21   -1    0    0  501  502  0.00000000000E+00  0.00000000000E+00  0.18054065486E+03  0.18054065486E+03  0.00000000000E+00 0. -1.
          1   -1    0    0  502    0 -0.00000000000E+00 -0.00000000000E+00 -0.84618516440E+03  0.84618516440E+03  0.00000000000E+00 0. -1.
         23    2    1    2    0    0  0.14051871292E+03 -0.20166313600E+03 -0.93547326152E+02  0.27824296142E+03  0.90854357329E+02 0.  0.
        -24    2    1    2    0    0 -0.44494946067E+02 -0.10339330005E+03 -0.74443478830E+02  0.15692626490E+03  0.80087741604E+02 0.  0.
         11    1    4    4    0    0 -0.32437326456E+02 -0.42577334179E+02 -0.78254892887E+02  0.94809481563E+02  0.00000000000E+00 0. -1.
        -12    1    4    4    0    0 -0.12057619611E+02 -0.60815965869E+02  0.38114140570E+01  0.62116783339E+02  0.00000000000E+00 0.  1.
        -11    1    3    3    0    0  0.47544860528E+02 -0.46694635140E+02 -0.68893585034E+02  0.95850032720E+02  0.00000000000E+00 0.  1.
         11    1    3    3    0    0  0.92973852391E+02 -0.15496850086E+03 -0.24653741118E+02  0.18239292870E+03  0.00000000000E+00 0. -1.
          2    1    1    2  501    0 -0.96023766852E+02  0.30505643605E+03 -0.49765370456E+03  0.59155659293E+03  0.00000000000E+00 0. -1.
<scales pt_clust_5="13000.00000" pt_clust_6="13000.00000" pt_clust_7="13000.00000" pt_clust_8="13000.00000" pt_clust_9="13000.00000"></scales>
<clustering>
<clus scale="   80.088">  5  6 -1 -1</clus>
<clus scale="   90.854">  7  8 -1 -1</clus>
<clus scale="  262.046">  2  7  1 -1</clus>
<clus scale="  140.142">  5  9 -1 -1</clus>
<clus scale="  482.630">  1  5  2 -1</clus>
</clustering>
</event>
<event>
 9    1  0.2728138E-005  0.4755227E+03  0.7546771E-02  0.1077234E+00
          1   -1    0    0  502    0 -0.00000000000E+00  0.00000000000E+00  0.10355552410E+04  0.10355552410E+04  0.00000000000E+00 0. -1.
         21   -1    0    0  501  502  0.00000000000E+00 -0.00000000000E+00 -0.10149200475E+03  0.10149200475E+03  0.00000000000E+00 0. -1.
         23    2    1    2    0    0 -0.10750696292E+02  0.11175336097E+02  0.44582099903E+03  0.45550315963E+03  0.92121114054E+02 0.  0.
        -24    2    1    2    0    0  0.24509554983E+02  0.42081659413E+02  0.57286380809E+03  0.58061627029E+03  0.81060017022E+02 0.  0.
         11    1    4    4    0    0 -0.69877038741E+01  0.54015696524E+02  0.24257493086E+03  0.24861440135E+03  0.00000000000E+00 0. -1.
        -12    1    4    4    0    0  0.31497258858E+02 -0.11934037111E+02  0.33028887723E+03  0.33200186894E+03  0.00000000000E+00 0.  1.
        -11    1    3    3    0    0 -0.46649368988E+02  0.24411913080E+02  0.30809054154E+03  0.31255701386E+03  0.00000000000E+00 0.  1.
         11    1    3    3    0    0  0.35898672696E+02 -0.13236576983E+02  0.13773045749E+03  0.14294614577E+03  0.00000000000E+00 0. -1.
          2    1    1    2  501    0 -0.13758858691E+02 -0.53256995510E+02 -0.84621570835E+02  0.10092781586E+03  0.00000000000E+00 0. -1.
<scales pt_clust_5="13000.00000" pt_clust_6="13000.00000" pt_clust_7="13000.00000" pt_clust_8="13000.00000" pt_clust_9="13000.00000"></scales>
<clustering>
<clus scale="   81.060">  5  6 -1 -1</clus>
<clus scale="   55.006">  5  9 -1 -1</clus>
<clus scale="   92.121">  7  8 -1 -1</clus>
<clus scale="   93.417">  1  7  2 -1</clus>
<clus scale="  475.523">  2  5  1 -1</clus>
</clustering>
</event>
<event>
 9    1  0.2728138E-005  0.1949596E+03  0.7546771E-02  0.1185480E+00
          1   -1    0    0  502    0 -0.00000000000E+00  0.00000000000E+00  0.70185276821E+03  0.70185276821E+03  0.00000000000E+00 0. -1.
         21   -1    0    0  501  502  0.00000000000E+00 -0.00000000000E+00 -0.30765974265E+02  0.30765974265E+02  0.00000000000E+00 0. -1.
         23    2    1    2    0    0 -0.20754150017E+02 -0.12512835272E+02  0.27919001538E+03  0.29490612373E+03  0.91843624386E+02 0.  0.
        -24    2    1    2    0    0  0.22992643489E+02 -0.52634808948E+02  0.34200515383E+03  0.35562485705E+03  0.78755501008E+02 0.  0.
         11    1    4    4    0    0  0.47360498666E+02 -0.12856569070E+02  0.20873708544E+03  0.21442826083E+03  0.00000000000E+00 0. -1.
        -12    1    4    4    0    0 -0.24367855177E+02 -0.39778239878E+02  0.13326806839E+03  0.14119659622E+03  0.00000000000E+00 0.  1.
        -11    1    3    3    0    0 -0.43673679072E+02  0.24614373168E+02  0.12549571208E+03  0.13513856356E+03  0.00000000000E+00 0. -1.
         11    1    3    3    0    0  0.22919529055E+02 -0.37127208440E+02  0.15369430330E+03  0.15976756018E+03  0.00000000000E+00 0.  1.
          2    1    1    2  501    0 -0.22384934715E+01  0.65147644221E+02  0.49891624744E+02  0.82087761695E+02  0.00000000000E+00 0. -1.
<scales pt_clust_5="13000.00000" pt_clust_6="13000.00000" pt_clust_7="13000.00000" pt_clust_8="13000.00000" pt_clust_9="13000.00000"></scales>
<clustering>
<clus scale="   78.756">  5  6 -1 -1</clus>
<clus scale="   65.186">  5  9 -1 -1</clus>
<clus scale="   91.844">  7  8 -1 -1</clus>
<clus scale="   94.987">  1  7  2 -1</clus>
<clus scale="  194.960">  2  5  1 -1</clus>
</clustering>
</event>
<event>
 9    1  0.2728138E-005  0.2689459E+03  0.7546771E-02  0.1121663E+00
         21   -1    0    0  501  502  0.00000000000E+00  0.00000000000E+00  0.11754598043E+04  0.11754598043E+04  0.00000000000E+00 0. -1.
          1   -1    0    0  502    0 -0.00000000000E+00 -0.00000000000E+00 -0.43768257344E+02  0.43768257344E+02  0.00000000000E+00 0. -1.
         23    2    1    2    0    0 -0.57115974085E+02 -0.12338742697E+03  0.25776730853E+03  0.30485644018E+03  0.89480568505E+02 0.  0.
        -24    2    1    2    0    0 -0.25450930821E+02  0.15514595267E+03  0.51018888798E+03  0.54003313439E+03  0.81394522634E+02 0.  0.
         11    1    4    4    0    0 -0.22803805710E+02  0.15718607624E+03  0.51211192426E+03  0.53617730192E+03  0.00000000000E+00 0. -1.
        -12    1    4    4    0    0 -0.26471251114E+01 -0.20401235667E+01 -0.19230362852E+01  0.38558324752E+01  0.00000000000E+00 0.  1.
        -11    1    3    3    0    0 -0.41087621806E+02 -0.91756846801E+02  0.24870519229E+03  0.26825693705E+03  0.00000000000E+00 0.  1.
         11    1    3    3    0    0 -0.16028352279E+02 -0.31630580166E+02  0.90621162363E+01  0.36599503127E+02  0.00000000000E+00 0. -1.
          2    1    1    2  501    0  0.82566904906E+02 -0.31758525706E+02  0.36373535042E+03  0.37433848705E+03  0.00000000000E+00 0. -1.
<scales pt_clust_5="13000.00000" pt_clust_6="13000.00000" pt_clust_7="13000.00000" pt_clust_8="13000.00000" pt_clust_9="13000.00000"></scales>
<clustering>
<clus scale="   81.395">  5  6 -1 -1</clus>
<clus scale="   88.464">  5  9 -1 -1</clus>
<clus scale="   89.481">  7  8 -1 -1</clus>
<clus scale="  162.768">  2  7  1 -1</clus>
<clus scale="  268.946">  1  5  2 -1</clus>
</clustering>
</event>
<event>
 9    1  0.2728138E-005  0.2565671E+03  0.7546771E-02  0.1149490E+00
          1   -1    0    0  502    0 -0.00000000000E+00  0.00000000000E+00  0.20491092066E+03  0.20491092066E+03  0.00000000000E+00 0. -1.
         21   -1    0    0  501  502  0.00000000000E+00 -0.00000000000E+00 -0.15136412887E+03  0.15136412887E+03  0.00000000000E+00 0. -1.
         23    2    1    2    0    0 -0.22822491407E+02  0.88882057647E+01  0.21725868408E+02  0.97742190182E+02  0.92095906901E+02 0.  0.
        -24    2    1    2    0    0 -0.68748391654E+02 -0.57109618030E+02 -0.46086944702E+02  0.12899457490E+03  0.80794455602E+02 0.  0.
         13    1    4    4    0    0 -0.64567894078E+02 -0.57138406884E+02 -0.66041921250E+02  0.10860638033E+03  0.00000000000E+00 0. -1.
        -14    1    4    4    0    0 -0.41804975766E+01  0.28788853889E-01  0.19954976548E+02  0.20388194570E+02  0.00000000000E+00 0.  1.
        -11    1    3    3    0    0  0.15115381592E+02  0.28225175965E+02 -0.20302878750E+02  0.37912296217E+02  0.00000000000E+00 0. -1.
         11    1    3    3    0    0 -0.37937872999E+02 -0.19336970200E+02  0.42028747158E+02  0.59829893965E+02  0.00000000000E+00 0.  1.
          2    1    1    2  501    0  0.91570883061E+02  0.48221412266E+02  0.77907868093E+02  0.12953828444E+03  0.00000000000E+00 0. -1.
<scales pt_clust_5="13000.00000" pt_clust_6="13000.00000" pt_clust_7="13000.00000" pt_clust_8="13000.00000" pt_clust_9="13000.00000"></scales>
<clustering>
<clus scale="   80.794">  5  6 -1 -1</clus>
<clus scale="   92.096">  7  8 -1 -1</clus>
<clus scale="   95.297">  1  7  2 -1</clus>
<clus scale="   92.967">  5  9 -1 -1</clus>
<clus scale="  256.567">  2  5  1 -1</clus>
</clustering>
</event>
<event>
 9    1  0.2728138E-005  0.2447033E+03  0.7546771E-02  0.1137016E+00
         21   -1    0    0  501  502  0.00000000000E+00  0.00000000000E+00  0.38947463308E+03  0.38947463308E+03  0.00000000000E+00 0. -1.
          3   -1    0    0  502    0 -0.00000000000E+00 -0.00000000000E+00 -0.12575937829E+03  0.12575937829E+03  0.00000000000E+00 0. -1.
         23    2    1    2    0    0  0.14040609742E+02 -0.11659709882E+03 -0.95088569896E+01  0.14844916805E+03  0.90303460386E+02 0.  0.
        -24    2    1    2    0    0 -0.10618871931E+02  0.19908904538E+02  0.93039489593E+01  0.85690255068E+02  0.82140924187E+02 0.  0.
         11    1    4    4    0    0  0.31862720874E+02  0.20605747185E+02 -0.96713277604E+01  0.39158196833E+02  0.00000000000E+00 0. -1.
        -12    1    4    4    0    0 -0.42481592805E+02 -0.69684264768E+00  0.18975276720E+02  0.46532058235E+02  0.00000000000E+00 0.  1.
        -11    1    3    3    0    0 -0.79678751909E+01 -0.55040782600E+02 -0.47239663246E+02  0.72969586595E+02  0.00000000000E+00 0. -1.
         11    1    3    3    0    0  0.22008484932E+02 -0.61556316217E+02  0.37730806256E+02  0.75479581451E+02  0.00000000000E+00 0.  1.
          4    1    1    2  501    0 -0.34217378101E+01  0.96688194279E+02  0.26392016282E+03  0.28109458825E+03  0.00000000000E+00 0. -1.
<scales pt_clust_5="13000.00000" pt_clust_6="13000.00000" pt_clust_7="13000.00000" pt_clust_8="13000.00000" pt_clust_9="13000.00000"></scales>
<clustering>
<clus scale="   82.141">  5  6 -1 -1</clus>
<clus scale="   90.303">  7  8 -1 -1</clus>
<clus scale="   96.749">  5  9 -1 -1</clus>
<clus scale="  148.144">  2  7  1 -1</clus>
<clus scale="  244.703">  1  5  2 -1</clus>
</clustering>
</event>
<event>
 9    1  0.2728138E-005  0.5824284E+03  0.7546771E-02  0.1026664E+00
         21   -1    0    0  501  502  0.00000000000E+00  0.00000000000E+00  0.13717364596E+03  0.13717364596E+03  0.00000000000E+00 0. -1.
          3   -1    0    0  502    0 -0.00000000000E+00 -0.00000000000E+00 -0.13990642367E+04  0.13990642367E+04  0.00000000000E+00 0. -1.
         23    2    1    2    0    0  0.13813298625E+03 -0.13915660750E+03 -0.67999428987E+03  0.71293593092E+03  0.86256153602E+02 0.  0.
        -24    2    1    2    0    0  0.18613078016E+03 -0.68011142089E+01 -0.12209023999E+03  0.24203414742E+03  0.94781745818E+02 0.  0.
         13    1    4    4    0    0  0.13194391348E+03  0.23716573614E+02 -0.41694819694E+02  0.14039277103E+03  0.00000000000E+00 0. -1.
        -14    1    4    4    0    0  0.54186866682E+02 -0.30517687823E+02 -0.80395420292E+02  0.10164137639E+03  0.00000000000E+00 0.  1.
        -13    1    3    3    0    0  0.60639702283E+02 -0.39533332653E+02 -0.13150291364E+03  0.15011020678E+03  0.00000000000E+00 0.  1.
         13    1    3    3    0    0  0.77493283970E+02 -0.99623274845E+02 -0.54849137623E+03  0.56282572414E+03  0.00000000000E+00 0. -1.
          4    1    1    2  501    0 -0.32426376641E+03  0.14595772171E+03 -0.45980606092E+03  0.58126780437E+03  0.00000000000E+00 0. -1.
<scales pt_clust_5="13000.00000" pt_clust_6="13000.00000" pt_clust_7="13000.00000" pt_clust_8="13000.00000" pt_clust_9="13000.00000"></scales>
<clustering>
<clus scale="   86.256">  7  8 -1 -1</clus>
<clus scale="   94.782">  5  6 -1 -1</clus>
<clus scale="  214.209">  2  7  1 -1</clus>
<clus scale="  226.026">  5  9 -1 -1</clus>
<clus scale="  582.428">  1  5  2 -1</clus>
</clustering>
</event>
<event>
 9    1  0.2728138E-005  0.2578269E+03  0.7546771E-02  0.1130046E+00
         -4   -1    0    0    0  501 -0.00000000000E+00  0.00000000000E+00  0.18603793135E+03  0.18603793135E+03  0.00000000000E+00 0.  1.
         21   -1    0    0  501  502  0.00000000000E+00 -0.00000000000E+00 -0.23058712172E+03  0.23058712172E+03  0.00000000000E+00 0.  1.
         23    2    1    2    0    0  0.97561947362E+02 -0.67976229370E+02 -0.51443364030E+02  0.15870598295E+03  0.91662795002E+02 0.  0.
        -24    2    1    2    0    0 -0.64011123223E+01 -0.51331535966E+02 -0.36285133072E+02  0.10168497255E+03  0.79670081817E+02 0.  0.
         13    1    4    4    0    0 -0.15434455034E+02 -0.35749646172E+02  0.19152856479E+02  0.43394602371E+02  0.00000000000E+00 0. -1.
        -14    1    4    4    0    0  0.90333427118E+01 -0.15581889794E+02 -0.55437989551E+02  0.58290370178E+02  0.00000000000E+00 0.  1.
        -13    1    3    3    0    0  0.57795785839E+02  0.46220443638E+01  0.54916576793E+01  0.58239801330E+02  0.00000000000E+00 0. -1.
         13    1    3    3    0    0  0.39766161523E+02 -0.72598273734E+02 -0.56935021709E+02  0.10046618162E+03  0.00000000000E+00 0.  1.
         -3    1    1    2    0  502 -0.91160835040E+02  0.11930776534E+03  0.43179306740E+02  0.15623409758E+03  0.00000000000E+00 0.  1.
<scales pt_clust_5="13000.00000" pt_clust_6="13000.00000" pt_clust_7="13000.00000" pt_clust_8="13000.00000" pt_clust_9="13000.00000"></scales>
<clustering>
<clus scale="   79.670">  5  6 -1 -1</clus>
<clus scale="   91.663">  7  8 -1 -1</clus>
<clus scale="  150.137">  1  7  2 -1</clus>
<clus scale="   70.380">  5  9 -1 -1</clus>
<clus scale="  257.827">  2  5  1 -1</clus>
</clustering>
</event>
<event>
 9    1  0.2728138E-005  0.7720668E+03  0.7546771E-02  0.1013511E+00
          1   -1    0    0  502    0 -0.00000000000E+00  0.00000000000E+00  0.89211335992E+03  0.89211335992E+03  0.00000000000E+00 0. -1.
         21   -1    0    0  501  502  0.00000000000E+00 -0.00000000000E+00 -0.38481864407E+03  0.38481864407E+03  0.00000000000E+00 0. -1.
         23    2    1    2    0    0 -0.80454387880E+02  0.63574421439E+02  0.48562758456E+03  0.50456123170E+03  0.90737368550E+02 0.  0.
        -24    2    1    2    0    0 -0.21650230402E+03  0.24718448970E+03 -0.28899989962E+02  0.33957588847E+03  0.80642141720E+02 0.  0.
         13    1    4    4    0    0 -0.14281515011E+03  0.21400607166E+03 -0.16432516731E+02  0.25780766749E+03  0.00000000000E+00 0. -1.
        -14    1    4    4    0    0 -0.73687153909E+02  0.33178418033E+02 -0.12467473230E+02  0.81768220986E+02  0.00000000000E+00 0.  1.
        -11    1    3    3    0    0 -0.40235540280E+01  0.32033285171E+02  0.40371321378E+02  0.51692977624E+02  0.00000000000E+00 0.  1.
         11    1    3    3    0    0 -0.76430833852E+02  0.31541136269E+02  0.44525626319E+03  0.45286825407E+03  0.00000000000E+00 0. -1.
          2    1    1    2  501    0  0.29695669190E+03 -0.31075891113E+03  0.50567121239E+02  0.43279488382E+03  0.00000000000E+00 0. -1.
<scales pt_clust_5="13000.00000" pt_clust_6="13000.00000" pt_clust_7="13000.00000" pt_clust_8="13000.00000" pt_clust_9="13000.00000"></scales>
<clustering>
<clus scale="   80.642">  5  6 -1 -1</clus>
<clus scale="   90.737">  7  8 -1 -1</clus>
<clus scale="  136.923">  1  7  2 -1</clus>
<clus scale="  368.118">  5  9 -1 -1</clus>
<clus scale="  772.067">  2  5  1 -1</clus>
</clustering>
</event>
<event>
 9    1  0.2728138E-005  0.1725445E+03  0.7546771E-02  0.1204953E+00
         21   -1    0    0  501  502  0.00000000000E+00  0.00000000000E+00  0.58652441691E+03  0.58652441691E+03  0.00000000000E+00 0.  1.
         -2   -1    0    0    0  501 -0.00000000000E+00 -0.00000000000E+00 -0.27832631596E+03  0.27832631596E+03  0.00000000000E+00 0.  1.
         23    2    1    2    0    0  0.10250078820E+00  0.24669337722E+02 -0.25793558966E+03  0.27300704813E+03  0.85985424271E+02 0.  0.
        -24    2    1    2    0    0 -0.22440905264E+02 -0.56942284371E+02  0.25027592296E+03  0.27355658668E+03  0.91919260898E+02 0.  0.
         13    1    4    4    0    0 -0.24199779664E+02  0.18819942103E+02  0.42586692744E+02  0.52473288018E+02  0.00000000000E+00 0. -1.
        -14    1    4    4    0    0  0.17588744005E+01 -0.75762226474E+02  0.20768923021E+03  0.22108329866E+03  0.00000000000E+00 0.  1.
        -11    1    3    3    0    0  0.21881590101E+02 -0.22530775595E+02 -0.53236643775E+02  0.61810841077E+02  0.00000000000E+00 0. -1.
         11    1    3    3    0    0 -0.21779089313E+02  0.47200113317E+02 -0.20469894588E+03  0.21119620705E+03  0.00000000000E+00 0.  1.
         -1    1    1    2    0  502  0.22338404476E+02  0.32272946648E+02  0.31585776766E+03  0.31828709806E+03  0.00000000000E+00 0.  1.
<scales pt_clust_5="13000.00000" pt_clust_6="13000.00000" pt_clust_7="13000.00000" pt_clust_8="13000.00000" pt_clust_9="13000.00000"></scales>
<clustering>
<clus scale="   85.985">  7  8 -1 -1</clus>
<clus scale="   89.454">  2  7  1 -1</clus>
<clus scale="   91.919">  5  6 -1 -1</clus>
<clus scale="   41.193">  5  9 -1 -1</clus>
<clus scale="  172.544">  1  5  2 -1</clus>
</clustering>
</event>
<event>
 9    1  0.2728138E-005  0.1577297E+03  0.7546771E-02  0.1216985E+00
          1   -1    0    0  502    0 -0.00000000000E+00  0.00000000000E+00  0.11207764621E+03  0.11207764621E+03  0.00000000000E+00 0. -1.
         21   -1    0    0  501  502  0.00000000000E+00 -0.00000000000E+00 -0.14838485535E+03  0.14838485535E+03  0.00000000000E+00 0. -1.
         23    2    1    2    0    0 -0.56749111378E+01  0.11013417445E+02  0.20352705244E+02  0.92864801299E+02  0.89755995506E+02 0.  0.
        -24    2    1    2    0    0  0.22388943816E+01 -0.58376330869E+02 -0.83614059075E+01  0.99864416713E+02  0.80561653179E+02 0.  0.
         11    1    4    4    0    0  0.20077280930E+02 -0.72292605167E+02  0.18283998519E+01  0.75051056071E+02  0.00000000000E+00 0. -1.
        -12    1    4    4    0    0 -0.17838386548E+02  0.13916274298E+02 -0.10189805759E+02  0.24813360643E+02  0.00000000000E+00 0.  1.
        -13    1    3    3    0    0  0.52545976804E+01  0.43864579563E+02 -0.11681566639E+02  0.45696511203E+02  0.00000000000E+00 0.  1.
         13    1    3    3    0    0 -0.10929508818E+02 -0.32851162118E+02  0.32034271883E+02  0.47168290096E+02  0.00000000000E+00 0. -1.
          2    1    1    2  501    0  0.34360167562E+01  0.47362913424E+02 -0.48298508477E+02  0.67733283549E+02  0.00000000000E+00 0. -1.
<scales pt_clust_5="13000.00000" pt_clust_6="13000.00000" pt_clust_7="13000.00000" pt_clust_8="13000.00000" pt_clust_9="13000.00000"></scales>
<clustering>
<clus scale="   80.562">  5  6 -1 -1</clus>
<clus scale="   47.487">  5  9 -1 -1</clus>
<clus scale="   89.756">  7  8 -1 -1</clus>
<clus scale="   90.607">  1  7  2 -1</clus>
<clus scale="  157.730">  2  5  1 -1</clus>
</clustering>
</event>
<event>
 9    1  0.2728138E-005  0.4505016E+03  0.7546771E-02  0.1072348E+00
          1   -1    0    0  502    0 -0.00000000000E+00  0.00000000000E+00  0.27429593775E+03  0.27429593775E+03  0.00000000000E+00 0. -1.
         21   -1    0    0  501  502  0.00000000000E+00 -0.00000000000E+00 -0.34358058901E+03  0.34358058901E+03  0.00000000000E+00 0. -1.
         23    2    1    2    0    0 -0.50755614573E+02 -0.72355263623E+02  0.73333678459E+02  0.14533900075E+03  0.89074015056E+02 0.  0.
        -24    2    1    2    0    0 -0.11029535132E+03 -0.34548207562E+02  0.92049678737E+02  0.16850654082E+03  0.81010294251E+02 0.  0.
         13    1    4    4    0    0 -0.80995267257E+02  0.50184270976E+01  0.87066104244E+02  0.11902068911E+03  0.00000000000E+00 0. -1.
        -14    1    4    4    0    0 -0.29300084063E+02 -0.39566634660E+02  0.49835744932E+01  0.49485851707E+02  0.00000000000E+00 0.  1.
        -11    1    3    3    0    0  0.16610546847E+02 -0.20259492440E+02  0.50943298808E+02  0.57285050353E+02  0.00000000000E+00 0.  1.
         11    1    3    3    0    0 -0.67366161420E+02 -0.52095771182E+02  0.22390379651E+02  0.88053950397E+02  0.00000000000E+00 0. -1.
          2    1    1    2  501    0  0.16105096589E+03  0.10690347118E+03 -0.23466800846E+03  0.30403098520E+03  0.00000000000E+00 0. -1.
<scales pt_clust_5="13000.00000" pt_clust_6="13000.00000" pt_clust_7="13000.00000" pt_clust_8="13000.00000" pt_clust_9="13000.00000"></scales>
<clustering>
<clus scale="   81.010">  5  6 -1 -1</clus>
<clus scale="   89.074">  7  8 -1 -1</clus>
<clus scale="  125.481">  1  7  2 -1</clus>
<clus scale="  176.129">  5  9 -1 -1</clus>
<clus scale="  450.502">  2  5  1 -1</clus>
</clustering>
</event>
<event>
 9    1  0.2728138E-005  0.2066415E+03  0.7546771E-02  0.1175911E+00
         21   -1    0    0  501  502  0.00000000000E+00  0.00000000000E+00  0.31969994510E+02  0.31969994510E+02  0.00000000000E+00 0. -1.
          1   -1    0    0  502    0 -0.00000000000E+00 -0.00000000000E+00 -0.76364916676E+03  0.76364916676E+03  0.00000000000E+00 0. -1.
         23    2    1    2    0    0 -0.27355016630E+02 -0.14796900523E+02 -0.16409770126E+03  0.19159146835E+03  0.93872200275E+02 0.  0.
        -24    2    1    2    0    0  0.88256901305E+02  0.50914608370E+02 -0.29423802534E+03  0.32166238404E+03  0.80678967403E+02 0.  0.
         11    1    4    4    0    0  0.74390902242E+02  0.49124961525E+02 -0.29448133104E+03  0.30767925265E+03  0.00000000000E+00 0. -1.
        -12    1    4    4    0    0  0.13865999062E+02  0.17896468447E+01  0.24330570434E+00  0.13983131391E+02  0.00000000000E+00 0.  1.
        -13    1    3    3    0    0  0.78620970480E+01  0.29709766731E+02 -0.10603191210E+03  0.11039587489E+03  0.00000000000E+00 0. -1.
         13    1    3    3    0    0 -0.35217113678E+02 -0.44506667254E+02 -0.58065789159E+02  0.81195593455E+02  0.00000000000E+00 0.  1.
          2    1    1    2  501    0 -0.60901884675E+02 -0.36117707847E+02 -0.27334344565E+03  0.28236530888E+03  0.00000000000E+00 0. -1.
<scales pt_clust_5="13000.00000" pt_clust_6="13000.00000" pt_clust_7="13000.00000" pt_clust_8="13000.00000" pt_clust_9="13000.00000"></scales>
<clustering>
<clus scale="   80.679">  5  6 -1 -1</clus>
<clus scale="   70.806">  5  9 -1 -1</clus>
<clus scale="   93.872">  7  8 -1 -1</clus>
<clus scale="   98.890">  2  7  1 -1</clus>
<clus scale="  206.642">  1  5  2 -1</clus>
</clustering>
</event>
<event>
 9    1  0.2728138E-005  0.2342805E+03  0.7546771E-02  0.1135706E+00
         -2   -1    0    0    0  501 -0.00000000000E+00  0.00000000000E+00  0.73203111199E+02  0.73203111199E+02  0.00000000000E+00 0.  1.
         21   -1    0    0  501  502  0.00000000000E+00 -0.00000000000E+00 -0.60467963094E+03  0.60467963094E+03  0.00000000000E+00 0.  1.
         23    2    1    2    0    0  0.79657741453E+02  0.12286155655E+03 -0.14861787795E+03  0.22903076433E+03  0.94485446025E+02 0.  0.
        -24    2    1    2    0    0  0.24166055462E+02 -0.82365184359E+02 -0.24328557183E+03  0.27024632610E+03  0.80480963440E+02 0.  0.
         11    1    4    4    0    0  0.31903898379E+02 -0.37574246606E+02 -0.44754147722E+02  0.66577897820E+02  0.00000000000E+00 0. -1.
        -12    1    4    4    0    0 -0.77378429174E+01 -0.44790937754E+02 -0.19853142411E+03  0.20366842828E+03  0.00000000000E+00 0.  1.
        -11    1    3    3    0    0  0.54544686599E+02  0.13038450820E+03 -0.14513996664E+03  0.20258542083E+03  0.00000000000E+00 0. -1.
         11    1    3    3    0    0  0.25113054854E+02 -0.75229516536E+01 -0.34779113098E+01  0.26445343499E+02  0.00000000000E+00 0.  1.
         -1    1    1    2    0  502 -0.10382379692E+03 -0.40496372191E+02 -0.13957306995E+03  0.17860565171E+03  0.00000000000E+00 0.  1.
<scales pt_clust_5="13000.00000" pt_clust_6="13000.00000" pt_clust_7="13000.00000" pt_clust_8="13000.00000" pt_clust_9="13000.00000"></scales>
<clustering>
<clus scale="   80.481">  5  6 -1 -1</clus>
<clus scale="   94.485">  7  8 -1 -1</clus>
<clus scale="  111.442">  5  9 -1 -1</clus>
<clus scale="  174.264">  1  7  2 -1</clus>
<clus scale="  234.281">  2  5  1 -1</clus>
</clustering>
</event>
<event>
 9    1  0.2728138E-005  0.2588413E+03  0.7546771E-02  0.1141665E+00
         21   -1    0    0  501  502  0.00000000000E+00  0.00000000000E+00  0.14751374525E+03  0.14751374525E+03  0.00000000000E+00 0.  1.
         -4   -1    0    0    0  501 -0.00000000000E+00 -0.00000000000E+00 -0.23329657535E+03  0.23329657535E+03  0.00000000000E+00 0.  1.
         23    2    1    2    0    0 -0.27543917793E+02  0.57098670633E+02 -0.32981957720E+02  0.11663847129E+03  0.92183500990E+02 0.  0.
        -24    2    1    2    0    0 -0.74899617718E+02  0.38024944787E+02 -0.41623965914E+00  0.11488243266E+03  0.78370599834E+02 0.  0.
         11    1    4    4    0    0 -0.43390616779E+02 -0.18043616287E+02  0.13874678451E+02  0.48998208286E+02  0.00000000000E+00 0. -1.
        -12    1    4    4    0    0 -0.31509000940E+02  0.56068561074E+02 -0.14290918110E+02  0.65884224375E+02  0.00000000000E+00 0.  1.
        -11    1    3    3    0    0 -0.24562812715E+01  0.46499734012E+02 -0.61542984365E+02  0.77173813599E+02  0.00000000000E+00 0. -1.
         11    1    3    3    0    0 -0.25087636522E+02  0.10598936621E+02  0.28561026645E+02  0.39464657692E+02  0.00000000000E+00 0.  1.
         -3    1    1    2    0  502  0.10244353551E+03 -0.95123615420E+02 -0.52384632717E+02  0.14928941665E+03  0.00000000000E+00 0.  1.
<scales pt_clust_5="13000.00000" pt_clust_6="13000.00000" pt_clust_7="13000.00000" pt_clust_8="13000.00000" pt_clust_9="13000.00000"></scales>
<clustering>
<clus scale="   78.371">  5  6 -1 -1</clus>
<clus scale="   92.184">  7  8 -1 -1</clus>
<clus scale="  111.878">  2  7  1 -1</clus>
<clus scale="  103.286">  5  9 -1 -1</clus>
<clus scale="  258.841">  1  5  2 -1</clus>
</clustering>
</event>
<event>
 9    1  0.2728138E-005  0.2106760E+03  0.7546771E-02  0.1156773E+00
         21   -1    0    0  501  502  0.00000000000E+00  0.00000000000E+00  0.20170250364E+03  0.20170250364E+03  0.00000000000E+00 0. -1.
          3   -1    0    0  502    0 -0.00000000000E+00 -0.00000000000E+00 -0.18265258164E+03  0.18265258164E+03  0.00000000000E+00 0. -1.
         23    2    1    2    0    0  0.24676322143E+02  0.11155944155E+03  0.79275416052E+02  0.16523989353E+03  0.89247974483E+02 0.  0.
        -24    2    1    2    0    0  0.49697896178E+02 -0.43029058344E+02 -0.50255713280E+01  0.10389813902E+03  0.80300598860E+02 0.  0.
         11    1    4    4    0    0  0.23304141363E+02 -0.40719198164E+02  0.33138060931E+02  0.57439247784E+02  0.00000000000E+00 0. -1.
        -12    1    4    4    0    0  0.26393754815E+02 -0.23098601800E+01 -0.38163632259E+02  0.46458891231E+02  0.00000000000E+00 0.  1.
        -13    1    3    3    0    0 -0.29076782344E+02  0.16236627340E+02  0.31469722140E+02  0.45819545507E+02  0.00000000000E+00 0.  1.
         13    1    3    3    0    0  0.53753104487E+02  0.95322814214E+02  0.47805693911E+02  0.11942034802E+03  0.00000000000E+00 0. -1.
          4    1    1    2  501    0 -0.74374218321E+02 -0.68530383210E+02 -0.55199922718E+02  0.11521705274E+03  0.00000000000E+00 0. -1.
<scales pt_clust_5="13000.00000" pt_clust_6="13000.00000" pt_clust_7="13000.00000" pt_clust_8="13000.00000" pt_clust_9="13000.00000"></scales>
<clustering>
<clus scale="   80.301">  5  6 -1 -1</clus>
<clus scale="   89.248">  7  8 -1 -1</clus>
<clus scale="  101.133">  5  9 -1 -1</clus>
<clus scale="  144.982">  2  7  1 -1</clus>
<clus scale="  210.676">  1  5  2 -1</clus>
</clustering>
</event>
<event>
 9    1  0.2728138E-005  0.1270273E+03  0.7546771E-02  0.1247666E+00
         21   -1    0    0  501  502  0.00000000000E+00  0.00000000000E+00  0.12896672639E+02  0.12896672639E+02  0.00000000000E+00 0. -1.
          1   -1    0    0  502    0 -0.00000000000E+00 -0.00000000000E+00 -0.93626170442E+03  0.93626170442E+03  0.00000000000E+00 0. -1.
         23    2    1    2    0    0 -0.15654679674E+01 -0.18822801338E+02 -0.35833059155E+03  0.37002121618E+03  0.90322417192E+02 0.  0.
        -24    2    1    2    0    0  0.14552616419E+02  0.47326626329E+02 -0.40618448738E+03  0.41722841625E+03  0.81499235181E+02 0.  0.
         11    1    4    4    0    0  0.76032265749E+01  0.70613761915E+02 -0.30762651606E+03  0.31571852307E+03  0.00000000000E+00 0. -1.
        -12    1    4    4    0    0  0.69493898441E+01 -0.23287135586E+02 -0.98557971320E+02  0.10150989318E+03  0.00000000000E+00 0.  1.
        -13    1    3    3    0    0 -0.40350090877E+02  0.46294781866E+01 -0.23794295678E+03  0.24138436690E+03  0.00000000000E+00 0. -1.
         13    1    3    3    0    0  0.38784622909E+02 -0.23452279525E+02 -0.12038763477E+03  0.12863684929E+03  0.00000000000E+00 0.  1.
          2    1    1    2  501    0 -0.12987148452E+02 -0.28503824991E+02 -0.15884995286E+03  0.16190874463E+03  0.00000000000E+00 0. -1.
<scales pt_clust_5="13000.00000" pt_clust_6="13000.00000" pt_clust_7="13000.00000" pt_clust_8="13000.00000" pt_clust_9="13000.00000"></scales>
<clustering>
<clus scale="   81.499">  5  6 -1 -1</clus>
<clus scale="   31.323">  5  9 -1 -1</clus>
<clus scale="   90.322">  7  8 -1 -1</clus>
<clus scale="   92.276">  2  7  1 -1</clus>
<clus scale="  127.027">  1  5  2 -1</clus>
</clustering>
</event>
<event>
 9    1  0.2728138E-005  0.3671748E+03  0.7546771E-02  0.1071354E+00
         21   -1    0    0  501  502  0.00000000000E+00  0.00000000000E+00  0.10924853257E+03  0.10924853257E+03  0.00000000000E+00 0. -1.
          1   -1    0    0  502    0 -0.00000000000E+00 -0.00000000000E+00 -0.16756122208E+04  0.16756122208E+04  0.00000000000E+00 0. -1.
         23    2    1    2    0    0 -0.20473376316E+03 -0.80230702593E+02 -0.13232153999E+04  0.13444763205E+04  0.91458748065E+02 0.  0.
        -24    2    1    2    0    0  0.41997322707E+02 -0.89519061382E+02 -0.53383840122E+02  0.13821117586E+03  0.80467740620E+02 0.  0.
         11    1    4    4    0    0  0.46806438813E+02 -0.66235773739E+02 -0.14767946448E+01  0.81118440318E+02  0.00000000000E+00 0. -1.
        -12    1    4    4    0    0 -0.48091161066E+01 -0.23283287643E+02 -0.51907045477E+02  0.57092735539E+02  0.00000000000E+00 0.  1.
        -13    1    3    3    0    0 -0.14902110737E+03 -0.11969048615E+02 -0.87558029474E+03  0.88825187932E+03  0.00000000000E+00 0.  1.
         13    1    3    3    0    0 -0.55712655785E+02 -0.68261653978E+02 -0.44763510514E+03  0.45622444122E+03  0.00000000000E+00 0. -1.
          2    1    1    2  501    0  0.16273644045E+03  0.16974976397E+03 -0.18976444824E+03  0.30217325699E+03  0.00000000000E+00 0. -1.
<scales pt_clust_5="13000.00000" pt_clust_6="13000.00000" pt_clust_7="13000.00000" pt_clust_8="13000.00000" pt_clust_9="13000.00000"></scales>
<clustering>
<clus scale="   80.468">  5  6 -1 -1</clus>
<clus scale="   91.459">  7  8 -1 -1</clus>
<clus scale="  235.156">  5  9 -1 -1</clus>
<clus scale="  238.155">  2  7  1 -1</clus>
<clus scale="  367.175">  1  5  2 -1</clus>
</clustering>
</event>
<event>
 9    1  0.2728138E-005  0.1622479E+03  0.7546771E-02  0.1201342E+00
         21   -1    0    0  501  502  0.00000000000E+00  0.00000000000E+00  0.81458633355E+02  0.81458633355E+02  0.00000000000E+00 0. -1.
          1   -1    0    0  502    0 -0.00000000000E+00 -0.00000000000E+00 -0.23815603761E+03  0.23815603761E+03  0.00000000000E+00 0. -1.
         23    2    1    2    0    0 -0.13171947294E+02 -0.69528785076E+02 -0.66027116760E+02  0.13375056311E+03  0.92314033789E+02 0.  0.
        -24    2    1    2    0    0 -0.34427738661E+02  0.66844999789E+02 -0.76452218980E+02  0.13611386888E+03  0.83836270953E+02 0.  0.
         13    1    4    4    0    0 -0.86607603977E+01  0.81186456509E+02 -0.45957272299E+02  0.93692691114E+02  0.00000000000E+00 0. -1.
        -14    1    4    4    0    0 -0.25766978263E+02 -0.14341456719E+02 -0.30494946681E+02  0.42421177762E+02  0.00000000000E+00 0.  1.
        -13    1    3    3    0    0  0.14924125124E+01  0.21142317521E+02 -0.10113401422E+01  0.21219040840E+02  0.00000000000E+00 0.  1.
         13    1    3    3    0    0 -0.14664359807E+02 -0.90671102597E+02 -0.65015776617E+02  0.11253152227E+03  0.00000000000E+00 0. -1.
          2    1    1    2  501    0  0.47599685955E+02  0.26837852866E+01 -0.14218068516E+02  0.49750238983E+02  0.00000000000E+00 0. -1.
<scales pt_clust_5="13000.00000" pt_clust_6="13000.00000" pt_clust_7="13000.00000" pt_clust_8="13000.00000" pt_clust_9="13000.00000"></scales>
<clustering>
<clus scale="   83.836">  5  6 -1 -1</clus>
<clus scale="   47.675">  5  9 -1 -1</clus>
<clus scale="   92.314">  7  8 -1 -1</clus>
<clus scale="  116.317">  2  7  1 -1</clus>
<clus scale="  162.248">  1  5  2 -1</clus>
</clustering>
</event>
<event>
 9    1  0.2728138E-005  0.3074844E+03  0.7546771E-02  0.1110607E+00
         21   -1    0    0  501  502  0.00000000000E+00  0.00000000000E+00  0.10478308596E+03  0.10478308596E+03  0.00000000000E+00 0. -1.
          1   -1    0    0  502    0 -0.00000000000E+00 -0.00000000000E+00 -0.50957012062E+03  0.50957012062E+03  0.00000000000E+00 0. -1.
         23    2    1    2    0    0  0.10536653646E+03  0.40683571630E+02 -0.19408246372E+03  0.24160248734E+03  0.89143138583E+02 0.  0.
        -24    2    1    2    0    0 -0.81685301511E+02 -0.14005768950E+03 -0.58854056292E+02  0.18973543302E+03  0.79038533188E+02 0.  0.
         13    1    4    4    0    0 -0.75001867444E+02 -0.13733976091E+03 -0.29161377870E+02  0.15917875488E+03  0.00000000000E+00 0. -1.
        -14    1    4    4    0    0 -0.66834340669E+01 -0.27179285929E+01 -0.29692678421E+02  0.30556678134E+02  0.00000000000E+00 0.  1.
        -11    1    3    3    0    0  0.43972644346E+02  0.57661665897E+02 -0.63818462620E+02  0.96598433403E+02  0.00000000000E+00 0.  1.
         11    1    3    3    0    0  0.61393892117E+02 -0.16978094267E+02 -0.13026400110E+03  0.14500405393E+03  0.00000000000E+00 0. -1.
          2    1    1    2  501    0 -0.23681234951E+02  0.99374117873E+02 -0.15185051465E+03  0.18301528622E+03  0.00000000000E+00 0. -1.
<scales pt_clust_5="13000.00000" pt_clust_6="13000.00000" pt_clust_7="13000.00000" pt_clust_8="13000.00000" pt_clust_9="13000.00000"></scales>
<clustering>
<clus scale="   79.039">  5  6 -1 -1</clus>
<clus scale="   89.143">  7  8 -1 -1</clus>
<clus scale="  102.157">  5  9 -1 -1</clus>
<clus scale="  143.888">  2  7  1 -1</clus>
<clus scale="  307.484">  1  5  2 -1</clus>
</clustering>
</event>
<event>
 9    1  0.2728138E-005  0.1704903E+03  0.7546771E-02  0.1195166E+00
          1   -1    0    0  502    0 -0.00000000000E+00  0.00000000000E+00  0.84591944789E+03  0.84591944789E+03  0.00000000000E+00 0. -1.
         21   -1    0    0  501  502  0.00000000000E+00 -0.00000000000E+00 -0.24814316284E+02  0.24814316284E+02  0.00000000000E+00 0. -1.
         23    2    1    2    0    0  0.54783341690E+02  0.42984000459E+02  0.40847070164E+03  0.42426527704E+03  0.91125585798E+02 0.  0.
        -24    2    1    2    0    0  0.38170067295E+01 -0.45674364551E+02  0.13650749116E+03  0.16417905192E+03  0.78865384232E+02 0.  0.
         13    1    4    4    0    0  0.24120695253E+02  0.11977377912E+02  0.23688391138E+02  0.35866494056E+02  0.00000000000E+00 0. -1.
        -14    1    4    4    0    0 -0.20303688523E+02 -0.57651742463E+02  0.11281910002E+03  0.12831255787E+03  0.00000000000E+00 0.  1.
        -13    1    3    3    0    0 -0.83497516442E+01  0.50352144856E+02  0.19001723991E+03  0.19675265769E+03  0.00000000000E+00 0.  1.
         13    1    3    3    0    0  0.63133093335E+02 -0.73681443965E+01  0.21845346173E+03  0.22751261936E+03  0.00000000000E+00 0. -1.
          2    1    1    2  501    0 -0.58600348420E+02  0.26903640921E+01  0.27612693881E+03  0.28228943521E+03  0.00000000000E+00 0. -1.
<scales pt_clust_5="13000.00000" pt_clust_6="13000.00000" pt_clust_7="13000.00000" pt_clust_8="13000.00000" pt_clust_9="13000.00000"></scales>
<clustering>
<clus scale="   78.865">  5  6 -1 -1</clus>
<clus scale="   58.662">  5  9 -1 -1</clus>
<clus scale="   91.126">  7  8 -1 -1</clus>
<clus scale="  114.685">  1  7  2 -1</clus>
<clus scale="  170.490">  2  5  1 -1</clus>
</clustering>
</event>
<event>
 9    1  0.2728138E-005  0.1886508E+03  0.7546771E-02  0.1167503E+00
         21   -1    0    0  501  502  0.00000000000E+00  0.00000000000E+00  0.15281756158E+03  0.15281756158E+03  0.00000000000E+00 0. -1.
          1   -1    0    0  502    0 -0.00000000000E+00 -0.00000000000E+00 -0.39719154114E+03  0.39719154114E+03  0.00000000000E+00 0. -1.
         23    2    1    2    0    0 -0.36725113815E+02 -0.12630444608E+03 -0.31210676627E+03  0.34956741020E+03  0.86517013589E+02 0.  0.
        -24    2    1    2    0    0  0.22020795105E+01  0.30742314186E+02  0.32131252293E+02  0.92778188013E+02  0.81396779797E+02 0.  0.
         11    1    4    4    0    0  0.16808272005E+02  0.31081843620E+02  0.55159069093E+02  0.65506655493E+02  0.00000000000E+00 0. -1.
        -12    1    4    4    0    0 -0.14606192495E+02 -0.33952943394E+00 -0.23027816800E+02  0.27271532520E+02  0.00000000000E+00 0.  1.
        -11    1    3    3    0    0 -0.23972179307E+02  0.47970572072E+01 -0.34363269260E+02  0.42172401080E+02  0.00000000000E+00 0.  1.
         11    1    3    3    0    0 -0.12752934508E+02 -0.13110150329E+03 -0.27774349701E+03  0.30739500912E+03  0.00000000000E+00 0. -1.
          2    1    1    2  501    0  0.34523034305E+02  0.95562131896E+02  0.35601534410E+02  0.10766350451E+03  0.00000000000E+00 0. -1.
<scales pt_clust_5="13000.00000" pt_clust_6="13000.00000" pt_clust_7="13000.00000" pt_clust_8="13000.00000" pt_clust_9="13000.00000"></scales>
<clustering>
<clus scale="   81.397">  5  6 -1 -1</clus>
<clus scale="   86.517">  7  8 -1 -1</clus>
<clus scale="  101.607">  5  9 -1 -1</clus>
<clus scale="  157.438">  2  7  1 -1</clus>
<clus scale="  188.651">  1  5  2 -1</clus>
</clustering>
</event>
<event>
 9    1  0.2728138E-005  0.1340186E+03  0.7546771E-02  0.1223840E+00
          1   -1    0    0  502    0 -0.00000000000E+00  0.00000000000E+00  0.62548923365E+03  0.62548923365E+03  0.00000000000E+00 0. -1.
         21   -1    0    0  501  502  0.00000000000E+00 -0.00000000000E+00 -0.27503292666E+02  0.27503292666E+02  0.00000000000E+00 0. -1.
         23    2    1    2    0    0  0.27492642723E+02 -0.85347241143E+02  0.30965861442E+03  0.33504027731E+03  0.91233398302E+02 0.  0.
        -24    2    1    2    0    0 -0.37202923681E+02  0.62044756821E+02  0.23169090467E+03  0.25594434936E+03  0.81198677858E+02 0.  0.
         13    1    4    4    0    0  0.15758325148E+02  0.51075804212E+02  0.96106036425E+02  0.10997014515E+03  0.00000000000E+00 0. -1.
        -14    1    4    4    0    0 -0.52961248828E+02  0.10968952609E+02  0.13558486824E+03  0.14597420421E+03  0.00000000000E+00 0.  1.
        -13    1    3    3    0    0  0.59624799644E+02 -0.38060507779E+02  0.16895146533E+03  0.18316199557E+03  0.00000000000E+00 0.  1.
         13    1    3    3    0    0 -0.32132156922E+02 -0.47286733364E+02  0.14070714909E+03  0.15187828175E+03  0.00000000000E+00 0. -1.
          2    1    1    2  501    0  0.97102809583E+01  0.23302484322E+02  0.56636421896E+02  0.62007899634E+02  0.00000000000E+00 0. -1.
<scales pt_clust_5="13000.00000" pt_clust_6="13000.00000" pt_clust_7="13000.00000" pt_clust_8="13000.00000" pt_clust_9="13000.00000"></scales>
<clustering>
<clus scale="   81.199">  5  6 -1 -1</clus>
<clus scale="   25.245">  5  9 -1 -1</clus>
<clus scale="   91.233">  7  8 -1 -1</clus>
<clus scale="  127.920">  1  7  2 -1</clus>
<clus scale="  134.019">  2  5  1 -1</clus>
</clustering>
</event>
<event>
 9    1  0.2728138E-005  0.1794337E+03  0.7546771E-02  0.1188548E+00
         21   -1    0    0  501  502  0.00000000000E+00  0.00000000000E+00  0.83690478001E+02  0.83690478001E+02  0.00000000000E+00 0.  1.
         -2   -1    0    0    0  501 -0.00000000000E+00 -0.00000000000E+00 -0.41308488232E+03  0.41308488232E+03  0.00000000000E+00 0.  1.
         23    2    1    2    0    0 -0.67281149234E+02 -0.13389437891E+02  0.85651913414E+01  0.11413566783E+03  0.90816067302E+02 0.  0.
        -24    2    1    2    0    0  0.12328277790E+02 -0.24934913691E+02 -0.91158134993E+02  0.12690636460E+03  0.83795485835E+02 0.  0.
         13    1    4    4    0    0  0.60285630944E+01  0.23789855301E+02 -0.68575062107E+02  0.72834332091E+02  0.00000000000E+00 0. -1.
        -14    1    4    4    0    0  0.62997146955E+01 -0.48724768992E+02 -0.22583072887E+02  0.54072032509E+02  0.00000000000E+00 0.  1.
        -13    1    3    3    0    0  0.23090681398E+01 -0.21648750583E+02  0.33329399965E+02  0.39810163269E+02  0.00000000000E+00 0.  1.
         13    1    3    3    0    0 -0.69590217374E+02  0.82593126917E+01 -0.24764208624E+02  0.74325504566E+02  0.00000000000E+00 0. -1.
         -1    1    1    2    0  502  0.54952871444E+02  0.38324351582E+02 -0.24680146067E+03  0.25573332789E+03  0.00000000000E+00 0.  1.
<scales pt_clust_5="13000.00000" pt_clust_6="13000.00000" pt_clust_7="13000.00000" pt_clust_8="13000.00000" pt_clust_9="13000.00000"></scales>
<clustering>
<clus scale="   83.795">  5  6 -1 -1</clus>
<clus scale="   66.997">  5  9 -1 -1</clus>
<clus scale="   90.816">  7  8 -1 -1</clus>
<clus scale="  113.814">  2  7  1 -1</clus>
<clus scale="  179.434">  1  5  2 -1</clus>
</clustering>
</event>
<event>
 9    1  0.2728138E-005  0.7264870E+03  0.7546771E-02  0.1019095E+00
          1   -1    0    0  502    0 -0.00000000000E+00  0.00000000000E+00  0.61831280036E+03  0.61831280036E+03  0.00000000000E+00 0. -1.
         21   -1    0    0  501  502  0.00000000000E+00 -0.00000000000E+00 -0.34760576946E+03  0.34760576946E+03  0.00000000000E+00 0. -1.
         23    2    1    2    0    0  0.97101187105E+02 -0.37571894200E+02 -0.79105311035E+02  0.15959848580E+03  0.91508134421E+02 0.  0.
        -24    2    1    2    0    0 -0.30555090423E+02  0.96357303438E+02 -0.20641487902E+03  0.24305031858E+03  0.79044364777E+02 0.  0.
         13    1    4    4    0    0  0.87983902600E+01  0.73572080140E+02 -0.16765654572E+03  0.18330024541E+03  0.00000000000E+00 0. -1.
        -14    1    4    4    0    0 -0.39353480683E+02  0.22785223298E+02 -0.38758333307E+02  0.59750073166E+02  0.00000000000E+00 0.  1.
        -11    1    3    3    0    0  0.56295673087E+02  0.14309191701E+02 -0.73031140406E+02  0.93314003475E+02  0.00000000000E+00 0.  1.
         11    1    3    3    0    0  0.40805514018E+02 -0.51881085901E+02 -0.60741706293E+01  0.66284482327E+02  0.00000000000E+00 0. -1.
          2    1    1    2  501    0 -0.66546096682E+02 -0.58785409238E+02  0.55622722096E+03  0.56326976544E+03  0.00000000000E+00 0. -1.
<scales pt_clust_5="13000.00000" pt_clust_6="13000.00000" pt_clust_7="13000.00000" pt_clust_8="13000.00000" pt_clust_9="13000.00000"></scales>
<clustering>
<clus scale="   79.044">  5  6 -1 -1</clus>
<clus scale="   88.793">  5  9 -1 -1</clus>
<clus scale="   91.508">  7  8 -1 -1</clus>
<clus scale="  138.615">  1  7  2 -1</clus>
<clus scale="  726.487">  2  5  1 -1</clus>
</clustering>
</event>
<event>
 9    1  0.2728138E-005  0.1967754E+03  0.7546771E-02  0.1161789E+00
         21   -1    0    0  501  502  0.00000000000E+00  0.00000000000E+00  0.27640862924E+02  0.27640862924E+02  0.00000000000E+00 0. -1.
          1   -1    0    0  502    0 -0.00000000000E+00 -0.00000000000E+00 -0.12408565574E+04  0.12408565574E+04  0.00000000000E+00 0. -1.
         23    2    1    2    0    0 -0.21319747317E+02 -0.12665900934E+03 -0.72577635363E+03  0.74283813116E+03  0.92521010224E+02 0.  0.
        -24    2    1    2    0    0  0.59880032014E+02  0.81726471952E+02 -0.39810021368E+03  0.41848042878E+03  0.79857715267E+02 0.  0.
         13    1    4    4    0    0  0.62686547610E+02  0.47817955221E+02 -0.16453285653E+03  0.18244785822E+03  0.00000000000E+00 0. -1.
        -14    1    4    4    0    0 -0.28065155962E+01  0.33908516731E+02 -0.23356735715E+03  0.23603257056E+03  0.00000000000E+00 0.  1.
        -11    1    3    3    0    0  0.30044891640E+02 -0.24459416809E+02 -0.11243765849E+03  0.11892512615E+03  0.00000000000E+00 0.  1.
         11    1    3    3    0    0 -0.51364638957E+02 -0.10219959253E+03 -0.61333869514E+03  0.62391300500E+03  0.00000000000E+00 0. -1.
          2    1    1    2  501    0 -0.38560284697E+02  0.44932537391E+02 -0.89339127172E+02  0.10717886040E+03  0.00000000000E+00 0. -1.
<scales pt_clust_5="13000.00000" pt_clust_6="13000.00000" pt_clust_7="13000.00000" pt_clust_8="13000.00000" pt_clust_9="13000.00000"></scales>
<clustering>
<clus scale="   79.858">  5  6 -1 -1</clus>
<clus scale="   59.210">  5  9 -1 -1</clus>
<clus scale="   92.521">  7  8 -1 -1</clus>
<clus scale="  158.295">  2  7  1 -1</clus>
<clus scale="  196.775">  1  5  2 -1</clus>
</clustering>
</event>
<event>
 9    1  0.2728138E-005  0.3851863E+03  0.7546771E-02  0.1059181E+00
         21   -1    0    0  501  502  0.00000000000E+00  0.00000000000E+00  0.91889494125E+03  0.91889494125E+03  0.00000000000E+00 0.  1.
          1   -1    0    0  502    0 -0.00000000000E+00 -0.00000000000E+00 -0.15492498156E+03  0.15492498156E+03  0.00000000000E+00 0. -1.
         23    2    1    2    0    0 -0.25402485240E+03 -0.10330606973E+03  0.57769081295E+03  0.64595497763E+03  0.91270959673E+02 0.  0.
        -24    2    1    2    0    0  0.92280711639E+02  0.13270882733E+03  0.19423365117E+03  0.26327769366E+03  0.73899053714E+02 0.  0.
         11    1    4    4    0    0  0.38610055652E+02  0.34700309736E+02  0.11536333065E+03  0.12650512223E+03  0.00000000000E+00 0. -1.
        -12    1    4    4    0    0  0.53670655987E+02  0.98008517591E+02  0.78870320519E+02  0.13677257142E+03  0.00000000000E+00 0.  1.
        -13    1    3    3    0    0 -0.15399637283E+03 -0.69047158351E+02  0.44732167293E+03  0.47809943735E+03  0.00000000000E+00 0.  1.
         13    1    3    3    0    0 -0.10002847957E+03 -0.34258911379E+02  0.13036914002E+03  0.16785554029E+03  0.00000000000E+00 0. -1.
          2    1    1    2  501    0  0.16174414076E+03 -0.29402757596E+02 -0.79545044286E+01  0.16458725153E+03  0.00000000000E+00 0. -1.
<scales pt_clust_5="13000.00000" pt_clust_6="13000.00000" pt_clust_7="13000.00000" pt_clust_8="13000.00000" pt_clust_9="13000.00000"></scales>
<clustering>
<clus scale="   73.899">  5  6 -1 -1</clus>
<clus scale="   91.271">  7  8 -1 -1</clus>
<clus scale="  164.395">  5  9 -1 -1</clus>
<clus scale="  289.018">  2  7  1 -1</clus>
<clus scale="  385.186">  1  5  2 -1</clus>
</clustering>
</event>
<event>
 9    1  0.2728138E-005  0.2581573E+03  0.7546771E-02  0.1143222E+00
          1   -1    0    0  502    0 -0.00000000000E+00  0.00000000000E+00  0.84211082122E+02  0.84211082122E+02  0.00000000000E+00 0. -1.
         21   -1    0    0  501  502  0.00000000000E+00 -0.00000000000E+00 -0.41914322438E+03  0.41914322438E+03  0.00000000000E+00 0. -1.
         23    2    1    2    0    0 -0.46508575850E+02  0.36362202870E+02 -0.52290104089E+02  0.12055969458E+03  0.91187321195E+02 0.  0.
        -24    2    1    2    0    0  0.28697708629E+02  0.50275226227E+02 -0.14014344195E+02  0.99979992283E+02  0.80302180300E+02 0.  0.
         11    1    4    4    0    0  0.28780363569E+02  0.58351911432E+02 -0.37532922495E+02  0.75113082522E+02  0.00000000000E+00 0. -1.
        -12    1    4    4    0    0 -0.82654940200E-01 -0.80766852056E+01  0.23518578301E+02  0.24866909760E+02  0.00000000000E+00 0.  1.
        -11    1    3    3    0    0  0.25296481577E+02 -0.28001243361E+01 -0.45451394439E+01  0.25853645179E+02  0.00000000000E+00 0.  1.
         11    1    3    3    0    0 -0.71805057427E+02  0.39162327206E+02 -0.47744964645E+02  0.94706049402E+02  0.00000000000E+00 0. -1.
          2    1    1    2  501    0  0.17810867222E+02 -0.86637429097E+02 -0.26862769398E+03  0.28281461964E+03  0.00000000000E+00 0. -1.
<scales pt_clust_5="13000.00000" pt_clust_6="13000.00000" pt_clust_7="13000.00000" pt_clust_8="13000.00000" pt_clust_9="13000.00000"></scales>
<clustering>
<clus scale="   80.302">  5  6 -1 -1</clus>
<clus scale="   88.449">  5  9 -1 -1</clus>
<clus scale="   91.187">  7  8 -1 -1</clus>
<clus scale="  108.630">  1  7  2 -1</clus>
<clus scale="  258.157">  2  5  1 -1</clus>
</clustering>
</event>
<event>
 9    1  0.2728138E-005  0.1394238E+03  0.7546771E-02  0.1227146E+00
         21   -1    0    0  501  502  0.00000000000E+00  0.00000000000E+00  0.61666712661E+03  0.61666712661E+03  0.00000000000E+00 0. -1.
          1   -1    0    0  502    0 -0.00000000000E+00 -0.00000000000E+00 -0.32279015568E+02  0.32279015568E+02  0.00000000000E+00 0. -1.
         23    2    1    2    0    0 -0.31854896582E+01 -0.43842131118E+02  0.42101034192E+03  0.43416415389E+03  0.96522146214E+02 0.  0.
        -24    2    1    2    0    0  0.23227809923E+02  0.49278394942E+02  0.16732532717E+03  0.19364361606E+03  0.80821986905E+02 0.  0.
         11    1    4    4    0    0 -0.26873577696E+02  0.13778535496E+02  0.89828737530E+02  0.94769400677E+02  0.00000000000E+00 0. -1.
        -12    1    4    4    0    0  0.50101387619E+02  0.35499859446E+02  0.77496589637E+02  0.98874215382E+02  0.00000000000E+00 0.  1.
        -13    1    3    3    0    0 -0.48038140948E+02 -0.14817214055E+02  0.15882631487E+03  0.16659235011E+03  0.00000000000E+00 0.  1.
         13    1    3    3    0    0  0.44852651290E+02 -0.29024917062E+02  0.26218402705E+03  0.26757180378E+03  0.00000000000E+00 0. -1.
          2    1    1    2  501    0 -0.20042320265E+02 -0.54362638241E+01 -0.39475580491E+01  0.21138372230E+02  0.00000000000E+00 0. -1.
<scales pt_clust_5="13000.00000" pt_clust_6="13000.00000" pt_clust_7="13000.00000" pt_clust_8="13000.00000" pt_clust_9="13000.00000"></scales>
<clustering>
<clus scale="   80.822">  5  6 -1 -1</clus>
<clus scale="   20.767">  5  9 -1 -1</clus>
<clus scale="   96.522">  7  8 -1 -1</clus>
<clus scale="  106.060">  2  7  1 -1</clus>
<clus scale="  139.424">  1  5  2 -1</clus>
</clustering>
</event>
<event>
 9    1  0.2728138E-005  0.1532088E+03  0.7546771E-02  0.1213407E+00
         -4   -1    0    0    0  501 -0.00000000000E+00  0.00000000000E+00  0.17260414224E+03  0.17260414224E+03  0.00000000000E+00 0.  1.
         21   -1    0    0  501  502  0.00000000000E+00 -0.00000000000E+00 -0.11272364204E+03  0.11272364204E+03  0.00000000000E+00 0.  1.
         23    2    1    2    0    0 -0.42770292083E+02  0.33313136055E+02 -0.25890998445E+02  0.10974397529E+03  0.91838626909E+02 0.  0.
        -24    2    1    2    0    0 -0.34527799189E+01  0.15392614018E+02  0.29543007146E+02  0.88002613916E+02  0.81380688922E+02 0.  0.
         11    1    4    4    0    0  0.26119312824E+02  0.12408111022E+02 -0.16429931273E+02  0.33258417930E+02  0.00000000000E+00 0. -1.
        -12    1    4    4    0    0 -0.29572092743E+02  0.29845029954E+01  0.45972938419E+02  0.54744195986E+02  0.00000000000E+00 0.  1.
        -13    1    3    3    0    0 -0.63158635617E+02  0.37157023268E+02 -0.41101799504E+02  0.84017947807E+02  0.00000000000E+00 0.  1.
         13    1    3    3    0    0  0.20388343535E+02 -0.38438872126E+01  0.15210801060E+02  0.25726027479E+02  0.00000000000E+00 0. -1.
         -3    1    1    2    0  502  0.46223072001E+02 -0.48705750073E+02  0.56228491499E+02  0.87581195080E+02  0.00000000000E+00 0.  1.
<scales pt_clust_5="13000.00000" pt_clust_6="13000.00000" pt_clust_7="13000.00000" pt_clust_8="13000.00000" pt_clust_9="13000.00000"></scales>
<clustering>
<clus scale="   81.381">  5  6 -1 -1</clus>
<clus scale="   67.148">  5  9 -1 -1</clus>
<clus scale="   91.839">  7  8 -1 -1</clus>
<clus scale="  106.646">  1  7  2 -1</clus>
<clus scale="  153.209">  2  5  1 -1</clus>
</clustering>
</event>
<event>
 9    1  0.2728138E-005  0.2735220E+03  0.7546771E-02  0.1111209E+00
          1   -1    0    0  502    0 -0.00000000000E+00  0.00000000000E+00  0.33761483883E+03  0.33761483883E+03  0.00000000000E+00 0. -1.
         21   -1    0    0  501  502  0.00000000000E+00 -0.00000000000E+00 -0.23577571111E+03  0.23577571111E+03  0.00000000000E+00 0. -1.
         23    2    1    2    0    0 -0.11385004516E+03 -0.14034796468E+03  0.19905442365E+03  0.28310600519E+03  0.88695899740E+02 0.  0.
        -24    2    1    2    0    0  0.50981346878E+02  0.23834765840E+01 -0.99364434873E+02  0.13865574802E+03  0.82142235481E+02 0.  0.
         13    1    4    4    0    0  0.35041878582E+02  0.30242788822E+02 -0.95755855852E+02  0.10635668037E+03  0.00000000000E+00 0. -1.
        -14    1    4    4    0    0  0.15939468296E+02 -0.27859312238E+02 -0.36085790210E+01  0.32299067641E+02  0.00000000000E+00 0.  1.
        -11    1    3    3    0    0 -0.40238152467E+02  0.24437697979E+01  0.33448113492E+02  0.52381840564E+02  0.00000000000E+00 0.  1.
         11    1    3    3    0    0 -0.73611892697E+02 -0.14279173447E+03  0.16560631015E+03  0.23072416463E+03  0.00000000000E+00 0. -1.
          2    1    1    2  501    0  0.62868698286E+02  0.13796448809E+03  0.21491389406E+01  0.15162879673E+03  0.00000000000E+00 0. -1.
<scales pt_clust_5="13000.00000" pt_clust_6="13000.00000" pt_clust_7="13000.00000" pt_clust_8="13000.00000" pt_clust_9="13000.00000"></scales>
<clustering>
<clus scale="   82.142">  5  6 -1 -1</clus>
<clus scale="   88.696">  7  8 -1 -1</clus>
<clus scale="  151.614">  5  9 -1 -1</clus>
<clus scale="  201.312">  1  7  2 -1</clus>
<clus scale="  273.522">  2  5  1 -1</clus>
</clustering>
</event>
<event>
 9    1  0.2728138E-005  0.2957817E+03  0.7546771E-02  0.1098885E+00
          1   -1    0    0  502    0 -0.00000000000E+00  0.00000000000E+00  0.19986587917E+03  0.19986587917E+03  0.00000000000E+00 0. -1.
         21   -1    0    0  501  502  0.00000000000E+00 -0.00000000000E+00 -0.50278580894E+03  0.50278580894E+03  0.00000000000E+00 0. -1.
         23    2    1    2    0    0 -0.93830010795E+02 -0.17576634059E+03  0.67414374358E+02  0.22869565388E+03  0.89772639602E+02 0.  0.
        -24    2    1    2    0    0  0.97192669314E+02  0.39651895668E+02 -0.83979057169E+02  0.15687910815E+03  0.80869553810E+02 0.  0.
         11    1    4    4    0    0  0.84333947226E+02  0.59782152372E+02 -0.83667938571E+02  0.13299039191E+03  0.00000000000E+00 0. -1.
        -12    1    4    4    0    0  0.12858722088E+02 -0.20130256704E+02 -0.31111859786E+00  0.23888716238E+02  0.00000000000E+00 0.  1.
        -11    1    3    3    0    0  0.13410303918E+02 -0.45376122834E+02  0.11471439838E+01  0.47330167060E+02  0.00000000000E+00 0.  1.
         11    1    3    3    0    0 -0.10724031471E+03 -0.13039021776E+03  0.66267230374E+02  0.18136548682E+03  0.00000000000E+00 0. -1.
          2    1    1    2  501    0 -0.33626585185E+01  0.13611444492E+03 -0.28635524696E+03  0.31707692608E+03  0.00000000000E+00 0. -1.
<scales pt_clust_5="13000.00000" pt_clust_6="13000.00000" pt_clust_7="13000.00000" pt_clust_8="13000.00000" pt_clust_9="13000.00000"></scales>
<clustering>
<clus scale="   80.870">  5  6 -1 -1</clus>
<clus scale="   89.773">  7  8 -1 -1</clus>
<clus scale="  136.156">  5  9 -1 -1</clus>
<clus scale="  218.534">  1  7  2 -1</clus>
<clus scale="  295.782">  2  5  1 -1</clus>
</clustering>
</event>
<event>
 9    1  0.2728138E-005  0.3343051E+03  0.7546771E-02  0.1098906E+00
         21   -1    0    0  501  502  0.00000000000E+00  0.00000000000E+00  0.28190288083E+02  0.28190288083E+02  0.00000000000E+00 0. -1.
          1   -1    0    0  502    0 -0.00000000000E+00 -0.00000000000E+00 -0.21335400708E+04  0.21335400708E+04  0.00000000000E+00 0. -1.
         23    2    1    2    0    0  0.95507932984E+02 -0.73895189989E+02 -0.80532575605E+03  0.81941057779E+03  0.91114528366E+02 0.  0.
        -24    2    1    2    0    0 -0.10890712868E+02  0.18217782735E+03 -0.73313989478E+03  0.75901641021E+03  0.72831567626E+02 0.  0.
         13    1    4    4    0    0 -0.12213548134E+02  0.15889966843E+03 -0.50167493797E+03  0.52638010864E+03  0.00000000000E+00 0. -1.
        -14    1    4    4    0    0  0.13228352663E+01  0.23278158920E+02 -0.23146495682E+03  0.23263630158E+03  0.00000000000E+00 0.  1.
        -11    1    3    3    0    0 -0.13232564571E+02 -0.27751936938E+02 -0.11438393231E+03  0.11844388857E+03  0.00000000000E+00 0.  1.
         11    1    3    3    0    0  0.10874049755E+03 -0.46143253052E+02 -0.69094182373E+03  0.70096668922E+03  0.00000000000E+00 0. -1.
          2    1    1    2  501    0 -0.84617220116E+02 -0.10828263736E+03 -0.56688413192E+03  0.58330337092E+03  0.00000000000E+00 0. -1.
<scales pt_clust_5="13000.00000" pt_clust_6="13000.00000" pt_clust_7="13000.00000" pt_clust_8="13000.00000" pt_clust_9="13000.00000"></scales>
<clustering>
<clus scale="   72.832">  5  6 -1 -1</clus>
<clus scale="   91.115">  7  8 -1 -1</clus>
<clus scale="  137.424">  5  9 -1 -1</clus>
<clus scale="  151.275">  2  7  1 -1</clus>
<clus scale="  334.305">  1  5  2 -1</clus>
</clustering>
</event>
<event>
 9    1  0.2728138E-005  0.1364790E+03  0.7546771E-02  0.1229330E+00
          1   -1    0    0  502    0 -0.00000000000E+00  0.00000000000E+00  0.22453065608E+03  0.22453065608E+03  0.00000000000E+00 0. -1.
         21   -1    0    0  501  502  0.00000000000E+00 -0.00000000000E+00 -0.22228601549E+03  0.22228601549E+03  0.00000000000E+00 0. -1.
         23    2    1    2    0    0 -0.53511201671E+02 -0.25512666573E+02  0.18767904605E+03  0.21657238758E+03  0.90364981479E+02 0.  0.
        -24    2    1    2    0    0  0.54682803758E+01  0.31378513703E+02 -0.58233809732E+02  0.94146811542E+02  0.66767749065E+02 0.  0.
         11    1    4    4    0    0 -0.25524742092E+02 -0.42867470278E+01 -0.27589040957E+02  0.37829140089E+02  0.00000000000E+00 0. -1.
        -12    1    4    4    0    0  0.30993022468E+02  0.35665260730E+02 -0.30644768775E+02  0.56317671453E+02  0.00000000000E+00 0.  1.
        -11    1    3    3    0    0 -0.38429551303E+02 -0.59260936689E+02  0.11326080863E+03  0.13347921112E+03  0.00000000000E+00 0.  1.
         11    1    3    3    0    0 -0.15081650368E+02  0.33748270116E+02  0.74418237421E+02  0.83093176462E+02  0.00000000000E+00 0. -1.
          2    1    1    2  501    0  0.48042921295E+02 -0.58658471300E+01 -0.12720059573E+03  0.13609747244E+03  0.00000000000E+00 0. -1.
<scales pt_clust_5="13000.00000" pt_clust_6="13000.00000" pt_clust_7="13000.00000" pt_clust_8="13000.00000" pt_clust_9="13000.00000"></scales>
<clustering>
<clus scale="   66.768">  5  6 -1 -1</clus>
<clus scale="   48.400">  5  9 -1 -1</clus>
<clus scale="   90.365">  7  8 -1 -1</clus>
<clus scale="  108.075">  1  7  2 -1</clus>
<clus scale="  136.479">  2  5  1 -1</clus>
</clustering>
</event>
<event>
 9    1  0.2728138E-005  0.1741260E+03  0.7546771E-02  0.1191584E+00
          1   -1    0    0  502    0 -0.00000000000E+00  0.00000000000E+00  0.90331594249E+03  0.90331594249E+03  0.00000000000E+00 0. -1.
         21   -1    0    0  501  502  0.00000000000E+00 -0.00000000000E+00 -0.24004878257E+02  0.24004878257E+02  0.00000000000E+00 0.  1.
         23    2    1    2    0    0  0.11187906114E+02  0.63371371725E+02  0.42865110127E+03  0.44419117565E+03  0.97071797703E+02 0.  0.
        -24    2    1    2    0    0  0.35286373603E+02 -0.62720458114E+02  0.19062574056E+03  0.21897423783E+03  0.80203240855E+02 0.  0.
         11    1    4    4    0    0  0.30472242659E+02 -0.32427917467E+02  0.18164166777E+03  0.18701289494E+03  0.00000000000E+00 0. -1.
        -12    1    4    4    0    0  0.48141309439E+01 -0.30292540647E+02  0.89840727861E+01  0.31961342891E+02  0.00000000000E+00 0.  1.
        -11    1    3    3    0    0 -0.31370633835E+02 -0.51481181967E+00  0.60823911613E+02  0.68439242561E+02  0.00000000000E+00 0.  1.
         11    1    3    3    0    0  0.42558539949E+02  0.63886183545E+02  0.36782718965E+03  0.37575193309E+03  0.00000000000E+00 0. -1.
          2    1    1    2  501    0 -0.46474279717E+02 -0.65091361163E+00  0.26003422241E+03  0.26415540727E+03  0.00000000000E+00 0. -1.
<scales pt_clust_5="13000.00000" pt_clust_6="13000.00000" pt_clust_7="13000.00000" pt_clust_8="13000.00000" pt_clust_9="13000.00000"></scales>
<clustering>
<clus scale="   80.203">  5  6 -1 -1</clus>
<clus scale="   46.479">  5  9 -1 -1</clus>
<clus scale="   97.072">  7  8 -1 -1</clus>
<clus scale="  116.465">  1  7  2 -1</clus>
<clus scale="  174.126">  2  5  1 -1</clus>
</clustering>
</event>
<event>
 9    1  0.2728138E-005  0.1467307E+03  0.7546771E-02  0.1221777E+00
         21   -1    0    0  501  502  0.00000000000E+00  0.00000000000E+00  0.35632322543E+02  0.35632322543E+02  0.00000000000E+00 0. -1.
          3   -1    0    0  502    0 -0.00000000000E+00 -0.00000000000E+00 -0.44889033595E+03  0.44889033595E+03  0.00000000000E+00 0. -1.
         23    2    1    2    0    0  0.14634674710E+02 -0.44718906404E+02 -0.21505594510E+03  0.23791779443E+03  0.90232273012E+02 0.  0.
        -24    2    1    2    0    0 -0.26854351751E+02 -0.86788208339E+01 -0.15324475835E+03  0.17574022196E+03  0.81266176935E+02 0.  0.
         11    1    4    4    0    0 -0.31844336436E+02 -0.11731629674E+02 -0.14553353565E+02  0.36925506061E+02  0.00000000000E+00 0. -1.
        -12    1    4    4    0    0  0.49899846852E+01  0.30528088400E+01 -0.13869140478E+03  0.13881471590E+03  0.00000000000E+00 0.  1.
        -13    1    3    3    0    0 -0.16001089311E+02  0.20875265550E+02 -0.86125698030E+02  0.90052470438E+02  0.00000000000E+00 0.  1.
         13    1    3    3    0    0  0.30635764021E+02 -0.65594171954E+02 -0.12893024707E+03  0.14786532399E+03  0.00000000000E+00 0. -1.
          4    1    1    2  501    0  0.12219677040E+02  0.53397727237E+02 -0.44957309964E+02  0.70864642102E+02  0.00000000000E+00 0. -1.
<scales pt_clust_5="13000.00000" pt_clust_6="13000.00000" pt_clust_7="13000.00000" pt_clust_8="13000.00000" pt_clust_9="13000.00000"></scales>
<clustering>
<clus scale="   81.266">  5  6 -1 -1</clus>
<clus scale="   54.778">  5  9 -1 -1</clus>
<clus scale="   90.232">  7  8 -1 -1</clus>
<clus scale="  101.764">  2  7  1 -1</clus>
<clus scale="  146.731">  1  5  2 -1</clus>
</clustering>
</event>
<event>
 9    1  0.2728138E-005  0.3343089E+03  0.7546771E-02  0.1096316E+00
         21   -1    0    0  501  502  0.00000000000E+00  0.00000000000E+00  0.40193424560E+03  0.40193424560E+03  0.00000000000E+00 0. -1.
          1   -1    0    0  502    0 -0.00000000000E+00 -0.00000000000E+00 -0.23528541572E+03  0.23528541572E+03  0.00000000000E+00 0. -1.
         23    2    1    2    0    0 -0.40348018880E+02  0.12436056684E+03 -0.11626349993E+03  0.19926780575E+03  0.95377899857E+02 0.  0.
        -24    2    1    2    0    0 -0.24159025933E+00  0.19571352228E+02 -0.33097841340E+02  0.88343014194E+02  0.79535682946E+02 0.  0.
         13    1    4    4    0    0  0.32157101536E+02  0.33616298083E+02 -0.16922202158E+02  0.49502480765E+02  0.00000000000E+00 0. -1.
        -14    1    4    4    0    0 -0.32398691795E+02 -0.14044945855E+02 -0.16175639182E+02  0.38840533429E+02  0.00000000000E+00 0.  1.
        -13    1    3    3    0    0 -0.20576440649E+02  0.22736621057E+02 -0.86154326916E+02  0.91448957857E+02  0.00000000000E+00 0.  1.
         13    1    3    3    0    0 -0.19771578231E+02  0.10162394578E+03 -0.30109173019E+02  0.10781884790E+03  0.00000000000E+00 0. -1.
          2    1    1    2  501    0  0.40589609139E+02 -0.14393191907E+03  0.31601017115E+03  0.34960884138E+03  0.00000000000E+00 0. -1.
<scales pt_clust_5="13000.00000" pt_clust_6="13000.00000" pt_clust_7="13000.00000" pt_clust_8="13000.00000" pt_clust_9="13000.00000"></scales>
<clustering>
<clus scale="   79.536">  5  6 -1 -1</clus>
<clus scale="   95.378">  7  8 -1 -1</clus>
<clus scale="  149.546">  5  9 -1 -1</clus>
<clus scale="  161.835">  2  7  1 -1</clus>
<clus scale="  334.309">  1  5  2 -1</clus>
</clustering>
</event>
<event>
 9    1  0.2728138E-005  0.2422872E+03  0.7546771E-02  0.1148972E+00
         -2   -1    0    0    0  501 -0.00000000000E+00  0.00000000000E+00  0.54154879369E+03  0.54154879369E+03  0.00000000000E+00 0.  1.
         21   -1    0    0  501  502  0.00000000000E+00 -0.00000000000E+00 -0.60427726245E+02  0.60427726245E+02  0.00000000000E+00 0.  1.
         23    2    1    2    0    0  0.65513941342E+02 -0.49023961222E+01  0.11035918834E+03  0.15906856635E+03  0.93848539421E+02 0.  0.
        -24    2    1    2    0    0  0.63308072866E+02 -0.49721235186E+01  0.96132332836E+02  0.13940506206E+03  0.78483831507E+02 0.  0.
         13    1    4    4    0    0  0.40773134782E+02  0.31905407295E+02  0.75421080108E+02  0.91480833289E+02  0.00000000000E+00 0. -1.
        -14    1    4    4    0    0  0.22534938085E+02 -0.36877530814E+02  0.20711252729E+02  0.47924228768E+02  0.00000000000E+00 0.  1.
        -11    1    3    3    0    0  0.53240918134E+02 -0.36965062143E+02  0.10629492886E+03  0.12449748224E+03  0.00000000000E+00 0.  1.
         11    1    3    3    0    0  0.12273023207E+02  0.32062666021E+02  0.40642594738E+01  0.34571084103E+02  0.00000000000E+00 0. -1.
         -1    1    1    2    0  502 -0.12882201421E+03  0.98745196408E+01  0.27462954627E+03  0.30350289153E+03  0.00000000000E+00 0.  1.
<scales pt_clust_5="13000.00000" pt_clust_6="13000.00000" pt_clust_7="13000.00000" pt_clust_8="13000.00000" pt_clust_9="13000.00000"></scales>
<clustering>
<clus scale="   78.484">  5  6 -1 -1</clus>
<clus scale="   93.849">  7  8 -1 -1</clus>
<clus scale="  114.559">  1  7  2 -1</clus>
<clus scale="   82.521">  5  9 -1 -1</clus>
<clus scale="  242.287">  2  5  1 -1</clus>
</clustering>
</event>
<event>
 9    1  0.2728138E-005  0.2930005E+03  0.7546771E-02  0.1119255E+00
          1   -1    0    0  502    0 -0.00000000000E+00  0.00000000000E+00  0.14729340567E+04  0.14729340567E+04  0.00000000000E+00 0. -1.
         21   -1    0    0  501  502  0.00000000000E+00 -0.00000000000E+00 -0.30902305914E+02  0.30902305914E+02  0.00000000000E+00 0. -1.
         23    2    1    2    0    0  0.97453996318E+02 -0.14696221187E+02  0.44713477661E+03  0.46669158489E+03  0.90323123473E+02 0.  0.
        -24    2    1    2    0    0 -0.15623546119E+03 -0.68299686848E+02  0.59097771993E+03  0.62061825359E+03  0.82692107667E+02 0.  0.
         13    1    4    4    0    0 -0.10092704806E+03 -0.13269589426E+02  0.23348769605E+03  0.25471328046E+03  0.00000000000E+00 0. -1.
        -14    1    4    4    0    0 -0.55308413128E+02 -0.55030097422E+02  0.35749002389E+03  0.36590497313E+03  0.00000000000E+00 0.  1.
        -13    1    3    3    0    0  0.25290989657E+02  0.35201573998E+02  0.10753739140E+03  0.11594427764E+03  0.00000000000E+00 0.  1.
         13    1    3    3    0    0  0.72163006660E+02 -0.49897795185E+02  0.33959738522E+03  0.35074730725E+03  0.00000000000E+00 0. -1.
          2    1    1    2  501    0  0.58781464875E+02  0.82995908035E+02  0.40391925421E+03  0.41652652411E+03  0.00000000000E+00 0. -1.
<scales pt_clust_5="13000.00000" pt_clust_6="13000.00000" pt_clust_7="13000.00000" pt_clust_8="13000.00000" pt_clust_9="13000.00000"></scales>
<clustering>
<clus scale="   82.692">  5  6 -1 -1</clus>
<clus scale="   90.323">  7  8 -1 -1</clus>
<clus scale="  101.703">  5  9 -1 -1</clus>
<clus scale="  133.684">  1  7  2 -1</clus>
<clus scale="  293.001">  2  5  1 -1</clus>
</clustering>
</event>
<event>
 9    1  0.2728138E-005  0.2745121E+03  0.7546771E-02  0.1142660E+00
         21   -1    0    0  501  502  0.00000000000E+00  0.00000000000E+00  0.96876340265E+02  0.96876340265E+02  0.00000000000E+00 0. -1.
          1   -1    0    0  502    0 -0.00000000000E+00 -0.00000000000E+00 -0.42680181333E+03  0.42680181333E+03  0.00000000000E+00 0. -1.
         23    2    1    2    0    0  0.36860594655E+01  0.85476058563E+01 -0.20000788374E+03  0.21997521573E+03  0.91100457625E+02 0.  0.
        -24    2    1    2    0    0  0.85082955610E+02  0.13871281374E+02 -0.16530531049E+03  0.20554574072E+03  0.86554515023E+02 0.  0.
         11    1    4    4    0    0  0.89016691066E+02  0.34986315546E+02 -0.15397238558E+03  0.18126088681E+03  0.00000000000E+00 0. -1.
        -12    1    4    4    0    0 -0.39337354557E+01 -0.21115034173E+02 -0.11332924904E+02  0.24284853914E+02  0.00000000000E+00 0.  1.
        -13    1    3    3    0    0  0.13753626774E+01  0.49422620600E+02 -0.12678471330E+03  0.13608398354E+03  0.00000000000E+00 0.  1.
         13    1    3    3    0    0  0.23106967880E+01 -0.40875014744E+02 -0.73223170435E+02  0.83891232191E+02  0.00000000000E+00 0. -1.
          2    1    1    2  501    0 -0.88769015075E+02 -0.22418887230E+02  0.35387721159E+02  0.98157197143E+02  0.00000000000E+00 0. -1.
<scales pt_clust_5="13000.00000" pt_clust_6="13000.00000" pt_clust_7="13000.00000" pt_clust_8="13000.00000" pt_clust_9="13000.00000"></scales>
<clustering>
<clus scale="   86.555">  5  6 -1 -1</clus>
<clus scale="   91.100">  7  8 -1 -1</clus>
<clus scale="   91.556">  5  9 -1 -1</clus>
<clus scale="   91.575">  2  7  1 -1</clus>
<clus scale="  274.512">  1  5  2 -1</clus>
</clustering>
</event>
<event>
 9    1  0.2728138E-005  0.2085580E+03  0.7546771E-02  0.1177402E+00
          3   -1    0    0  502    0 -0.00000000000E+00  0.00000000000E+00  0.34898101833E+03  0.34898101833E+03  0.00000000000E+00 0. -1.
         21   -1    0    0  501  502  0.00000000000E+00 -0.00000000000E+00 -0.80230575374E+02  0.80230575374E+02  0.00000000000E+00 0. -1.
         23    2    1    2    0    0 -0.10519507220E+02 -0.82100154824E+01  0.17989906563E+03  0.20251578111E+03  0.92037510810E+02 0.  0.
        -24    2    1    2    0    0  0.34534840555E+02 -0.72417659558E+02  0.85868905029E+02  0.14251473777E+03  0.80622633317E+02 0.  0.
         13    1    4    4    0    0  0.25138215048E+02 -0.65971184068E+02  0.16876359069E+02  0.72587454003E+02  0.00000000000E+00 0. -1.
        -14    1    4    4    0    0  0.93966255072E+01 -0.64464754900E+01  0.68992545960E+02  0.69927283768E+02  0.00000000000E+00 0.  1.
        -13    1    3    3    0    0  0.33163200753E+02 -0.22994432712E+02  0.47572199122E+02  0.62383138341E+02  0.00000000000E+00 0. -1.
         13    1    3    3    0    0 -0.43682707972E+02  0.14784417230E+02  0.13232686651E+03  0.14013264276E+03  0.00000000000E+00 0.  1.
          4    1    1    2  501    0 -0.24015333336E+02  0.80627675041E+02  0.29824722955E+01  0.84181074825E+02  0.00000000000E+00 0. -1.
<scales pt_clust_5="13000.00000" pt_clust_6="13000.00000" pt_clust_7="13000.00000" pt_clust_8="13000.00000" pt_clust_9="13000.00000"></scales>
<clustering>
<clus scale="   80.623">  5  6 -1 -1</clus>
<clus scale="   84.128">  5  9 -1 -1</clus>
<clus scale="   92.038">  7  8 -1 -1</clus>
<clus scale="   93.000">  1  7  2 -1</clus>
<clus scale="  208.558">  2  5  1 -1</clus>
</clustering>
</event>
<event>
 9    1  0.2728138E-005  0.3493156E+03  0.7546771E-02  0.1110292E+00
         21   -1    0    0  501  502  0.00000000000E+00  0.00000000000E+00  0.12978899188E+04  0.12978899188E+04  0.00000000000E+00 0.  1.
         -2   -1    0    0    0  501 -0.00000000000E+00 -0.00000000000E+00 -0.79441211374E+02  0.79441211374E+02  0.00000000000E+00 0.  1.
         23    2    1    2    0    0  0.34375560135E+02 -0.58678531321E+01 -0.10703299931E+02  0.99506403601E+02  0.92578900908E+02 0.  0.
        -24    2    1    2    0    0 -0.30491871850E+02 -0.15878422811E+03  0.73338046502E+03  0.75541223334E+03  0.81599941567E+02 0.  0.
         11    1    4    4    0    0 -0.39408190168E+02 -0.52233817124E+02  0.17381828716E+03  0.18572607263E+03  0.00000000000E+00 0. -1.
        -12    1    4    4    0    0  0.89163183187E+01 -0.10655041099E+03  0.55956217787E+03  0.56968616072E+03  0.00000000000E+00 0.  1.
        -11    1    3    3    0    0  0.61745985467E+02 -0.11447235697E+02 -0.25639443513E+02  0.67830575628E+02  0.00000000000E+00 0.  1.
         11    1    3    3    0    0 -0.27370425332E+02  0.55793825649E+01  0.14936143583E+02  0.31675827973E+02  0.00000000000E+00 0. -1.
         -1    1    1    2    0  502 -0.38836882851E+01  0.16465208125E+03  0.49577154237E+03  0.52241249327E+03  0.00000000000E+00 0.  1.
<scales pt_clust_5="13000.00000" pt_clust_6="13000.00000" pt_clust_7="13000.00000" pt_clust_8="13000.00000" pt_clust_9="13000.00000"></scales>
<clustering>
<clus scale="   81.600">  5  6 -1 -1</clus>
<clus scale="   92.579">  7  8 -1 -1</clus>
<clus scale="   98.929">  2  7  1 -1</clus>
<clus scale="  162.129">  5  9 -1 -1</clus>
<clus scale="  349.316">  1  5  2 -1</clus>
</clustering>
</event>
<event>
 9    1  0.2728138E-005  0.1156438E+03  0.7546771E-02  0.1257578E+00
          1   -1    0    0  502    0 -0.00000000000E+00  0.00000000000E+00  0.22730293560E+03  0.22730293560E+03  0.00000000000E+00 0. -1.
         21   -1    0    0  501  502  0.00000000000E+00 -0.00000000000E+00 -0.11267456009E+03  0.11267456009E+03  0.00000000000E+00 0. -1.
         23    2    1    2    0    0  0.55665096088E+01  0.40302849689E+02  0.18074820273E+03  0.20676597487E+03  0.91798419653E+02 0.  0.
        -24    2    1    2    0    0 -0.54576838007E+01 -0.97491588663E+01 -0.62724158558E+02  0.10246952297E+03  0.80254910503E+02 0.  0.
         13    1    4    4    0    0 -0.20461527609E+02 -0.26335810398E+02 -0.71142624398E+02  0.78571763552E+02  0.00000000000E+00 0. -1.
        -14    1    4    4    0    0  0.15003843809E+02  0.16586651532E+02  0.84184658403E+01  0.23897759418E+02  0.00000000000E+00 0.  1.
        -13    1    3    3    0    0 -0.11861471605E+02  0.58132562378E+02  0.16917734433E+03  0.17927928813E+03  0.00000000000E+00 0. -1.
         13    1    3    3    0    0  0.17427981214E+02 -0.17829712689E+02  0.11570858399E+02  0.27486686738E+02  0.00000000000E+00 0.  1.
          2    1    1    2  501    0 -0.10882580809E+00 -0.30553690822E+02 -0.33956686668E+01  0.30741997847E+02  0.00000000000E+00 0. -1.
<scales pt_clust_5="13000.00000" pt_clust_6="13000.00000" pt_clust_7="13000.00000" pt_clust_8="13000.00000" pt_clust_9="13000.00000"></scales>
<clustering>
<clus scale="   80.255">  5  6 -1 -1</clus>
<clus scale="   30.554">  5  9 -1 -1</clus>
<clus scale="   91.798">  7  8 -1 -1</clus>
<clus scale="  100.410">  1  7  2 -1</clus>
<clus scale="  115.644">  2  5  1 -1</clus>
</clustering>
</event>
<event>
 9    1  0.2728138E-005  0.2781790E+03  0.7546771E-02  0.1135855E+00
          1   -1    0    0  502    0 -0.00000000000E+00  0.00000000000E+00  0.16058333935E+03  0.16058333935E+03  0.00000000000E+00 0. -1.
         21   -1    0    0  501  502  0.00000000000E+00 -0.00000000000E+00 -0.23168510159E+03  0.23168510159E+03  0.00000000000E+00 0. -1.
         23    2    1    2    0    0  0.48016444084E+02  0.86445826331E+01  0.50832358114E+01  0.10384563079E+03  0.91530148235E+02 0.  0.
        -24    2    1    2    0    0  0.47172248212E+02  0.96525831926E+02 -0.50820698620E+02  0.14432197419E+03  0.81875708220E+02 0.  0.
         11    1    4    4    0    0  0.47061112717E+02  0.36291571069E+02 -0.58751522230E+02  0.83567743928E+02  0.00000000000E+00 0. -1.
        -12    1    4    4    0    0  0.11113549437E+00  0.60234260857E+02  0.79308236098E+01  0.60754230266E+02  0.00000000000E+00 0.  1.
        -13    1    3    3    0    0  0.65708116254E+02 -0.11661161020E+02  0.24016369543E+02  0.70924785682E+02  0.00000000000E+00 0. -1.
         13    1    3    3    0    0 -0.17691672170E+02  0.20305743653E+02 -0.18933133732E+02  0.32920845105E+02  0.00000000000E+00 0.  1.
          2    1    1    2  501    0 -0.95188692295E+02 -0.10517041456E+03 -0.25364299429E+02  0.14410083596E+03  0.00000000000E+00 0. -1.
<scales pt_clust_5="13000.00000" pt_clust_6="13000.00000" pt_clust_7="13000.00000" pt_clust_8="13000.00000" pt_clust_9="13000.00000"></scales>
<clustering>
<clus scale="   81.876">  5  6 -1 -1</clus>
<clus scale="   91.530">  7  8 -1 -1</clus>
<clus scale="  103.721">  1  7  2 -1</clus>
<clus scale="  121.389">  5  9 -1 -1</clus>
<clus scale="  278.179">  2  5  1 -1</clus>
</clustering>
</event>
<event>
 9    1  0.2728138E-005  0.2444583E+03  0.7546771E-02  0.1137587E+00
          1   -1    0    0  502    0 -0.00000000000E+00  0.00000000000E+00  0.76503847430E+03  0.76503847430E+03  0.00000000000E+00 0. -1.
         21   -1    0    0  501  502  0.00000000000E+00 -0.00000000000E+00 -0.89713566987E+02  0.89713566987E+02  0.00000000000E+00 0. -1.
         23    2    1    2    0    0  0.12007953555E+03  0.48038068419E+02  0.57005667938E+03  0.58859185604E+03  0.68913020605E+02 0.  0.
        -24    2    1    2    0    0  0.25504897350E+02 -0.45330901474E+02  0.62386334351E+02  0.11436752188E+03  0.80513880354E+02 0.  0.
         11    1    4    4    0    0  0.40429666371E+02  0.70996633088E+01  0.22411120987E+02  0.46767739799E+02  0.00000000000E+00 0. -1.
        -12    1    4    4    0    0 -0.14924769021E+02 -0.52430564783E+02  0.39975213364E+02  0.67599782080E+02  0.00000000000E+00 0.  1.
        -11    1    3    3    0    0  0.41123230243E+02  0.45745639078E+02  0.16938761908E+03  0.18021084611E+03  0.00000000000E+00 0.  1.
         11    1    3    3    0    0  0.78956305309E+02  0.22924293403E+01  0.40066906031E+03  0.40838100992E+03  0.00000000000E+00 0. -1.
          2    1    1    2  501    0 -0.14558443290E+03 -0.27071669447E+01  0.42881893580E+02  0.15179266337E+03  0.00000000000E+00 0. -1.
<scales pt_clust_5="13000.00000" pt_clust_6="13000.00000" pt_clust_7="13000.00000" pt_clust_8="13000.00000" pt_clust_9="13000.00000"></scales>
<clustering>
<clus scale="   68.913">  7  8 -1 -1</clus>
<clus scale="   80.514">  5  6 -1 -1</clus>
<clus scale="  145.610">  5  9 -1 -1</clus>
<clus scale="  146.546">  1  7  2 -1</clus>
<clus scale="  244.458">  2  5  1 -1</clus>
</clustering>
</event>
<event>
 9    1  0.2728138E-005  0.2098270E+03  0.7546771E-02  0.1169588E+00
          3   -1    0    0  502    0 -0.00000000000E+00  0.00000000000E+00  0.17894363558E+03  0.17894363558E+03  0.00000000000E+00 0. -1.
         21   -1    0    0  501  502  0.00000000000E+00 -0.00000000000E+00 -0.14220556988E+03  0.14220556988E+03  0.00000000000E+00 0.  1.
         23    2    1    2    0    0 -0.55724522961E+02  0.10558704746E+02  0.81144503672E+01  0.10937884127E+03  0.93172838898E+02 0.  0.
        -24    2    1    2    0    0  0.40448472004E+02 -0.67561332386E+02 -0.40962725247E+02  0.12052938607E+03  0.81540024077E+02 0.  0.
         13    1    4    4    0    0  0.55528324566E+02 -0.19943532330E+02 -0.38637880371E+02  0.70526768751E+02  0.00000000000E+00 0. -1.
        -14    1    4    4    0    0 -0.15079852561E+02 -0.47617800056E+02 -0.23248448757E+01  0.50002617323E+02  0.00000000000E+00 0.  1.
        -13    1    3    3    0    0 -0.80610923382E+02  0.15919869107E+01  0.15079655945E+02  0.82024700025E+02  0.00000000000E+00 0.  1.
         13    1    3    3    0    0  0.24886400421E+02  0.89667178356E+01 -0.69652055778E+01  0.27354141248E+02  0.00000000000E+00 0. -1.
          4    1    1    2  501    0  0.15276050956E+02  0.57002627640E+02  0.69586340581E+02  0.91240978108E+02  0.00000000000E+00 0. -1.
<scales pt_clust_5="13000.00000" pt_clust_6="13000.00000" pt_clust_7="13000.00000" pt_clust_8="13000.00000" pt_clust_9="13000.00000"></scales>
<clustering>
<clus scale="   81.540">  5  6 -1 -1</clus>
<clus scale="   59.014">  5  9 -1 -1</clus>
<clus scale="   93.173">  7  8 -1 -1</clus>
<clus scale="  109.077">  1  7  2 -1</clus>
<clus scale="  209.827">  2  5  1 -1</clus>
</clustering>
</event>
<event>
 9    1  0.2728138E-005  0.2831480E+03  0.7546771E-02  0.1127945E+00
         21   -1    0    0  501  502  0.00000000000E+00  0.00000000000E+00  0.46675939904E+02  0.46675939904E+02  0.00000000000E+00 0. -1.
          1   -1    0    0  502    0 -0.00000000000E+00 -0.00000000000E+00 -0.10642757878E+04  0.10642757878E+04  0.00000000000E+00 0. -1.
         23    2    1    2    0    0  0.48246870868E+02 -0.44138296947E+02 -0.56197832940E+03  0.57451556653E+03  0.99862623965E+02 0.  0.
        -24    2    1    2    0    0  0.53687003801E+02  0.97000241899E+02 -0.36562897804E+03  0.39054730839E+03  0.80940158138E+02 0.  0.
         13    1    4    4    0    0  0.56462202827E+02  0.48470296276E+02 -0.12853237762E+03  0.14851909663E+03  0.00000000000E+00 0. -1.
        -14    1    4    4    0    0 -0.27751990257E+01  0.48529945623E+02 -0.23709660042E+03  0.24202821175E+03  0.00000000000E+00 0.  1.
        -11    1    3    3    0    0  0.19166251410E+02 -0.73773590941E+02 -0.40675248998E+03  0.41383266669E+03  0.00000000000E+00 0. -1.
         11    1    3    3    0    0  0.29080619458E+02  0.29635293994E+02 -0.15522583942E+03  0.16068289984E+03  0.00000000000E+00 0.  1.
          2    1    1    2  501    0 -0.10193387467E+03 -0.52861944952E+02 -0.89992540448E+02  0.14588885278E+03  0.00000000000E+00 0. -1.
<scales pt_clust_5="13000.00000" pt_clust_6="13000.00000" pt_clust_7="13000.00000" pt_clust_8="13000.00000" pt_clust_9="13000.00000"></scales>
<clustering>
<clus scale="   80.940">  5  6 -1 -1</clus>
<clus scale="   99.863">  7  8 -1 -1</clus>
<clus scale="  114.826">  5  9 -1 -1</clus>
<clus scale="  119.367">  2  7  1 -1</clus>
<clus scale="  283.148">  1  5  2 -1</clus>
</clustering>
</event>
<event>
 9    1  0.2728138E-005  0.2823013E+03  0.7546771E-02  0.1107436E+00
         21   -1    0    0  501  502  0.00000000000E+00  0.00000000000E+00  0.92506408264E+03  0.92506408264E+03  0.00000000000E+00 0. -1.
          1   -1    0    0  502    0 -0.00000000000E+00 -0.00000000000E+00 -0.93628811781E+02  0.93628811781E+02  0.00000000000E+00 0. -1.
         23    2    1    2    0    0 -0.13791096923E+03 -0.11276260858E+03  0.65609332741E+03  0.68636955293E+03  0.94392094934E+02 0.  0.
        -24    2    1    2    0    0  0.22440652135E+02 -0.12985780975E+02 -0.33104399381E+01  0.85214608956E+02  0.81107072387E+02 0.  0.
         13    1    4    4    0    0  0.38699950363E+02 -0.37300260173E+02 -0.11233222872E+02  0.54910662564E+02  0.00000000000E+00 0. -1.
        -14    1    4    4    0    0 -0.16259298229E+02  0.24314479198E+02  0.79227829337E+01  0.30303946392E+02  0.00000000000E+00 0.  1.
        -13    1    3    3    0    0 -0.76130032658E+02 -0.37675993305E+01  0.23801728563E+03  0.24992439844E+03  0.00000000000E+00 0.  1.
         13    1    3    3    0    0 -0.61780936576E+02 -0.10899500925E+03  0.41807604178E+03  0.43644515449E+03  0.00000000000E+00 0. -1.
          2    1    1    2  501    0  0.11547031710E+03  0.12574838955E+03  0.17865238339E+03  0.24710873254E+03  0.00000000000E+00 0. -1.
<scales pt_clust_5="13000.00000" pt_clust_6="13000.00000" pt_clust_7="13000.00000" pt_clust_8="13000.00000" pt_clust_9="13000.00000"></scales>
<clustering>
<clus scale="   81.107">  5  6 -1 -1</clus>
<clus scale="   94.392">  7  8 -1 -1</clus>
<clus scale="  170.722">  5  9 -1 -1</clus>
<clus scale="  201.605">  2  7  1 -1</clus>
<clus scale="  282.301">  1  5  2 -1</clus>
</clustering>
</event>
<event>
 9    1  0.2728138E-005  0.1282691E+03  0.7546771E-02  0.1235026E+00
          1   -1    0    0  502    0 -0.00000000000E+00  0.00000000000E+00  0.11667733876E+04  0.11667733876E+04  0.00000000000E+00 0. -1.
         21   -1    0    0  501  502  0.00000000000E+00 -0.00000000000E+00 -0.13273217419E+02  0.13273217419E+02  0.00000000000E+00 0. -1.
         23    2    1    2    0    0  0.65704472883E+02 -0.17457533717E+01  0.43278822785E+03  0.44800926034E+03  0.95323248863E+02 0.  0.
        -24    2    1    2    0    0 -0.51086952328E+02  0.28893033755E+02  0.58956267310E+03  0.59731252306E+03  0.75851305842E+02 0.  0.
         11    1    4    4    0    0 -0.65270542906E+02  0.20267514736E+02  0.31890810608E+03  0.32614934624E+03  0.00000000000E+00 0. -1.
        -12    1    4    4    0    0  0.14183590577E+02  0.86255190184E+01  0.27065456701E+03  0.27116317682E+03  0.00000000000E+00 0.  1.
        -11    1    3    3    0    0  0.48337956999E+02  0.42757053831E+02  0.30072144876E+03  0.30756806317E+03  0.00000000000E+00 0. -1.
         11    1    3    3    0    0  0.17366515884E+02 -0.44502807203E+02  0.13206677909E+03  0.14044119717E+03  0.00000000000E+00 0.  1.
          2    1    1    2  501    0 -0.14617520555E+02 -0.27147280383E+02  0.13114926927E+03  0.13472482166E+03  0.00000000000E+00 0. -1.
<scales pt_clust_5="13000.00000" pt_clust_6="13000.00000" pt_clust_7="13000.00000" pt_clust_8="13000.00000" pt_clust_9="13000.00000"></scales>
<clustering>
<clus scale="   75.851">  5  6 -1 -1</clus>
<clus scale="   30.833">  5  9 -1 -1</clus>
<clus scale="   95.323">  7  8 -1 -1</clus>
<clus scale="  115.787">  1  7  2 -1</clus>
<clus scale="  128.269">  2  5  1 -1</clus>
</clustering>
</event>
<event>
 9    1  0.2728138E-005  0.1412312E+03  0.7546771E-02  0.1227906E+00
         21   -1    0    0  501  502  0.00000000000E+00  0.00000000000E+00  0.27769760506E+02  0.27769760506E+02  0.00000000000E+00 0. -1.
          1   -1    0    0  502    0 -0.00000000000E+00 -0.00000000000E+00 -0.59446584475E+03  0.59446584475E+03  0.00000000000E+00 0. -1.
         23    2    1    2    0    0  0.25364651886E+02  0.26503110653E+02 -0.34543585901E+03  0.35974307218E+03  0.93505961594E+02 0.  0.
        -24    2    1    2    0    0  0.21582094839E+02  0.83399965290E+01 -0.15249700478E+03  0.17223501465E+03  0.76643469667E+02 0.  0.
         11    1    4    4    0    0  0.20531359564E+02  0.37480137233E+02 -0.12520078746E+03  0.13229336565E+03  0.00000000000E+00 0. -1.
        -12    1    4    4    0    0  0.10507352759E+01 -0.29140140704E+02 -0.27296217321E+02  0.39941649001E+02  0.00000000000E+00 0.  1.
        -11    1    3    3    0    0  0.48770444301E+02 -0.10839824145E+02 -0.11906815979E+03  0.12912507386E+03  0.00000000000E+00 0.  1.
         11    1    3    3    0    0 -0.23405792415E+02  0.37342934798E+02 -0.22636769922E+03  0.23061799832E+03  0.00000000000E+00 0. -1.
          2    1    1    2  501    0 -0.46946746725E+02 -0.34843107182E+02 -0.68763220456E+02  0.90257518433E+02  0.00000000000E+00 0. -1.
<scales pt_clust_5="13000.00000" pt_clust_6="13000.00000" pt_clust_7="13000.00000" pt_clust_8="13000.00000" pt_clust_9="13000.00000"></scales>
<clustering>
<clus scale="   76.643">  5  6 -1 -1</clus>
<clus scale="   58.464">  5  9 -1 -1</clus>
<clus scale="   93.506">  7  8 -1 -1</clus>
<clus scale="  100.445">  2  7  1 -1</clus>
<clus scale="  141.231">  1  5  2 -1</clus>
</clustering>
</event>
<event>
 9    1  0.2728138E-005  0.4196714E+03  0.7546771E-02  0.1083264E+00
          1   -1    0    0  502    0 -0.00000000000E+00  0.00000000000E+00  0.17712390217E+03  0.17712390217E+03  0.00000000000E+00 0. -1.
         21   -1    0    0  501  502  0.00000000000E+00 -0.00000000000E+00 -0.62632172723E+03  0.62632172723E+03  0.00000000000E+00 0. -1.
         23    2    1    2    0    0  0.20655482758E+02 -0.61156259005E+02  0.70587752874E+02  0.13538792590E+03  0.95815043913E+02 0.  0.
        -24    2    1    2    0    0  0.13434404310E+03 -0.98416229995E+02 -0.15762713501E+03  0.24303185718E+03  0.80523870198E+02 0.  0.
         11    1    4    4    0    0  0.86198814685E+02 -0.91691377965E+02 -0.14655686565E+03  0.19317468601E+03  0.00000000000E+00 0. -1.
        -12    1    4    4    0    0  0.48145228411E+02 -0.67248520299E+01 -0.11070269363E+02  0.49857171172E+02  0.00000000000E+00 0.  1.
        -11    1    3    3    0    0 -0.37633078215E+02 -0.28687258797E+02  0.18766156287E+02  0.50905559765E+02  0.00000000000E+00 0.  1.
         11    1    3    3    0    0  0.58288560973E+02 -0.32469000208E+02  0.51821596587E+02  0.84482366134E+02  0.00000000000E+00 0. -1.
          2    1    1    2  501    0 -0.15499952585E+03  0.15957248900E+03 -0.36215844292E+03  0.42502584632E+03  0.00000000000E+00 0. -1.
<scales pt_clust_5="13000.00000" pt_clust_6="13000.00000" pt_clust_7="13000.00000" pt_clust_8="13000.00000" pt_clust_9="13000.00000"></scales>
<clustering>
<clus scale="   80.524">  5  6 -1 -1</clus>
<clus scale="   95.815">  7  8 -1 -1</clus>
<clus scale="  115.530">  1  7  2 -1</clus>
<clus scale="  198.108">  5  9 -1 -1</clus>
<clus scale="  419.671">  2  5  1 -1</clus>
</clustering>
</event>
<event>
 9    1  0.2728138E-005  0.2569271E+03  0.7546771E-02  0.1136451E+00
          1   -1    0    0  502    0 -0.00000000000E+00  0.00000000000E+00  0.13942694065E+04  0.13942694065E+04  0.00000000000E+00 0. -1.
         21   -1    0    0  501  502  0.00000000000E+00 -0.00000000000E+00 -0.29178493288E+02  0.29178493288E+02  0.00000000000E+00 0. -1.
         23    2    1    2    0    0  0.83450670751E+02  0.35883999651E+02  0.66870938763E+03  0.68118192196E+03  0.92654680520E+02 0.  0.
        -24    2    1    2    0    0  0.61534044615E+02 -0.34314027368E+02  0.23769653897E+03  0.26120990059E+03  0.82262241680E+02 0.  0.
         13    1    4    4    0    0  0.27356230205E+02 -0.48794464888E+02  0.70784542207E+02  0.90220366604E+02  0.00000000000E+00 0. -1.
        -14    1    4    4    0    0  0.34177814411E+02  0.14480437520E+02  0.16691199677E+03  0.17098953399E+03  0.00000000000E+00 0.  1.
        -13    1    3    3    0    0  0.80845763100E+01  0.50775225077E+02  0.21871168063E+03  0.22467372588E+03  0.00000000000E+00 0. -1.
         13    1    3    3    0    0  0.75366094441E+02 -0.14891225426E+02  0.44999770700E+03  0.45650819608E+03  0.00000000000E+00 0.  1.
          2    1    1    2  501    0 -0.14498471537E+03 -0.15699722831E+01  0.45868498658E+03  0.48105607720E+03  0.00000000000E+00 0. -1.
<scales pt_clust_5="13000.00000" pt_clust_6="13000.00000" pt_clust_7="13000.00000" pt_clust_8="13000.00000" pt_clust_9="13000.00000"></scales>
<clustering>
<clus scale="   82.262">  5  6 -1 -1</clus>
<clus scale="   92.655">  7  8 -1 -1</clus>
<clus scale="  129.756">  1  7  2 -1</clus>
<clus scale="   93.080">  5  9 -1 -1</clus>
<clus scale="  256.927">  2  5  1 -1</clus>
</clustering>
</event>
<event>
 9    1  0.2728138E-005  0.2721619E+03  0.7546771E-02  0.1125453E+00
          1   -1    0    0  502    0 -0.00000000000E+00  0.00000000000E+00  0.35835029552E+03  0.35835029552E+03  0.00000000000E+00 0. -1.
         21   -1    0    0  501  502  0.00000000000E+00 -0.00000000000E+00 -0.18325213719E+03  0.18325213719E+03  0.00000000000E+00 0.  1.
         23    2    1    2    0    0  0.79354424510E+02  0.79318203235E+02  0.22336788612E+03  0.26519319021E+03  0.88576032480E+02 0.  0.
        -24    2    1    2    0    0 -0.42567094187E+02  0.41552664706E+02 -0.99514155294E+02  0.14006751837E+03  0.78595554245E+02 0.  0.
         13    1    4    4    0    0 -0.41503558794E+02  0.44191690722E+02 -0.25127610484E+02  0.65626577925E+02  0.00000000000E+00 0. -1.
        -14    1    4    4    0    0 -0.10635353930E+01 -0.26390260159E+01 -0.74386544810E+02  0.74440940447E+02  0.00000000000E+00 0.  1.
        -13    1    3    3    0    0  0.71513431985E+02  0.12653720022E+02  0.88006775207E+02  0.11410293628E+03  0.00000000000E+00 0.  1.
         13    1    3    3    0    0  0.78409925247E+01  0.66664483212E+02  0.13536111091E+03  0.15109025393E+03  0.00000000000E+00 0. -1.
          2    1    1    2  501    0 -0.36787330323E+02 -0.12087086794E+03  0.51244427514E+02  0.13634172414E+03  0.00000000000E+00 0. -1.
<scales pt_clust_5="13000.00000" pt_clust_6="13000.00000" pt_clust_7="13000.00000" pt_clust_8="13000.00000" pt_clust_9="13000.00000"></scales>
<clustering>
<clus scale="   78.596">  5  6 -1 -1</clus>
<clus scale="   88.576">  7  8 -1 -1</clus>
<clus scale="  126.345">  5  9 -1 -1</clus>
<clus scale="  142.948">  1  7  2 -1</clus>
<clus scale="  272.162">  2  5  1 -1</clus>
</clustering>
</event>
<event>
 9    1  0.2728138E-005  0.3795216E+03  0.7546771E-02  0.1082261E+00
         21   -1    0    0  501  502  0.00000000000E+00  0.00000000000E+00  0.39056552490E+03  0.39056552490E+03  0.00000000000E+00 0. -1.
          1   -1    0    0  502    0 -0.00000000000E+00 -0.00000000000E+00 -0.19535151770E+03  0.19535151770E+03  0.00000000000E+00 0. -1.
         23    2    1    2    0    0 -0.27999574031E+02 -0.12998882706E+03  0.11655246450E+03  0.19832927059E+03  0.89827341529E+02 0.  0.
        -24    2    1    2    0    0 -0.12384498254E+03  0.14559618460E+03  0.10576695383E+03  0.23255531644E+03  0.79746460782E+02 0.  0.
         11    1    4    4    0    0 -0.81735740394E+02  0.10159327603E+03  0.27289147060E+02  0.13321644995E+03  0.00000000000E+00 0. -1.
        -12    1    4    4    0    0 -0.42109242147E+02  0.44002908578E+02  0.78477806774E+02  0.99338866481E+02  0.00000000000E+00 0.  1.
        -11    1    3    3    0    0  0.18099795561E+02 -0.23617526683E+02  0.64931789665E+02  0.71424977950E+02  0.00000000000E+00 0.  1.
         11    1    3    3    0    0 -0.46099369592E+02 -0.10637130037E+03  0.51620674831E+02  0.12690429264E+03  0.00000000000E+00 0. -1.
          2    1    1    2  501    0  0.15184455657E+03 -0.15607357546E+02 -0.27105411129E+02  0.15503245558E+03  0.00000000000E+00 0. -1.
<scales pt_clust_5="13000.00000" pt_clust_6="13000.00000" pt_clust_7="13000.00000" pt_clust_8="13000.00000" pt_clust_9="13000.00000"></scales>
<clustering>
<clus scale="   79.746">  5  6 -1 -1</clus>
<clus scale="   89.827">  7  8 -1 -1</clus>
<clus scale="  152.645">  5  9 -1 -1</clus>
<clus scale="  160.468">  2  7  1 -1</clus>
<clus scale="  379.522">  1  5  2 -1</clus>
</clustering>
</event>
<event>
 9    1  0.2728138E-005  0.8860567E+03  0.7546771E-02  0.1001763E+00
         21   -1    0    0  501  502  0.00000000000E+00  0.00000000000E+00  0.31715733405E+03  0.31715733405E+03  0.00000000000E+00 0. -1.
          1   -1    0    0  502    0 -0.00000000000E+00 -0.00000000000E+00 -0.88042930273E+03  0.88042930273E+03  0.00000000000E+00 0. -1.
         23    2    1    2    0    0  0.47084279236E+02  0.81528790665E+02 -0.20255660057E+03  0.24091951484E+03  0.90272715347E+02 0.  0.
        -24    2    1    2    0    0  0.20610311316E+03 -0.38268713377E+03 -0.34875452612E+03  0.56303878833E+03  0.80343151928E+02 0.  0.
         11    1    4    4    0    0  0.18168051410E+03 -0.27484581599E+03 -0.23720279356E+03  0.40597191657E+03  0.00000000000E+00 0. -1.
        -12    1    4    4    0    0  0.24422599056E+02 -0.10784131778E+03 -0.11155173256E+03  0.15706687175E+03  0.00000000000E+00 0.  1.
        -13    1    3    3    0    0  0.43982695143E+02  0.49175729930E+02 -0.44557521314E+02  0.79612201275E+02  0.00000000000E+00 0.  1.
         13    1    3    3    0    0  0.31015840931E+01  0.32353060735E+02 -0.15799907925E+03  0.16130731356E+03  0.00000000000E+00 0. -1.
          2    1    1    2  501    0 -0.25318739239E+03  0.30115834311E+03 -0.11960841995E+02  0.39362833362E+03  0.00000000000E+00 0. -1.
<scales pt_clust_5="13000.00000" pt_clust_6="13000.00000" pt_clust_7="13000.00000" pt_clust_8="13000.00000" pt_clust_9="13000.00000"></scales>
<clustering>
<clus scale="   80.343">  5  6 -1 -1</clus>
<clus scale="   90.273">  7  8 -1 -1</clus>
<clus scale="  130.434">  2  7  1 -1</clus>
<clus scale="  404.251">  5  9 -1 -1</clus>
<clus scale="  886.057">  1  5  2 -1</clus>
</clustering>
</event>
<event>
 9    1  0.2728138E-005  0.2308938E+03  0.7546771E-02  0.1150895E+00
         21   -1    0    0  501  502  0.00000000000E+00  0.00000000000E+00  0.13827844862E+03  0.13827844862E+03  0.00000000000E+00 0. -1.
          1   -1    0    0  502    0 -0.00000000000E+00 -0.00000000000E+00 -0.23145991112E+03  0.23145991112E+03  0.00000000000E+00 0. -1.
         23    2    1    2    0    0 -0.30764339989E+02 -0.80842482650E+02 -0.24276969862E+02  0.12878241768E+03  0.92269107625E+02 0.  0.
        -24    2    1    2    0    0 -0.50904339310E+02  0.22944406930E+02 -0.87174405602E+02  0.13919273618E+03  0.93045920081E+02 0.  0.
         11    1    4    4    0    0 -0.28780192350E+01  0.47060683914E+02 -0.15546359417E+02  0.49645546188E+02  0.00000000000E+00 0. -1.
        -12    1    4    4    0    0 -0.48026320075E+02 -0.24116276984E+02 -0.71628046185E+02  0.89547189994E+02  0.00000000000E+00 0.  1.
        -13    1    3    3    0    0  0.19814341252E+00 -0.92688528008E+02 -0.23503059264E+02  0.95622153709E+02  0.00000000000E+00 0. -1.
         13    1    3    3    0    0 -0.30962483401E+02  0.11846045359E+02 -0.77391059832E+00  0.33160263971E+02  0.00000000000E+00 0.  1.
          2    1    1    2  501    0  0.81668679299E+02  0.57898075719E+02  0.18269912972E+02  0.10176320588E+03  0.00000000000E+00 0. -1.
<scales pt_clust_5="13000.00000" pt_clust_6="13000.00000" pt_clust_7="13000.00000" pt_clust_8="13000.00000" pt_clust_9="13000.00000"></scales>
<clustering>
<clus scale="   92.269">  7  8 -1 -1</clus>
<clus scale="   93.046">  5  6 -1 -1</clus>
<clus scale="  100.110">  5  9 -1 -1</clus>
<clus scale="  126.474">  2  7  1 -1</clus>
<clus scale="  230.894">  1  5  2 -1</clus>
</clustering>
</event>
<event>
 9    1  0.2728138E-005  0.2659619E+03  0.7546771E-02  0.1142591E+00
         21   -1    0    0  501  502  0.00000000000E+00  0.00000000000E+00  0.49601891727E+03  0.49601891727E+03  0.00000000000E+00 0. -1.
          1   -1    0    0  502    0 -0.00000000000E+00 -0.00000000000E+00 -0.14443265071E+03  0.14443265071E+03  0.00000000000E+00 0. -1.
         23    2    1    2    0    0  0.32112043417E+02  0.28087957922E+02 -0.83214556849E+02  0.13075804780E+03  0.91394134830E+02 0.  0.
        -24    2    1    2    0    0  0.73980654870E+02  0.33462367084E+02  0.93613339986E+02  0.14712904042E+03  0.79313490687E+02 0.  0.
         11    1    4    4    0    0  0.75202823371E+02 -0.40418221070E+01  0.54770975295E+02  0.93121752044E+02  0.00000000000E+00 0. -1.
        -12    1    4    4    0    0 -0.12221685012E+01  0.37504189191E+02  0.38842364690E+02  0.54007288373E+02  0.00000000000E+00 0.  1.
        -13    1    3    3    0    0  0.46544529649E+02 -0.19664623025E+02 -0.35720877184E+02  0.61879493419E+02  0.00000000000E+00 0.  1.
         13    1    3    3    0    0 -0.14432486233E+02  0.47752580948E+02 -0.47493679666E+02  0.68878554385E+02  0.00000000000E+00 0. -1.
          2    1    1    2  501    0 -0.10609269829E+03 -0.61550325006E+02  0.34118748342E+03  0.36256447976E+03  0.00000000000E+00 0. -1.
<scales pt_clust_5="13000.00000" pt_clust_6="13000.00000" pt_clust_7="13000.00000" pt_clust_8="13000.00000" pt_clust_9="13000.00000"></scales>
<clustering>
<clus scale="   79.313">  5  6 -1 -1</clus>
<clus scale="   91.394">  7  8 -1 -1</clus>
<clus scale="  100.861">  2  7  1 -1</clus>
<clus scale="  110.728">  5  9 -1 -1</clus>
<clus scale="  265.962">  1  5  2 -1</clus>
</clustering>
</event>
<event>
 9    1  0.2737944E-005  0.1555759E+03  0.7546771E-02  0.1209514E+00
         21   -1    0    0  501  502  0.00000000000E+00  0.00000000000E+00  0.13802914882E+03  0.13802914882E+03  0.00000000000E+00 0.  1.
         -4   -1    0    0    0  501 -0.00000000000E+00 -0.00000000000E+00 -0.15370036409E+03  0.15370036409E+03  0.00000000000E+00 0.  1.
         23    2    1    2    0    0  0.75256765412E+02  0.15065504199E+02  0.51766434528E+02  0.12216629663E+03  0.79713801380E+02 0.  0.
        -24    2    1    2    0    0 -0.95607449185E+00 -0.19315353075E+02 -0.28243795376E+02  0.85451313967E+02  0.78295709580E+02 0.  0.
         13    1    4    4    0    0  0.84939016026E+01  0.26622365692E+02  0.44283637445E+01  0.28293234614E+02  0.00000000000E+00 0. -1.
        -14    1    4    4    0    0 -0.94499760945E+01 -0.45937718767E+02 -0.32672159121E+02  0.57158079353E+02  0.00000000000E+00 0.  1.
        -11    1    3    3    0    0  0.38131615648E+02  0.19741465957E+01  0.69260723458E+02  0.79088337829E+02  0.00000000000E+00 0.  1.
         11    1    3    3    0    0  0.37125149763E+02  0.13091357604E+02 -0.17494288930E+02  0.43077958796E+02  0.00000000000E+00 0. -1.
         -3    1    1    2    0  502 -0.74300690920E+02  0.42498488755E+01 -0.39193854429E+02  0.84111902318E+02  0.00000000000E+00 0.  1.
<scales pt_clust_5="13000.00000" pt_clust_6="13000.00000" pt_clust_7="13000.00000" pt_clust_8="13000.00000" pt_clust_9="13000.00000"></scales>
<clustering>
<clus scale="   78.296">  5  6 -1 -1</clus>
<clus scale="   74.422">  5  9 -1 -1</clus>
<clus scale="   79.714">  7  8 -1 -1</clus>
<clus scale="  110.656">  2  7  1 -1</clus>
<clus scale="  155.576">  1  5  2 -1</clus>
</clustering>
</event>
<event>
 9    1  0.2728138E-005  0.1792662E+03  0.7546771E-02  0.1179397E+00
         21   -1    0    0  501  502  0.00000000000E+00  0.00000000000E+00  0.23004906436E+02  0.23004906436E+02  0.00000000000E+00 0. -1.
          1   -1    0    0  502    0 -0.00000000000E+00 -0.00000000000E+00 -0.11086165891E+04  0.11086165891E+04  0.00000000000E+00 0. -1.
         23    2    1    2    0    0  0.43085710168E+02 -0.10170977657E+03 -0.49185123909E+03  0.51138941966E+03  0.86024648079E+02 0.  0.
        -24    2    1    2    0    0 -0.24887251967E+01  0.94255427928E+02 -0.31152849926E+03  0.33499786878E+03  0.79267186102E+02 0.  0.
         11    1    4    4    0    0  0.19094003663E+02  0.49032015371E+02 -0.65999593524E+02  0.84407735738E+02  0.00000000000E+00 0. -1.
        -12    1    4    4    0    0 -0.21582728860E+02  0.45223412558E+02 -0.24552890574E+03  0.25059013305E+03  0.00000000000E+00 0.  1.
        -11    1    3    3    0    0 -0.16741667279E+02 -0.68633457450E+02 -0.28037350267E+03  0.28913688091E+03  0.00000000000E+00 0.  1.
         11    1    3    3    0    0  0.59827377447E+02 -0.33076319116E+02 -0.21147773642E+03  0.22225253874E+03  0.00000000000E+00 0. -1.
          2    1    1    2  501    0 -0.40596984972E+02  0.74543486382E+01 -0.28223194431E+03  0.28523420709E+03  0.00000000000E+00 0. -1.
<scales pt_clust_5="13000.00000" pt_clust_6="13000.00000" pt_clust_7="13000.00000" pt_clust_8="13000.00000" pt_clust_9="13000.00000"></scales>
<clustering>
<clus scale="   79.267">  5  6 -1 -1</clus>
<clus scale="   41.276">  5  9 -1 -1</clus>
<clus scale="   86.025">  7  8 -1 -1</clus>
<clus scale="  140.005">  2  7  1 -1</clus>
<clus scale="  179.266">  1  5  2 -1</clus>
</clustering>
</event>
<event>
 9    1  0.2728138E-005  0.1560155E+03  0.7546771E-02  0.1201498E+00
          3   -1    0    0  502    0 -0.00000000000E+00  0.00000000000E+00  0.31789104395E+03  0.31789104395E+03  0.00000000000E+00 0. -1.
         21   -1    0    0  501  502  0.00000000000E+00 -0.00000000000E+00 -0.11702347877E+03  0.11702347877E+03  0.00000000000E+00 0. -1.
         23    2    1    2    0    0 -0.24660678642E+02 -0.86879365088E+02  0.24083390170E+03  0.27386133164E+03  0.94036629096E+02 0.  0.
        -24    2    1    2    0    0 -0.14294280380E+02  0.30010472895E+02 -0.17206675192E+02  0.88461442825E+02  0.80152369026E+02 0.  0.
         13    1    4    4    0    0 -0.36358770455E+02 -0.10849484871E+02 -0.18048717460E+02  0.42016993145E+02  0.00000000000E+00 0. -1.
        -14    1    4    4    0    0  0.22064490075E+02  0.40859957766E+02  0.84204226825E+00  0.46444449680E+02  0.00000000000E+00 0.  1.
        -11    1    3    3    0    0 -0.33328303607E+02 -0.26622488995E+01  0.24205029769E+02  0.41276468559E+02  0.00000000000E+00 0.  1.
         11    1    3    3    0    0  0.86676249658E+01 -0.84217116188E+02  0.21662887193E+03  0.23258486308E+03  0.00000000000E+00 0. -1.
          4    1    1    2  501    0  0.38954959022E+02  0.56868892192E+02 -0.22759661326E+02  0.72591748259E+02  0.00000000000E+00 0. -1.
<scales pt_clust_5="13000.00000" pt_clust_6="13000.00000" pt_clust_7="13000.00000" pt_clust_8="13000.00000" pt_clust_9="13000.00000"></scales>
<clustering>
<clus scale="   80.152">  5  6 -1 -1</clus>
<clus scale="   68.932">  5  9 -1 -1</clus>
<clus scale="   94.037">  7  8 -1 -1</clus>
<clus scale="  130.380">  1  7  2 -1</clus>
<clus scale="  156.015">  2  5  1 -1</clus>
</clustering>
</event>
<event>
 9    1  0.2728138E-005  0.2197498E+03  0.7546771E-02  0.1164722E+00
         21   -1    0    0  501  502  0.00000000000E+00  0.00000000000E+00  0.15703402413E+03  0.15703402413E+03  0.00000000000E+00 0. -1.
          1   -1    0    0  502    0 -0.00000000000E+00 -0.00000000000E+00 -0.27437691097E+03  0.27437691097E+03  0.00000000000E+00 0. -1.
         23    2    1    2    0    0  0.22434143531E+02  0.48576719475E+02 -0.17456762603E+03  0.20433240806E+03  0.91732701123E+02 0.  0.
        -24    2    1    2    0    0  0.74130645690E+01  0.45822212917E+02 -0.28424583144E+02  0.96167027596E+02  0.79281218121E+02 0.  0.
         11    1    4    4    0    0 -0.28795273520E+02  0.27485734913E+02  0.91635102072E+01  0.40848541223E+02  0.00000000000E+00 0. -1.
        -12    1    4    4    0    0  0.36208338088E+02  0.18336478004E+02 -0.37588093351E+02  0.55318486372E+02  0.00000000000E+00 0.  1.
        -13    1    3    3    0    0  0.34171317530E+01  0.73639287716E+02 -0.10873531707E+03  0.13136891056E+03  0.00000000000E+00 0. -1.
         13    1    3    3    0    0  0.19017011778E+02 -0.25062568241E+02 -0.65832308966E+02  0.72963497501E+02  0.00000000000E+00 0.  1.
          2    1    1    2  501    0 -0.29847208100E+02 -0.94398932392E+02  0.85649322337E+02  0.13091149944E+03  0.00000000000E+00 0. -1.
<scales pt_clust_5="13000.00000" pt_clust_6="13000.00000" pt_clust_7="13000.00000" pt_clust_8="13000.00000" pt_clust_9="13000.00000"></scales>
<clustering>
<clus scale="   79.281">  5  6 -1 -1</clus>
<clus scale="   91.733">  7  8 -1 -1</clus>
<clus scale="   99.005">  5  9 -1 -1</clus>
<clus scale="  106.197">  2  7  1 -1</clus>
<clus scale="  219.750">  1  5  2 -1</clus>
</clustering>
</event>
<event>
 9    1  0.2728138E-005  0.2169155E+03  0.7546771E-02  0.1171202E+00
         21   -1    0    0  501  502  0.00000000000E+00  0.00000000000E+00  0.56779988515E+02  0.56779988515E+02  0.00000000000E+00 0. -1.
          1   -1    0    0  502    0 -0.00000000000E+00 -0.00000000000E+00 -0.46153447129E+03  0.46153447129E+03  0.00000000000E+00 0. -1.
         23    2    1    2    0    0  0.47800137837E+01 -0.30077900012E+02 -0.19297633872E+03  0.21516052807E+03  0.90147972422E+02 0.  0.
        -24    2    1    2    0    0  0.96353328919E+01  0.90742644088E+02 -0.51130569066E+02  0.13082965387E+03  0.78581143681E+02 0.  0.
         11    1    4    4    0    0  0.35027994793E+02  0.76666009690E+02 -0.16938856346E+02  0.85974195636E+02  0.00000000000E+00 0. -1.
        -12    1    4    4    0    0 -0.25392661901E+02  0.14076634398E+02 -0.34191712720E+02  0.44855458232E+02  0.00000000000E+00 0.  1.
        -11    1    3    3    0    0 -0.60801489415E+01  0.20596489639E+02 -0.77663291183E+01  0.22836362770E+02  0.00000000000E+00 0.  1.
         11    1    3    3    0    0  0.10860162725E+02 -0.50674389651E+02 -0.18521000960E+03  0.19232416530E+03  0.00000000000E+00 0. -1.
          2    1    1    2  501    0 -0.14415346676E+02 -0.60664744075E+02 -0.16064757499E+03  0.17232427787E+03  0.00000000000E+00 0. -1.
<scales pt_clust_5="13000.00000" pt_clust_6="13000.00000" pt_clust_7="13000.00000" pt_clust_8="13000.00000" pt_clust_9="13000.00000"></scales>
<clustering>
<clus scale="   78.581">  5  6 -1 -1</clus>
<clus scale="   62.354">  5  9 -1 -1</clus>
<clus scale="   90.148">  7  8 -1 -1</clus>
<clus scale="   95.153">  2  7  1 -1</clus>
<clus scale="  216.915">  1  5  2 -1</clus>
</clustering>
</event>
<event>
 9    1  0.2728138E-005  0.3260618E+03  0.7546771E-02  0.1091532E+00
         21   -1    0    0  501  502  0.00000000000E+00  0.00000000000E+00  0.76379030088E+02  0.76379030088E+02  0.00000000000E+00 0. -1.
          1   -1    0    0  502    0 -0.00000000000E+00 -0.00000000000E+00 -0.11681277418E+04  0.11681277418E+04  0.00000000000E+00 0. -1.
         23    2    1    2    0    0  0.13763799920E+03 -0.10822688842E+03 -0.73526287698E+03  0.76139348772E+03  0.91930771113E+02 0.  0.
        -24    2    1    2    0    0  0.17798745898E+02 -0.52753550349E+02 -0.79780649410E+02  0.12724667577E+03  0.82018485992E+02 0.  0.
         11    1    4    4    0    0  0.27705098628E+02 -0.56938782399E+02 -0.19851440943E+02  0.66360207493E+02  0.00000000000E+00 0. -1.
        -12    1    4    4    0    0 -0.99063527298E+01  0.41852320499E+01 -0.59929208467E+02  0.60886468277E+02  0.00000000000E+00 0.  1.
        -13    1    3    3    0    0  0.85937065311E+02 -0.93816859625E+02 -0.63549120820E+03  0.64810173433E+03  0.00000000000E+00 0. -1.
         13    1    3    3    0    0  0.51700933888E+02 -0.14410028791E+02 -0.99771668781E+02  0.11329175339E+03  0.00000000000E+00 0.  1.
          2    1    1    2  501    0 -0.15543674510E+03  0.16098043876E+03 -0.27670518534E+03  0.35586660841E+03  0.00000000000E+00 0. -1.
<scales pt_clust_5="13000.00000" pt_clust_6="13000.00000" pt_clust_7="13000.00000" pt_clust_8="13000.00000" pt_clust_9="13000.00000"></scales>
<clustering>
<clus scale="   82.018">  5  6 -1 -1</clus>
<clus scale="   91.931">  7  8 -1 -1</clus>
<clus scale="  197.759">  2  7  1 -1</clus>
<clus scale="   94.802">  5  9 -1 -1</clus>
<clus scale="  326.062">  1  5  2 -1</clus>
</clustering>
</event>
<event>
 9    1  0.2728138E-005  0.2374335E+03  0.7546771E-02  0.1146283E+00
          1   -1    0    0  502    0 -0.00000000000E+00  0.00000000000E+00  0.48271988259E+03  0.48271988259E+03  0.00000000000E+00 0. -1.
         21   -1    0    0  501  502  0.00000000000E+00 -0.00000000000E+00 -0.76485861871E+02  0.76485861871E+02  0.00000000000E+00 0. -1.
         23    2    1    2    0    0  0.84214794372E+02 -0.33677632659E+02  0.69588208197E+02  0.14725298547E+03  0.92814915162E+02 0.  0.
        -24    2    1    2    0    0 -0.37639208913E+02  0.84345646729E+02  0.31744248142E+03  0.34050137177E+03  0.81489612814E+02 0.  0.
         13    1    4    4    0    0 -0.52784011383E+02  0.78972506686E+02  0.19388449964E+03  0.21590277412E+03  0.00000000000E+00 0. -1.
        -14    1    4    4    0    0  0.15144802470E+02  0.53731400432E+01  0.12355798178E+03  0.12459859765E+03  0.00000000000E+00 0.  1.
        -13    1    3    3    0    0  0.53792766213E+02 -0.65964964517E+02  0.50391072031E+02  0.98915612423E+02  0.00000000000E+00 0.  1.
         13    1    3    3    0    0  0.30422028159E+02  0.32287331859E+02  0.19197136166E+02  0.48337373045E+02  0.00000000000E+00 0. -1.
          2    1    1    2  501    0 -0.46575585459E+02 -0.50668014070E+02  0.19203331099E+02  0.71451387222E+02  0.00000000000E+00 0. -1.
<scales pt_clust_5="13000.00000" pt_clust_6="13000.00000" pt_clust_7="13000.00000" pt_clust_8="13000.00000" pt_clust_9="13000.00000"></scales>
<clustering>
<clus scale="   81.490">  5  6 -1 -1</clus>
<clus scale="   68.823">  5  9 -1 -1</clus>
<clus scale="   92.815">  7  8 -1 -1</clus>
<clus scale="  129.773">  1  7  2 -1</clus>
<clus scale="  237.434">  2  5  1 -1</clus>
</clustering>
</event>
<event>
 9    1  0.2728138E-005  0.1847101E+03  0.7546771E-02  0.1193382E+00
         21   -1    0    0  501  502  0.00000000000E+00  0.00000000000E+00  0.55994933514E+02  0.55994933514E+02  0.00000000000E+00 0. -1.
          1   -1    0    0  502    0 -0.00000000000E+00 -0.00000000000E+00 -0.40661516520E+03  0.40661516520E+03  0.00000000000E+00 0. -1.
         23    2    1    2    0    0 -0.19341046355E+02 -0.15675002428E+02 -0.21152901755E+03  0.23138688897E+03  0.90418943526E+02 0.  0.
        -24    2    1    2    0    0  0.80999807093E+02  0.36532793935E+02 -0.98725726206E+02  0.15463193832E+03  0.79174829027E+02 0.  0.
         11    1    4    4    0    0  0.47699719057E+02  0.59928770632E+02 -0.76530522726E+02  0.10827576671E+03  0.00000000000E+00 0. -1.
        -12    1    4    4    0    0  0.33300088036E+02 -0.23395976697E+02 -0.22195203480E+02  0.46356171610E+02  0.00000000000E+00 0.  1.
        -13    1    3    3    0    0 -0.47350555152E+02 -0.35614022865E+02 -0.14013359134E+03  0.15214419844E+03  0.00000000000E+00 0.  1.
         13    1    3    3    0    0  0.28009508797E+02  0.19939020437E+02 -0.71395426206E+02  0.79242690528E+02  0.00000000000E+00 0. -1.
          2    1    1    2  501    0 -0.61658760738E+02 -0.20857791507E+02 -0.40365487932E+02  0.76591271423E+02  0.00000000000E+00 0. -1.
<scales pt_clust_5="13000.00000" pt_clust_6="13000.00000" pt_clust_7="13000.00000" pt_clust_8="13000.00000" pt_clust_9="13000.00000"></scales>
<clustering>
<clus scale="   79.175">  5  6 -1 -1</clus>
<clus scale="   65.091">  5  9 -1 -1</clus>
<clus scale="   90.419">  7  8 -1 -1</clus>
<clus scale="   93.784">  2  7  1 -1</clus>
<clus scale="  184.710">  1  5  2 -1</clus>
</clustering>
</event>
<event>
 9    1  0.2728138E-005  0.3360380E+03  0.7546771E-02  0.1089376E+00
         21   -1    0    0  501  502  0.00000000000E+00  0.00000000000E+00  0.60126687373E+02  0.60126687373E+02  0.00000000000E+00 0.  1.
          1   -1    0    0  502    0 -0.00000000000E+00 -0.00000000000E+00 -0.11645430159E+04  0.11645430159E+04  0.00000000000E+00 0. -1.
         23    2    1    2    0    0 -0.13778864338E+03  0.88226985645E+02 -0.45205194804E+03  0.49084354056E+03  0.99028815702E+02 0.  0.
        -24    2    1    2    0    0  0.10076673479E+02  0.28116309219E+02 -0.48858923231E+03  0.49577488952E+03  0.78620843008E+02 0.  0.
         13    1    4    4    0    0  0.29934992063E+02 -0.12724708654E+02 -0.11756607623E+03  0.12198280305E+03  0.00000000000E+00 0. -1.
        -14    1    4    4    0    0 -0.19858318584E+02  0.40841017873E+02 -0.37102315608E+03  0.37379208646E+03  0.00000000000E+00 0.  1.
        -11    1    3    3    0    0 -0.92564301700E+02  0.74627941612E+02 -0.41234062593E+03  0.42914131869E+03  0.00000000000E+00 0.  1.
         11    1    3    3    0    0 -0.45224341682E+02  0.13599044033E+02 -0.39711322112E+02  0.61702221865E+02  0.00000000000E+00 0. -1.
          2    1    1    2  501    0  0.12771196990E+03 -0.11634329486E+03 -0.16377514822E+03  0.23805127324E+03  0.00000000000E+00 0. -1.
<scales pt_clust_5="13000.00000" pt_clust_6="13000.00000" pt_clust_7="13000.00000" pt_clust_8="13000.00000" pt_clust_9="13000.00000"></scales>
<clustering>
<clus scale="   78.621">  5  6 -1 -1</clus>
<clus scale="   99.029">  7  8 -1 -1</clus>
<clus scale="  172.760">  5  9 -1 -1</clus>
<clus scale="  191.250">  2  7  1 -1</clus>
<clus scale="  336.038">  1  5  2 -1</clus>
</clustering>
</event>
<event>
 9    1  0.2728138E-005  0.4774201E+03  0.7546771E-02  0.1074479E+00
         21   -1    0    0  501  502  0.00000000000E+00  0.00000000000E+00  0.53980361279E+03  0.53980361279E+03  0.00000000000E+00 0. -1.
          3   -1    0    0  502    0 -0.00000000000E+00 -0.00000000000E+00 -0.15711255195E+03  0.15711255195E+03  0.00000000000E+00 0. -1.
         23    2    1    2    0    0 -0.42216067931E+02 -0.53041423322E+01  0.10486756334E+03  0.14454326416E+03  0.89917846144E+02 0.  0.
        -24    2    1    2    0    0 -0.26333492115E+02  0.15737056826E+03 -0.50273863880E+02  0.18430888628E+03  0.77352153232E+02 0.  0.
         13    1    4    4    0    0 -0.22343385973E+01  0.93140957966E+02  0.90605183346E+01  0.93607282368E+02  0.00000000000E+00 0. -1.
        -14    1    4    4    0    0 -0.24099153517E+02  0.64229610294E+02 -0.59334382215E+02  0.90701603908E+02  0.00000000000E+00 0.  1.
        -11    1    3    3    0    0 -0.47761265094E+02  0.19026381491E+02  0.10778549047E+03  0.11941881591E+03  0.00000000000E+00 0.  1.
         11    1    3    3    0    0  0.55451971629E+01 -0.24330523823E+02 -0.29179271349E+01  0.25124448250E+02  0.00000000000E+00 0. -1.
          4    1    1    2  501    0  0.68549560045E+02 -0.15206642593E+03  0.32809736139E+03  0.36806401431E+03  0.00000000000E+00 0. -1.
<scales pt_clust_5="13000.00000" pt_clust_6="13000.00000" pt_clust_7="13000.00000" pt_clust_8="13000.00000" pt_clust_9="13000.00000"></scales>
<clustering>
<clus scale="   77.352">  5  6 -1 -1</clus>
<clus scale="   89.918">  7  8 -1 -1</clus>
<clus scale="   99.476">  2  7  1 -1</clus>
<clus scale="  165.088">  5  9 -1 -1</clus>
<clus scale="  477.420">  1  5  2 -1</clus>
</clustering>
</event>
<event>
 9    1  0.2728138E-005  0.2968296E+03  0.7546771E-02  0.1105675E+00
          1   -1    0    0  502    0 -0.00000000000E+00  0.00000000000E+00  0.46806888127E+03  0.46806888127E+03  0.00000000000E+00 0. -1.
         21   -1    0    0  501  502  0.00000000000E+00 -0.00000000000E+00 -0.20855618595E+03  0.20855618595E+03  0.00000000000E+00 0. -1.
         23    2    1    2    0    0 -0.15810874431E+03  0.11825561565E+02  0.32540728665E+03  0.37256928617E+03  0.88202901644E+02 0.  0.
        -24    2    1    2    0    0  0.23043429095E+02 -0.10362310547E+03 -0.27102000849E+02  0.13620378220E+03  0.80920975175E+02 0.  0.
         13    1    4    4    0    0 -0.56303028851E+01 -0.95792215210E+02 -0.39796458078E+02  0.10388265919E+03  0.00000000000E+00 0. -1.
        -14    1    4    4    0    0  0.28673731980E+02 -0.78308902583E+01  0.12694457228E+02  0.32321123004E+02  0.00000000000E+00 0.  1.
        -11    1    3    3    0    0 -0.14335475637E+03  0.38299870231E+02  0.29148755461E+03  0.32708173401E+03  0.00000000000E+00 0. -1.
         11    1    3    3    0    0 -0.14753987944E+02 -0.26474308666E+02  0.33919732047E+02  0.45487552162E+02  0.00000000000E+00 0.  1.
          2    1    1    2  501    0  0.13506531522E+03  0.91797543904E+02 -0.38792590488E+02  0.16785199885E+03  0.00000000000E+00 0. -1.
<scales pt_clust_5="13000.00000" pt_clust_6="13000.00000" pt_clust_7="13000.00000" pt_clust_8="13000.00000" pt_clust_9="13000.00000"></scales>
<clustering>
<clus scale="   80.921">  5  6 -1 -1</clus>
<clus scale="   88.203">  7  8 -1 -1</clus>
<clus scale="  163.308">  5  9 -1 -1</clus>
<clus scale="  181.433">  1  7  2 -1</clus>
<clus scale="  296.830">  2  5  1 -1</clus>
</clustering>
</event>
<event>
 9    1  0.2728138E-005  0.5824302E+03  0.7546771E-02  0.1030143E+00
          1   -1    0    0  502    0 -0.00000000000E+00  0.00000000000E+00  0.10268020480E+04  0.10268020480E+04  0.00000000000E+00 0. -1.
         21   -1    0    0  501  502  0.00000000000E+00 -0.00000000000E+00 -0.14724164549E+03  0.14724164549E+03  0.00000000000E+00 0. -1.
         23    2    1    2    0    0  0.12038367298E+03 -0.12047450554E+03  0.25752157487E+03  0.32189506792E+03  0.91064471800E+02 0.  0.
        -24    2    1    2    0    0 -0.21095772594E+03  0.21543869450E+03  0.12018232481E+03  0.33341766863E+03  0.76200769936E+02 0.  0.
         13    1    4    4    0    0 -0.81583653034E+02  0.79835235545E+02  0.67532828712E+01  0.11434668385E+03  0.00000000000E+00 0. -1.
        -14    1    4    4    0    0 -0.12937407290E+03  0.13560345895E+03  0.11342904194E+03  0.21907098479E+03  0.00000000000E+00 0.  1.
        -13    1    3    3    0    0  0.28083722033E+02 -0.87086840090E+02  0.94037029758E+02  0.13120890262E+03  0.00000000000E+00 0.  1.
         13    1    3    3    0    0  0.92299950943E+02 -0.33387665449E+02  0.16348454511E+03  0.19068616530E+03  0.00000000000E+00 0. -1.
          2    1    1    2  501    0  0.90574052963E+02 -0.94964188959E+02  0.50185650287E+03  0.51873095698E+03  0.00000000000E+00 0. -1.
<scales pt_clust_5="13000.00000" pt_clust_6="13000.00000" pt_clust_7="13000.00000" pt_clust_8="13000.00000" pt_clust_9="13000.00000"></scales>
<clustering>
<clus scale="   76.201">  5  6 -1 -1</clus>
<clus scale="   91.064">  7  8 -1 -1</clus>
<clus scale="  131.232">  5  9 -1 -1</clus>
<clus scale="  193.130">  1  7  2 -1</clus>
<clus scale="  582.430">  2  5  1 -1</clus>
</clustering>
</event>
<event>
 9    1  0.2728138E-005  0.2238434E+03  0.7546771E-02  0.1166993E+00
         21   -1    0    0  501  502  0.00000000000E+00  0.00000000000E+00  0.13574745507E+03  0.13574745507E+03  0.00000000000E+00 0. -1.
         -2   -1    0    0    0  501 -0.00000000000E+00 -0.00000000000E+00 -0.18790927779E+03  0.18790927779E+03  0.00000000000E+00 0.  1.
         23    2    1    2    0    0  0.32868898081E+02  0.17456691557E+02 -0.21181529886E+02  0.97679605879E+02  0.87792640097E+02 0.  0.
        -24    2    1    2    0    0  0.55725921943E+02  0.49547023748E+02 -0.31577310828E+02  0.11489654168E+03  0.81509525780E+02 0.  0.
         11    1    4    4    0    0  0.28152231709E+02 -0.70849266381E+00 -0.47661788321E+02  0.55359698139E+02  0.00000000000E+00 0. -1.
        -12    1    4    4    0    0  0.27573690234E+02  0.50255516412E+02  0.16084477493E+02  0.59536843544E+02  0.00000000000E+00 0.  1.
        -13    1    3    3    0    0  0.46217620674E+02  0.44898376846E+02 -0.10146103878E+02  0.65229411526E+02  0.00000000000E+00 0. -1.
         13    1    3    3    0    0 -0.13348722594E+02 -0.27441685289E+02 -0.11035426008E+02  0.32450194353E+02  0.00000000000E+00 0.  1.
         -1    1    1    2    0  502 -0.88594820023E+02 -0.67003715306E+02  0.59701800325E+00  0.11108058530E+03  0.00000000000E+00 0.  1.
<scales pt_clust_5="13000.00000" pt_clust_6="13000.00000" pt_clust_7="13000.00000" pt_clust_8="13000.00000" pt_clust_9="13000.00000"></scales>
<clustering>
<clus scale="   81.510">  5  6 -1 -1</clus>
<clus scale="   87.793">  7  8 -1 -1</clus>
<clus scale="   95.355">  2  7  1 -1</clus>
<clus scale="   95.313">  5  9 -1 -1</clus>
<clus scale="  223.843">  1  5  2 -1</clus>
</clustering>
</event>
<event>
 9    1  0.2728138E-005  0.1702626E+03  0.7546771E-02  0.1206514E+00
          1   -1    0    0  502    0 -0.00000000000E+00  0.00000000000E+00  0.33094738346E+03  0.33094738346E+03  0.00000000000E+00 0. -1.
         21   -1    0    0  501  502  0.00000000000E+00 -0.00000000000E+00 -0.68082844759E+02  0.68082844759E+02  0.00000000000E+00 0. -1.
         23    2    1    2    0    0  0.23660239811E+01  0.15651973121E+02  0.19677513918E+03  0.21639075084E+03  0.88622340982E+02 0.  0.
        -24    2    1    2    0    0  0.20389492112E+02  0.47787262633E+02  0.64318040678E+02  0.11521924408E+03  0.80245311330E+02 0.  0.
         11    1    4    4    0    0  0.27568879705E+02  0.25730416070E+01 -0.87112867583E+01  0.29026715079E+02  0.00000000000E+00 0. -1.
        -12    1    4    4    0    0 -0.71793875938E+01  0.45214221026E+02  0.73029327436E+02  0.86192528997E+02  0.00000000000E+00 0.  1.
        -13    1    3    3    0    0  0.33348435744E+02  0.37480833903E+02  0.13372694725E+03  0.14282796469E+03  0.00000000000E+00 0. -1.
         13    1    3    3    0    0 -0.30982411763E+02 -0.21828860782E+02  0.63048191923E+02  0.73562786152E+02  0.00000000000E+00 0.  1.
          2    1    1    2  501    0 -0.22755516093E+02 -0.63439235753E+02  0.17713588450E+01  0.67420233297E+02  0.00000000000E+00 0. -1.
<scales pt_clust_5="13000.00000" pt_clust_6="13000.00000" pt_clust_7="13000.00000" pt_clust_8="13000.00000" pt_clust_9="13000.00000"></scales>
<clustering>
<clus scale="   80.245">  5  6 -1 -1</clus>
<clus scale="   67.397">  5  9 -1 -1</clus>
<clus scale="   88.622">  7  8 -1 -1</clus>
<clus scale="   90.025">  1  7  2 -1</clus>
<clus scale="  170.263">  2  5  1 -1</clus>
</clustering>
</event>
<event>
 9    1  0.2728138E-005  0.3287653E+03  0.7546771E-02  0.1112808E+00
         21   -1    0    0  501  502  0.00000000000E+00  0.00000000000E+00  0.39775276091E+03  0.39775276091E+03  0.00000000000E+00 0. -1.
         -4   -1    0    0    0  501 -0.00000000000E+00 -0.00000000000E+00 -0.12581500613E+03  0.12581500613E+03  0.00000000000E+00 0.  1.
         23    2    1    2    0    0  0.60617108507E+02 -0.93864068817E+01  0.29741319964E+02  0.11522267490E+03  0.92893380922E+02 0.  0.
        -24    2    1    2    0    0  0.69173004957E+02 -0.52804283138E+02  0.23657910413E+03  0.26431485266E+03  0.79495106103E+02 0.  0.
         13    1    4    4    0    0  0.53037351020E+02  0.50600880541E+01  0.14790785307E+03  0.15721099864E+03  0.00000000000E+00 0. -1.
        -14    1    4    4    0    0  0.16135653937E+02 -0.57864371192E+02  0.88671251064E+02  0.10710385402E+03  0.00000000000E+00 0.  1.
        -13    1    3    3    0    0 -0.22833616735E+02  0.76769508931E+00 -0.63861483946E+01  0.23722274349E+02  0.00000000000E+00 0.  1.
         13    1    3    3    0    0  0.83450725242E+02 -0.10154101971E+02  0.36127468359E+02  0.91500400547E+02  0.00000000000E+00 0. -1.
         -3    1    1    2    0  502 -0.12979011346E+03  0.62190690019E+02  0.56173306831E+01  0.14403023947E+03  0.00000000000E+00 0.  1.
<scales pt_clust_5="13000.00000" pt_clust_6="13000.00000" pt_clust_7="13000.00000" pt_clust_8="13000.00000" pt_clust_9="13000.00000"></scales>
<clustering>
<clus scale="   79.495">  5  6 -1 -1</clus>
<clus scale="   92.893">  7  8 -1 -1</clus>
<clus scale="  111.318">  2  7  1 -1</clus>
<clus scale="   96.143">  5  9 -1 -1</clus>
<clus scale="  328.765">  1  5  2 -1</clus>
</clustering>
</event>
<event>
 9    1  0.2728138E-005  0.5356065E+03  0.7546771E-02  0.1063224E+00
         21   -1    0    0  501  502  0.00000000000E+00  0.00000000000E+00  0.45144766686E+02  0.45144766686E+02  0.00000000000E+00 0. -1.
          1   -1    0    0  502    0 -0.00000000000E+00 -0.00000000000E+00 -0.22094598743E+04  0.22094598743E+04  0.00000000000E+00 0. -1.
         23    2    1    2    0    0  0.13167299180E+02  0.68272433411E+01 -0.32236206076E+03  0.33635926864E+03  0.94869754744E+02 0.  0.
        -24    2    1    2    0    0  0.22656612559E+03 -0.45553320345E+02 -0.13207377640E+04  0.13432347680E+04  0.80771817801E+02 0.  0.
         13    1    4    4    0    0  0.92538464630E+02 -0.59192088731E+02 -0.56384071568E+03  0.57444183645E+03  0.00000000000E+00 0. -1.
        -14    1    4    4    0    0  0.13402766096E+03  0.13638768387E+02 -0.75689704827E+03  0.76879293154E+03  0.00000000000E+00 0.  1.
        -11    1    3    3    0    0  0.48295297344E+02 -0.91817404684E+01 -0.10955770642E+03  0.12008176856E+03  0.00000000000E+00 0. -1.
         11    1    3    3    0    0 -0.35127998165E+02  0.16008983809E+02 -0.21280435433E+03  0.21627750008E+03  0.00000000000E+00 0.  1.
          2    1    1    2  501    0 -0.23973342477E+03  0.38726077004E+02 -0.52121528294E+03  0.57501060439E+03  0.00000000000E+00 0. -1.
<scales pt_clust_5="13000.00000" pt_clust_6="13000.00000" pt_clust_7="13000.00000" pt_clust_8="13000.00000" pt_clust_9="13000.00000"></scales>
<clustering>
<clus scale="   80.772">  5  6 -1 -1</clus>
<clus scale="   94.870">  7  8 -1 -1</clus>
<clus scale="   96.022">  2  7  1 -1</clus>
<clus scale="  239.383">  5  9 -1 -1</clus>
<clus scale="  535.606">  1  5  2 -1</clus>
</clustering>
</event>
<event>
 9    1  0.2728138E-005  0.3165737E+03  0.7546771E-02  0.1124795E+00
          1   -1    0    0  502    0 -0.00000000000E+00  0.00000000000E+00  0.33687318204E+03  0.33687318204E+03  0.00000000000E+00 0. -1.
         21   -1    0    0  501  502  0.00000000000E+00 -0.00000000000E+00 -0.16199786591E+03  0.16199786591E+03  0.00000000000E+00 0.  1.
         23    2    1    2    0    0 -0.11089529043E+02 -0.29382183336E+01  0.15657578115E+03  0.18176891480E+03  0.91609783112E+02 0.  0.
        -24    2    1    2    0    0  0.80023148060E+02 -0.11322258047E+03  0.66185488628E+02  0.17379044638E+03  0.81237573788E+02 0.  0.
         11    1    4    4    0    0  0.55284312473E+02 -0.18599784924E+02  0.45121607497E+02  0.73744604331E+02  0.00000000000E+00 0. -1.
        -12    1    4    4    0    0  0.24738835587E+02 -0.94622795549E+02  0.21063881131E+02  0.10004584205E+03  0.00000000000E+00 0.  1.
        -11    1    3    3    0    0  0.20015837538E+02 -0.35385567840E+01 -0.17631035962E+01  0.20402540792E+02  0.00000000000E+00 0. -1.
         11    1    3    3    0    0 -0.31105366581E+02  0.60033845032E+00  0.15833888475E+03  0.16136637400E+03  0.00000000000E+00 0.  1.
          2    1    1    2  501    0 -0.68933619017E+02  0.11616079881E+03 -0.47885953649E+02  0.14331168678E+03  0.00000000000E+00 0. -1.
<scales pt_clust_5="13000.00000" pt_clust_6="13000.00000" pt_clust_7="13000.00000" pt_clust_8="13000.00000" pt_clust_9="13000.00000"></scales>
<clustering>
<clus scale="   81.238">  5  6 -1 -1</clus>
<clus scale="   91.610">  7  8 -1 -1</clus>
<clus scale="   92.325">  1  7  2 -1</clus>
<clus scale="  136.002">  5  9 -1 -1</clus>
<clus scale="  316.574">  2  5  1 -1</clus>
</clustering>
</event>
<event>
 9    1  0.2728138E-005  0.1202659E+03  0.7546771E-02  0.1253822E+00
          1   -1    0    0  502    0 -0.00000000000E+00  0.00000000000E+00  0.32433710317E+03  0.32433710317E+03  0.00000000000E+00 0. -1.
         21   -1    0    0  501  502  0.00000000000E+00 -0.00000000000E+00 -0.99145250272E+02  0.99145250272E+02  0.00000000000E+00 0. -1.
         23    2    1    2    0    0 -0.11720865291E+02  0.12453654549E+02  0.27648815614E+03  0.29273371488E+03  0.94630096420E+02 0.  0.
        -24    2    1    2    0    0  0.19422968709E+02  0.18301712561E+02 -0.51665244573E+02  0.99041366193E+02  0.80172877736E+02 0.  0.
         11    1    4    4    0    0  0.18443658194E+02  0.13283351386E+02 -0.73335010170E+02  0.76776556762E+02  0.00000000000E+00 0. -1.
        -12    1    4    4    0    0  0.97931051489E+00  0.50183611745E+01  0.21669765597E+02  0.22264809431E+02  0.00000000000E+00 0.  1.
        -13    1    3    3    0    0  0.32444364827E+02 -0.98325243545E+01  0.46861191816E+02  0.57838452975E+02  0.00000000000E+00 0.  1.
         13    1    3    3    0    0 -0.44165230118E+02  0.22286178903E+02  0.22962696432E+03  0.23489526190E+03  0.00000000000E+00 0. -1.
          2    1    1    2  501    0 -0.77021034181E+01 -0.30755367109E+02  0.36894132825E+00  0.31707272365E+02  0.00000000000E+00 0. -1.
<scales pt_clust_5="13000.00000" pt_clust_6="13000.00000" pt_clust_7="13000.00000" pt_clust_8="13000.00000" pt_clust_9="13000.00000"></scales>
<clustering>
<clus scale="   80.173">  5  6 -1 -1</clus>
<clus scale="   31.705">  5  9 -1 -1</clus>
<clus scale="   94.630">  7  8 -1 -1</clus>
<clus scale="   96.163">  1  7  2 -1</clus>
<clus scale="  120.266">  2  5  1 -1</clus>
</clustering>
</event>
<event>
 9    1  0.2728138E-005  0.5868672E+03  0.7546771E-02  0.1042313E+00
         21   -1    0    0  501  502  0.00000000000E+00  0.00000000000E+00  0.17066169103E+03  0.17066169103E+03  0.00000000000E+00 0. -1.
          1   -1    0    0  502    0 -0.00000000000E+00 -0.00000000000E+00 -0.75801339975E+03  0.75801339975E+03  0.00000000000E+00 0. -1.
         23    2    1    2    0    0  0.80496398352E+02 -0.52382279459E+02 -0.97128648807E+02  0.16399756557E+03  0.90761521284E+02 0.  0.
        -24    2    1    2    0    0  0.23517686735E+03  0.58372748169E+00 -0.31080183223E+03  0.39790146600E+03  0.80120522091E+02 0.  0.
         11    1    4    4    0    0  0.67435512286E+02  0.19124430322E+02 -0.45821497061E+02  0.83743069835E+02  0.00000000000E+00 0. -1.
        -12    1    4    4    0    0  0.16774135506E+03 -0.18540702840E+02 -0.26498033516E+03  0.31415839617E+03  0.00000000000E+00 0.  1.
        -11    1    3    3    0    0  0.55193905109E+02 -0.68540352085E+02 -0.34456899956E+02  0.94506216619E+02  0.00000000000E+00 0. -1.
         11    1    3    3    0    0  0.25302493244E+02  0.16158072626E+02 -0.62671748851E+02  0.69491348954E+02  0.00000000000E+00 0.  1.
          2    1    1    2  501    0 -0.31567326570E+03  0.51798551977E+02 -0.17942122769E+03  0.36677605921E+03  0.00000000000E+00 0. -1.
<scales pt_clust_5="13000.00000" pt_clust_6="13000.00000" pt_clust_7="13000.00000" pt_clust_8="13000.00000" pt_clust_9="13000.00000"></scales>
<clustering>
<clus scale="   80.121">  5  6 -1 -1</clus>
<clus scale="   90.762">  7  8 -1 -1</clus>
<clus scale="  132.141">  2  7  1 -1</clus>
<clus scale="  282.132">  5  9 -1 -1</clus>
<clus scale="  586.867">  1  5  2 -1</clus>
</clustering>
</event>
<event>
 9    1  0.2728138E-005  0.3350353E+03  0.7546771E-02  0.1110450E+00
         21   -1    0    0  501  502  0.00000000000E+00  0.00000000000E+00  0.14071346696E+04  0.14071346696E+04  0.00000000000E+00 0. -1.
          1   -1    0    0  502    0 -0.00000000000E+00 -0.00000000000E+00 -0.12791586461E+03  0.12791586461E+03  0.00000000000E+00 0. -1.
         23    2    1    2    0    0 -0.38600535636E+02  0.52008625814E+02 -0.78563845212E+02  0.13654334580E+03  0.90977519183E+02 0.  0.
        -24    2    1    2    0    0 -0.80310467263E+02 -0.11051246796E+03  0.35789257785E+03  0.38987312051E+03  0.72464999057E+02 0.  0.
         13    1    4    4    0    0 -0.84210337781E+02 -0.11047094817E+03  0.35968892611E+03  0.38557922007E+03  0.00000000000E+00 0. -1.
        -14    1    4    4    0    0  0.38998705182E+01 -0.41519791651E-01 -0.17963482610E+01  0.42939004444E+01  0.00000000000E+00 0.  1.
        -13    1    3    3    0    0  0.21205037794E+02 -0.10820947953E+02 -0.93714727109E+01  0.25584586048E+02  0.00000000000E+00 0.  1.
         13    1    3    3    0    0 -0.59805573431E+02  0.62829573766E+02 -0.69192372501E+02  0.11095875975E+03  0.00000000000E+00 0. -1.
          2    1    1    2  501    0  0.11891100290E+03  0.58503842143E+02  0.99989007234E+03  0.10086340679E+04  0.00000000000E+00 0. -1.
<scales pt_clust_5="13000.00000" pt_clust_6="13000.00000" pt_clust_7="13000.00000" pt_clust_8="13000.00000" pt_clust_9="13000.00000"></scales>
<clustering>
<clus scale="   72.465">  5  6 -1 -1</clus>
<clus scale="   90.978">  7  8 -1 -1</clus>
<clus scale="  111.677">  2  7  1 -1</clus>
<clus scale="  130.734">  5  9 -1 -1</clus>
<clus scale="  335.035">  1  5  2 -1</clus>
</clustering>
</event>
<event>
 9    1  0.2728138E-005  0.2708379E+03  0.7546771E-02  0.1110986E+00
          1   -1    0    0  502    0 -0.00000000000E+00  0.00000000000E+00  0.15158800248E+04  0.15158800248E+04  0.00000000000E+00 0. -1.
         21   -1    0    0  501  502  0.00000000000E+00 -0.00000000000E+00 -0.51589344213E+02  0.51589344213E+02  0.00000000000E+00 0. -1.
         23    2    1    2    0    0 -0.76406527311E+02  0.17208630503E+03  0.10634725059E+04  0.10837252321E+04  0.89637905255E+02 0.  0.
        -24    2    1    2    0    0  0.10355112359E+02  0.23399876280E+01  0.16006506403E+03  0.17919630606E+03  0.79861051152E+02 0.  0.
         11    1    4    4    0    0  0.41141100418E+02 -0.13256553807E+02  0.64990551155E+02  0.78051893647E+02  0.00000000000E+00 0. -1.
        -12    1    4    4    0    0 -0.30785988059E+02  0.15596541434E+02  0.95074512872E+02  0.10114441242E+03  0.00000000000E+00 0.  1.
        -11    1    3    3    0    0 -0.29966170116E+02 -0.29829346044E+00  0.16007308784E+03  0.16285408739E+03  0.00000000000E+00 0.  1.
         11    1    3    3    0    0 -0.46440357195E+02  0.17238459849E+03  0.90339941808E+03  0.92087114471E+03  0.00000000000E+00 0. -1.
          2    1    1    2  501    0  0.66051414952E+02 -0.17442629266E+03  0.24075311065E+03  0.30454783085E+03  0.00000000000E+00 0. -1.
<scales pt_clust_5="13000.00000" pt_clust_6="13000.00000" pt_clust_7="13000.00000" pt_clust_8="13000.00000" pt_clust_9="13000.00000"></scales>
<clustering>
<clus scale="   79.861">  5  6 -1 -1</clus>
<clus scale="   89.638">  7  8 -1 -1</clus>
<clus scale="  186.514">  5  9 -1 -1</clus>
<clus scale="  208.534">  1  7  2 -1</clus>
<clus scale="  270.838">  2  5  1 -1</clus>
</clustering>
</event>
<event>
 9    1  0.4073662E-005  0.1322161E+03  0.7546771E-02  0.1236911E+00
         21   -1    0    0  501  502  0.00000000000E+00  0.00000000000E+00  0.35572271235E+02  0.35572271235E+02  0.00000000000E+00 0.  1.
         -2   -1    0    0    0  501 -0.00000000000E+00 -0.00000000000E+00 -0.42218055528E+03  0.42218055528E+03  0.00000000000E+00 0.  1.
         23    2    1    2    0    0 -0.39472574112E+02 -0.16669890207E+02 -0.10262866463E+03  0.14450290690E+03  0.92263090953E+02 0.  0.
        -24    2    1    2    0    0 -0.27396022305E+02  0.18710363892E+02 -0.10847090303E+03  0.12542318497E+03  0.53520265036E+02 0.  0.
         11    1    4    4    0    0 -0.30791856978E+02 -0.10134783099E+02 -0.70690454797E+02  0.77768841344E+02  0.00000000000E+00 0. -1.
        -12    1    4    4    0    0  0.33958346732E+01  0.28845146990E+02 -0.37780448235E+02  0.47654343630E+02  0.00000000000E+00 0.  1.
        -13    1    3    3    0    0 -0.67252422019E+02 -0.35340413192E+01 -0.87023715613E+02  0.11003865137E+03  0.00000000000E+00 0.  1.
         13    1    3    3    0    0  0.27779847907E+02 -0.13135848888E+02 -0.15604949021E+02  0.34464255536E+02  0.00000000000E+00 0. -1.
         -1    1    1    2    0  502  0.66868596417E+02 -0.20404736848E+01 -0.17550871638E+03  0.18782673464E+03  0.00000000000E+00 0.  1.
<scales pt_clust_5="13000.00000" pt_clust_6="13000.00000" pt_clust_7="13000.00000" pt_clust_8="13000.00000" pt_clust_9="13000.00000"></scales>
<clustering>
<clus scale="   53.520">  5  6 -1 -1</clus>
<clus scale="   66.900">  5  9 -1 -1</clus>
<clus scale="   92.263">  7  8 -1 -1</clus>
<clus scale="  101.727">  2  7  1 -1</clus>
<clus scale="  132.216">  1  5  2 -1</clus>
</clustering>
</event>
<event>
 9    1  0.4950791E-005  0.4725756E+03  0.7546771E-02  0.1064693E+00
         -4   -1    0    0    0  501 -0.00000000000E+00  0.00000000000E+00  0.18051087908E+03  0.18051087908E+03  0.00000000000E+00 0.  1.
         21   -1    0    0  501  502  0.00000000000E+00 -0.00000000000E+00 -0.77890917890E+03  0.77890917890E+03  0.00000000000E+00 0.  1.
         23    2    1    2    0    0 -0.10012941335E+03 -0.47137364590E+01  0.61606957034E+02  0.14767219698E+03  0.89238679259E+02 0.  0.
        -24    2    1    2    0    0 -0.40013581614E+02 -0.11792262598E+03 -0.24979058784E+02  0.14997901265E+03  0.79767903489E+02 0.  0.
         11    1    4    4    0    0  0.15926851267E+02 -0.22350563776E+02  0.16154706537E+02  0.31846300188E+02  0.00000000000E+00 0. -1.
        -12    1    4    4    0    0 -0.55940432880E+02 -0.95572062200E+02 -0.41133765321E+02  0.11813271246E+03  0.00000000000E+00 0.  1.
        -11    1    3    3    0    0 -0.39283823486E+02 -0.40030695013E+02  0.52335033692E+02  0.76711349111E+02  0.00000000000E+00 0. -1.
         11    1    3    3    0    0 -0.60845589864E+02  0.35316958554E+02  0.92719233422E+01  0.70960847866E+02  0.00000000000E+00 0.  1.
         -3    1    1    2    0  502  0.14014299496E+03  0.12263636243E+03 -0.63502619806E+03  0.66176884836E+03  0.00000000000E+00 0.  1.
<scales pt_clust_5="13000.00000" pt_clust_6="13000.00000" pt_clust_7="13000.00000" pt_clust_8="13000.00000" pt_clust_9="13000.00000"></scales>
<clustering>
<clus scale="   79.768">  5  6 -1 -1</clus>
<clus scale="   89.239">  7  8 -1 -1</clus>
<clus scale="  134.208">  1  7  2 -1</clus>
<clus scale="  172.748">  5  9 -1 -1</clus>
<clus scale="  472.576">  2  5  1 -1</clus>
</clustering>
</event>
<event>
 9    1  0.2728138E-005  0.1991124E+03  0.7546771E-02  0.1180231E+00
         21   -1    0    0  501  502  0.00000000000E+00  0.00000000000E+00  0.43345447482E+02  0.43345447482E+02  0.00000000000E+00 0.  1.
          1   -1    0    0  502    0 -0.00000000000E+00 -0.00000000000E+00 -0.70514001491E+03  0.70514001491E+03  0.00000000000E+00 0. -1.
         23    2    1    2    0    0  0.40594790869E+02  0.72552148757E+01 -0.43625114458E+03  0.44762735224E+03  0.91403556469E+02 0.  0.
        -24    2    1    2    0    0  0.10436977577E+02  0.14192909454E+02 -0.16249634753E+02  0.84367571877E+02  0.80891701522E+02 0.  0.
         11    1    4    4    0    0 -0.26491012627E+02  0.27770575124E+02 -0.22561258498E+02  0.44519534788E+02  0.00000000000E+00 0. -1.
        -12    1    4    4    0    0  0.36927990204E+02 -0.13577665670E+02  0.63116237450E+01  0.39848037089E+02  0.00000000000E+00 0.  1.
        -11    1    3    3    0    0  0.55766367226E+02 -0.27048869190E+02 -0.29806428776E+03  0.30444022184E+03  0.00000000000E+00 0. -1.
         11    1    3    3    0    0 -0.15171576356E+02  0.34304084066E+02 -0.13818685682E+03  0.14318713040E+03  0.00000000000E+00 0.  1.
          2    1    1    2  501    0 -0.51031768446E+02 -0.21448124330E+02 -0.20929378809E+03  0.21649053827E+03  0.00000000000E+00 0. -1.
<scales pt_clust_5="13000.00000" pt_clust_6="13000.00000" pt_clust_7="13000.00000" pt_clust_8="13000.00000" pt_clust_9="13000.00000"></scales>
<clustering>
<clus scale="   80.892">  5  6 -1 -1</clus>
<clus scale="   55.356">  5  9 -1 -1</clus>
<clus scale="   91.404">  7  8 -1 -1</clus>
<clus scale="  100.276">  2  7  1 -1</clus>
<clus scale="  199.112">  1  5  2 -1</clus>
</clustering>
</event>
<event>
 9    1  0.2728138E-005  0.2060755E+03  0.7546771E-02  0.1150897E+00
          1   -1    0    0  502    0 -0.00000000000E+00  0.00000000000E+00  0.10193433951E+03  0.10193433951E+03  0.00000000000E+00 0. -1.
         21   -1    0    0  501  502  0.00000000000E+00 -0.00000000000E+00 -0.37202275116E+03  0.37202275116E+03  0.00000000000E+00 0.  1.
         23    2    1    2    0    0 -0.88176322648E+02  0.11824469359E+03 -0.85771108646E+02  0.19747930479E+03  0.99420929905E+02 0.  0.
        -24    2    1    2    0    0  0.12478547574E+02 -0.23735106438E+02 -0.68929073302E+02  0.10921554039E+03  0.80360112555E+02 0.  0.
         13    1    4    4    0    0  0.14687789754E+02  0.19819069920E+02 -0.59760888777E+02  0.64652072881E+02  0.00000000000E+00 0. -1.
        -14    1    4    4    0    0 -0.22092421797E+01 -0.43554176359E+02 -0.91681845254E+01  0.44563467513E+02  0.00000000000E+00 0.  1.
        -13    1    3    3    0    0 -0.53496703954E+02  0.17845986698E+02 -0.70322508471E+02  0.90142286264E+02  0.00000000000E+00 0.  1.
         13    1    3    3    0    0 -0.34679618694E+02  0.10039870689E+03 -0.15448600174E+02  0.10733701852E+03  0.00000000000E+00 0. -1.
          2    1    1    2  501    0  0.75697775074E+02 -0.94509587150E+02 -0.11538822970E+03  0.16726224549E+03  0.00000000000E+00 0. -1.
<scales pt_clust_5="13000.00000" pt_clust_6="13000.00000" pt_clust_7="13000.00000" pt_clust_8="13000.00000" pt_clust_9="13000.00000"></scales>
<clustering>
<clus scale="   80.360">  5  6 -1 -1</clus>
<clus scale="   99.421">  7  8 -1 -1</clus>
<clus scale="  121.088">  5  9 -1 -1</clus>
<clus scale="  177.880">  1  7  2 -1</clus>
<clus scale="  206.075">  2  5  1 -1</clus>
</clustering>
</event>
<event>
 9    1  0.2728138E-005  0.2949390E+03  0.7546771E-02  0.1122667E+00
         -2   -1    0    0    0  501 -0.00000000000E+00  0.00000000000E+00  0.68368842717E+03  0.68368842717E+03  0.00000000000E+00 0.  1.
         21   -1    0    0  501  502  0.00000000000E+00 -0.00000000000E+00 -0.63574213353E+02  0.63574213353E+02  0.00000000000E+00 0.  1.
         23    2    1    2    0    0 -0.64051142292E+02  0.31456261537E+02  0.15051584296E+03  0.19272531239E+03  0.96932872823E+02 0.  0.
        -24    2    1    2    0    0 -0.30513602028E+01  0.10986693829E+03  0.19376092916E+03  0.23742333146E+03  0.82136993622E+02 0.  0.
         13    1    4    4    0    0 -0.85695864313E+01  0.11061196387E+03  0.20021546926E+03  0.22889883900E+03  0.00000000000E+00 0. -1.
        -14    1    4    4    0    0  0.55182262285E+01 -0.74502558401E+00 -0.64545400958E+01  0.85244924587E+01  0.00000000000E+00 0.  1.
        -13    1    3    3    0    0 -0.55087721787E+02  0.60288014195E+02  0.13733273918E+03  0.15977979534E+03  0.00000000000E+00 0.  1.
         13    1    3    3    0    0 -0.89634205047E+01 -0.28831752658E+02  0.13183103784E+02  0.32945517053E+02  0.00000000000E+00 0. -1.
         -1    1    1    2    0  502  0.67102502495E+02 -0.14132319983E+03  0.27583744169E+03  0.31711399668E+03  0.00000000000E+00 0.  1.
<scales pt_clust_5="13000.00000" pt_clust_6="13000.00000" pt_clust_7="13000.00000" pt_clust_8="13000.00000" pt_clust_9="13000.00000"></scales>
<clustering>
<clus scale="   82.137">  5  6 -1 -1</clus>
<clus scale="   96.933">  7  8 -1 -1</clus>
<clus scale="  120.366">  1  7  2 -1</clus>
<clus scale="  126.718">  5  9 -1 -1</clus>
<clus scale="  294.939">  2  5  1 -1</clus>
</clustering>
</event>
<event>
 9    1  0.2728138E-005  0.1576755E+03  0.7546771E-02  0.1212306E+00
          1   -1    0    0  502    0 -0.00000000000E+00  0.00000000000E+00  0.85395400491E+03  0.85395400491E+03  0.00000000000E+00 0. -1.
         21   -1    0    0  501  502  0.00000000000E+00 -0.00000000000E+00 -0.19471985794E+02  0.19471985794E+02  0.00000000000E+00 0. -1.
         23    2    1    2    0    0 -0.41770878525E+02  0.15649369105E+02  0.31411138959E+03  0.32969152612E+03  0.89670665662E+02 0.  0.
        -24    2    1    2    0    0  0.10311935073E+02  0.29603210450E+02  0.18763976873E+03  0.20647004783E+03  0.80240337540E+02 0.  0.
         13    1    4    4    0    0  0.31331810909E+02  0.40744322413E+02  0.72332891531E+02  0.88734600810E+02  0.00000000000E+00 0. -1.
        -14    1    4    4    0    0 -0.21019875836E+02 -0.11141111963E+02  0.11530687720E+03  0.11773544702E+03  0.00000000000E+00 0.  1.
        -11    1    3    3    0    0 -0.22784926506E+02  0.43438899809E+02  0.26885112283E+03  0.27328925544E+03  0.00000000000E+00 0. -1.
         11    1    3    3    0    0 -0.18985952019E+02 -0.27789530704E+02  0.45260266762E+02  0.56402270683E+02  0.00000000000E+00 0.  1.
          2    1    1    2  501    0  0.31458943452E+02 -0.45252579555E+02  0.33273086080E+03  0.33726441675E+03  0.00000000000E+00 0. -1.
<scales pt_clust_5="13000.00000" pt_clust_6="13000.00000" pt_clust_7="13000.00000" pt_clust_8="13000.00000" pt_clust_9="13000.00000"></scales>
<clustering>
<clus scale="   80.240">  5  6 -1 -1</clus>
<clus scale="   55.113">  5  9 -1 -1</clus>
<clus scale="   89.671">  7  8 -1 -1</clus>
<clus scale="  100.153">  1  7  2 -1</clus>
<clus scale="  157.676">  2  5  1 -1</clus>
</clustering>
</event>
<event>
 9    1  0.2728138E-005  0.8510663E+03  0.7546771E-02  0.9904240E-01
         21   -1    0    0  501  502  0.00000000000E+00  0.00000000000E+00  0.21774491173E+03  0.21774491173E+03  0.00000000000E+00 0.  1.
         -2   -1    0    0    0  501 -0.00000000000E+00 -0.00000000000E+00 -0.13236139282E+04  0.13236139282E+04  0.00000000000E+00 0.  1.
         23    2    1    2    0    0  0.11234369148E+03 -0.13999461896E+03 -0.31763898898E+03  0.38135005488E+03  0.11096728654E+03 0.  0.
        -24    2    1    2    0    0 -0.35746467877E+03 -0.18250348159E+03 -0.56250073991E+03  0.69628145723E+03  0.85511799914E+02 0.  0.
         13    1    4    4    0    0 -0.17232297192E+03 -0.11727302687E+03 -0.34689277767E+03  0.40470083850E+03  0.00000000000E+00 0. -1.
        -14    1    4    4    0    0 -0.18514170685E+03 -0.65230454714E+02 -0.21560796224E+03  0.29158061873E+03  0.00000000000E+00 0.  1.
        -11    1    3    3    0    0  0.49149744317E+02 -0.82909284044E+01 -0.28530898563E+02  0.57432125444E+02  0.00000000000E+00 0. -1.
         11    1    3    3    0    0  0.63193947167E+02 -0.13170369056E+03 -0.28910809042E+03  0.32391792944E+03  0.00000000000E+00 0.  1.
         -1    1    1    2    0  502  0.24512098729E+03  0.32249810055E+03 -0.22572928754E+03  0.46372732777E+03  0.00000000000E+00 0.  1.
<scales pt_clust_5="13000.00000" pt_clust_6="13000.00000" pt_clust_7="13000.00000" pt_clust_8="13000.00000" pt_clust_9="13000.00000"></scales>
<clustering>
<clus scale="   85.512">  5  6 -1 -1</clus>
<clus scale="  110.967">  7  8 -1 -1</clus>
<clus scale="  211.029">  2  7  1 -1</clus>
<clus scale="  394.538">  5  9 -1 -1</clus>
<clus scale="  851.066">  1  5  2 -1</clus>
</clustering>
</event>
<event>
 9    1  0.2728138E-005  0.2167175E+03  0.7546771E-02  0.1163811E+00
          1   -1    0    0  502    0 -0.00000000000E+00  0.00000000000E+00  0.11910886294E+04  0.11910886294E+04  0.00000000000E+00 0. -1.
         21   -1    0    0  501  502  0.00000000000E+00 -0.00000000000E+00 -0.22828130139E+02  0.22828130139E+02  0.00000000000E+00 0. -1.
         23    2    1    2    0    0 -0.39868828887E+02  0.55535867956E+02  0.40202017147E+03  0.41761862978E+03  0.90063008628E+02 0.  0.
        -24    2    1    2    0    0  0.26457927960E+02  0.40536700366E+02  0.19265743696E+03  0.21457042430E+03  0.81119251345E+02 0.  0.
         13    1    4    4    0    0  0.55887328971E+02  0.26996785017E+02  0.12568231915E+03  0.14017227004E+03  0.00000000000E+00 0. -1.
        -14    1    4    4    0    0 -0.29429401011E+02  0.13539915350E+02  0.66975117809E+02  0.74398154258E+02  0.00000000000E+00 0.  1.
        -13    1    3    3    0    0  0.20769934508E+02  0.20871283284E+02  0.44637657770E+02  0.53474490522E+02  0.00000000000E+00 0.  1.
         13    1    3    3    0    0 -0.60638763395E+02  0.34664584672E+02  0.35738251370E+03  0.36414413926E+03  0.00000000000E+00 0. -1.
          2    1    1    2  501    0  0.13410900927E+02 -0.96072568323E+02  0.57358289082E+03  0.58172770545E+03  0.00000000000E+00 0. -1.
<scales pt_clust_5="13000.00000" pt_clust_6="13000.00000" pt_clust_7="13000.00000" pt_clust_8="13000.00000" pt_clust_9="13000.00000"></scales>
<clustering>
<clus scale="   81.119">  5  6 -1 -1</clus>
<clus scale="   90.063">  7  8 -1 -1</clus>
<clus scale="   97.004">  5  9 -1 -1</clus>
<clus scale="  113.071">  1  7  2 -1</clus>
<clus scale="  216.717">  2  5  1 -1</clus>
</clustering>
</event>
<event>
 9    1  0.2728138E-005  0.3553840E+03  0.7546771E-02  0.1106962E+00
         21   -1    0    0  501  502  0.00000000000E+00  0.00000000000E+00  0.30799628814E+02  0.30799628814E+02  0.00000000000E+00 0. -1.
          3   -1    0    0  502    0 -0.00000000000E+00 -0.00000000000E+00 -0.18225043060E+04  0.18225043060E+04  0.00000000000E+00 0. -1.
         23    2    1    2    0    0  0.28268451801E+02  0.37802122511E+02 -0.23074651097E+03  0.25240162882E+03  0.90744278476E+02 0.  0.
        -24    2    1    2    0    0  0.10883630409E+03  0.71526436382E+02 -0.39837047253E+03  0.42516398757E+03  0.71442359683E+02 0.  0.
         11    1    4    4    0    0  0.86465049972E+02  0.27415313633E+02 -0.18376262207E+03  0.20493048958E+03  0.00000000000E+00 0. -1.
        -12    1    4    4    0    0  0.22371254113E+02  0.44111122749E+02 -0.21460785045E+03  0.22023349799E+03  0.00000000000E+00 0.  1.
        -13    1    3    3    0    0  0.27169608759E+02 -0.26491042316E+02 -0.88962591924E+02  0.96717659840E+02  0.00000000000E+00 0.  1.
         13    1    3    3    0    0  0.10988430417E+01  0.64293164826E+02 -0.14178391904E+03  0.15568396899E+03  0.00000000000E+00 0. -1.
          4    1    1    2  501    0 -0.13710475589E+03 -0.10932855889E+03 -0.11625876937E+04  0.11757383184E+04  0.00000000000E+00 0. -1.
<scales pt_clust_5="13000.00000" pt_clust_6="13000.00000" pt_clust_7="13000.00000" pt_clust_8="13000.00000" pt_clust_9="13000.00000"></scales>
<clustering>
<clus scale="   71.442">  5  6 -1 -1</clus>
<clus scale="   90.744">  7  8 -1 -1</clus>
<clus scale="  102.287">  2  7  1 -1</clus>
<clus scale="  141.858">  5  9 -1 -1</clus>
<clus scale="  355.384">  1  5  2 -1</clus>
</clustering>
</event>
<event>
 9    1  0.2728138E-005  0.7307495E+03  0.7546771E-02  0.9912816E-01
          1   -1    0    0  502    0 -0.00000000000E+00  0.00000000000E+00  0.12729476421E+04  0.12729476421E+04  0.00000000000E+00 0. -1.
         21   -1    0    0  501  502  0.00000000000E+00 -0.00000000000E+00 -0.21986673228E+03  0.21986673228E+03  0.00000000000E+00 0.  1.
         23    2    1    2    0    0 -0.24324139732E+03  0.19448128369E+03  0.37677660870E+03  0.49713252502E+03  0.90502969536E+02 0.  0.
        -24    2    1    2    0    0 -0.13676008174E+03  0.91951964814E+02  0.41343201493E+03  0.45203953240E+03  0.79089974671E+02 0.  0.
         11    1    4    4    0    0 -0.77347512044E+02  0.11409795736E+02  0.13294340119E+03  0.15422959825E+03  0.00000000000E+00 0. -1.
        -12    1    4    4    0    0 -0.59412569693E+02  0.80542169078E+02  0.28048861374E+03  0.29780993414E+03  0.00000000000E+00 0.  1.
        -13    1    3    3    0    0 -0.17852646507E+03  0.99913129857E+02  0.19748560057E+03  0.28434995108E+03  0.00000000000E+00 0.  1.
         13    1    3    3    0    0 -0.64714932250E+02  0.94568153831E+02  0.17929100813E+03  0.21278257394E+03  0.00000000000E+00 0. -1.
          2    1    1    2  501    0  0.38000147906E+03 -0.28643324850E+03  0.26287228617E+03  0.54364231694E+03  0.00000000000E+00 0. -1.
<scales pt_clust_5="13000.00000" pt_clust_6="13000.00000" pt_clust_7="13000.00000" pt_clust_8="13000.00000" pt_clust_9="13000.00000"></scales>
<clustering>
<clus scale="   79.090">  5  6 -1 -1</clus>
<clus scale="   90.503">  7  8 -1 -1</clus>
<clus scale="  324.315">  1  7  2 -1</clus>
<clus scale="  325.727">  5  9 -1 -1</clus>
<clus scale="  730.750">  2  5  1 -1</clus>
</clustering>
</event>
<event>
 9    1  0.2728138E-005  0.4042622E+03  0.7546771E-02  0.1093286E+00
         21   -1    0    0  501  502  0.00000000000E+00  0.00000000000E+00  0.29452959222E+03  0.29452959222E+03  0.00000000000E+00 0. -1.
          1   -1    0    0  502    0 -0.00000000000E+00 -0.00000000000E+00 -0.21744892046E+03  0.21744892046E+03  0.00000000000E+00 0. -1.
         23    2    1    2    0    0  0.34080884329E+02  0.16975852191E+02 -0.60098733611E+01  0.99265581849E+02  0.91475958195E+02 0.  0.
        -24    2    1    2    0    0 -0.20479872863E+03  0.31874062426E+02  0.66804117650E+02  0.23439819717E+03  0.86725138201E+02 0.  0.
         13    1    4    4    0    0 -0.97738920036E+02 -0.22527147366E+02  0.53212859579E+02  0.11354284338E+03  0.00000000000E+00 0. -1.
        -14    1    4    4    0    0 -0.10705980860E+03  0.54401209792E+02  0.13591258071E+02  0.12085535379E+03  0.00000000000E+00 0.  1.
        -13    1    3    3    0    0  0.16386024753E+02  0.37051602767E+02  0.32798181878E+02  0.52125270352E+02  0.00000000000E+00 0. -1.
         13    1    3    3    0    0  0.17694859576E+02 -0.20075750576E+02 -0.38808055239E+02  0.47140311497E+02  0.00000000000E+00 0.  1.
          2    1    1    2  501    0  0.17071784431E+03 -0.48849914617E+02  0.16286427474E+02  0.17831473367E+03  0.00000000000E+00 0. -1.
<scales pt_clust_5="13000.00000" pt_clust_6="13000.00000" pt_clust_7="13000.00000" pt_clust_8="13000.00000" pt_clust_9="13000.00000"></scales>
<clustering>
<clus scale="   86.725">  5  6 -1 -1</clus>
<clus scale="   91.476">  7  8 -1 -1</clus>
<clus scale="   99.083">  2  7  1 -1</clus>
<clus scale="  191.797">  5  9 -1 -1</clus>
<clus scale="  404.262">  1  5  2 -1</clus>
</clustering>
</event>
<event>
 9    1  0.2728138E-005  0.3744027E+03  0.7546771E-02  0.1104342E+00
         21   -1    0    0  501  502  0.00000000000E+00  0.00000000000E+00  0.69827556604E+03  0.69827556604E+03  0.00000000000E+00 0. -1.
          1   -1    0    0  502    0 -0.00000000000E+00 -0.00000000000E+00 -0.11429037570E+03  0.11429037570E+03  0.00000000000E+00 0. -1.
         23    2    1    2    0    0  0.56959016325E+01 -0.19228026824E+02 -0.25761534307E+02  0.97046233978E+02  0.91390122926E+02 0.  0.
        -24    2    1    2    0    0  0.11160647215E+02 -0.13228816696E+03  0.10113887789E+03  0.18455526262E+03  0.78783584431E+02 0.  0.
         13    1    4    4    0    0 -0.78978307149E+01 -0.91382020062E+02  0.10481095523E+03  0.13927808750E+03  0.00000000000E+00 0. -1.
        -14    1    4    4    0    0  0.19058477929E+02 -0.40906146897E+02 -0.36720773412E+01  0.45277175121E+02  0.00000000000E+00 0.  1.
        -13    1    3    3    0    0  0.29046695223E+02 -0.18892178024E+02 -0.51640433631E+02  0.62188095962E+02  0.00000000000E+00 0. -1.
         13    1    3    3    0    0 -0.23350793590E+02 -0.33584879956E+00  0.25878899324E+02  0.34858138016E+02  0.00000000000E+00 0.  1.
          2    1    1    2  501    0 -0.16856548847E+02  0.15151619378E+03  0.50860784677E+03  0.53096444515E+03  0.00000000000E+00 0. -1.
<scales pt_clust_5="13000.00000" pt_clust_6="13000.00000" pt_clust_7="13000.00000" pt_clust_8="13000.00000" pt_clust_9="13000.00000"></scales>
<clustering>
<clus scale="   78.784">  5  6 -1 -1</clus>
<clus scale="   91.390">  7  8 -1 -1</clus>
<clus scale="   93.564">  2  7  1 -1</clus>
<clus scale="  148.281">  5  9 -1 -1</clus>
<clus scale="  374.403">  1  5  2 -1</clus>
</clustering>
</event>
<event>
 9    1  0.2728138E-005  0.3334129E+03  0.7546771E-02  0.1118497E+00
         21   -1    0    0  501  502  0.00000000000E+00  0.00000000000E+00  0.60632389891E+02  0.60632389891E+02  0.00000000000E+00 0. -1.
          1   -1    0    0  502    0 -0.00000000000E+00 -0.00000000000E+00 -0.82623205328E+03  0.82623205328E+03  0.00000000000E+00 0. -1.
         23    2    1    2    0    0 -0.47225614232E+00 -0.82824572161E+00 -0.30188450622E+03  0.31572881963E+03  0.92463633040E+02 0.  0.
        -24    2    1    2    0    0  0.13410996508E+03  0.36076620199E+02 -0.37262683690E+03  0.40561049782E+03  0.79888116205E+02 0.  0.
         13    1    4    4    0    0  0.10707513298E+03 -0.49443941240E+01 -0.21074691956E+03  0.23643983429E+03  0.00000000000E+00 0. -1.
        -14    1    4    4    0    0  0.27034832096E+02  0.41021014323E+02 -0.16187991734E+03  0.16917066353E+03  0.00000000000E+00 0.  1.
        -13    1    3    3    0    0 -0.14304650604E+02  0.37713319526E+02 -0.22532144335E+03  0.22890318986E+03  0.00000000000E+00 0.  1.
         13    1    3    3    0    0  0.13832394461E+02 -0.38541565247E+02 -0.76563062875E+02  0.86825629770E+02  0.00000000000E+00 0. -1.
          2    1    1    2  501    0 -0.13363770893E+03 -0.35248374478E+02 -0.91088320274E+02  0.16552512572E+03  0.00000000000E+00 0. -1.
<scales pt_clust_5="13000.00000" pt_clust_6="13000.00000" pt_clust_7="13000.00000" pt_clust_8="13000.00000" pt_clust_9="13000.00000"></scales>
<clustering>
<clus scale="   79.888">  5  6 -1 -1</clus>
<clus scale="   92.464">  7  8 -1 -1</clus>
<clus scale="   92.469">  2  7  1 -1</clus>
<clus scale="  138.374">  5  9 -1 -1</clus>
<clus scale="  333.413">  1  5  2 -1</clus>
</clustering>
</event>
<event>
 9    1  0.2728138E-005  0.1577576E+03  0.7546771E-02  0.1214440E+00
         21   -1    0    0  501  502  0.00000000000E+00  0.00000000000E+00  0.56760256043E+02  0.56760256043E+02  0.00000000000E+00 0.  1.
         -4   -1    0    0    0  501 -0.00000000000E+00 -0.00000000000E+00 -0.31351865823E+03  0.31351865823E+03  0.00000000000E+00 0.  1.
         23    2    1    2    0    0  0.97888207295E+01  0.23929306775E+02 -0.15645870086E+03  0.18333642000E+03  0.92002636312E+02 0.  0.
        -24    2    1    2    0    0  0.49434925456E+02 -0.19034735383E+02 -0.60162418032E+02  0.11523189219E+03  0.82781274624E+02 0.  0.
         11    1    4    4    0    0 -0.86309078472E+01  0.23363344262E+02 -0.24650118961E+02  0.35042357087E+02  0.00000000000E+00 0. -1.
        -12    1    4    4    0    0  0.58065833304E+02 -0.42398079646E+02 -0.35512299071E+02  0.80189535104E+02  0.00000000000E+00 0.  1.
        -11    1    3    3    0    0 -0.94484179356E+01 -0.33600958106E+02 -0.57508809764E+02  0.67272283948E+02  0.00000000000E+00 0. -1.
         11    1    3    3    0    0  0.19237238665E+02  0.57530264881E+02 -0.98949891098E+02  0.11606413605E+03  0.00000000000E+00 0.  1.
         -3    1    1    2    0  502 -0.59223746186E+02 -0.48945713923E+01 -0.40137283298E+02  0.71710602089E+02  0.00000000000E+00 0.  1.
<scales pt_clust_5="13000.00000" pt_clust_6="13000.00000" pt_clust_7="13000.00000" pt_clust_8="13000.00000" pt_clust_9="13000.00000"></scales>
<clustering>
<clus scale="   82.781">  5  6 -1 -1</clus>
<clus scale="   59.426">  5  9 -1 -1</clus>
<clus scale="   92.003">  7  8 -1 -1</clus>
<clus scale="   95.566">  2  7  1 -1</clus>
<clus scale="  157.758">  1  5  2 -1</clus>
</clustering>
</event>
<event>
 9    1  0.2728138E-005  0.1639018E+03  0.7546771E-02  0.1200307E+00
          1   -1    0    0  502    0 -0.00000000000E+00  0.00000000000E+00  0.40651014686E+03  0.40651014686E+03  0.00000000000E+00 0. -1.
         21   -1    0    0  501  502  0.00000000000E+00 -0.00000000000E+00 -0.54843532270E+02  0.54843532270E+02  0.00000000000E+00 0.  1.
         23    2    1    2    0    0 -0.69451864013E+02 -0.21866570133E+02  0.68554152475E+02  0.13421998766E+03  0.89518852545E+02 0.  0.
        -24    2    1    2    0    0  0.52447399397E+02 -0.23882774178E+02  0.11000144858E+03  0.14727380899E+03  0.79171582761E+02 0.  0.
         13    1    4    4    0    0  0.44714165289E+02  0.18344059788E+02  0.31166868775E+02  0.57508562982E+02  0.00000000000E+00 0. -1.
        -14    1    4    4    0    0  0.77332341085E+01 -0.42226833967E+02  0.78834579809E+02  0.89765246005E+02  0.00000000000E+00 0.  1.
        -13    1    3    3    0    0  0.77316832955E+01 -0.34451821613E+02  0.10541464937E+02  0.36848737048E+02  0.00000000000E+00 0. -1.
         13    1    3    3    0    0 -0.77183547308E+02  0.12585251480E+02  0.58012687537E+02  0.97371250609E+02  0.00000000000E+00 0.  1.
          2    1    1    2  501    0  0.17004464615E+02  0.45749344312E+02  0.17311101353E+03  0.17985988248E+03  0.00000000000E+00 0. -1.
<scales pt_clust_5="13000.00000" pt_clust_6="13000.00000" pt_clust_7="13000.00000" pt_clust_8="13000.00000" pt_clust_9="13000.00000"></scales>
<clustering>
<clus scale="   79.172">  5  6 -1 -1</clus>
<clus scale="   48.807">  5  9 -1 -1</clus>
<clus scale="   89.519">  7  8 -1 -1</clus>
<clus scale="  115.392">  1  7  2 -1</clus>
<clus scale="  163.902">  2  5  1 -1</clus>
</clustering>
</event>
<event>
 9    1  0.2728138E-005  0.1353284E+03  0.7546771E-02  0.1232298E+00
          1   -1    0    0  502    0 -0.00000000000E+00  0.00000000000E+00  0.35368963798E+03  0.35368963798E+03  0.00000000000E+00 0. -1.
         21   -1    0    0  501  502  0.00000000000E+00 -0.00000000000E+00 -0.40751566430E+02  0.40751566430E+02  0.00000000000E+00 0. -1.
         23    2    1    2    0    0 -0.37617920904E+02  0.34232666877E+02  0.14901891140E+03  0.18187763040E+03  0.91026661094E+02 0.  0.
        -24    2    1    2    0    0  0.90458177225E+01  0.91323753233E+01  0.10121188470E+03  0.13114432346E+03  0.82400005309E+02 0.  0.
         11    1    4    4    0    0 -0.22856113950E+02 -0.15229024802E+02  0.64219576076E+01  0.28205791618E+02  0.00000000000E+00 0. -1.
        -12    1    4    4    0    0  0.31901931672E+02  0.24361400125E+02  0.94789927088E+02  0.10293853184E+03  0.00000000000E+00 0.  1.
        -13    1    3    3    0    0  0.25670506367E+02 -0.24474193504E+01  0.16812075781E+02  0.30783285248E+02  0.00000000000E+00 0.  1.
         13    1    3    3    0    0 -0.63288427271E+02  0.36680086227E+02  0.13220683562E+03  0.15109434515E+03  0.00000000000E+00 0. -1.
          2    1    1    2  501    0  0.28572103182E+02 -0.43365042200E+02  0.62707275456E+02  0.81419250551E+02  0.00000000000E+00 0. -1.
<scales pt_clust_5="13000.00000" pt_clust_6="13000.00000" pt_clust_7="13000.00000" pt_clust_8="13000.00000" pt_clust_9="13000.00000"></scales>
<clustering>
<clus scale="   82.400">  5  6 -1 -1</clus>
<clus scale="   51.932">  5  9 -1 -1</clus>
<clus scale="   91.027">  7  8 -1 -1</clus>
<clus scale="  104.273">  1  7  2 -1</clus>
<clus scale="  135.328">  2  5  1 -1</clus>
</clustering>
</event>
<event>
 9    1  0.2728138E-005  0.2335444E+03  0.7546771E-02  0.1141923E+00
         21   -1    0    0  501  502  0.00000000000E+00  0.00000000000E+00  0.29576309001E+03  0.29576309001E+03  0.00000000000E+00 0.  1.
         -2   -1    0    0    0  501 -0.00000000000E+00 -0.00000000000E+00 -0.27872946486E+03  0.27872946486E+03  0.00000000000E+00 0.  1.
         23    2    1    2    0    0  0.11419766016E+03  0.13133574044E+02  0.21866772968E+03  0.26594874794E+03  0.98486365435E+02 0.  0.
        -24    2    1    2    0    0 -0.70021436734E+02  0.59161842024E+02 -0.45547675711E+02  0.13094555479E+03  0.81664082695E+02 0.  0.
         13    1    4    4    0    0 -0.16485374062E+02  0.66293058867E+02 -0.19869163531E+02  0.71142960799E+02  0.00000000000E+00 0. -1.
        -14    1    4    4    0    0 -0.53536062673E+02 -0.71312168434E+01 -0.25678512180E+02  0.59802593990E+02  0.00000000000E+00 0.  1.
        -11    1    3    3    0    0  0.56603578380E+02  0.26276546019E+01  0.22055864973E+02  0.60805680933E+02  0.00000000000E+00 0. -1.
         11    1    3    3    0    0  0.57594081785E+02  0.10505919442E+02  0.19661186470E+03  0.20514306701E+03  0.00000000000E+00 0.  1.
         -1    1    1    2    0  502 -0.44176223430E+02 -0.72295416067E+02 -0.15608642882E+03  0.17759825214E+03  0.00000000000E+00 0.  1.
<scales pt_clust_5="13000.00000" pt_clust_6="13000.00000" pt_clust_7="13000.00000" pt_clust_8="13000.00000" pt_clust_9="13000.00000"></scales>
<clustering>
<clus scale="   81.664">  5  6 -1 -1</clus>
<clus scale="   84.724">  5  9 -1 -1</clus>
<clus scale="   98.486">  7  8 -1 -1</clus>
<clus scale="  151.371">  2  7  1 -1</clus>
<clus scale="  233.544">  1  5  2 -1</clus>
</clustering>
</event>
<event>
 9    1  0.2728138E-005  0.1570919E+03  0.7546771E-02  0.1212240E+00
         21   -1    0    0  501  502  0.00000000000E+00  0.00000000000E+00  0.17306262827E+03  0.17306262827E+03  0.00000000000E+00 0.  1.
         -4   -1    0    0    0  501 -0.00000000000E+00 -0.00000000000E+00 -0.18678532156E+03  0.18678532156E+03  0.00000000000E+00 0.  1.
         23    2    1    2    0    0 -0.38519053648E+02  0.22715515478E+02 -0.12965637482E+03  0.16460841322E+03  0.91024403514E+02 0.  0.
        -24    2    1    2    0    0 -0.34012005983E+01  0.33112839739E+02  0.51756847548E+02  0.10040927255E+03  0.79342437728E+02 0.  0.
         11    1    4    4    0    0 -0.31689570764E+00 -0.26278076974E+02  0.12121948341E+02  0.28940963770E+02  0.00000000000E+00 0. -1.
        -12    1    4    4    0    0 -0.30843048906E+01  0.59390916713E+02  0.39634899207E+02  0.71468308779E+02  0.00000000000E+00 0.  1.
        -13    1    3    3    0    0 -0.62520303745E+02  0.10669159479E+02 -0.12061247332E+03  0.13627174346E+03  0.00000000000E+00 0.  1.
         13    1    3    3    0    0  0.24001250098E+02  0.12046355998E+02 -0.90439014992E+01  0.28336669766E+02  0.00000000000E+00 0. -1.
         -3    1    1    2    0  502  0.41920254246E+02 -0.55828355217E+02  0.64176833975E+02  0.94830264058E+02  0.00000000000E+00 0.  1.
<scales pt_clust_5="13000.00000" pt_clust_6="13000.00000" pt_clust_7="13000.00000" pt_clust_8="13000.00000" pt_clust_9="13000.00000"></scales>
<clustering>
<clus scale="   79.342">  5  6 -1 -1</clus>
<clus scale="   69.815">  5  9 -1 -1</clus>
<clus scale="   91.024">  7  8 -1 -1</clus>
<clus scale="  101.416">  2  7  1 -1</clus>
<clus scale="  157.092">  1  5  2 -1</clus>
</clustering>
</event>
<event>
 9    1  0.2728138E-005  0.3528709E+03  0.7546771E-02  0.1071362E+00
         -2   -1    0    0    0  501 -0.00000000000E+00  0.00000000000E+00  0.42648770993E+03  0.42648770993E+03  0.00000000000E+00 0.  1.
         21   -1    0    0  501  502  0.00000000000E+00 -0.00000000000E+00 -0.23448803855E+03  0.23448803855E+03  0.00000000000E+00 0.  1.
         23    2    1    2    0    0  0.21632614493E+03  0.12962169837E+03  0.21588975642E+02  0.26911136043E+03  0.91411458666E+02 0.  0.
        -24    2    1    2    0    0 -0.18286616767E+01 -0.69765377196E+02  0.12595646272E+03  0.16477821864E+03  0.80101678989E+02 0.  0.
         13    1    4    4    0    0  0.14838245450E+02 -0.79442396171E+02  0.74829978664E+02  0.11013988171E+03  0.00000000000E+00 0. -1.
        -14    1    4    4    0    0 -0.16666907126E+02  0.96770189750E+01  0.51126484061E+02  0.54638336924E+02  0.00000000000E+00 0.  1.
        -13    1    3    3    0    0  0.15760733180E+03  0.13123399742E+03  0.36954450015E+02  0.20839401261E+03  0.00000000000E+00 0.  1.
         13    1    3    3    0    0  0.58718813128E+02 -0.16122990514E+01 -0.15365474374E+02  0.60717347819E+02  0.00000000000E+00 0. -1.
         -1    1    1    2    0  502 -0.21449748325E+03 -0.59856321172E+02  0.44454233014E+02  0.22708616941E+03  0.00000000000E+00 0.  1.
<scales pt_clust_5="13000.00000" pt_clust_6="13000.00000" pt_clust_7="13000.00000" pt_clust_8="13000.00000" pt_clust_9="13000.00000"></scales>
<clustering>
<clus scale="   80.102">  5  6 -1 -1</clus>
<clus scale="   91.411">  7  8 -1 -1</clus>
<clus scale="  222.693">  5  9 -1 -1</clus>
<clus scale="  268.244">  1  7  2 -1</clus>
<clus scale="  352.871">  2  5  1 -1</clus>
</clustering>
</event>
<event>
 9    1  0.2728138E-005  0.1517650E+03  0.7546771E-02  0.1207554E+00
         21   -1    0    0  501  502  0.00000000000E+00  0.00000000000E+00  0.32620811757E+02  0.32620811757E+02  0.00000000000E+00 0. -1.
          1   -1    0    0  502    0 -0.00000000000E+00 -0.00000000000E+00 -0.77610849582E+03  0.77610849582E+03  0.00000000000E+00 0. -1.
         23    2    1    2    0    0 -0.77625773443E+02  0.34518134631E+02 -0.14355550186E+03  0.18989877874E+03  0.90752970932E+02 0.  0.
        -24    2    1    2    0    0  0.16958441760E+02 -0.12854511707E+02 -0.26918057740E+03  0.28186397000E+03  0.80847307416E+02 0.  0.
         13    1    4    4    0    0  0.36810748222E+02 -0.31165586871E+02 -0.10591994009E+03  0.11638452946E+03  0.00000000000E+00 0. -1.
        -14    1    4    4    0    0 -0.19852306462E+02  0.18311075164E+02 -0.16326063731E+03  0.16547944053E+03  0.00000000000E+00 0.  1.
        -11    1    3    3    0    0 -0.27976969161E+02  0.25776440472E+02 -0.13307874777E+03  0.13840913551E+03  0.00000000000E+00 0.  1.
         11    1    3    3    0    0 -0.49648804281E+02  0.87416941591E+01 -0.10476754091E+02  0.51489643227E+02  0.00000000000E+00 0. -1.
          2    1    1    2  501    0  0.60667331683E+02 -0.21663622924E+02 -0.33075160481E+03  0.33696655884E+03  0.00000000000E+00 0. -1.
<scales pt_clust_5="13000.00000" pt_clust_6="13000.00000" pt_clust_7="13000.00000" pt_clust_8="13000.00000" pt_clust_9="13000.00000"></scales>
<clustering>
<clus scale="   80.847">  5  6 -1 -1</clus>
<clus scale="   64.419">  5  9 -1 -1</clus>
<clus scale="   90.753">  7  8 -1 -1</clus>
<clus scale="  124.312">  2  7  1 -1</clus>
<clus scale="  151.765">  1  5  2 -1</clus>
</clustering>
</event>
<event>
 9    1  0.2728138E-005  0.2824872E+03  0.7546771E-02  0.1139973E+00
         21   -1    0    0  501  502  0.00000000000E+00  0.00000000000E+00  0.16476299891E+03  0.16476299891E+03  0.00000000000E+00 0. -1.
          1   -1    0    0  502    0 -0.00000000000E+00 -0.00000000000E+00 -0.21138428847E+03  0.21138428847E+03  0.00000000000E+00 0. -1.
         23    2    1    2    0    0  0.18347492982E+02  0.20160100581E+02 -0.23713441529E+02  0.92732796784E+02  0.85404825017E+02 0.  0.
        -24    2    1    2    0    0  0.52787912945E+02 -0.51719424630E+02 -0.11774418458E+03  0.16073536589E+03  0.80688922462E+02 0.  0.
         13    1    4    4    0    0  0.51526808335E+02 -0.20381179755E+02 -0.21375186982E+02  0.59391102734E+02  0.00000000000E+00 0. -1.
        -14    1    4    4    0    0  0.12611046094E+01 -0.31338244875E+02 -0.96368997593E+02  0.10134426315E+03  0.00000000000E+00 0.  1.
        -13    1    3    3    0    0  0.15687496777E+02  0.52365362543E+02 -0.25601453909E+02  0.60362763287E+02  0.00000000000E+00 0.  1.
         13    1    3    3    0    0  0.26599962044E+01 -0.32205261962E+02  0.18880123799E+01  0.32370033497E+02  0.00000000000E+00 0. -1.
          2    1    1    2  501    0 -0.71135405926E+02  0.31559324050E+02  0.94836336544E+02  0.12267912471E+03  0.00000000000E+00 0. -1.
<scales pt_clust_5="13000.00000" pt_clust_6="13000.00000" pt_clust_7="13000.00000" pt_clust_8="13000.00000" pt_clust_9="13000.00000"></scales>
<clustering>
<clus scale="   80.689">  5  6 -1 -1</clus>
<clus scale="   77.822">  5  9 -1 -1</clus>
<clus scale="   85.405">  7  8 -1 -1</clus>
<clus scale="   89.650">  2  7  1 -1</clus>
<clus scale="  282.487">  1  5  2 -1</clus>
</clustering>
</event>
<event>
 9    1  0.2728138E-005  0.2229449E+03  0.7546771E-02  0.1144461E+00
          1   -1    0    0  502    0 -0.00000000000E+00  0.00000000000E+00  0.30863350345E+03  0.30863350345E+03  0.00000000000E+00 0. -1.
         21   -1    0    0  501  502  0.00000000000E+00 -0.00000000000E+00 -0.15078673004E+03  0.15078673004E+03  0.00000000000E+00 0. -1.
         23    2    1    2    0    0  0.12600413075E+03  0.52688642249E+02  0.17015682504E+03  0.23613570368E+03  0.90297239475E+02 0.  0.
        -24    2    1    2    0    0 -0.19963271572E+02 -0.62225017839E+02 -0.24303209257E+02  0.11614237142E+03  0.92886594308E+02 0.  0.
         11    1    4    4    0    0  0.26459643565E+02 -0.22728480572E+02 -0.40129149867E+02  0.53169965542E+02  0.00000000000E+00 0. -1.
        -12    1    4    4    0    0 -0.46422915138E+02 -0.39496537267E+02  0.15825940610E+02  0.62972405879E+02  0.00000000000E+00 0.  1.
        -11    1    3    3    0    0  0.28122609049E+02  0.55588247052E+02  0.43241385952E+02  0.75833711561E+02  0.00000000000E+00 0.  1.
         11    1    3    3    0    0  0.97881521702E+02 -0.28996048035E+01  0.12691543909E+03  0.16030199212E+03  0.00000000000E+00 0. -1.
          2    1    1    2  501    0 -0.10604085918E+03  0.95363755898E+01  0.11993157622E+02  0.10714215839E+03  0.00000000000E+00 0. -1.
<scales pt_clust_5="13000.00000" pt_clust_6="13000.00000" pt_clust_7="13000.00000" pt_clust_8="13000.00000" pt_clust_9="13000.00000"></scales>
<clustering>
<clus scale="   90.297">  7  8 -1 -1</clus>
<clus scale="   92.887">  5  6 -1 -1</clus>
<clus scale="  106.469">  5  9 -1 -1</clus>
<clus scale="  163.728">  1  7  2 -1</clus>
<clus scale="  222.945">  2  5  1 -1</clus>
</clustering>
</event>
<event>
 9    1  0.2728138E-005  0.5810395E+03  0.7546771E-02  0.1044395E+00
          3   -1    0    0  502    0 -0.00000000000E+00  0.00000000000E+00  0.27720349948E+03  0.27720349948E+03  0.00000000000E+00 0. -1.
         21   -1    0    0  501  502  0.00000000000E+00 -0.00000000000E+00 -0.45553024931E+03  0.45553024931E+03  0.00000000000E+00 0. -1.
         23    2    1    2    0    0 -0.20706047622E+02 -0.78568523400E+02 -0.14398958860E+02  0.12901264594E+03  0.99172473598E+02 0.  0.
        -24    2    1    2    0    0 -0.16951889411E+03  0.40694243778E+02  0.14409822148E+03  0.23971558934E+03  0.79414037811E+02 0.  0.
         11    1    4    4    0    0 -0.17074102632E+03  0.46912186954E+02  0.11782155634E+03  0.21268561421E+03  0.00000000000E+00 0. -1.
        -12    1    4    4    0    0  0.12221322101E+01 -0.62179431755E+01  0.26276665145E+02  0.27029975132E+02  0.00000000000E+00 0.  1.
        -13    1    3    3    0    0 -0.48300108074E+02 -0.50808274429E+02 -0.41443448345E+02  0.81436727594E+02  0.00000000000E+00 0. -1.
         13    1    3    3    0    0  0.27594060452E+02 -0.27760248970E+02  0.27044489486E+02  0.47575918348E+02  0.00000000000E+00 0.  1.
          4    1    1    2  501    0  0.19022494173E+03  0.37874279622E+02 -0.30802601245E+03  0.36400551350E+03  0.00000000000E+00 0. -1.
<scales pt_clust_5="13000.00000" pt_clust_6="13000.00000" pt_clust_7="13000.00000" pt_clust_8="13000.00000" pt_clust_9="13000.00000"></scales>
<clustering>
<clus scale="   79.414">  5  6 -1 -1</clus>
<clus scale="   99.172">  7  8 -1 -1</clus>
<clus scale="  128.207">  1  7  2 -1</clus>
<clus scale="  189.649">  5  9 -1 -1</clus>
<clus scale="  581.039">  2  5  1 -1</clus>
</clustering>
</event>
<event>
 9    1  0.2728138E-005  0.1988508E+03  0.7546771E-02  0.1185392E+00
         21   -1    0    0  501  502  0.00000000000E+00  0.00000000000E+00  0.30146263912E+02  0.30146263912E+02  0.00000000000E+00 0. -1.
          3   -1    0    0  502    0 -0.00000000000E+00 -0.00000000000E+00 -0.69047013444E+03  0.69047013444E+03  0.00000000000E+00 0. -1.
         23    2    1    2    0    0 -0.14506052766E+02 -0.35552280637E+01 -0.20391512039E+03  0.22277044054E+03  0.88443358380E+02 0.  0.
        -24    2    1    2    0    0 -0.17793712098E+02  0.74797042923E+02 -0.13837409281E+03  0.17033303554E+03  0.62886720495E+02 0.  0.
         11    1    4    4    0    0 -0.34325319722E+02  0.32154266695E+02 -0.39598485392E+02  0.61483042264E+02  0.00000000000E+00 0. -1.
        -12    1    4    4    0    0  0.16531607624E+02  0.42642776228E+02 -0.98775607419E+02  0.10884999328E+03  0.00000000000E+00 0.  1.
        -13    1    3    3    0    0 -0.68235678516E+01  0.42433669143E+02 -0.92815080464E+02  0.10228302164E+03  0.00000000000E+00 0. -1.
         13    1    3    3    0    0 -0.76824849147E+01 -0.45988897206E+02 -0.11110003993E+03  0.12048741890E+03  0.00000000000E+00 0.  1.
          4    1    1    2  501    0  0.32299764864E+02 -0.71241814859E+02 -0.31803465732E+03  0.32751292227E+03  0.00000000000E+00 0. -1.
<scales pt_clust_5="13000.00000" pt_clust_6="13000.00000" pt_clust_7="13000.00000" pt_clust_8="13000.00000" pt_clust_9="13000.00000"></scales>
<clustering>
<clus scale="   62.887">  5  6 -1 -1</clus>
<clus scale="   78.222">  5  9 -1 -1</clus>
<clus scale="   88.443">  7  8 -1 -1</clus>
<clus scale="   89.696">  2  7  1 -1</clus>
<clus scale="  198.851">  1  5  2 -1</clus>
</clustering>
</event>
<event>
 9    1  0.2728138E-005  0.4499138E+03  0.7546771E-02  0.1075932E+00
          1   -1    0    0  502    0 -0.00000000000E+00  0.00000000000E+00  0.11182399739E+04  0.11182399739E+04  0.00000000000E+00 0. -1.
         21   -1    0    0  501  502  0.00000000000E+00 -0.00000000000E+00 -0.71489870089E+02  0.71489870089E+02  0.00000000000E+00 0. -1.
         23    2    1    2    0    0  0.51122436782E+02  0.45061114876E+02  0.24605515192E+03  0.27128834266E+03  0.91707248659E+02 0.  0.
        -24    2    1    2    0    0  0.10395659197E+03  0.14655781599E+03  0.28631957543E+03  0.34804747285E+03  0.82897392243E+02 0.  0.
         11    1    4    4    0    0  0.88119615241E+02  0.74172038352E+02  0.12193287826E+03  0.16773247945E+03  0.00000000000E+00 0. -1.
        -12    1    4    4    0    0  0.15836976729E+02  0.72385777636E+02  0.16438669717E+03  0.18031499339E+03  0.00000000000E+00 0.  1.
        -11    1    3    3    0    0 -0.25464815156E+02  0.16829927320E+01  0.43458756618E+02  0.50397944424E+02  0.00000000000E+00 0.  1.
         11    1    3    3    0    0  0.76587251937E+02  0.43378122144E+02  0.20259639531E+03  0.22089039823E+03  0.00000000000E+00 0. -1.
          2    1    1    2  501    0 -0.15507902875E+03 -0.19161893086E+03  0.51437537646E+03  0.57039402849E+03  0.00000000000E+00 0. -1.
<scales pt_clust_5="13000.00000" pt_clust_6="13000.00000" pt_clust_7="13000.00000" pt_clust_8="13000.00000" pt_clust_9="13000.00000"></scales>
<clustering>
<clus scale="   82.897">  5  6 -1 -1</clus>
<clus scale="   91.707">  7  8 -1 -1</clus>
<clus scale="  114.255">  1  7  2 -1</clus>
<clus scale="  204.241">  5  9 -1 -1</clus>
<clus scale="  449.914">  2  5  1 -1</clus>
</clustering>
</event>
<event>
 9    1  0.2728138E-005  0.1908203E+03  0.7546771E-02  0.1161054E+00
          1   -1    0    0  502    0 -0.00000000000E+00  0.00000000000E+00  0.29338298183E+03  0.29338298183E+03  0.00000000000E+00 0. -1.
         21   -1    0    0  501  502  0.00000000000E+00 -0.00000000000E+00 -0.12544180885E+03  0.12544180885E+03  0.00000000000E+00 0. -1.
         23    2    1    2    0    0  0.14580801559E+03  0.40612822987E+02  0.20657799942E+02  0.17777546431E+03  0.90928500540E+02 0.  0.
        -24    2    1    2    0    0 -0.12710958402E+03 -0.54713111634E+01  0.11372452506E+03  0.18898442962E+03  0.81210008269E+02 0.  0.
         13    1    4    4    0    0 -0.11281703122E+03  0.25810435453E+02  0.95588232689E+02  0.15010320230E+03  0.00000000000E+00 0. -1.
        -14    1    4    4    0    0 -0.14292552793E+02 -0.31281746616E+02  0.18136292375E+02  0.38881227319E+02  0.00000000000E+00 0.  1.
        -13    1    3    3    0    0  0.20570815497E+02  0.13216860057E+02  0.41231723826E+02  0.47936404638E+02  0.00000000000E+00 0.  1.
         13    1    3    3    0    0  0.12523720009E+03  0.27395962931E+02 -0.20573923884E+02  0.12983905967E+03  0.00000000000E+00 0. -1.
          2    1    1    2  501    0 -0.18698431575E+02 -0.35141511824E+02  0.33558847975E+02  0.52064896754E+02  0.00000000000E+00 0. -1.
<scales pt_clust_5="13000.00000" pt_clust_6="13000.00000" pt_clust_7="13000.00000" pt_clust_8="13000.00000" pt_clust_9="13000.00000"></scales>
<clustering>
<clus scale="   81.210">  5  6 -1 -1</clus>
<clus scale="   39.807">  5  9 -1 -1</clus>
<clus scale="   90.929">  7  8 -1 -1</clus>
<clus scale="  176.571">  1  7  2 -1</clus>
<clus scale="  190.820">  2  5  1 -1</clus>
</clustering>
</event>
<event>
 9    1  0.2728138E-005  0.2838711E+03  0.7546771E-02  0.1131015E+00
         21   -1    0    0  501  502  0.00000000000E+00  0.00000000000E+00  0.84879046001E+02  0.84879046001E+02  0.00000000000E+00 0. -1.
          1   -1    0    0  502    0 -0.00000000000E+00 -0.00000000000E+00 -0.45936025003E+03  0.45936025003E+03  0.00000000000E+00 0. -1.
         23    2    1    2    0    0 -0.22029835284E+01 -0.58484452282E+02 -0.85937440625E+02  0.13946738828E+03  0.92954958978E+02 0.  0.
        -24    2    1    2    0    0  0.15075721300E+02 -0.94062938425E+02 -0.16958921414E+03  0.21089927280E+03  0.81503913763E+02 0.  0.
         11    1    4    4    0    0  0.35899632244E+02 -0.76553869393E+02 -0.16186297131E+03  0.18261681192E+03  0.00000000000E+00 0. -1.
        -12    1    4    4    0    0 -0.20823910944E+02 -0.17509069032E+02 -0.77262428289E+01  0.28282460884E+02  0.00000000000E+00 0.  1.
        -11    1    3    3    0    0  0.41319940322E+02 -0.15832517079E+02 -0.56574911404E+02  0.71824276298E+02  0.00000000000E+00 0.  1.
         11    1    3    3    0    0 -0.43522923851E+02 -0.42651935203E+02 -0.29362529221E+02  0.67643111987E+02  0.00000000000E+00 0. -1.
          2    1    1    2  501    0 -0.12872737771E+02  0.15254739071E+03 -0.11895454927E+03  0.19387263495E+03  0.00000000000E+00 0. -1.
<scales pt_clust_5="13000.00000" pt_clust_6="13000.00000" pt_clust_7="13000.00000" pt_clust_8="13000.00000" pt_clust_9="13000.00000"></scales>
<clustering>
<clus scale="   81.504">  5  6 -1 -1</clus>
<clus scale="   92.955">  7  8 -1 -1</clus>
<clus scale="  109.845">  2  7  1 -1</clus>
<clus scale="  126.919">  5  9 -1 -1</clus>
<clus scale="  283.871">  1  5  2 -1</clus>
</clustering>
</event>
<event>
 9    1  0.2728138E-005  0.1776296E+03  0.7546771E-02  0.1192385E+00
          1   -1    0    0  502    0 -0.00000000000E+00  0.00000000000E+00  0.27324352709E+02  0.27324352709E+02  0.00000000000E+00 0. -1.
         21   -1    0    0  501  502  0.00000000000E+00 -0.00000000000E+00 -0.79817619766E+03  0.79817619766E+03  0.00000000000E+00 0. -1.
         23    2    1    2    0    0  0.38240177410E+02  0.59803513828E+02 -0.40054248683E+03  0.41479225261E+03  0.81114472427E+02 0.  0.
        -24    2    1    2    0    0  0.24484074582E+02  0.64239530545E+01 -0.15246466190E+03  0.17453734097E+03  0.81099156493E+02 0.  0.
         13    1    4    4    0    0  0.21795889338E+02 -0.26960395441E+02 -0.24991153185E+02  0.42737354292E+02  0.00000000000E+00 0. -1.
        -14    1    4    4    0    0  0.26881852442E+01  0.33384348495E+02 -0.12747350872E+03  0.13179998668E+03  0.00000000000E+00 0.  1.
        -13    1    3    3    0    0 -0.67356026389E+01  0.53838389464E+02 -0.13664421383E+03  0.14702238502E+03  0.00000000000E+00 0.  1.
         13    1    3    3    0    0  0.44975780049E+02  0.59651243640E+01 -0.26389827300E+03  0.26776986760E+03  0.00000000000E+00 0. -1.
          2    1    1    2  501    0 -0.62724251992E+02 -0.66227466883E+02 -0.21784469622E+03  0.23617095678E+03  0.00000000000E+00 0. -1.
<scales pt_clust_5="13000.00000" pt_clust_6="13000.00000" pt_clust_7="13000.00000" pt_clust_8="13000.00000" pt_clust_9="13000.00000"></scales>
<clustering>
<clus scale="   81.099">  5  6 -1 -1</clus>
<clus scale="   81.114">  7  8 -1 -1</clus>
<clus scale="   91.216">  5  9 -1 -1</clus>
<clus scale="  107.788">  1  7  2 -1</clus>
<clus scale="  177.630">  2  5  1 -1</clus>
</clustering>
</event>
<event>
 9    1  0.2728138E-005  0.2351895E+03  0.7546771E-02  0.1160899E+00
         21   -1    0    0  501  502  0.00000000000E+00  0.00000000000E+00  0.40150423675E+02  0.40150423675E+02  0.00000000000E+00 0. -1.
          1   -1    0    0  502    0 -0.00000000000E+00 -0.00000000000E+00 -0.75178052255E+03  0.75178052255E+03  0.00000000000E+00 0. -1.
         23    2    1    2    0    0 -0.12035840145E+02 -0.13399283710E+02 -0.33311087922E+03  0.34629556391E+03  0.92915862328E+02 0.  0.
        -24    2    1    2    0    0 -0.47418819359E+02 -0.81882966692E+02 -0.23743615931E+03  0.26530791992E+03  0.71126633290E+02 0.  0.
         11    1    4    4    0    0 -0.63356837635E+02 -0.44647367320E+02 -0.14586027257E+03  0.16517474201E+03  0.00000000000E+00 0. -1.
        -12    1    4    4    0    0  0.15938018276E+02 -0.37235599372E+02 -0.91575886738E+02  0.10013317791E+03  0.00000000000E+00 0.  1.
        -13    1    3    3    0    0  0.36846341043E+02  0.12999860982E+02 -0.14086713051E+03  0.14618549070E+03  0.00000000000E+00 0. -1.
         13    1    3    3    0    0 -0.48882181189E+02 -0.26399144691E+02 -0.19224374872E+03  0.20011007321E+03  0.00000000000E+00 0.  1.
          2    1    1    2  501    0  0.59454659504E+02  0.95282250402E+02 -0.14108306035E+03  0.18032746240E+03  0.00000000000E+00 0. -1.
<scales pt_clust_5="13000.00000" pt_clust_6="13000.00000" pt_clust_7="13000.00000" pt_clust_8="13000.00000" pt_clust_9="13000.00000"></scales>
<clustering>
<clus scale="   71.127">  5  6 -1 -1</clus>
<clus scale="   92.916">  7  8 -1 -1</clus>
<clus scale="   94.645">  2  7  1 -1</clus>
<clus scale="  105.399">  5  9 -1 -1</clus>
<clus scale="  235.189">  1  5  2 -1</clus>
</clustering>
</event>
<event>
 9    1  0.2728138E-005  0.3949989E+03  0.7546771E-02  0.1067636E+00
          1   -1    0    0  502    0 -0.00000000000E+00  0.00000000000E+00  0.50132676277E+03  0.50132676277E+03  0.00000000000E+00 0. -1.
         21   -1    0    0  501  502  0.00000000000E+00 -0.00000000000E+00 -0.18418970262E+03  0.18418970262E+03  0.00000000000E+00 0. -1.
         23    2    1    2    0    0 -0.19129734163E+03 -0.33301566577E+01  0.12846225997E+03  0.24776960055E+03  0.91002526685E+02 0.  0.
        -24    2    1    2    0    0 -0.90917774666E+00 -0.11066244639E+03 -0.11876504301E+02  0.13748283874E+03  0.80706108490E+02 0.  0.
         11    1    4    4    0    0  0.29505572180E+02 -0.92170975243E+02 -0.24299466271E+02  0.99782420936E+02  0.00000000000E+00 0. -1.
        -12    1    4    4    0    0 -0.30414749927E+02 -0.18491471150E+02  0.12422961970E+02  0.37700417803E+02  0.00000000000E+00 0.  1.
        -11    1    3    3    0    0 -0.77464046678E+02 -0.34209431008E+02  0.18852865262E+02  0.86754793678E+02  0.00000000000E+00 0.  1.
         11    1    3    3    0    0 -0.11383329495E+03  0.30879274350E+02  0.10960939471E+03  0.16101480687E+03  0.00000000000E+00 0. -1.
          2    1    1    2  501    0  0.19220651937E+03  0.11399260305E+03  0.20055130448E+03  0.30026402610E+03  0.00000000000E+00 0. -1.
<scales pt_clust_5="13000.00000" pt_clust_6="13000.00000" pt_clust_7="13000.00000" pt_clust_8="13000.00000" pt_clust_9="13000.00000"></scales>
<clustering>
<clus scale="   80.706">  5  6 -1 -1</clus>
<clus scale="   91.003">  7  8 -1 -1</clus>
<clus scale="  211.866">  1  7  2 -1</clus>
<clus scale="  118.052">  5  9 -1 -1</clus>
<clus scale="  394.999">  2  5  1 -1</clus>
</clustering>
</event>
<event>
 9    1  0.2728138E-005  0.2750879E+03  0.7546771E-02  0.1111495E+00
         21   -1    0    0  501  502  0.00000000000E+00  0.00000000000E+00  0.72931748379E+03  0.72931748379E+03  0.00000000000E+00 0. -1.
          1   -1    0    0  502    0 -0.00000000000E+00 -0.00000000000E+00 -0.18575810343E+03  0.18575810343E+03  0.00000000000E+00 0. -1.
         23    2    1    2    0    0 -0.17427169143E+03  0.53753268143E+02 -0.96148177224E+02  0.21872859570E+03  0.73059498526E+02 0.  0.
        -24    2    1    2    0    0  0.65994621284E+02 -0.11050147872E+03  0.38087215214E+03  0.41009526588E+03  0.80923815924E+02 0.  0.
         11    1    4    4    0    0  0.19986028475E+02 -0.10346436441E+03  0.27139398312E+03  0.29113400713E+03  0.00000000000E+00 0. -1.
        -12    1    4    4    0    0  0.46008592809E+02 -0.70371143079E+01  0.10947816903E+03  0.11896125875E+03  0.00000000000E+00 0.  1.
        -13    1    3    3    0    0 -0.18421448319E+02 -0.16410810234E+02 -0.19335846097E+02  0.31345484444E+02  0.00000000000E+00 0.  1.
         13    1    3    3    0    0 -0.15585024311E+03  0.70164078378E+02 -0.76812331126E+02  0.18738311126E+03  0.00000000000E+00 0. -1.
          2    1    1    2  501    0  0.10827707014E+03  0.56748210572E+02  0.25883540544E+03  0.28625172564E+03  0.00000000000E+00 0. -1.
<scales pt_clust_5="13000.00000" pt_clust_6="13000.00000" pt_clust_7="13000.00000" pt_clust_8="13000.00000" pt_clust_9="13000.00000"></scales>
<clustering>
<clus scale="   73.059">  7  8 -1 -1</clus>
<clus scale="   80.924">  5  6 -1 -1</clus>
<clus scale="  122.247">  5  9 -1 -1</clus>
<clus scale="  196.463">  2  7  1 -1</clus>
<clus scale="  275.088">  1  5  2 -1</clus>
</clustering>
</event>
<event>
 9    1  0.2728138E-005  0.6786872E+03  0.7546771E-02  0.1030865E+00
          1   -1    0    0  502    0 -0.00000000000E+00  0.00000000000E+00  0.20065970116E+03  0.20065970116E+03  0.00000000000E+00 0. -1.
         21   -1    0    0  501  502  0.00000000000E+00 -0.00000000000E+00 -0.85789264315E+03  0.85789264315E+03  0.00000000000E+00 0. -1.
         23    2    1    2    0    0 -0.42346332326E+02  0.65479830986E+02 -0.86512717864E+01  0.11979011668E+03  0.90520756859E+02 0.  0.
        -24    2    1    2    0    0  0.10120446263E+03 -0.33942008167E+03 -0.21410566150E+03  0.42177388870E+03  0.81262807060E+02 0.  0.
         11    1    4    4    0    0  0.89945709723E+02 -0.17387924543E+03 -0.95493682502E+02  0.21781475176E+03  0.00000000000E+00 0. -1.
        -12    1    4    4    0    0  0.11258752907E+02 -0.16554083624E+03 -0.11861197899E+03  0.20395913694E+03  0.00000000000E+00 0.  1.
        -11    1    3    3    0    0 -0.65614058663E+02  0.23957172573E+02 -0.15916502496E+02  0.71641369778E+02  0.00000000000E+00 0.  1.
         11    1    3    3    0    0  0.23267726337E+02  0.41522658412E+02  0.72652307100E+01  0.48148746898E+02  0.00000000000E+00 0. -1.
          2    1    1    2  501    0 -0.58858130304E+02  0.27394025068E+03 -0.43447600871E+03  0.51698833893E+03  0.00000000000E+00 0. -1.
<scales pt_clust_5="13000.00000" pt_clust_6="13000.00000" pt_clust_7="13000.00000" pt_clust_8="13000.00000" pt_clust_9="13000.00000"></scales>
<clustering>
<clus scale="   81.263">  5  6 -1 -1</clus>
<clus scale="   90.521">  7  8 -1 -1</clus>
<clus scale="  119.477">  1  7  2 -1</clus>
<clus scale="  301.028">  5  9 -1 -1</clus>
<clus scale="  678.687">  2  5  1 -1</clus>
</clustering>
</event>
<event>
 9    1  0.2728138E-005  0.1839882E+03  0.7546771E-02  0.1191602E+00
         21   -1    0    0  501  502  0.00000000000E+00  0.00000000000E+00  0.15783325918E+03  0.15783325918E+03  0.00000000000E+00 0. -1.
         -2   -1    0    0    0  501 -0.00000000000E+00 -0.00000000000E+00 -0.18836817294E+03  0.18836817294E+03  0.00000000000E+00 0.  1.
         23    2    1    2    0    0 -0.12959812451E+02 -0.32537227018E+02 -0.10824431470E+03  0.14647562196E+03  0.92258594636E+02 0.  0.
        -24    2    1    2    0    0 -0.26248527367E+02 -0.41989372119E+02  0.53665443923E+02  0.11214944486E+03  0.85120065505E+02 0.  0.
         13    1    4    4    0    0 -0.57588877013E+02 -0.29839819812E+02  0.34969789159E+02  0.73687039266E+02  0.00000000000E+00 0. -1.
        -14    1    4    4    0    0  0.31340349646E+02 -0.12149552307E+02  0.18695654764E+02  0.38462405596E+02  0.00000000000E+00 0.  1.
        -11    1    3    3    0    0 -0.52827424799E+02 -0.18009951091E+02 -0.54601469221E+02  0.78079546555E+02  0.00000000000E+00 0. -1.
         11    1    3    3    0    0  0.39867612348E+02 -0.14527275926E+02 -0.53642845477E+02  0.68396075407E+02  0.00000000000E+00 0.  1.
         -1    1    1    2    0  502  0.39208339818E+02  0.74526599137E+02  0.24043957007E+02  0.87576365297E+02  0.00000000000E+00 0.  1.
<scales pt_clust_5="13000.00000" pt_clust_6="13000.00000" pt_clust_7="13000.00000" pt_clust_8="13000.00000" pt_clust_9="13000.00000"></scales>
<clustering>
<clus scale="   85.120">  5  6 -1 -1</clus>
<clus scale="   84.211">  5  9 -1 -1</clus>
<clus scale="   92.259">  7  8 -1 -1</clus>
<clus scale="   98.683">  2  7  1 -1</clus>
<clus scale="  183.988">  1  5  2 -1</clus>
</clustering>
</event>
<event>
 9    1  0.2728138E-005  0.1284326E+03  0.7546771E-02  0.1245130E+00
         21   -1    0    0  501  502  0.00000000000E+00  0.00000000000E+00  0.27291796217E+02  0.27291796217E+02  0.00000000000E+00 0. -1.
          1   -1    0    0  502    0 -0.00000000000E+00 -0.00000000000E+00 -0.54521426747E+03  0.54521426747E+03  0.00000000000E+00 0. -1.
         23    2    1    2    0    0 -0.84715711497E+01  0.40596308247E+01 -0.34213548947E+03  0.35479982339E+03  0.93477127692E+02 0.  0.
        -24    2    1    2    0    0 -0.24491697557E+02  0.18192299103E+02 -0.13625209584E+03  0.16162832418E+03  0.81414240531E+02 0.  0.
         13    1    4    4    0    0 -0.45004343139E+02  0.34454843800E+02 -0.11383240955E+03  0.12716266995E+03  0.00000000000E+00 0. -1.
        -14    1    4    4    0    0  0.20512645581E+02 -0.16262544698E+02 -0.22419686282E+02  0.34465654234E+02  0.00000000000E+00 0.  1.
        -11    1    3    3    0    0  0.26807755467E+02  0.33206298143E+02 -0.22560278438E+03  0.22960385517E+03  0.00000000000E+00 0.  1.
         11    1    3    3    0    0 -0.35279326617E+02 -0.29146667319E+02 -0.11653270510E+03  0.12519596822E+03  0.00000000000E+00 0. -1.
          2    1    1    2  501    0  0.32963268707E+02 -0.22251929927E+02 -0.39534885944E+02  0.56077916117E+02  0.00000000000E+00 0. -1.
<scales pt_clust_5="13000.00000" pt_clust_6="13000.00000" pt_clust_7="13000.00000" pt_clust_8="13000.00000" pt_clust_9="13000.00000"></scales>
<clustering>
<clus scale="   81.414">  5  6 -1 -1</clus>
<clus scale="   39.771">  5  9 -1 -1</clus>
<clus scale="   93.477">  7  8 -1 -1</clus>
<clus scale="   93.948">  2  7  1 -1</clus>
<clus scale="  128.433">  1  5  2 -1</clus>
</clustering>
</event>
<event>
 9    1  0.2728138E-005  0.3208330E+03  0.7546771E-02  0.1089327E+00
          1   -1    0    0  502    0 -0.00000000000E+00  0.00000000000E+00  0.30386186808E+03  0.30386186808E+03  0.00000000000E+00 0. -1.
         21   -1    0    0  501  502  0.00000000000E+00 -0.00000000000E+00 -0.26344260396E+03  0.26344260396E+03  0.00000000000E+00 0.  1.
         23    2    1    2    0    0  0.19041052092E+03 -0.59581095688E+02 -0.65268667851E+02  0.22951197369E+03  0.92788326968E+02 0.  0.
        -24    2    1    2    0    0 -0.24286701141E+02 -0.34575723780E+02  0.11493336731E+03  0.14661690308E+03  0.80631959049E+02 0.  0.
         11    1    4    4    0    0 -0.25998395700E+02 -0.48157011450E+02  0.33770008645E+02  0.64307292080E+02  0.00000000000E+00 0. -1.
        -12    1    4    4    0    0  0.17116945591E+01  0.13581287670E+02  0.81163358664E+02  0.82309610998E+02  0.00000000000E+00 0.  1.
        -13    1    3    3    0    0  0.26609571492E+02 -0.48034402998E+02 -0.74135685341E+01  0.55410596141E+02  0.00000000000E+00 0. -1.
         13    1    3    3    0    0  0.16380094943E+03 -0.11546692690E+02 -0.57855099317E+02  0.17410137755E+03  0.00000000000E+00 0.  1.
          2    1    1    2  501    0 -0.16612381978E+03  0.94156819468E+02 -0.92454353375E+01  0.19117559527E+03  0.00000000000E+00 0. -1.
<scales pt_clust_5="13000.00000" pt_clust_6="13000.00000" pt_clust_7="13000.00000" pt_clust_8="13000.00000" pt_clust_9="13000.00000"></scales>
<clustering>
<clus scale="   80.632">  5  6 -1 -1</clus>
<clus scale="   92.788">  7  8 -1 -1</clus>
<clus scale="  190.952">  5  9 -1 -1</clus>
<clus scale="  220.036">  1  7  2 -1</clus>
<clus scale="  320.833">  2  5  1 -1</clus>
</clustering>
</event>
<event>
 9    1  0.2728138E-005  0.2371825E+03  0.7546771E-02  0.1160909E+00
         21   -1    0    0  501  502  0.00000000000E+00  0.00000000000E+00  0.10212762366E+03  0.10212762366E+03  0.00000000000E+00 0. -1.
          1   -1    0    0  502    0 -0.00000000000E+00 -0.00000000000E+00 -0.31975165761E+03  0.31975165761E+03  0.00000000000E+00 0. -1.
         23    2    1    2    0    0  0.16176658562E+02  0.10184217261E+01  0.10428004729E+02  0.92845463514E+02  0.90822989091E+02 0.  0.
        -24    2    1    2    0    0 -0.89527815296E+01  0.57463394050E+02 -0.24765145139E+03  0.26693354275E+03  0.80870766788E+02 0.  0.
         11    1    4    4    0    0 -0.43428856912E+02  0.45931295508E+02 -0.15333493539E+03  0.16585340495E+03  0.00000000000E+00 0. -1.
        -12    1    4    4    0    0  0.34476075382E+02  0.11532098542E+02 -0.94316515992E+02  0.10108013781E+03  0.00000000000E+00 0.  1.
        -11    1    3    3    0    0 -0.24034546526E+02  0.12877832333E+02 -0.25724564272E+02  0.37486680291E+02  0.00000000000E+00 0.  1.
         11    1    3    3    0    0  0.40211205088E+02 -0.11859410607E+02  0.36152569001E+02  0.55358783223E+02  0.00000000000E+00 0. -1.
          2    1    1    2  501    0 -0.72238770322E+01 -0.58481815776E+02  0.19599412708E+02  0.62100274994E+02  0.00000000000E+00 0. -1.
<scales pt_clust_5="13000.00000" pt_clust_6="13000.00000" pt_clust_7="13000.00000" pt_clust_8="13000.00000" pt_clust_9="13000.00000"></scales>
<clustering>
<clus scale="   80.871">  5  6 -1 -1</clus>
<clus scale="   58.926">  5  9 -1 -1</clus>
<clus scale="   90.823">  7  8 -1 -1</clus>
<clus scale="   92.258">  2  7  1 -1</clus>
<clus scale="  237.182">  1  5  2 -1</clus>
</clustering>
</event>
<event>
 9    1  0.2728138E-005  0.2203318E+03  0.7546771E-02  0.1156524E+00
          1   -1    0    0  502    0 -0.00000000000E+00  0.00000000000E+00  0.10119717752E+03  0.10119717752E+03  0.00000000000E+00 0. -1.
         21   -1    0    0  501  502  0.00000000000E+00 -0.00000000000E+00 -0.29961549437E+03  0.29961549437E+03  0.00000000000E+00 0. -1.
         23    2    1    2    0    0 -0.83000904155E+02  0.33628816067E+02 -0.82489900877E+02  0.15184379350E+03  0.90729854604E+02 0.  0.
        -24    2    1    2    0    0 -0.42253501652E+02 -0.23702568235E+01 -0.40608312302E+02  0.99506904246E+02  0.80384155436E+02 0.  0.
         13    1    4    4    0    0 -0.40315329488E+02 -0.33951513515E+02 -0.67035117658E+01  0.53131611417E+02  0.00000000000E+00 0. -1.
        -14    1    4    4    0    0 -0.19381721639E+01  0.31581256692E+02 -0.33904800536E+02  0.46375292829E+02  0.00000000000E+00 0.  1.
        -13    1    3    3    0    0 -0.90202897473E+01  0.36722737363E+02 -0.65875731441E+02  0.75957468753E+02  0.00000000000E+00 0. -1.
         13    1    3    3    0    0 -0.73980614408E+02 -0.30939212965E+01 -0.16614169436E+02  0.75886324744E+02  0.00000000000E+00 0.  1.
          2    1    1    2  501    0  0.12525440581E+03 -0.31258559243E+02 -0.75320103663E+02  0.14946197415E+03  0.00000000000E+00 0. -1.
<scales pt_clust_5="13000.00000" pt_clust_6="13000.00000" pt_clust_7="13000.00000" pt_clust_8="13000.00000" pt_clust_9="13000.00000"></scales>
<clustering>
<clus scale="   80.384">  5  6 -1 -1</clus>
<clus scale="   90.730">  7  8 -1 -1</clus>
<clus scale="  127.483">  1  7  2 -1</clus>
<clus scale="   79.985">  5  9 -1 -1</clus>
<clus scale="  220.332">  2  5  1 -1</clus>
</clustering>
</event>
<event>
 9    1  0.2728138E-005  0.2320826E+03  0.7546771E-02  0.1158972E+00
          1   -1    0    0  502    0 -0.00000000000E+00  0.00000000000E+00  0.43168424598E+03  0.43168424598E+03  0.00000000000E+00 0. -1.
         21   -1    0    0  501  502  0.00000000000E+00 -0.00000000000E+00 -0.71812660114E+02  0.71812660114E+02  0.00000000000E+00 0. -1.
         23    2    1    2    0    0 -0.49060169141E+02  0.17109624228E+01  0.18915584015E+03  0.21538896169E+03  0.90568456795E+02 0.  0.
        -24    2    1    2    0    0 -0.53968541104E+02 -0.61327895009E+01  0.14672860549E+03  0.18223136255E+03  0.93427893549E+02 0.  0.
         11    1    4    4    0    0 -0.56790207562E+02 -0.86838012397E+01  0.28842581380E+02  0.64283983850E+02  0.00000000000E+00 0. -1.
        -12    1    4    4    0    0  0.28216664587E+01  0.25510117389E+01  0.11788602411E+03  0.11794737870E+03  0.00000000000E+00 0.  1.
        -13    1    3    3    0    0  0.92319715292E+01 -0.32990700917E+02  0.77594753388E+02  0.84820760423E+02  0.00000000000E+00 0.  1.
         13    1    3    3    0    0 -0.58292140670E+02  0.34701663340E+02  0.11156108676E+03  0.13056820126E+03  0.00000000000E+00 0. -1.
          2    1    1    2  501    0  0.10302871024E+03  0.44218270781E+01  0.23987140233E+02  0.10587658186E+03  0.00000000000E+00 0. -1.
<scales pt_clust_5="13000.00000" pt_clust_6="13000.00000" pt_clust_7="13000.00000" pt_clust_8="13000.00000" pt_clust_9="13000.00000"></scales>
<clustering>
<clus scale="   90.568">  7  8 -1 -1</clus>
<clus scale="   93.428">  5  6 -1 -1</clus>
<clus scale="  103.017">  1  7  2 -1</clus>
<clus scale="   89.278">  5  9 -1 -1</clus>
<clus scale="  232.083">  2  5  1 -1</clus>
</clustering>
</event>
<event>
 9    1  0.2728138E-005  0.1829363E+03  0.7546771E-02  0.1195548E+00
          3   -1    0    0  502    0 -0.00000000000E+00  0.00000000000E+00  0.31024801108E+02  0.31024801108E+02  0.00000000000E+00 0. -1.
         21   -1    0    0  501  502  0.00000000000E+00 -0.00000000000E+00 -0.71650270809E+03  0.71650270809E+03  0.00000000000E+00 0. -1.
         23    2    1    2    0    0 -0.65638981346E+01 -0.11776611916E+02 -0.38405750763E+03  0.39493715254E+03  0.91068171948E+02 0.  0.
        -24    2    1    2    0    0 -0.42324446177E+02 -0.39552922443E+02 -0.23483671094E+03  0.25533718771E+03  0.81810795176E+02 0.  0.
         11    1    4    4    0    0 -0.46273011742E+02  0.21963144243E+01 -0.18241737626E+03  0.18820763687E+03  0.00000000000E+00 0. -1.
        -12    1    4    4    0    0  0.39485655655E+01 -0.41749236867E+02 -0.52419334678E+02  0.67129550848E+02  0.00000000000E+00 0.  1.
        -13    1    3    3    0    0  0.28189550356E+02  0.24735358548E+02 -0.22436656638E+03  0.22747932833E+03  0.00000000000E+00 0. -1.
         13    1    3    3    0    0 -0.34753448490E+02 -0.36511970464E+02 -0.15969094125E+03  0.16745782420E+03  0.00000000000E+00 0.  1.
          4    1    1    2  501    0  0.48888344311E+02  0.51329534359E+02 -0.66583688411E+02  0.97253168943E+02  0.00000000000E+00 0. -1.
<scales pt_clust_5="13000.00000" pt_clust_6="13000.00000" pt_clust_7="13000.00000" pt_clust_8="13000.00000" pt_clust_9="13000.00000"></scales>
<clustering>
<clus scale="   81.811">  5  6 -1 -1</clus>
<clus scale="   70.886">  5  9 -1 -1</clus>
<clus scale="   91.068">  7  8 -1 -1</clus>
<clus scale="   92.061">  1  7  2 -1</clus>
<clus scale="  182.936">  2  5  1 -1</clus>
</clustering>
</event>
<event>
 9    1  0.2728138E-005  0.5288906E+03  0.7546771E-02  0.1064313E+00
         -2   -1    0    0    0  501 -0.00000000000E+00  0.00000000000E+00  0.85634111234E+03  0.85634111234E+03  0.00000000000E+00 0.  1.
         21   -1    0    0  501  502  0.00000000000E+00 -0.00000000000E+00 -0.11717137892E+03  0.11717137892E+03  0.00000000000E+00 0. -1.
         23    2    1    2    0    0  0.18194506122E+02 -0.27717037800E+02  0.64660419481E+02  0.11637301308E+03  0.90897932252E+02 0.  0.
        -24    2    1    2    0    0 -0.27699864702E+02  0.27020836284E+03  0.31982416569E+03  0.42737913921E+03  0.81151647060E+02 0.  0.
         11    1    4    4    0    0 -0.36876843226E+02  0.24121884516E+03  0.24132752268E+03  0.34319878500E+03  0.00000000000E+00 0. -1.
        -12    1    4    4    0    0  0.91769785232E+01  0.28989517678E+02  0.78496643011E+02  0.84180354205E+02  0.00000000000E+00 0.  1.
        -13    1    3    3    0    0  0.43216090014E+02 -0.33298606392E+02  0.71407403919E+02  0.89863479558E+02  0.00000000000E+00 0.  1.
         13    1    3    3    0    0 -0.25021583892E+02  0.55815685924E+01 -0.67469844379E+01  0.26509533519E+02  0.00000000000E+00 0. -1.
         -1    1    1    2    0  502  0.95053585804E+01 -0.24249132504E+03  0.35468514825E+03  0.42976033897E+03  0.00000000000E+00 0.  1.
<scales pt_clust_5="13000.00000" pt_clust_6="13000.00000" pt_clust_7="13000.00000" pt_clust_8="13000.00000" pt_clust_9="13000.00000"></scales>
<clustering>
<clus scale="   81.152">  5  6 -1 -1</clus>
<clus scale="   90.898">  7  8 -1 -1</clus>
<clus scale="   96.756">  1  7  2 -1</clus>
<clus scale="  257.376">  5  9 -1 -1</clus>
<clus scale="  528.891">  2  5  1 -1</clus>
</clustering>
</event>
<event>
 9    1  0.2728138E-005  0.1171084E+03  0.7546771E-02  0.1256635E+00
          1   -1    0    0  502    0 -0.00000000000E+00  0.00000000000E+00  0.90922105503E+03  0.90922105503E+03  0.00000000000E+00 0. -1.
         21   -1    0    0  501  502  0.00000000000E+00 -0.00000000000E+00 -0.12816911020E+02  0.12816911020E+02  0.00000000000E+00 0. -1.
         23    2    1    2    0    0 -0.31872717904E+02  0.15233213710E+02  0.43324444687E+03  0.44430238481E+03  0.91956171385E+02 0.  0.
        -24    2    1    2    0    0  0.22360945626E+02  0.10276904858E+02  0.28866681970E+03  0.30113149228E+03  0.82134135314E+02 0.  0.
         11    1    4    4    0    0  0.42066637287E+02  0.19013450470E+02  0.88586169145E+02  0.99893055991E+02  0.00000000000E+00 0. -1.
        -12    1    4    4    0    0 -0.19705691661E+02 -0.87365456125E+01  0.20008065056E+03  0.20123843629E+03  0.00000000000E+00 0.  1.
        -11    1    3    3    0    0 -0.55073540899E+02 -0.18007533847E+02  0.24961319250E+03  0.25625009669E+03  0.00000000000E+00 0. -1.
         11    1    3    3    0    0  0.23200822995E+02  0.33240747557E+02  0.18363125437E+03  0.18805228812E+03  0.00000000000E+00 0.  1.
          2    1    1    2  501    0  0.95117722783E+01 -0.25510118568E+02  0.17449287744E+03  0.17660408896E+03  0.00000000000E+00 0. -1.
<scales pt_clust_5="13000.00000" pt_clust_6="13000.00000" pt_clust_7="13000.00000" pt_clust_8="13000.00000" pt_clust_9="13000.00000"></scales>
<clustering>
<clus scale="   82.134">  5  6 -1 -1</clus>
<clus scale="   27.226">  5  9 -1 -1</clus>
<clus scale="   91.956">  7  8 -1 -1</clus>
<clus scale="   98.508">  1  7  2 -1</clus>
<clus scale="  117.108">  2  5  1 -1</clus>
</clustering>
</event>
<event>
 9    1  0.2728138E-005  0.1526146E+03  0.7546771E-02  0.1209590E+00
         -4   -1    0    0    0  501 -0.00000000000E+00  0.00000000000E+00  0.20452676472E+03  0.20452676472E+03  0.00000000000E+00 0.  1.
         21   -1    0    0  501  502  0.00000000000E+00 -0.00000000000E+00 -0.10828244565E+03  0.10828244565E+03  0.00000000000E+00 0.  1.
         23    2    1    2    0    0 -0.52878551294E+02  0.49791154159E+02 -0.22827011687E+02  0.11923956350E+03  0.91769825228E+02 0.  0.
        -24    2    1    2    0    0  0.47404757274E+02 -0.28683677954E+02  0.30076980053E+02  0.10194278166E+03  0.80110808320E+02 0.  0.
         13    1    4    4    0    0 -0.60760860831E+00  0.25201062648E+02  0.67823429931E+01  0.26104844824E+02  0.00000000000E+00 0. -1.
        -14    1    4    4    0    0  0.48012365883E+02 -0.53884740602E+02  0.23294637060E+02  0.75837936833E+02  0.00000000000E+00 0.  1.
        -13    1    3    3    0    0 -0.58378569682E+02 -0.17672959000E+01  0.79476704858E+01  0.58943584885E+02  0.00000000000E+00 0. -1.
         13    1    3    3    0    0  0.55000183879E+01  0.51558450059E+02 -0.30774682173E+02  0.60295978619E+02  0.00000000000E+00 0.  1.
         -3    1    1    2    0  502  0.54737940196E+01 -0.21107476204E+02  0.88994350703E+02  0.91626865218E+02  0.00000000000E+00 0.  1.
<scales pt_clust_5="13000.00000" pt_clust_6="13000.00000" pt_clust_7="13000.00000" pt_clust_8="13000.00000" pt_clust_9="13000.00000"></scales>
<clustering>
<clus scale="   80.111">  5  6 -1 -1</clus>
<clus scale="   21.806">  5  9 -1 -1</clus>
<clus scale="   91.770">  7  8 -1 -1</clus>
<clus scale="  117.034">  1  7  2 -1</clus>
<clus scale="  152.615">  2  5  1 -1</clus>
</clustering>
</event>
<event>
 9    1  0.2728138E-005  0.7148970E+03  0.7546771E-02  0.9980424E-01
          1   -1    0    0  502    0 -0.00000000000E+00  0.00000000000E+00  0.22781193895E+04  0.22781193895E+04  0.00000000000E+00 0. -1.
         21   -1    0    0  501  502  0.00000000000E+00 -0.00000000000E+00 -0.12583525409E+03  0.12583525409E+03  0.00000000000E+00 0. -1.
         23    2    1    2    0    0  0.23164731301E+03 -0.12618208438E+03  0.10777155828E+04  0.11133054653E+04  0.91628520664E+02 0.  0.
        -24    2    1    2    0    0  0.21504592036E+02 -0.29772594364E+02  0.97256781877E+03  0.97630557870E+03  0.77042624899E+02 0.  0.
         11    1    4    4    0    0 -0.15627973541E+02 -0.14349169533E+02  0.77982075186E+02  0.80816683139E+02  0.00000000000E+00 0. -1.
        -12    1    4    4    0    0  0.37132565577E+02 -0.15423424831E+02  0.89458574358E+03  0.89548889557E+03  0.00000000000E+00 0.  1.
        -11    1    3    3    0    0  0.14644205207E+03 -0.12481301005E+03  0.79971279673E+03  0.82253517818E+03  0.00000000000E+00 0. -1.
         11    1    3    3    0    0  0.85205260946E+02 -0.13690743340E+01  0.27800278603E+03  0.29077028716E+03  0.00000000000E+00 0.  1.
          2    1    1    2  501    0 -0.25315190505E+03  0.15595467875E+03  0.10200073385E+03  0.31434359952E+03  0.00000000000E+00 0. -1.
<scales pt_clust_5="13000.00000" pt_clust_6="13000.00000" pt_clust_7="13000.00000" pt_clust_8="13000.00000" pt_clust_9="13000.00000"></scales>
<clustering>
<clus scale="   77.043">  5  6 -1 -1</clus>
<clus scale="   91.629">  7  8 -1 -1</clus>
<clus scale="  279.246">  1  7  2 -1</clus>
<clus scale="  250.979">  5  9 -1 -1</clus>
<clus scale="  714.897">  2  5  1 -1</clus>
</clustering>
</event>
<event>
 9    1  0.2728138E-005  0.2458758E+03  0.7546771E-02  0.1118734E+00
         21   -1    0    0  501  502  0.00000000000E+00  0.00000000000E+00  0.55841634704E+03  0.55841634704E+03  0.00000000000E+00 0.  1.
         -2   -1    0    0    0  501 -0.00000000000E+00 -0.00000000000E+00 -0.22451568280E+03  0.22451568280E+03  0.00000000000E+00 0.  1.
         23    2    1    2    0    0 -0.19050046172E+03  0.88592189357E+02 -0.12591359480E+03  0.26150699934E+03  0.91611546333E+02 0.  0.
        -24    2    1    2    0    0  0.87918687385E+02 -0.18335414259E+02  0.22890665769E+03  0.25917065926E+03  0.81885833204E+02 0.  0.
         13    1    4    4    0    0  0.24862942999E-01 -0.28027584755E+02  0.27773971029E+02  0.39458073852E+02  0.00000000000E+00 0. -1.
        -14    1    4    4    0    0  0.87893824442E+02  0.96921704956E+01  0.20113268666E+03  0.21971258541E+03  0.00000000000E+00 0.  1.
        -11    1    3    3    0    0 -0.18042734005E+03  0.48588607912E+02 -0.11259920484E+03  0.21815925098E+03  0.00000000000E+00 0.  1.
         11    1    3    3    0    0 -0.10073121668E+02  0.40003581445E+02 -0.13314389955E+02  0.43347748366E+02  0.00000000000E+00 0. -1.
         -1    1    1    2    0  502  0.10258177433E+03 -0.70256775098E+02  0.23090760135E+03  0.26225437124E+03  0.00000000000E+00 0.  1.
<scales pt_clust_5="13000.00000" pt_clust_6="13000.00000" pt_clust_7="13000.00000" pt_clust_8="13000.00000" pt_clust_9="13000.00000"></scales>
<clustering>
<clus scale="   81.886">  5  6 -1 -1</clus>
<clus scale="   91.612">  7  8 -1 -1</clus>
<clus scale="  124.334">  5  9 -1 -1</clus>
<clus scale="  229.198">  2  7  1 -1</clus>
<clus scale="  245.876">  1  5  2 -1</clus>
</clustering>
</event>
<event>
 9    1  0.2728138E-005  0.2456142E+03  0.7546771E-02  0.1157340E+00
         21   -1    0    0  501  502  0.00000000000E+00  0.00000000000E+00  0.53668892517E+02  0.53668892517E+02  0.00000000000E+00 0. -1.
          1   -1    0    0  502    0 -0.00000000000E+00 -0.00000000000E+00 -0.71838671237E+03  0.71838671237E+03  0.00000000000E+00 0. -1.
         23    2    1    2    0    0 -0.14923077120E+02  0.13243185763E+02 -0.40359465753E+03  0.41357041745E+03  0.88055450722E+02 0.  0.
        -24    2    1    2    0    0 -0.20709934449E+02  0.66638072336E+02 -0.16974986095E+02  0.99141672263E+02  0.68347545359E+02 0.  0.
         13    1    4    4    0    0 -0.25116941985E+01  0.76752743508E+02 -0.14813403000E+02  0.78209520854E+02  0.00000000000E+00 0. -1.
        -14    1    4    4    0    0 -0.18198240251E+02 -0.10114671172E+02 -0.21615830949E+01  0.20932151409E+02  0.00000000000E+00 0.  1.
        -11    1    3    3    0    0 -0.83905843188E+00 -0.37202946581E+02 -0.19350205167E+03  0.19704772837E+03  0.00000000000E+00 0. -1.
         11    1    3    3    0    0 -0.14084018688E+02  0.50446132344E+02 -0.21009260586E+03  0.21652268908E+03  0.00000000000E+00 0.  1.
          2    1    1    2  501    0  0.35633011569E+02 -0.79881258099E+02 -0.24414817623E+03  0.25934351518E+03  0.00000000000E+00 0. -1.
<scales pt_clust_5="13000.00000" pt_clust_6="13000.00000" pt_clust_7="13000.00000" pt_clust_8="13000.00000" pt_clust_9="13000.00000"></scales>
<clustering>
<clus scale="   68.348">  5  6 -1 -1</clus>
<clus scale="   87.468">  5  9 -1 -1</clus>
<clus scale="   88.055">  7  8 -1 -1</clus>
<clus scale="   90.288">  2  7  1 -1</clus>
<clus scale="  245.614">  1  5  2 -1</clus>
</clustering>
</event>
<event>
 9    1  0.2728138E-005  0.2493630E+03  0.7546771E-02  0.1126171E+00
          1   -1    0    0  502    0 -0.00000000000E+00  0.00000000000E+00  0.16185826185E+03  0.16185826185E+03  0.00000000000E+00 0. -1.
         21   -1    0    0  501  502  0.00000000000E+00 -0.00000000000E+00 -0.30203734316E+03  0.30203734316E+03  0.00000000000E+00 0.  1.
         23    2    1    2    0    0 -0.90616376672E+02 -0.12842650059E+03 -0.10623649539E+02  0.18288576512E+03  0.92895895375E+02 0.  0.
        -24    2    1    2    0    0  0.60630555964E+02 -0.11220741483E+02 -0.75520798190E+02  0.12830016997E+03  0.83400079732E+02 0.  0.
         13    1    4    4    0    0  0.80704384606E+02  0.30650092947E-01 -0.59109279564E+02  0.10003552151E+03  0.00000000000E+00 0. -1.
        -14    1    4    4    0    0 -0.20073828642E+02 -0.11251391576E+02 -0.16411518626E+02  0.28264648456E+02  0.00000000000E+00 0.  1.
        -13    1    3    3    0    0  0.13278439281E+02 -0.51577563719E+02 -0.49944072721E+00  0.53261726126E+02  0.00000000000E+00 0.  1.
         13    1    3    3    0    0 -0.10389481595E+03 -0.76848936875E+02 -0.10124208812E+02  0.12962403899E+03  0.00000000000E+00 0. -1.
          2    1    1    2  501    0  0.29985820708E+02  0.13964724208E+03 -0.54034633579E+02  0.15270966993E+03  0.00000000000E+00 0. -1.
<scales pt_clust_5="13000.00000" pt_clust_6="13000.00000" pt_clust_7="13000.00000" pt_clust_8="13000.00000" pt_clust_9="13000.00000"></scales>
<clustering>
<clus scale="   83.400">  5  6 -1 -1</clus>
<clus scale="   92.896">  7  8 -1 -1</clus>
<clus scale="  142.830">  5  9 -1 -1</clus>
<clus scale="  182.577">  1  7  2 -1</clus>
<clus scale="  249.363">  2  5  1 -1</clus>
</clustering>
</event>
<event>
 9    1  0.2728138E-005  0.2870441E+03  0.7546771E-02  0.1116317E+00
          1   -1    0    0  502    0 -0.00000000000E+00  0.00000000000E+00  0.12805416859E+03  0.12805416859E+03  0.00000000000E+00 0. -1.
         21   -1    0    0  501  502  0.00000000000E+00 -0.00000000000E+00 -0.52705492904E+03  0.52705492904E+03  0.00000000000E+00 0.  1.
         23    2    1    2    0    0  0.30152913278E+02  0.97899378562E+02 -0.32413848951E+03  0.35846341686E+03  0.11373994173E+03 0.  0.
        -24    2    1    2    0    0  0.50562652607E+02  0.29675131107E+02 -0.10207637281E+03  0.14324794468E+03  0.81628380632E+02 0.  0.
         11    1    4    4    0    0  0.27607154633E+02 -0.52883023242E+01 -0.97147930704E+02  0.10113279176E+03  0.00000000000E+00 0. -1.
        -12    1    4    4    0    0  0.22955497974E+02  0.34963433431E+02 -0.49284421107E+01  0.42115152929E+02  0.00000000000E+00 0.  1.
        -13    1    3    3    0    0  0.65754587294E+02  0.88762076246E+02 -0.19411899171E+03  0.22334850542E+03  0.00000000000E+00 0.  1.
         13    1    3    3    0    0 -0.35601674016E+02  0.91373023162E+01 -0.13001949780E+03  0.13511491144E+03  0.00000000000E+00 0. -1.
          2    1    1    2  501    0 -0.80715565885E+02 -0.12757450967E+03  0.27214101873E+02  0.15339773608E+03  0.00000000000E+00 0. -1.
<scales pt_clust_5="13000.00000" pt_clust_6="13000.00000" pt_clust_7="13000.00000" pt_clust_8="13000.00000" pt_clust_9="13000.00000"></scales>
<clustering>
<clus scale="   81.628">  5  6 -1 -1</clus>
<clus scale="  113.740">  7  8 -1 -1</clus>
<clus scale="  150.965">  5  9 -1 -1</clus>
<clus scale="  153.070">  1  7  2 -1</clus>
<clus scale="  287.044">  2  5  1 -1</clus>
</clustering>
</event>
<event>
 9    1  0.2728138E-005  0.4237543E+03  0.7546771E-02  0.1071803E+00
          1   -1    0    0  502    0 -0.00000000000E+00  0.00000000000E+00  0.41429848276E+03  0.41429848276E+03  0.00000000000E+00 0. -1.
         21   -1    0    0  501  502  0.00000000000E+00 -0.00000000000E+00 -0.43396133711E+03  0.43396133711E+03  0.00000000000E+00 0. -1.
         23    2    1    2    0    0 -0.99107227172E+02  0.72156904020E+02  0.28695200170E+03  0.32521069124E+03  0.91606119556E+02 0.  0.
        -24    2    1    2    0    0 -0.10103159990E+03  0.44181962867E+02  0.38694876537E+01  0.13576265878E+03  0.79101811374E+02 0.  0.
         13    1    4    4    0    0 -0.71825032673E+02  0.65059511470E+02 -0.96740451239E+01  0.97391798938E+02  0.00000000000E+00 0. -1.
        -14    1    4    4    0    0 -0.29206567225E+02 -0.20877548603E+02  0.13543532778E+02  0.38370859839E+02  0.00000000000E+00 0.  1.
        -11    1    3    3    0    0 -0.69435377642E+02 -0.42287754523E+01  0.15482436652E+03  0.16973431792E+03  0.00000000000E+00 0. -1.
         11    1    3    3    0    0 -0.29671849530E+02  0.76385679472E+02  0.13212763518E+03  0.15547637332E+03  0.00000000000E+00 0.  1.
          2    1    1    2  501    0  0.20013882707E+03 -0.11633886689E+03 -0.31048434371E+03  0.38728646986E+03  0.00000000000E+00 0. -1.
<scales pt_clust_5="13000.00000" pt_clust_6="13000.00000" pt_clust_7="13000.00000" pt_clust_8="13000.00000" pt_clust_9="13000.00000"></scales>
<clustering>
<clus scale="   79.102">  5  6 -1 -1</clus>
<clus scale="   91.606">  7  8 -1 -1</clus>
<clus scale="  153.038">  1  7  2 -1</clus>
<clus scale="  188.276">  5  9 -1 -1</clus>
<clus scale="  423.754">  2  5  1 -1</clus>
</clustering>
</event>
<event>
 9    1  0.2728138E-005  0.1179586E+03  0.7546771E-02  0.1249763E+00
         21   -1    0    0  501  502  0.00000000000E+00  0.00000000000E+00  0.31898347632E+03  0.31898347632E+03  0.00000000000E+00 0. -1.
          3   -1    0    0  502    0 -0.00000000000E+00 -0.00000000000E+00 -0.40967446655E+02  0.40967446655E+02  0.00000000000E+00 0. -1.
         23    2    1    2    0    0 -0.18538675712E+02  0.57168303842E+02  0.12750378603E+03  0.16872290146E+03  0.92727043329E+02 0.  0.
        -24    2    1    2    0    0 -0.26967850028E+01 -0.42526441015E+02  0.12522017161E+03  0.15510299077E+03  0.81000466251E+02 0.  0.
         13    1    4    4    0    0  0.14292764537E+02 -0.61967918752E+02  0.10294046538E+03  0.12100018795E+03  0.00000000000E+00 0. -1.
        -14    1    4    4    0    0 -0.16989549540E+02  0.19441477737E+02  0.22279706233E+02  0.34102802817E+02  0.00000000000E+00 0.  1.
        -11    1    3    3    0    0  0.99710522195E+01  0.64858047586E+02  0.41138421964E+02  0.77449067009E+02  0.00000000000E+00 0. -1.
         11    1    3    3    0    0 -0.28509727931E+02 -0.76897437432E+01  0.86365364064E+02  0.91273834452E+02  0.00000000000E+00 0.  1.
          4    1    1    2  501    0  0.21235460715E+02 -0.14641862827E+02  0.25292072024E+02  0.36125030741E+02  0.00000000000E+00 0. -1.
<scales pt_clust_5="13000.00000" pt_clust_6="13000.00000" pt_clust_7="13000.00000" pt_clust_8="13000.00000" pt_clust_9="13000.00000"></scales>
<clustering>
<clus scale="   81.000">  5  6 -1 -1</clus>
<clus scale="   25.794">  5  9 -1 -1</clus>
<clus scale="   92.727">  7  8 -1 -1</clus>
<clus scale="  110.500">  2  7  1 -1</clus>
<clus scale="  117.959">  1  5  2 -1</clus>
</clustering>
</event>
<event>
 9    1  0.2728138E-005  0.4808485E+03  0.7546771E-02  0.1019256E+00
          1   -1    0    0  502    0 -0.00000000000E+00  0.00000000000E+00  0.28557706786E+04  0.28557706786E+04  0.00000000000E+00 0. -1.
         21   -1    0    0  501  502  0.00000000000E+00 -0.00000000000E+00 -0.13660575496E+03  0.13660575496E+03  0.00000000000E+00 0. -1.
         23    2    1    2    0    0 -0.45979412084E+03  0.81487454270E+02  0.23175507633E+04  0.23658708610E+04  0.90843556893E+02 0.  0.
        -24    2    1    2    0    0  0.24164236596E+03 -0.56870248215E+02  0.19423718175E+03  0.32450986688E+03  0.77157713611E+02 0.  0.
         11    1    4    4    0    0  0.87293506414E+02 -0.41901931035E+02  0.36971269681E+02  0.10364749330E+03  0.00000000000E+00 0. -1.
        -12    1    4    4    0    0  0.15434885954E+03 -0.14968317180E+02  0.15726591207E+03  0.22086237358E+03  0.00000000000E+00 0.  1.
        -11    1    3    3    0    0 -0.16238441043E+03  0.33792368192E+01  0.63433372231E+03  0.65479721078E+03  0.00000000000E+00 0.  1.
         11    1    3    3    0    0 -0.29740971041E+03  0.78108217451E+02  0.16832170410E+04  0.17110736502E+04  0.00000000000E+00 0. -1.
          2    1    1    2  501    0  0.21815175488E+03 -0.24617206055E+02  0.20737697864E+03  0.30199570570E+03  0.00000000000E+00 0. -1.
<scales pt_clust_5="13000.00000" pt_clust_6="13000.00000" pt_clust_7="13000.00000" pt_clust_8="13000.00000" pt_clust_9="13000.00000"></scales>
<clustering>
<clus scale="   77.158">  5  6 -1 -1</clus>
<clus scale="   90.844">  7  8 -1 -1</clus>
<clus scale="  219.536">  5  9 -1 -1</clus>
<clus scale="  475.714">  1  7  2 -1</clus>
<clus scale="  480.849">  2  5  1 -1</clus>
</clustering>
</event>
<event>
 9    1  0.2728138E-005  0.2679598E+03  0.7546771E-02  0.1130329E+00
         21   -1    0    0  501  502  0.00000000000E+00  0.00000000000E+00  0.46513052631E+03  0.46513052631E+03  0.00000000000E+00 0. -1.
          1   -1    0    0  502    0 -0.00000000000E+00 -0.00000000000E+00 -0.88046244691E+02  0.88046244691E+02  0.00000000000E+00 0. -1.
         23    2    1    2    0    0 -0.26032375018E+02 -0.92302879567E+02  0.89804557038E+02  0.16032550511E+03  0.91879829111E+02 0.  0.
        -24    2    1    2    0    0 -0.97893262279E+02  0.39918224411E+02  0.15853630436E+03  0.20663476844E+03  0.79922539291E+02 0.  0.
         13    1    4    4    0    0 -0.60179931203E+02  0.61558775775E+02  0.12474701861E+03  0.15156822110E+03  0.00000000000E+00 0. -1.
        -14    1    4    4    0    0 -0.37713331076E+02 -0.21640551365E+02  0.33789285747E+02  0.55066547336E+02  0.00000000000E+00 0.  1.
        -13    1    3    3    0    0  0.18159231754E+02 -0.54466219207E+02  0.51993713473E+01  0.57648592307E+02  0.00000000000E+00 0.  1.
         13    1    3    3    0    0 -0.44191606773E+02 -0.37836660361E+02  0.84605185690E+02  0.10267691280E+03  0.00000000000E+00 0. -1.
          2    1    1    2  501    0  0.12392563730E+03  0.52384655156E+02  0.12874342022E+03  0.18621649746E+03  0.00000000000E+00 0. -1.
<scales pt_clust_5="13000.00000" pt_clust_6="13000.00000" pt_clust_7="13000.00000" pt_clust_8="13000.00000" pt_clust_9="13000.00000"></scales>
<clustering>
<clus scale="   79.923">  5  6 -1 -1</clus>
<clus scale="   91.880">  7  8 -1 -1</clus>
<clus scale="  132.813">  2  7  1 -1</clus>
<clus scale="  109.774">  5  9 -1 -1</clus>
<clus scale="  267.960">  1  5  2 -1</clus>
</clustering>
</event>
<event>
 9    1  0.2728138E-005  0.3115128E+03  0.7546771E-02  0.1119447E+00
          1   -1    0    0  502    0 -0.00000000000E+00  0.00000000000E+00  0.24834139828E+03  0.24834139828E+03  0.00000000000E+00 0. -1.
         21   -1    0    0  501  502  0.00000000000E+00 -0.00000000000E+00 -0.19715535403E+03  0.19715535403E+03  0.00000000000E+00 0. -1.
         23    2    1    2    0    0  0.59788825626E+02 -0.16450639132E+02  0.73981734485E+02  0.13315095839E+03  0.91709069806E+02 0.  0.
        -24    2    1    2    0    0  0.81462449342E+02  0.22897919832E+02  0.78150313172E+02  0.13861155518E+03  0.77105423901E+02 0.  0.
         11    1    4    4    0    0  0.50601487192E+02  0.26366445875E+01 -0.16376722128E+01  0.50696591316E+02  0.00000000000E+00 0. -1.
        -12    1    4    4    0    0  0.30860962149E+02  0.20261275245E+02  0.79787985385E+02  0.87914963864E+02  0.00000000000E+00 0.  1.
        -11    1    3    3    0    0  0.31628646303E+02  0.24949718959E+02  0.72640443324E+02  0.83063191303E+02  0.00000000000E+00 0. -1.
         11    1    3    3    0    0  0.28160179324E+02 -0.41400358091E+02  0.13412911610E+01  0.50087767085E+02  0.00000000000E+00 0.  1.
          2    1    1    2  501    0 -0.14125127497E+03 -0.64472807001E+01 -0.10094600341E+03  0.17373423874E+03  0.00000000000E+00 0. -1.
<scales pt_clust_5="13000.00000" pt_clust_6="13000.00000" pt_clust_7="13000.00000" pt_clust_8="13000.00000" pt_clust_9="13000.00000"></scales>
<clustering>
<clus scale="   77.105">  5  6 -1 -1</clus>
<clus scale="   91.709">  7  8 -1 -1</clus>
<clus scale="  110.706">  1  7  2 -1</clus>
<clus scale="  126.664">  5  9 -1 -1</clus>
<clus scale="  311.513">  2  5  1 -1</clus>
</clustering>
</event>
<event>
 9    1  0.2728138E-005  0.3590157E+03  0.7546771E-02  0.1104315E+00
         21   -1    0    0  501  502  0.00000000000E+00  0.00000000000E+00  0.80486099790E+02  0.80486099790E+02  0.00000000000E+00 0.  1.
          1   -1    0    0  502    0 -0.00000000000E+00 -0.00000000000E+00 -0.67854304399E+03  0.67854304399E+03  0.00000000000E+00 0. -1.
         23    2    1    2    0    0 -0.26045230279E+02  0.50285313932E+02 -0.16884700560E+03  0.19946374406E+03  0.89830435138E+02 0.  0.
        -24    2    1    2    0    0  0.93942592502E+02  0.82069112591E+02 -0.56302021258E+02  0.15808307030E+03  0.79118832092E+02 0.  0.
         13    1    4    4    0    0  0.96030010704E+02  0.41576294190E+02 -0.53272042273E+02  0.11742342902E+03  0.00000000000E+00 0. -1.
        -14    1    4    4    0    0 -0.20874182028E+01  0.40492818401E+02 -0.30299789847E+01  0.40659641286E+02  0.00000000000E+00 0.  1.
        -11    1    3    3    0    0 -0.30797084625E+02 -0.14189101141E+02 -0.26202455809E+02  0.42852767741E+02  0.00000000000E+00 0.  1.
         11    1    3    3    0    0  0.47518543463E+01  0.64474415073E+02 -0.14264454979E+03  0.15661097632E+03  0.00000000000E+00 0. -1.
          2    1    1    2  501    0 -0.67897362223E+02 -0.13235442652E+03 -0.37290791734E+03  0.40148232942E+03  0.00000000000E+00 0. -1.
<scales pt_clust_5="13000.00000" pt_clust_6="13000.00000" pt_clust_7="13000.00000" pt_clust_8="13000.00000" pt_clust_9="13000.00000"></scales>
<clustering>
<clus scale="   79.119">  5  6 -1 -1</clus>
<clus scale="   89.830">  7  8 -1 -1</clus>
<clus scale="  106.191">  2  7  1 -1</clus>
<clus scale="  128.218">  5  9 -1 -1</clus>
<clus scale="  359.016">  1  5  2 -1</clus>
</clustering>
</event>
<event>
 9    1  0.2728138E-005  0.3724499E+03  0.7546771E-02  0.1103880E+00
         -2   -1    0    0    0  501 -0.00000000000E+00  0.00000000000E+00  0.30068089590E+03  0.30068089590E+03  0.00000000000E+00 0.  1.
         21   -1    0    0  501  502  0.00000000000E+00 -0.00000000000E+00 -0.21688267669E+03  0.21688267669E+03  0.00000000000E+00 0.  1.
         23    2    1    2    0    0  0.27633258627E+02 -0.36317535657E+00  0.10764111407E+03  0.14435127233E+03  0.92124652002E+02 0.  0.
        -24    2    1    2    0    0  0.62877894291E+02 -0.11184961999E+03  0.10134235608E+03  0.18227951813E+03  0.80570357537E+02 0.  0.
         11    1    4    4    0    0  0.65582075818E+01 -0.84853049522E+02  0.78489280453E+02  0.11577399210E+03  0.00000000000E+00 0. -1.
        -12    1    4    4    0    0  0.56319686709E+02 -0.26996570466E+02  0.22853075623E+02  0.66505526037E+02  0.00000000000E+00 0.  1.
        -13    1    3    3    0    0  0.32927840963E+02 -0.20390631086E+02  0.11578619489E+03  0.12209202871E+03  0.00000000000E+00 0.  1.
         13    1    3    3    0    0 -0.52945823355E+01  0.20027455730E+02 -0.81450808208E+01  0.22259243623E+02  0.00000000000E+00 0. -1.
         -1    1    1    2    0  502 -0.90511152919E+02  0.11221279535E+03 -0.12518525093E+03  0.19093278213E+03  0.00000000000E+00 0.  1.
<scales pt_clust_5="13000.00000" pt_clust_6="13000.00000" pt_clust_7="13000.00000" pt_clust_8="13000.00000" pt_clust_9="13000.00000"></scales>
<clustering>
<clus scale="   80.570">  5  6 -1 -1</clus>
<clus scale="   92.125">  7  8 -1 -1</clus>
<clus scale="   96.180">  1  7  2 -1</clus>
<clus scale="  140.905">  5  9 -1 -1</clus>
<clus scale="  372.450">  2  5  1 -1</clus>
</clustering>
</event>
<event>
 9    1  0.2728138E-005  0.6101428E+03  0.7546771E-02  0.9958207E-01
         21   -1    0    0  501  502  0.00000000000E+00  0.00000000000E+00  0.81840759350E+03  0.81840759350E+03  0.00000000000E+00 0. -1.
          3   -1    0    0  502    0 -0.00000000000E+00 -0.00000000000E+00 -0.36461436987E+03  0.36461436987E+03  0.00000000000E+00 0. -1.
         23    2    1    2    0    0  0.33973368898E+03 -0.32945051019E+03  0.21637180221E+03  0.52831350413E+03  0.91333366128E+02 0.  0.
        -24    2    1    2    0    0  0.39267233136E+02  0.50046071254E+01 -0.22776450510E+02  0.92027576730E+02  0.79895847766E+02 0.  0.
         11    1    4    4    0    0  0.18239696070E+01 -0.32790316926E+02  0.28708860689E+01  0.32966251471E+02  0.00000000000E+00 0. -1.
        -12    1    4    4    0    0  0.37443263529E+02  0.37794924051E+02 -0.25647336579E+02  0.59061325259E+02  0.00000000000E+00 0.  1.
        -11    1    3    3    0    0  0.23602849629E+03 -0.27931761276E+03  0.14906031824E+03  0.39490094750E+03  0.00000000000E+00 0. -1.
         11    1    3    3    0    0  0.10370519269E+03 -0.50132897433E+02  0.67311483964E+02  0.13341255664E+03  0.00000000000E+00 0.  1.
          4    1    1    2  501    0 -0.37900092211E+03  0.32444590307E+03  0.26019787193E+03  0.56268088250E+03  0.00000000000E+00 0. -1.
<scales pt_clust_5="13000.00000" pt_clust_6="13000.00000" pt_clust_7="13000.00000" pt_clust_8="13000.00000" pt_clust_9="13000.00000"></scales>
<clustering>
<clus scale="   79.896">  5  6 -1 -1</clus>
<clus scale="   91.333">  7  8 -1 -1</clus>
<clus scale="  481.974">  2  7  1 -1</clus>
<clus scale="  157.961">  5  9 -1 -1</clus>
<clus scale="  610.143">  1  5  2 -1</clus>
</clustering>
</event>
<event>
 9    1  0.2728138E-005  0.3704050E+03  0.7546771E-02  0.1099171E+00
         21   -1    0    0  501  502  0.00000000000E+00  0.00000000000E+00  0.72321889267E+03  0.72321889267E+03  0.00000000000E+00 0. -1.
          1   -1    0    0  502    0 -0.00000000000E+00 -0.00000000000E+00 -0.15136542882E+03  0.15136542882E+03  0.00000000000E+00 0. -1.
         23    2    1    2    0    0 -0.54850842565E+02  0.34258797061E+02 -0.71956736420E+02  0.13182498801E+03  0.89542031702E+02 0.  0.
        -24    2    1    2    0    0 -0.12323268267E+03 -0.10143766899E+03  0.34632274687E+03  0.38959431862E+03  0.79802213838E+02 0.  0.
         11    1    4    4    0    0 -0.87272019853E+02 -0.71902031265E+02  0.31174444393E+03  0.33161861509E+03  0.00000000000E+00 0. -1.
        -12    1    4    4    0    0 -0.35960662821E+02 -0.29535637723E+02  0.34578302936E+02  0.57975703533E+02  0.00000000000E+00 0.  1.
        -13    1    3    3    0    0 -0.74982967472E+02  0.44923569194E+02 -0.60652750631E+02  0.10639233355E+03  0.00000000000E+00 0. -1.
         13    1    3    3    0    0  0.20132124907E+02 -0.10664772133E+02 -0.11303985789E+02  0.25432654455E+02  0.00000000000E+00 0.  1.
          2    1    1    2  501    0  0.17808352524E+03  0.67178871927E+02  0.29748745340E+03  0.35316501486E+03  0.00000000000E+00 0. -1.
<scales pt_clust_5="13000.00000" pt_clust_6="13000.00000" pt_clust_7="13000.00000" pt_clust_8="13000.00000" pt_clust_9="13000.00000"></scales>
<clustering>
<clus scale="   79.802">  5  6 -1 -1</clus>
<clus scale="   89.542">  7  8 -1 -1</clus>
<clus scale="  110.454">  2  7  1 -1</clus>
<clus scale="  170.729">  5  9 -1 -1</clus>
<clus scale="  370.405">  1  5  2 -1</clus>
</clustering>
</event>
<event>
 9    1  0.2728138E-005  0.2519370E+03  0.7546771E-02  0.1116244E+00
          1   -1    0    0  502    0 -0.00000000000E+00  0.00000000000E+00  0.87624123478E+02  0.87624123478E+02  0.00000000000E+00 0. -1.
         21   -1    0    0  501  502  0.00000000000E+00 -0.00000000000E+00 -0.78183041701E+03  0.78183041701E+03  0.00000000000E+00 0. -1.
         23    2    1    2    0    0 -0.89951598981E+02  0.18754047814E+03 -0.50750026808E+03  0.55587615635E+03  0.90438144565E+02 0.  0.
        -24    2    1    2    0    0  0.20336587829E+02 -0.47536443157E+02 -0.66826778349E+02  0.11655449352E+03  0.80285997675E+02 0.  0.
         13    1    4    4    0    0  0.35700507908E+02 -0.11942451102E+02 -0.68048138185E+02  0.77766943579E+02  0.00000000000E+00 0. -1.
        -14    1    4    4    0    0 -0.15363920079E+02 -0.35593992055E+02  0.12213598351E+01  0.38787549941E+02  0.00000000000E+00 0.  1.
        -13    1    3    3    0    0 -0.21548066117E+02  0.10606607563E+03 -0.34560943369E+03  0.36216047853E+03  0.00000000000E+00 0.  1.
         13    1    3    3    0    0 -0.68403532864E+02  0.81474402505E+02 -0.16189083439E+03  0.19371567781E+03  0.00000000000E+00 0. -1.
          2    1    1    2  501    0  0.69615011152E+02 -0.14000403498E+03 -0.11987924710E+03  0.19702389062E+03  0.00000000000E+00 0. -1.
<scales pt_clust_5="13000.00000" pt_clust_6="13000.00000" pt_clust_7="13000.00000" pt_clust_8="13000.00000" pt_clust_9="13000.00000"></scales>
<clustering>
<clus scale="   80.286">  5  6 -1 -1</clus>
<clus scale="   90.438">  7  8 -1 -1</clus>
<clus scale="  156.357">  5  9 -1 -1</clus>
<clus scale="  226.808">  1  7  2 -1</clus>
<clus scale="  251.937">  2  5  1 -1</clus>
</clustering>
</event>
<event>
 9    1  0.2728138E-005  0.2065249E+03  0.7546771E-02  0.1185559E+00
          1   -1    0    0  502    0 -0.00000000000E+00  0.00000000000E+00  0.11927393239E+03  0.11927393239E+03  0.00000000000E+00 0. -1.
         21   -1    0    0  501  502  0.00000000000E+00 -0.00000000000E+00 -0.60762036169E+03  0.60762036169E+03  0.00000000000E+00 0. -1.
         23    2    1    2    0    0 -0.11692352681E+02 -0.52969178046E+01  0.85550556845E+02  0.11696783786E+03  0.78726163804E+02 0.  0.
        -24    2    1    2    0    0 -0.76673829434E+02 -0.18817187660E+02 -0.37084784442E+03  0.38717317076E+03  0.78370771181E+02 0.  0.
         13    1    4    4    0    0 -0.69289755433E+02 -0.42361756521E+02 -0.32622805234E+03  0.33618496510E+03  0.00000000000E+00 0. -1.
        -14    1    4    4    0    0 -0.73840740008E+01  0.23544568860E+02 -0.44619792077E+02  0.50988205662E+02  0.00000000000E+00 0.  1.
        -13    1    3    3    0    0  0.23010516944E+02 -0.26226320406E+02  0.20915440403E+02  0.40678734240E+02  0.00000000000E+00 0.  1.
         13    1    3    3    0    0 -0.34702869625E+02  0.20929402602E+02  0.64635116442E+02  0.76289103619E+02  0.00000000000E+00 0. -1.
          2    1    1    2  501    0  0.88366182115E+02  0.24114105465E+02 -0.20304914173E+03  0.22275328546E+03  0.00000000000E+00 0. -1.
<scales pt_clust_5="13000.00000" pt_clust_6="13000.00000" pt_clust_7="13000.00000" pt_clust_8="13000.00000" pt_clust_9="13000.00000"></scales>
<clustering>
<clus scale="   78.371">  5  6 -1 -1</clus>
<clus scale="   78.726">  7  8 -1 -1</clus>
<clus scale="   79.766">  1  7  2 -1</clus>
<clus scale="   84.673">  5  9 -1 -1</clus>
<clus scale="  206.525">  2  5  1 -1</clus>
</clustering>
</event>
<event>
 9    1  0.3471250E-005  0.1508122E+03  0.7546771E-02  0.1213113E+00
         21   -1    0    0  501  502  0.00000000000E+00  0.00000000000E+00  0.79188533111E+03  0.79188533111E+03  0.00000000000E+00 0.  1.
         -2   -1    0    0    0  501 -0.00000000000E+00 -0.00000000000E+00 -0.43381115666E+02  0.43381115666E+02  0.00000000000E+00 0.  1.
         23    2    1    2    0    0 -0.34600335379E+02  0.57089133952E+02  0.54408506175E+02  0.12497553461E+03  0.90566253560E+02 0.  0.
        -24    2    1    2    0    0 -0.32644535865E+01 -0.21231518941E+02  0.27267770504E+03  0.28565854754E+03  0.82378643485E+02 0.  0.
         11    1    4    4    0    0  0.18460956182E+02 -0.14574625225E+02  0.17117361116E+02  0.29090043918E+02  0.00000000000E+00 0. -1.
        -12    1    4    4    0    0 -0.21725409769E+02 -0.66568937157E+01  0.25556034393E+03  0.25656850362E+03  0.00000000000E+00 0.  1.
        -13    1    3    3    0    0  0.65935001039E+01  0.45304684474E+02 -0.10716945005E+02  0.47019587292E+02  0.00000000000E+00 0.  1.
         13    1    3    3    0    0 -0.41193835483E+02  0.11784449478E+02  0.65125451180E+02  0.77955947321E+02  0.00000000000E+00 0. -1.
         -1    1    1    2    0  502  0.37864788966E+02 -0.35857615011E+02  0.42141800422E+03  0.42463236462E+03  0.00000000000E+00 0.  1.
<scales pt_clust_5="13000.00000" pt_clust_6="13000.00000" pt_clust_7="13000.00000" pt_clust_8="13000.00000" pt_clust_9="13000.00000"></scales>
<clustering>
<clus scale="   82.379">  5  6 -1 -1</clus>
<clus scale="   52.149">  5  9 -1 -1</clus>
<clus scale="   90.566">  7  8 -1 -1</clus>
<clus scale="  112.510">  2  7  1 -1</clus>
<clus scale="  150.812">  1  5  2 -1</clus>
</clustering>
</event>
<event>
 9    1  0.2728138E-005  0.4180107E+03  0.7546771E-02  0.1051688E+00
          1   -1    0    0  502    0 -0.00000000000E+00  0.00000000000E+00  0.73368065454E+02  0.73368065454E+02  0.00000000000E+00 0. -1.
         21   -1    0    0  501  502  0.00000000000E+00 -0.00000000000E+00 -0.16574565918E+04  0.16574565918E+04  0.00000000000E+00 0. -1.
         23    2    1    2    0    0  0.24331500251E+03 -0.10314981909E+03 -0.63885828803E+03  0.69729036859E+03  0.90729655144E+02 0.  0.
        -24    2    1    2    0    0  0.12691433959E+02  0.63998982464E+02 -0.54843324562E+03  0.55969894074E+03  0.90702464744E+02 0.  0.
         11    1    4    4    0    0  0.31373316474E+02  0.38336153873E+02 -0.11641857710E+03  0.12651968532E+03  0.00000000000E+00 0. -1.
        -12    1    4    4    0    0 -0.18681882515E+02  0.25662828591E+02 -0.43201466852E+03  0.43317925542E+03  0.00000000000E+00 0.  1.
        -11    1    3    3    0    0  0.14885297289E+03 -0.10909444591E+03 -0.43516063656E+03  0.47267704120E+03  0.00000000000E+00 0. -1.
         11    1    3    3    0    0  0.94462029625E+02  0.59446268174E+01 -0.20369765147E+03  0.22461332740E+03  0.00000000000E+00 0.  1.
          2    1    1    2  501    0 -0.25600643647E+03  0.39150836626E+02 -0.39679699269E+03  0.47383534791E+03  0.00000000000E+00 0. -1.
<scales pt_clust_5="13000.00000" pt_clust_6="13000.00000" pt_clust_7="13000.00000" pt_clust_8="13000.00000" pt_clust_9="13000.00000"></scales>
<clustering>
<clus scale="   90.702">  5  6 -1 -1</clus>
<clus scale="   90.730">  7  8 -1 -1</clus>
<clus scale="  258.983">  5  9 -1 -1</clus>
<clus scale="  279.417">  1  7  2 -1</clus>
<clus scale="  418.011">  2  5  1 -1</clus>
</clustering>
</event>
<event>
 9    1  0.2728138E-005  0.1782254E+03  0.7546771E-02  0.1187896E+00
          1   -1    0    0  502    0 -0.00000000000E+00  0.00000000000E+00  0.28280180724E+03  0.28280180724E+03  0.00000000000E+00 0. -1.
         21   -1    0    0  501  502  0.00000000000E+00 -0.00000000000E+00 -0.11044621565E+03  0.11044621565E+03  0.00000000000E+00 0. -1.
         23    2    1    2    0    0 -0.49633471933E+02  0.56124060314E+02  0.17967893344E+03  0.21487220053E+03  0.90951370285E+02 0.  0.
        -24    2    1    2    0    0 -0.24854186751E+02  0.33924802434E+01 -0.35366035616E+01  0.82955859653E+02  0.78993212143E+02 0.  0.
         11    1    4    4    0    0 -0.12581788672E+02  0.29032190547E+02 -0.30375757781E+02  0.43861784676E+02  0.00000000000E+00 0. -1.
        -12    1    4    4    0    0 -0.12272398080E+02 -0.25639710304E+02  0.26839154219E+02  0.39094074977E+02  0.00000000000E+00 0.  1.
        -13    1    3    3    0    0  0.18020525457E+02  0.13647469088E+02  0.55239243857E+01  0.23270292024E+02  0.00000000000E+00 0.  1.
         13    1    3    3    0    0 -0.67653997390E+02  0.42476591226E+02  0.17415500905E+03  0.19160190850E+03  0.00000000000E+00 0. -1.
          2    1    1    2  501    0  0.74487658685E+02 -0.59516540558E+02 -0.37867382829E+01  0.95419962707E+02  0.00000000000E+00 0. -1.
<scales pt_clust_5="13000.00000" pt_clust_6="13000.00000" pt_clust_7="13000.00000" pt_clust_8="13000.00000" pt_clust_9="13000.00000"></scales>
<clustering>
<clus scale="   78.993">  5  6 -1 -1</clus>
<clus scale="   90.951">  7  8 -1 -1</clus>
<clus scale="   95.345">  5  9 -1 -1</clus>
<clus scale="  117.837">  1  7  2 -1</clus>
<clus scale="  178.225">  2  5  1 -1</clus>
</clustering>
</event>
<event>
 9    1  0.2728138E-005  0.2319385E+03  0.7546771E-02  0.1164401E+00
         21   -1    0    0  501  502  0.00000000000E+00  0.00000000000E+00  0.12403879136E+03  0.12403879136E+03  0.00000000000E+00 0. -1.
          3   -1    0    0  502    0 -0.00000000000E+00 -0.00000000000E+00 -0.32483980822E+03  0.32483980822E+03  0.00000000000E+00 0. -1.
         23    2    1    2    0    0  0.41743099475E+01  0.16647721963E+02 -0.19689963643E+03  0.21690725259E+03  0.89357248686E+02 0.  0.
        -24    2    1    2    0    0 -0.91401337273E+02 -0.17863628570E+02  0.44470747730E+02  0.13222218404E+03  0.82654369920E+02 0.  0.
         11    1    4    4    0    0 -0.90745451851E+02 -0.16172006280E+02  0.64251170406E+02  0.11235872782E+03  0.00000000000E+00 0. -1.
        -12    1    4    4    0    0 -0.65588542248E+00 -0.16916222900E+01 -0.19780422676E+02  0.19863456217E+02  0.00000000000E+00 0.  1.
        -11    1    3    3    0    0 -0.71128861332E+01  0.49935414128E+02 -0.15029986183E+03  0.15853765231E+03  0.00000000000E+00 0.  1.
         11    1    3    3    0    0  0.11287196081E+02 -0.33287692165E+02 -0.46599774596E+02  0.58369600285E+02  0.00000000000E+00 0. -1.
          4    1    1    2  501    0  0.87227027326E+02  0.12159066071E+01 -0.48372128172E+02  0.99749162948E+02  0.00000000000E+00 0. -1.
<scales pt_clust_5="13000.00000" pt_clust_6="13000.00000" pt_clust_7="13000.00000" pt_clust_8="13000.00000" pt_clust_9="13000.00000"></scales>
<clustering>
<clus scale="   82.654">  5  6 -1 -1</clus>
<clus scale="   87.236">  5  9 -1 -1</clus>
<clus scale="   89.357">  7  8 -1 -1</clus>
<clus scale="   90.991">  2  7  1 -1</clus>
<clus scale="  231.939">  1  5  2 -1</clus>
</clustering>
</event>
<event>
 9    1  0.2728138E-005  0.1880687E+03  0.7546771E-02  0.1177077E+00
         21   -1    0    0  501  502  0.00000000000E+00  0.00000000000E+00  0.33837889011E+02  0.33837889011E+02  0.00000000000E+00 0. -1.
          3   -1    0    0  502    0 -0.00000000000E+00 -0.00000000000E+00 -0.73767001335E+03  0.73767001335E+03  0.00000000000E+00 0. -1.
         23    2    1    2    0    0 -0.79908814560E+01  0.88023141463E+02 -0.27312689622E+03  0.30153254626E+03  0.92258589843E+02 0.  0.
        -24    2    1    2    0    0 -0.18934007577E+02  0.92351949012E+01 -0.14862840148E+03  0.17038985950E+03  0.80613379950E+02 0.  0.
         11    1    4    4    0    0 -0.50056384441E+02  0.99108926610E+01 -0.10558643108E+03  0.11727046450E+03  0.00000000000E+00 0. -1.
        -12    1    4    4    0    0  0.31122376864E+02 -0.67569775984E+00 -0.43041970396E+02  0.53119394996E+02  0.00000000000E+00 0.  1.
        -11    1    3    3    0    0 -0.37715030038E+02  0.98326971112E+01 -0.13038803519E+03  0.13608873996E+03  0.00000000000E+00 0.  1.
         11    1    3    3    0    0  0.29724148582E+02  0.78190444352E+02 -0.14273886102E+03  0.16544380630E+03  0.00000000000E+00 0. -1.
          4    1    1    2  501    0  0.26924889033E+02 -0.97258336364E+02 -0.28207682664E+03  0.29958549660E+03  0.00000000000E+00 0. -1.
<scales pt_clust_5="13000.00000" pt_clust_6="13000.00000" pt_clust_7="13000.00000" pt_clust_8="13000.00000" pt_clust_9="13000.00000"></scales>
<clustering>
<clus scale="   80.613">  5  6 -1 -1</clus>
<clus scale="   92.259">  7  8 -1 -1</clus>
<clus scale="  100.917">  5  9 -1 -1</clus>
<clus scale="  127.764">  2  7  1 -1</clus>
<clus scale="  188.069">  1  5  2 -1</clus>
</clustering>
</event>
<event>
 9    1  0.2728138E-005  0.1378668E+03  0.7546771E-02  0.1225861E+00
         21   -1    0    0  501  502  0.00000000000E+00  0.00000000000E+00  0.37640390025E+02  0.37640390025E+02  0.00000000000E+00 0.  1.
         -2   -1    0    0    0  501 -0.00000000000E+00 -0.00000000000E+00 -0.44820304709E+03  0.44820304709E+03  0.00000000000E+00 0.  1.
         23    2    1    2    0    0 -0.64173071696E+02  0.25016733918E+01 -0.12214489013E+03  0.16616851527E+03  0.92564354808E+02 0.  0.
        -24    2    1    2    0    0  0.68368404427E+01  0.31671358925E+01 -0.14904315662E+03  0.16886092776E+03  0.79015044459E+02 0.  0.
         13    1    4    4    0    0  0.16209024507E+02  0.38123209430E+02 -0.61701054722E+02  0.74317775307E+02  0.00000000000E+00 0. -1.
        -14    1    4    4    0    0 -0.93721840641E+01 -0.34956073538E+02 -0.87342101899E+02  0.94543152451E+02  0.00000000000E+00 0.  1.
        -11    1    3    3    0    0 -0.66937964625E+02 -0.21791481223E+02 -0.12298179686E+03  0.14170420643E+03  0.00000000000E+00 0.  1.
         11    1    3    3    0    0  0.27648929297E+01  0.24293154615E+02  0.83690672523E+00  0.24464308838E+02  0.00000000000E+00 0. -1.
         -1    1    1    2    0  502  0.57336231253E+02 -0.56688092843E+01 -0.13937461031E+03  0.15081399408E+03  0.00000000000E+00 0.  1.
<scales pt_clust_5="13000.00000" pt_clust_6="13000.00000" pt_clust_7="13000.00000" pt_clust_8="13000.00000" pt_clust_9="13000.00000"></scales>
<clustering>
<clus scale="   79.015">  5  6 -1 -1</clus>
<clus scale="   57.616">  5  9 -1 -1</clus>
<clus scale="   92.564">  7  8 -1 -1</clus>
<clus scale="  112.662">  2  7  1 -1</clus>
<clus scale="  137.867">  1  5  2 -1</clus>
</clustering>
</event>
<event>
 9    1  0.2728138E-005  0.3319996E+03  0.7546771E-02  0.1112597E+00
         -2   -1    0    0    0  501 -0.00000000000E+00  0.00000000000E+00  0.50279962403E+03  0.50279962403E+03  0.00000000000E+00 0.  1.
         21   -1    0    0  501  502  0.00000000000E+00 -0.00000000000E+00 -0.98467921140E+02  0.98467921140E+02  0.00000000000E+00 0.  1.
         23    2    1    2    0    0  0.57912878135E+02  0.31725165264E+01  0.65473167048E+02  0.12687440377E+03  0.91904365588E+02 0.  0.
        -24    2    1    2    0    0  0.21468115560E+02  0.12685636547E+02  0.37618264224E+03  0.38525329566E+03  0.79277462984E+02 0.  0.
         13    1    4    4    0    0 -0.26979324187E+02 -0.82733667811E+01  0.92782536428E+02  0.96979026585E+02  0.00000000000E+00 0. -1.
        -14    1    4    4    0    0  0.48447439747E+02  0.20959003328E+02  0.28340010581E+03  0.28827426908E+03  0.00000000000E+00 0.  1.
        -11    1    3    3    0    0  0.54346031758E+01 -0.39826314434E+02  0.17830408618E+02  0.43972647232E+02  0.00000000000E+00 0. -1.
         11    1    3    3    0    0  0.52478274959E+02  0.42998830960E+02  0.47642758429E+02  0.82901756540E+02  0.00000000000E+00 0.  1.
         -1    1    1    2    0  502 -0.79380993696E+02 -0.15858153074E+02 -0.37324106398E+02  0.89139845733E+02  0.00000000000E+00 0.  1.
<scales pt_clust_5="13000.00000" pt_clust_6="13000.00000" pt_clust_7="13000.00000" pt_clust_8="13000.00000" pt_clust_9="13000.00000"></scales>
<clustering>
<clus scale="   79.277">  5  6 -1 -1</clus>
<clus scale="   80.950">  5  9 -1 -1</clus>
<clus scale="   91.904">  7  8 -1 -1</clus>
<clus scale="  108.676">  1  7  2 -1</clus>
<clus scale="  332.000">  2  5  1 -1</clus>
</clustering>
</event>
<event>
 9    1  0.2728138E-005  0.1563803E+03  0.7546771E-02  0.1208303E+00
         21   -1    0    0  501  502  0.00000000000E+00  0.00000000000E+00  0.24347490569E+02  0.24347490569E+02  0.00000000000E+00 0. -1.
          1   -1    0    0  502    0 -0.00000000000E+00 -0.00000000000E+00 -0.74238229231E+03  0.74238229231E+03  0.00000000000E+00 0. -1.
         23    2    1    2    0    0  0.93542916491E+01  0.65906323623E+02 -0.27262659228E+03  0.29466699353E+03  0.89845600861E+02 0.  0.
        -24    2    1    2    0    0  0.22298086353E+02 -0.37173239404E+02 -0.21987436844E+03  0.24251328138E+03  0.92676315022E+02 0.  0.
         13    1    4    4    0    0 -0.36337925423E+01 -0.34442784646E+02 -0.18132822441E+02  0.39093594259E+02  0.00000000000E+00 0. -1.
        -14    1    4    4    0    0  0.25931878896E+02 -0.27304547574E+01 -0.20174154600E+03  0.20341968712E+03  0.00000000000E+00 0.  1.
        -11    1    3    3    0    0 -0.26602915603E+02 -0.95045306420E+01 -0.66266931042E+02  0.72037194359E+02  0.00000000000E+00 0.  1.
         11    1    3    3    0    0  0.35957207252E+02  0.75410854265E+02 -0.20635966124E+03  0.22262979918E+03  0.00000000000E+00 0. -1.
          2    1    1    2  501    0 -0.31652378003E+02 -0.28733084219E+02 -0.22553384102E+03  0.22954950797E+03  0.00000000000E+00 0. -1.
<scales pt_clust_5="13000.00000" pt_clust_6="13000.00000" pt_clust_7="13000.00000" pt_clust_8="13000.00000" pt_clust_9="13000.00000"></scales>
<clustering>
<clus scale="   89.846">  7  8 -1 -1</clus>
<clus scale="   92.676">  5  6 -1 -1</clus>
<clus scale="   42.749">  5  9 -1 -1</clus>
<clus scale="  111.819">  2  7  1 -1</clus>
<clus scale="  156.380">  1  5  2 -1</clus>
</clustering>
</event>
<event>
 9    1  0.2728138E-005  0.2356086E+03  0.7546771E-02  0.1157392E+00
         21   -1    0    0  501  502  0.00000000000E+00  0.00000000000E+00  0.85477056482E+02  0.85477056482E+02  0.00000000000E+00 0. -1.
          3   -1    0    0  502    0 -0.00000000000E+00 -0.00000000000E+00 -0.33369807090E+03  0.33369807090E+03  0.00000000000E+00 0. -1.
         23    2    1    2    0    0 -0.46380728747E+02 -0.10642989051E+02 -0.73841818727E+02  0.12605478651E+03  0.90403262081E+02 0.  0.
        -24    2    1    2    0    0  0.54374120005E+02 -0.70449528673E+02 -0.18217784081E+03  0.21126247869E+03  0.59358135085E+02 0.  0.
         11    1    4    4    0    0  0.44640453095E+02 -0.52979610796E+02 -0.74464139030E+02  0.10170799975E+03  0.00000000000E+00 0. -1.
        -12    1    4    4    0    0  0.97336669097E+01 -0.17469917877E+02 -0.10771370178E+03  0.10955447893E+03  0.00000000000E+00 0.  1.
        -13    1    3    3    0    0 -0.70675344557E+02 -0.96551842528E+01 -0.72492851242E+02  0.10170270592E+03  0.00000000000E+00 0. -1.
         13    1    3    3    0    0  0.24294615810E+02 -0.98780479832E+00 -0.13489674845E+01  0.24352080588E+02  0.00000000000E+00 0.  1.
          4    1    1    2  501    0 -0.79933912579E+01  0.81092517724E+02  0.77986451259E+01  0.81857862179E+02  0.00000000000E+00 0. -1.
<scales pt_clust_5="13000.00000" pt_clust_6="13000.00000" pt_clust_7="13000.00000" pt_clust_8="13000.00000" pt_clust_9="13000.00000"></scales>
<clustering>
<clus scale="   59.358">  5  6 -1 -1</clus>
<clus scale="   81.486">  5  9 -1 -1</clus>
<clus scale="   90.403">  7  8 -1 -1</clus>
<clus scale="  102.163">  2  7  1 -1</clus>
<clus scale="  235.609">  1  5  2 -1</clus>
</clustering>
</event>
<event>
 9    1  0.2728138E-005  0.7626490E+03  0.7546771E-02  0.1002916E+00
         21   -1    0    0  501  502  0.00000000000E+00  0.00000000000E+00  0.12390205209E+03  0.12390205209E+03  0.00000000000E+00 0. -1.
          1   -1    0    0  502    0 -0.00000000000E+00 -0.00000000000E+00 -0.18991642119E+04  0.18991642119E+04  0.00000000000E+00 0. -1.
         23    2    1    2    0    0 -0.17038667490E+03  0.26036861636E+02 -0.49495265289E+03  0.53282269078E+03  0.95981008831E+02 0.  0.
        -24    2    1    2    0    0  0.77522057918E+02  0.29619149001E+03 -0.10118252124E+04  0.10606638203E+04  0.86477807037E+02 0.  0.
         11    1    4    4    0    0  0.70552742182E+02  0.11565268527E+03 -0.49325255244E+03  0.51151863459E+03  0.00000000000E+00 0. -1.
        -12    1    4    4    0    0  0.69693157359E+01  0.18053880473E+03 -0.51857265992E+03  0.54914518571E+03  0.00000000000E+00 0.  1.
        -11    1    3    3    0    0 -0.10134690454E+03 -0.19802764737E+02 -0.35943438611E+03  0.37397382591E+03  0.00000000000E+00 0.  1.
         11    1    3    3    0    0 -0.69039770353E+02  0.45839626372E+02 -0.13551826679E+03  0.15884886487E+03  0.00000000000E+00 0. -1.
          2    1    1    2  501    0  0.92864616978E+02 -0.32222835164E+03 -0.26848429455E+03  0.42957975291E+03  0.00000000000E+00 0. -1.
<scales pt_clust_5="13000.00000" pt_clust_6="13000.00000" pt_clust_7="13000.00000" pt_clust_8="13000.00000" pt_clust_9="13000.00000"></scales>
<clustering>
<clus scale="   86.478">  5  6 -1 -1</clus>
<clus scale="   95.981">  7  8 -1 -1</clus>
<clus scale="  197.286">  2  7  1 -1</clus>
<clus scale="  319.593">  5  9 -1 -1</clus>
<clus scale="  762.649">  1  5  2 -1</clus>
</clustering>
</event>
<event>
 9    1  0.2728138E-005  0.1750890E+03  0.7546771E-02  0.1192526E+00
          1   -1    0    0  502    0 -0.00000000000E+00  0.00000000000E+00  0.24783730915E+03  0.24783730915E+03  0.00000000000E+00 0. -1.
         21   -1    0    0  501  502  0.00000000000E+00 -0.00000000000E+00 -0.83287520052E+02  0.83287520052E+02  0.00000000000E+00 0. -1.
         23    2    1    2    0    0  0.57686185624E+02 -0.17095637516E+02  0.61134872656E+02  0.12777584244E+03  0.94706052724E+02 0.  0.
        -24    2    1    2    0    0 -0.33287578620E+02 -0.49556451400E+02  0.58155675757E+02  0.11916946522E+03  0.85178483499E+02 0.  0.
         13    1    4    4    0    0 -0.45819198862E+02 -0.64597431944E+02  0.29601908906E+02  0.84548803711E+02  0.00000000000E+00 0. -1.
        -14    1    4    4    0    0  0.12531620241E+02  0.15040980545E+02  0.28553766851E+02  0.34620661504E+02  0.00000000000E+00 0.  1.
        -11    1    3    3    0    0  0.70088494575E+02  0.35387049841E+01  0.95175293990E+01  0.70820215127E+02  0.00000000000E+00 0. -1.
         11    1    3    3    0    0 -0.12402308951E+02 -0.20634342500E+02  0.51617343257E+02  0.56955627313E+02  0.00000000000E+00 0.  1.
          2    1    1    2  501    0 -0.24398607004E+02  0.66652088915E+02  0.45259240687E+02  0.84179521548E+02  0.00000000000E+00 0. -1.
<scales pt_clust_5="13000.00000" pt_clust_6="13000.00000" pt_clust_7="13000.00000" pt_clust_8="13000.00000" pt_clust_9="13000.00000"></scales>
<clustering>
<clus scale="   85.178">  5  6 -1 -1</clus>
<clus scale="   70.977">  5  9 -1 -1</clus>
<clus scale="   94.706">  7  8 -1 -1</clus>
<clus scale="  112.202">  1  7  2 -1</clus>
<clus scale="  175.089">  2  5  1 -1</clus>
</clustering>
</event>
<event>
 9    1  0.2728138E-005  0.3416872E+03  0.7546771E-02  0.1110418E+00
         21   -1    0    0  501  502  0.00000000000E+00  0.00000000000E+00  0.80375745617E+03  0.80375745617E+03  0.00000000000E+00 0. -1.
          1   -1    0    0  502    0 -0.00000000000E+00 -0.00000000000E+00 -0.63356301182E+02  0.63356301182E+02  0.00000000000E+00 0. -1.
         23    2    1    2    0    0  0.69552384696E+01  0.53935346312E+02  0.12750694518E+03  0.16540906853E+03  0.90248224145E+02 0.  0.
        -24    2    1    2    0    0 -0.13227926646E+03 -0.10537088921E+03  0.23625091440E+03  0.30143990266E+03  0.80316198427E+02 0.  0.
         11    1    4    4    0    0 -0.12479134276E+03 -0.10515540223E+03  0.24208053233E+03  0.29194780694E+03  0.00000000000E+00 0. -1.
        -12    1    4    4    0    0 -0.74879236989E+01 -0.21548698395E+00 -0.58296179242E+01  0.94920957171E+01  0.00000000000E+00 0.  1.
        -13    1    3    3    0    0 -0.16455797126E+02  0.52997773550E+02  0.26089938574E+02  0.61320813392E+02  0.00000000000E+00 0. -1.
         13    1    3    3    0    0  0.23411035596E+02  0.93757276197E+00  0.10141700660E+03  0.10408825514E+03  0.00000000000E+00 0.  1.
          2    1    1    2  501    0  0.12532402799E+03  0.51435542899E+02  0.37664329541E+03  0.40026478616E+03  0.00000000000E+00 0. -1.
<scales pt_clust_5="13000.00000" pt_clust_6="13000.00000" pt_clust_7="13000.00000" pt_clust_8="13000.00000" pt_clust_9="13000.00000"></scales>
<clustering>
<clus scale="   80.316">  5  6 -1 -1</clus>
<clus scale="   90.248">  7  8 -1 -1</clus>
<clus scale="  105.367">  2  7  1 -1</clus>
<clus scale="  143.180">  5  9 -1 -1</clus>
<clus scale="  341.687">  1  5  2 -1</clus>
</clustering>
</event>
<event>
 9    1  0.2728138E-005  0.2341514E+03  0.7546771E-02  0.1128055E+00
         -4   -1    0    0    0  501 -0.00000000000E+00  0.00000000000E+00  0.21574248918E+03  0.21574248918E+03  0.00000000000E+00 0.  1.
         21   -1    0    0  501  502  0.00000000000E+00 -0.00000000000E+00 -0.22975969381E+03  0.22975969381E+03  0.00000000000E+00 0.  1.
         23    2    1    2    0    0  0.18615480579E+03 -0.32191779557E+02  0.52083638204E+01  0.21056277981E+03  0.92841988328E+02 0.  0.
        -24    2    1    2    0    0 -0.13699152619E+03  0.27744814447E+02 -0.53803482452E+02  0.17466971183E+03  0.89879032766E+02 0.  0.
         13    1    4    4    0    0 -0.37289655438E+01 -0.22175671685E+02  0.12703445856E+00  0.22487368375E+02  0.00000000000E+00 0. -1.
        -14    1    4    4    0    0 -0.13326256065E+03  0.49920486132E+02 -0.53930516910E+02  0.15218234346E+03  0.00000000000E+00 0.  1.
        -13    1    3    3    0    0  0.12177208878E+03 -0.64374009440E+02 -0.51860813594E+01  0.13783813020E+03  0.00000000000E+00 0.  1.
         13    1    3    3    0    0  0.64382717012E+02  0.32182229884E+02  0.10394445180E+02  0.72724649609E+02  0.00000000000E+00 0. -1.
         -3    1    1    2    0  502 -0.49163279597E+02  0.44469651097E+01  0.34577914001E+02  0.60269691356E+02  0.00000000000E+00 0.  1.
<scales pt_clust_5="13000.00000" pt_clust_6="13000.00000" pt_clust_7="13000.00000" pt_clust_8="13000.00000" pt_clust_9="13000.00000"></scales>
<clustering>
<clus scale="   89.879">  5  6 -1 -1</clus>
<clus scale="   49.364">  5  9 -1 -1</clus>
<clus scale="   92.842">  7  8 -1 -1</clus>
<clus scale="  210.498">  1  7  2 -1</clus>
<clus scale="  234.151">  2  5  1 -1</clus>
</clustering>
</event>
<event>
 9    1  0.2728138E-005  0.2003393E+03  0.7546771E-02  0.1159549E+00
         21   -1    0    0  501  502  0.00000000000E+00  0.00000000000E+00  0.14118551193E+03  0.14118551193E+03  0.00000000000E+00 0. -1.
          3   -1    0    0  502    0 -0.00000000000E+00 -0.00000000000E+00 -0.44973592654E+03  0.44973592654E+03  0.00000000000E+00 0. -1.
         23    2    1    2    0    0 -0.12543265575E+03  0.15671239329E+02  0.61950784387E+02  0.16972438286E+03  0.94813119245E+02 0.  0.
        -24    2    1    2    0    0  0.73195039373E+02 -0.59222230447E+02 -0.18177550679E+03  0.22059086356E+03  0.82177903657E+02 0.  0.
         13    1    4    4    0    0  0.70479579713E+02 -0.70590921740E+02 -0.11258008564E+03  0.15041517567E+03  0.00000000000E+00 0. -1.
        -14    1    4    4    0    0  0.27154596602E+01  0.11368691294E+02 -0.69195421150E+02  0.70175687891E+02  0.00000000000E+00 0.  1.
        -13    1    3    3    0    0 -0.87944824551E+02 -0.67521058880E+01  0.83107008808E+02  0.12118852261E+03  0.00000000000E+00 0. -1.
         13    1    3    3    0    0 -0.37487831201E+02  0.22423345217E+02 -0.21156224420E+02  0.48535860253E+02  0.00000000000E+00 0.  1.
          4    1    1    2  501    0  0.52237616379E+02  0.43550991118E+02 -0.18872569221E+03  0.20060619206E+03  0.00000000000E+00 0. -1.
<scales pt_clust_5="13000.00000" pt_clust_6="13000.00000" pt_clust_7="13000.00000" pt_clust_8="13000.00000" pt_clust_9="13000.00000"></scales>
<clustering>
<clus scale="   82.178">  5  6 -1 -1</clus>
<clus scale="   68.011">  5  9 -1 -1</clus>
<clus scale="   94.813">  7  8 -1 -1</clus>
<clus scale="  158.014">  2  7  1 -1</clus>
<clus scale="  200.339">  1  5  2 -1</clus>
</clustering>
</event>
<event>
 9    1  0.2728138E-005  0.3640265E+03  0.7546771E-02  0.1101407E+00
          1   -1    0    0  502    0 -0.00000000000E+00  0.00000000000E+00  0.25203464217E+03  0.25203464217E+03  0.00000000000E+00 0. -1.
         21   -1    0    0  501  502  0.00000000000E+00 -0.00000000000E+00 -0.22316843082E+03  0.22316843082E+03  0.00000000000E+00 0. -1.
         23    2    1    2    0    0  0.31509912741E+02  0.58197607316E+02  0.15850083568E+02  0.11094394952E+03  0.87621336941E+02 0.  0.
        -24    2    1    2    0    0 -0.83914175005E+02  0.12469865203E+03 -0.19652813913E+02  0.17121895113E+03  0.79613777374E+02 0.  0.
         13    1    4    4    0    0 -0.81000366732E+02  0.12773502644E+03 -0.35047142867E+02  0.15525977784E+03  0.00000000000E+00 0. -1.
        -14    1    4    4    0    0 -0.29138082726E+01 -0.30363744163E+01  0.15394328954E+02  0.15959173293E+02  0.00000000000E+00 0.  1.
        -11    1    3    3    0    0  0.58705737259E+02  0.58012433030E+02  0.10136465195E+02  0.83153796665E+02  0.00000000000E+00 0. -1.
         11    1    3    3    0    0 -0.27195824518E+02  0.18517428608E+00  0.57136183733E+01  0.27790152854E+02  0.00000000000E+00 0.  1.
          2    1    1    2  501    0  0.52404262264E+02 -0.18289625934E+03  0.32668941693E+02  0.19304017234E+03  0.00000000000E+00 0. -1.
<scales pt_clust_5="13000.00000" pt_clust_6="13000.00000" pt_clust_7="13000.00000" pt_clust_8="13000.00000" pt_clust_9="13000.00000"></scales>
<clustering>
<clus scale="   79.614">  5  6 -1 -1</clus>
<clus scale="   87.621">  7  8 -1 -1</clus>
<clus scale="  109.806">  1  7  2 -1</clus>
<clus scale="  164.331">  5  9 -1 -1</clus>
<clus scale="  364.026">  2  5  1 -1</clus>
</clustering>
</event>
<event>
 9    1  0.2728138E-005  0.2743777E+03  0.7546771E-02  0.1124285E+00
          1   -1    0    0  502    0 -0.00000000000E+00  0.00000000000E+00  0.10989562086E+04  0.10989562086E+04  0.00000000000E+00 0. -1.
         21   -1    0    0  501  502  0.00000000000E+00 -0.00000000000E+00 -0.42779190810E+02  0.42779190810E+02  0.00000000000E+00 0. -1.
         23    2    1    2    0    0  0.62027226576E+02 -0.89955976469E+02  0.51953398809E+03  0.53901748418E+03  0.93192429613E+02 0.  0.
        -24    2    1    2    0    0  0.66771694799E+02 -0.15784387154E+02  0.18963318768E+03  0.21776854569E+03  0.82187514355E+02 0.  0.
         13    1    4    4    0    0  0.51856010892E+02  0.15759866368E+02  0.49649644613E+02  0.73501744631E+02  0.00000000000E+00 0. -1.
        -14    1    4    4    0    0  0.14915683907E+02 -0.31544253522E+02  0.13998354307E+03  0.14426680106E+03  0.00000000000E+00 0.  1.
        -11    1    3    3    0    0 -0.21893948528E+02 -0.55404532487E+01  0.12090064225E+03  0.12299189770E+03  0.00000000000E+00 0.  1.
         11    1    3    3    0    0  0.83921175104E+02 -0.84415523220E+02  0.39863334584E+03  0.41602558648E+03  0.00000000000E+00 0. -1.
          2    1    1    2  501    0 -0.12879892138E+03  0.10574036362E+03  0.34700984197E+03  0.38494936949E+03  0.00000000000E+00 0. -1.
<scales pt_clust_5="13000.00000" pt_clust_6="13000.00000" pt_clust_7="13000.00000" pt_clust_8="13000.00000" pt_clust_9="13000.00000"></scales>
<clustering>
<clus scale="   82.188">  5  6 -1 -1</clus>
<clus scale="   93.192">  7  8 -1 -1</clus>
<clus scale="  143.612">  1  7  2 -1</clus>
<clus scale="  101.052">  5  9 -1 -1</clus>
<clus scale="  274.378">  2  5  1 -1</clus>
</clustering>
</event>
<event>
 9    1  0.2728138E-005  0.5133687E+03  0.7546771E-02  0.1063107E+00
          1   -1    0    0  502    0 -0.00000000000E+00  0.00000000000E+00  0.43853022828E+03  0.43853022828E+03  0.00000000000E+00 0. -1.
         21   -1    0    0  501  502  0.00000000000E+00 -0.00000000000E+00 -0.31934579678E+03  0.31934579678E+03  0.00000000000E+00 0. -1.
         23    2    1    2    0    0  0.56736500065E+02  0.21836998370E+02 -0.14410350239E+03  0.18092896072E+03  0.90959246300E+02 0.  0.
        -24    2    1    2    0    0  0.21772419758E+03 -0.10702963995E+02  0.16639239089E+03  0.28567161477E+03  0.80021647620E+02 0.  0.
         13    1    4    4    0    0  0.18196082603E+03 -0.33937136602E+02  0.15526452635E+03  0.24159582901E+03  0.00000000000E+00 0. -1.
        -14    1    4    4    0    0  0.35763371548E+02  0.23234172606E+02  0.11127864539E+02  0.44075785760E+02  0.00000000000E+00 0.  1.
        -13    1    3    3    0    0  0.55701069736E+02 -0.22953075291E+02 -0.56791421431E+02  0.82793226674E+02  0.00000000000E+00 0.  1.
         13    1    3    3    0    0  0.10354303286E+01  0.44790073660E+02 -0.87312080963E+02  0.98135734045E+02  0.00000000000E+00 0. -1.
          2    1    1    2  501    0 -0.27446069764E+03 -0.11134034374E+02  0.96895543006E+02  0.29127544958E+03  0.00000000000E+00 0. -1.
<scales pt_clust_5="13000.00000" pt_clust_6="13000.00000" pt_clust_7="13000.00000" pt_clust_8="13000.00000" pt_clust_9="13000.00000"></scales>
<clustering>
<clus scale="   80.022">  5  6 -1 -1</clus>
<clus scale="   90.959">  7  8 -1 -1</clus>
<clus scale="  109.405">  1  7  2 -1</clus>
<clus scale="  248.252">  5  9 -1 -1</clus>
<clus scale="  513.369">  2  5  1 -1</clus>
</clustering>
</event>
<event>
 9    1  0.2728138E-005  0.1306358E+03  0.7546771E-02  0.1243242E+00
         -4   -1    0    0    0  501 -0.00000000000E+00  0.00000000000E+00  0.35808861904E+02  0.35808861904E+02  0.00000000000E+00 0.  1.
         21   -1    0    0  501  502  0.00000000000E+00 -0.00000000000E+00 -0.51086429483E+03  0.51086429483E+03  0.00000000000E+00 0.  1.
         23    2    1    2    0    0 -0.37020354919E+01 -0.12414190707E+02 -0.57406648864E+02  0.10907035515E+03  0.91831377216E+02 0.  0.
        -24    2    1    2    0    0  0.56607437600E+01 -0.26404550581E+02 -0.20808771190E+03  0.22446769378E+03  0.79724559550E+02 0.  0.
         13    1    4    4    0    0  0.30909303393E+02  0.15377162772E+02 -0.71029226305E+02  0.78974636186E+02  0.00000000000E+00 0. -1.
        -14    1    4    4    0    0 -0.25248559633E+02 -0.41781713354E+02 -0.13705848560E+03  0.14549305760E+03  0.00000000000E+00 0.  1.
        -11    1    3    3    0    0 -0.37632196447E+02  0.11454754980E+02 -0.54862507527E+02  0.67507691067E+02  0.00000000000E+00 0. -1.
         11    1    3    3    0    0  0.33930160955E+02 -0.23868945686E+02 -0.25441413368E+01  0.41562664084E+02  0.00000000000E+00 0.  1.
         -3    1    1    2    0  502 -0.19587082682E+01  0.38818741288E+02 -0.20956107216E+03  0.21313510780E+03  0.00000000000E+00 0.  1.
<scales pt_clust_5="13000.00000" pt_clust_6="13000.00000" pt_clust_7="13000.00000" pt_clust_8="13000.00000" pt_clust_9="13000.00000"></scales>
<clustering>
<clus scale="   79.725">  5  6 -1 -1</clus>
<clus scale="   38.868">  5  9 -1 -1</clus>
<clus scale="   91.831">  7  8 -1 -1</clus>
<clus scale="   92.741">  1  7  2 -1</clus>
<clus scale="  130.636">  2  5  1 -1</clus>
</clustering>
</event>
<event>
 9    1  0.2728138E-005  0.2165478E+03  0.7546771E-02  0.1175353E+00
          1   -1    0    0  502    0 -0.00000000000E+00  0.00000000000E+00  0.10585086143E+03  0.10585086143E+03  0.00000000000E+00 0. -1.
         21   -1    0    0  501  502  0.00000000000E+00 -0.00000000000E+00 -0.21901670790E+03  0.21901670790E+03  0.00000000000E+00 0.  1.
         23    2    1    2    0    0 -0.24095972195E+02 -0.47384356659E+02 -0.44194165316E+02  0.97601072513E+02  0.68898127520E+02 0.  0.
        -24    2    1    2    0    0  0.62473287930E+02 -0.29264877485E+02 -0.91812104794E+02  0.13855568345E+03  0.77516901832E+02 0.  0.
         11    1    4    4    0    0  0.42833976282E+01 -0.37701116990E+02 -0.61855622854E+02  0.72566106387E+02  0.00000000000E+00 0. -1.
        -12    1    4    4    0    0  0.58189890302E+02  0.84362395047E+01 -0.29956481941E+02  0.65989577060E+02  0.00000000000E+00 0.  1.
        -13    1    3    3    0    0  0.11186641904E+02 -0.28098584088E+02  0.84083075220E+01  0.31390619940E+02  0.00000000000E+00 0. -1.
         13    1    3    3    0    0 -0.35282614099E+02 -0.19285772571E+02 -0.52602472838E+02  0.66210452573E+02  0.00000000000E+00 0.  1.
          2    1    1    2  501    0 -0.38377315735E+02  0.76649234144E+02  0.22840423639E+02  0.88710813376E+02  0.00000000000E+00 0. -1.
<scales pt_clust_5="13000.00000" pt_clust_6="13000.00000" pt_clust_7="13000.00000" pt_clust_8="13000.00000" pt_clust_9="13000.00000"></scales>
<clustering>
<clus scale="   68.898">  7  8 -1 -1</clus>
<clus scale="   77.517">  5  6 -1 -1</clus>
<clus scale="   85.720">  5  9 -1 -1</clus>
<clus scale="   87.022">  1  7  2 -1</clus>
<clus scale="  216.548">  2  5  1 -1</clus>
</clustering>
</event>
<event>
 9    1  0.2728138E-005  0.2389324E+03  0.7546771E-02  0.1138101E+00
         21   -1    0    0  501  502  0.00000000000E+00  0.00000000000E+00  0.11799244215E+03  0.11799244215E+03  0.00000000000E+00 0. -1.
          1   -1    0    0  502    0 -0.00000000000E+00 -0.00000000000E+00 -0.69270228569E+03  0.69270228569E+03  0.00000000000E+00 0. -1.
         23    2    1    2    0    0  0.12075673491E+03 -0.25725586936E+02 -0.54890578667E+03  0.57037301075E+03  0.93722003318E+02 0.  0.
        -24    2    1    2    0    0 -0.51752443538E+02  0.84110972421E+02  0.34856471059E+02  0.13146334527E+03  0.79464875773E+02 0.  0.
         11    1    4    4    0    0  0.28249351634E+01  0.56273660716E+02  0.41298465477E+02  0.69858917826E+02  0.00000000000E+00 0. -1.
        -12    1    4    4    0    0 -0.54577378702E+02  0.27837311705E+02 -0.64419944173E+01  0.61604427446E+02  0.00000000000E+00 0.  1.
        -13    1    3    3    0    0  0.29491512496E+02 -0.41310291713E+02 -0.10145200238E+03  0.11344072592E+03  0.00000000000E+00 0.  1.
         13    1    3    3    0    0  0.91265222413E+02  0.15584704777E+02 -0.44745378429E+03  0.45693228483E+03  0.00000000000E+00 0. -1.
          2    1    1    2  501    0 -0.69004291371E+02 -0.58385385485E+02 -0.60660527922E+02  0.10885837181E+03  0.00000000000E+00 0. -1.
<scales pt_clust_5="13000.00000" pt_clust_6="13000.00000" pt_clust_7="13000.00000" pt_clust_8="13000.00000" pt_clust_9="13000.00000"></scales>
<clustering>
<clus scale="   79.465">  5  6 -1 -1</clus>
<clus scale="   90.391">  5  9 -1 -1</clus>
<clus scale="   93.722">  7  8 -1 -1</clus>
<clus scale="  155.009">  2  7  1 -1</clus>
<clus scale="  238.932">  1  5  2 -1</clus>
</clustering>
</event>
<event>
 9    1  0.2728138E-005  0.1341095E+03  0.7546771E-02  0.1235075E+00
          3   -1    0    0  502    0 -0.00000000000E+00  0.00000000000E+00  0.12858278329E+03  0.12858278329E+03  0.00000000000E+00 0. -1.
         21   -1    0    0  501  502  0.00000000000E+00 -0.00000000000E+00 -0.11039804166E+03  0.11039804166E+03  0.00000000000E+00 0. -1.
         23    2    1    2    0    0 -0.19062357850E+02  0.25286091443E+02 -0.10779792988E+02  0.10177916421E+03  0.96125097779E+02 0.  0.
        -24    2    1    2    0    0 -0.26553651417E+02 -0.23681274044E+02  0.24191771832E+02  0.91308578413E+02  0.80536423583E+02 0.  0.
         11    1    4    4    0    0 -0.49846626692E+02 -0.81042056854E+00  0.29953707287E+02  0.58159844861E+02  0.00000000000E+00 0. -1.
        -12    1    4    4    0    0  0.23292975275E+02 -0.22870853476E+02 -0.57619354554E+01  0.33148733551E+02  0.00000000000E+00 0.  1.
        -13    1    3    3    0    0 -0.23575907926E+02  0.59434736571E+02  0.44969706978E+01  0.64097847790E+02  0.00000000000E+00 0.  1.
         13    1    3    3    0    0  0.45135500760E+01 -0.34148645128E+02 -0.15276763686E+02  0.37681316419E+02  0.00000000000E+00 0. -1.
          4    1    1    2  501    0  0.45616009267E+02 -0.16048173991E+01  0.47727627863E+01  0.45893082322E+02  0.00000000000E+00 0. -1.
<scales pt_clust_5="13000.00000" pt_clust_6="13000.00000" pt_clust_7="13000.00000" pt_clust_8="13000.00000" pt_clust_9="13000.00000"></scales>
<clustering>
<clus scale="   80.536">  5  6 -1 -1</clus>
<clus scale="   45.644">  5  9 -1 -1</clus>
<clus scale="   96.125">  7  8 -1 -1</clus>
<clus scale="  101.207">  1  7  2 -1</clus>
<clus scale="  134.109">  2  5  1 -1</clus>
</clustering>
</event>
<event>
 9    1  0.2728138E-005  0.5684288E+03  0.7546771E-02  0.1017099E+00
         21   -1    0    0  501  502  0.00000000000E+00  0.00000000000E+00  0.55548683749E+03  0.55548683749E+03  0.00000000000E+00 0. -1.
          1   -1    0    0  502    0 -0.00000000000E+00 -0.00000000000E+00 -0.34756199430E+03  0.34756199430E+03  0.00000000000E+00 0. -1.
         23    2    1    2    0    0  0.11591203786E+03  0.26978882809E+03  0.10808672500E+03  0.32591895246E+03  0.91207517069E+02 0.  0.
        -24    2    1    2    0    0  0.82891402655E+02  0.71478552660E+02 -0.63872985842E+02  0.14959326253E+03  0.79487217514E+02 0.  0.
         13    1    4    4    0    0  0.53365604413E+01  0.53520258160E+02 -0.38120050782E+02  0.65924465735E+02  0.00000000000E+00 0. -1.
        -14    1    4    4    0    0  0.77554842213E+02  0.17958294500E+02 -0.25752935060E+02  0.83668796790E+02  0.00000000000E+00 0.  1.
        -11    1    3    3    0    0  0.63116381950E+02  0.19001559839E+03  0.30052726921E+02  0.20246671750E+03  0.00000000000E+00 0.  1.
         11    1    3    3    0    0  0.52795655909E+02  0.79773229700E+02  0.78033998080E+02  0.12345223496E+03  0.00000000000E+00 0. -1.
          2    1    1    2  501    0 -0.19880344051E+03 -0.34126738075E+03  0.16371110404E+03  0.42753661680E+03  0.00000000000E+00 0. -1.
<scales pt_clust_5="13000.00000" pt_clust_6="13000.00000" pt_clust_7="13000.00000" pt_clust_8="13000.00000" pt_clust_9="13000.00000"></scales>
<clustering>
<clus scale="   79.487">  5  6 -1 -1</clus>
<clus scale="   91.208">  7  8 -1 -1</clus>
<clus scale="  307.474">  2  7  1 -1</clus>
<clus scale="  234.672">  5  9 -1 -1</clus>
<clus scale="  568.429">  1  5  2 -1</clus>
</clustering>
</event>
<event>
 9    1  0.2728138E-005  0.5606331E+03  0.7546771E-02  0.1057148E+00
          1   -1    0    0  502    0 -0.00000000000E+00  0.00000000000E+00  0.55621082136E+03  0.55621082136E+03  0.00000000000E+00 0. -1.
         21   -1    0    0  501  502  0.00000000000E+00 -0.00000000000E+00 -0.19843549761E+03  0.19843549761E+03  0.00000000000E+00 0. -1.
         23    2    1    2    0    0  0.31033072694E+02 -0.33184534817E+01  0.87308879948E+02  0.13218217656E+03  0.94208404876E+02 0.  0.
        -24    2    1    2    0    0 -0.13194705910E+03 -0.67198420268E+02 -0.12382945550E+03  0.20939572393E+03  0.81161450569E+02 0.  0.
         13    1    4    4    0    0 -0.13445235091E+03 -0.41301498242E+02 -0.91072040740E+02  0.16756301807E+03  0.00000000000E+00 0. -1.
        -14    1    4    4    0    0  0.25052918060E+01 -0.25896922026E+02 -0.32757414760E+02  0.41832705855E+02  0.00000000000E+00 0.  1.
        -11    1    3    3    0    0  0.39951841619E+02 -0.41855010316E+02  0.39153677829E+02  0.69864168390E+02  0.00000000000E+00 0. -1.
         11    1    3    3    0    0 -0.89187689254E+01  0.38536556834E+02  0.48155202118E+02  0.62318008174E+02  0.00000000000E+00 0.  1.
          2    1    1    2  501    0  0.10091398641E+03  0.70516873750E+02  0.39429589930E+03  0.41306841847E+03  0.00000000000E+00 0. -1.
<scales pt_clust_5="13000.00000" pt_clust_6="13000.00000" pt_clust_7="13000.00000" pt_clust_8="13000.00000" pt_clust_9="13000.00000"></scales>
<clustering>
<clus scale="   81.161">  5  6 -1 -1</clus>
<clus scale="   94.208">  7  8 -1 -1</clus>
<clus scale="   99.244">  1  7  2 -1</clus>
<clus scale="  145.577">  5  9 -1 -1</clus>
<clus scale="  560.633">  2  5  1 -1</clus>
</clustering>
</event>
<event>
 9    1  0.3442932E-005  0.1254799E+03  0.7546771E-02  0.1240429E+00
         21   -1    0    0  501  502  0.00000000000E+00  0.00000000000E+00  0.11648686469E+03  0.11648686469E+03  0.00000000000E+00 0.  1.
         -4   -1    0    0    0  501 -0.00000000000E+00 -0.00000000000E+00 -0.12844236318E+03  0.12844236318E+03  0.00000000000E+00 0.  1.
         23    2    1    2    0    0 -0.51631238992E+02  0.27495504479E+02  0.26083856587E+02  0.11381019618E+03  0.94077657147E+02 0.  0.
        -24    2    1    2    0    0  0.19379310314E+02 -0.10986750412E+02 -0.78592358019E+01  0.83964334527E+02  0.80572796478E+02 0.  0.
         11    1    4    4    0    0  0.15178257047E+02  0.25563394599E+02 -0.29000496582E+02  0.41531860450E+02  0.00000000000E+00 0. -1.
        -12    1    4    4    0    0  0.42010532675E+01 -0.36550145011E+02  0.21141260780E+02  0.42432474077E+02  0.00000000000E+00 0.  1.
        -13    1    3    3    0    0  0.25490406405E+02  0.23908277179E+01  0.19980395225E+02  0.32476038386E+02  0.00000000000E+00 0. -1.
         13    1    3    3    0    0 -0.77121645397E+02  0.25104676762E+02  0.61034613617E+01  0.81334157797E+02  0.00000000000E+00 0.  1.
         -3    1    1    2    0  502  0.32251928678E+02 -0.16508754067E+02 -0.30180119280E+02  0.47154697158E+02  0.00000000000E+00 0.  1.
<scales pt_clust_5="13000.00000" pt_clust_6="13000.00000" pt_clust_7="13000.00000" pt_clust_8="13000.00000" pt_clust_9="13000.00000"></scales>
<clustering>
<clus scale="   80.573">  5  6 -1 -1</clus>
<clus scale="   36.232">  5  9 -1 -1</clus>
<clus scale="   94.078">  7  8 -1 -1</clus>
<clus scale="  110.781">  2  7  1 -1</clus>
<clus scale="  125.480">  1  5  2 -1</clus>
</clustering>
</event>
<event>
 9    1  0.2728138E-005  0.5096660E+03  0.7546771E-02  0.1046560E+00
          3   -1    0    0  502    0 -0.00000000000E+00  0.00000000000E+00  0.54666938955E+03  0.54666938955E+03  0.00000000000E+00 0. -1.
         21   -1    0    0  501  502  0.00000000000E+00 -0.00000000000E+00 -0.24126519552E+03  0.24126519552E+03  0.00000000000E+00 0. -1.
         23    2    1    2    0    0 -0.69419364688E+02  0.13657707018E+03 -0.25460156465E+02  0.18029106539E+03  0.91565847336E+02 0.  0.
        -24    2    1    2    0    0  0.22249003784E+03 -0.15960693727E+03  0.35015286645E+03  0.45165296675E+03  0.80044869454E+02 0.  0.
         11    1    4    4    0    0  0.12408366896E+03 -0.68448948307E+02  0.12201718098E+03  0.18700322960E+03  0.00000000000E+00 0. -1.
        -12    1    4    4    0    0  0.98406368885E+02 -0.91157988964E+02  0.22813568546E+03  0.26464973714E+03  0.00000000000E+00 0.  1.
        -13    1    3    3    0    0 -0.25775199223E+02 -0.60927675507E+01 -0.15670347942E+02  0.30774055891E+02  0.00000000000E+00 0.  1.
         13    1    3    3    0    0 -0.43644165465E+02  0.14266983773E+03 -0.97898085234E+01  0.14951700950E+03  0.00000000000E+00 0. -1.
          4    1    1    2  501    0 -0.15307067315E+03  0.23029867087E+02 -0.19288515947E+02  0.15599055294E+03  0.00000000000E+00 0. -1.
<scales pt_clust_5="13000.00000" pt_clust_6="13000.00000" pt_clust_7="13000.00000" pt_clust_8="13000.00000" pt_clust_9="13000.00000"></scales>
<clustering>
<clus scale="   80.045">  5  6 -1 -1</clus>
<clus scale="   91.566">  7  8 -1 -1</clus>
<clus scale="  154.794">  5  9 -1 -1</clus>
<clus scale="  178.484">  1  7  2 -1</clus>
<clus scale="  509.666">  2  5  1 -1</clus>
</clustering>
</event>
<event>
 9    1  0.2728138E-005  0.1324558E+03  0.7546771E-02  0.1231515E+00
          1   -1    0    0  502    0 -0.00000000000E+00  0.00000000000E+00  0.60997092156E+02  0.60997092156E+02  0.00000000000E+00 0. -1.
         21   -1    0    0  501  502  0.00000000000E+00 -0.00000000000E+00 -0.29302973704E+03  0.29302973704E+03  0.00000000000E+00 0. -1.
         23    2    1    2    0    0  0.59188454707E+02  0.30931833919E+02 -0.38270243109E+02  0.11931764191E+03  0.91170371521E+02 0.  0.
        -24    2    1    2    0    0 -0.16162695991E+02  0.41546349272E+01 -0.13825961715E+03  0.15620545928E+03  0.70752597426E+02 0.  0.
         13    1    4    4    0    0 -0.23885337960E+02 -0.64020281524E+01 -0.14073709083E+03  0.14289305115E+03  0.00000000000E+00 0. -1.
        -14    1    4    4    0    0  0.77226419683E+01  0.10556663080E+02  0.24774736777E+01  0.13312408128E+02  0.00000000000E+00 0.  1.
        -11    1    3    3    0    0  0.28721372637E+02  0.51416827616E+02 -0.53503753624E+02  0.79569209246E+02  0.00000000000E+00 0. -1.
         11    1    3    3    0    0  0.30467082070E+02 -0.20484993697E+02  0.15233510515E+02  0.39748432664E+02  0.00000000000E+00 0.  1.
          2    1    1    2  501    0 -0.43025758716E+02 -0.35086468846E+02 -0.55502784628E+02  0.78503728005E+02  0.00000000000E+00 0. -1.
<scales pt_clust_5="13000.00000" pt_clust_6="13000.00000" pt_clust_7="13000.00000" pt_clust_8="13000.00000" pt_clust_9="13000.00000"></scales>
<clustering>
<clus scale="   70.753">  5  6 -1 -1</clus>
<clus scale="   55.518">  5  9 -1 -1</clus>
<clus scale="   91.170">  7  8 -1 -1</clus>
<clus scale="  113.014">  1  7  2 -1</clus>
<clus scale="  132.456">  2  5  1 -1</clus>
</clustering>
</event>
<event>
 9    1  0.2728138E-005  0.1396140E+03  0.7546771E-02  0.1226046E+00
          1   -1    0    0  502    0 -0.00000000000E+00  0.00000000000E+00  0.16877768903E+03  0.16877768903E+03  0.00000000000E+00 0. -1.
         21   -1    0    0  501  502  0.00000000000E+00 -0.00000000000E+00 -0.90886847635E+02  0.90886847635E+02  0.00000000000E+00 0.  1.
         23    2    1    2    0    0  0.48311857312E+02  0.37110915604E+02  0.35838328336E+02  0.11385479021E+03  0.89259575744E+02 0.  0.
        -24    2    1    2    0    0 -0.43392146044E+02 -0.61911121665E+02  0.19327306181E+02  0.11181432313E+03  0.80081413372E+02 0.  0.
         13    1    4    4    0    0 -0.18291055353E+02  0.10707386699E+02 -0.16670707854E+02  0.26965224572E+02  0.00000000000E+00 0. -1.
        -14    1    4    4    0    0 -0.25101090691E+02 -0.72618508364E+02  0.35998014036E+02  0.84849098554E+02  0.00000000000E+00 0.  1.
        -13    1    3    3    0    0  0.18929978885E+02  0.55942578061E+02 -0.60108617674E+01  0.59363680815E+02  0.00000000000E+00 0.  1.
         13    1    3    3    0    0  0.29381878427E+02 -0.18831662457E+02  0.41849190104E+02  0.54491109395E+02  0.00000000000E+00 0. -1.
          2    1    1    2  501    0 -0.49197112686E+01  0.24800206062E+02  0.22725206873E+02  0.33995423325E+02  0.00000000000E+00 0. -1.
<scales pt_clust_5="13000.00000" pt_clust_6="13000.00000" pt_clust_7="13000.00000" pt_clust_8="13000.00000" pt_clust_9="13000.00000"></scales>
<clustering>
<clus scale="   80.081">  5  6 -1 -1</clus>
<clus scale="   25.283">  5  9 -1 -1</clus>
<clus scale="   89.260">  7  8 -1 -1</clus>
<clus scale="  108.067">  1  7  2 -1</clus>
<clus scale="  139.614">  2  5  1 -1</clus>
</clustering>
</event>
<event>
 9    1  0.2728138E-005  0.3221222E+03  0.7546771E-02  0.1080670E+00
         21   -1    0    0  501  502  0.00000000000E+00  0.00000000000E+00  0.52675527170E+03  0.52675527170E+03  0.00000000000E+00 0. -1.
          1   -1    0    0  502    0 -0.00000000000E+00 -0.00000000000E+00 -0.17973162796E+03  0.17973162796E+03  0.00000000000E+00 0. -1.
         23    2    1    2    0    0 -0.17710478679E+03  0.18838746925E+03  0.24797487571E+03  0.36948039230E+03  0.90378521978E+02 0.  0.
        -24    2    1    2    0    0  0.13679471009E+03 -0.88172620442E+02  0.13158655937E+03  0.22419415844E+03  0.80379066702E+02 0.  0.
         13    1    4    4    0    0  0.13093904127E+03 -0.99089177523E+02  0.13354132607E+03  0.21165297872E+03  0.00000000000E+00 0. -1.
        -14    1    4    4    0    0  0.58556688221E+01  0.10916557081E+02 -0.19547666986E+01  0.12541179718E+02  0.00000000000E+00 0.  1.
        -13    1    3    3    0    0 -0.68720781669E+02  0.17104226569E+02  0.55699102800E+02  0.90097116782E+02  0.00000000000E+00 0.  1.
         13    1    3    3    0    0 -0.10838400512E+03  0.17128324268E+03  0.19227577291E+03  0.27938327552E+03  0.00000000000E+00 0. -1.
          2    1    1    2  501    0  0.40310076694E+02 -0.10021484881E+03 -0.32537791347E+02  0.11281234893E+03  0.00000000000E+00 0. -1.
<scales pt_clust_5="13000.00000" pt_clust_6="13000.00000" pt_clust_7="13000.00000" pt_clust_8="13000.00000" pt_clust_9="13000.00000"></scales>
<clustering>
<clus scale="   80.379">  5  6 -1 -1</clus>
<clus scale="   90.379">  7  8 -1 -1</clus>
<clus scale="  108.018">  5  9 -1 -1</clus>
<clus scale="  273.906">  2  7  1 -1</clus>
<clus scale="  322.122">  1  5  2 -1</clus>
</clustering>
</event>
<event>
 9    1  0.2728138E-005  0.2129068E+03  0.7546771E-02  0.1169763E+00
         21   -1    0    0  501  502  0.00000000000E+00  0.00000000000E+00  0.91378044232E+02  0.91378044232E+02  0.00000000000E+00 0.  1.
         -2   -1    0    0    0  501 -0.00000000000E+00 -0.00000000000E+00 -0.34202368260E+03  0.34202368260E+03  0.00000000000E+00 0.  1.
         23    2    1    2    0    0 -0.28071547774E+02 -0.27433969130E+02  0.70841395466E+00  0.10399596406E+03  0.96301735358E+02 0.  0.
        -24    2    1    2    0    0  0.55593081621E+02 -0.52031437525E+02 -0.20791684917E+03  0.23475389382E+03  0.77987904691E+02 0.  0.
         13    1    4    4    0    0  0.22220471938E+02  0.16370457407E+02 -0.27596158281E+02  0.39029337692E+02  0.00000000000E+00 0. -1.
        -14    1    4    4    0    0  0.33372609683E+02 -0.68401894931E+02 -0.18032069089E+03  0.19572455613E+03  0.00000000000E+00 0.  1.
        -11    1    3    3    0    0 -0.45943467226E+02 -0.86394819967E+01 -0.36032356997E+02  0.59023500241E+02  0.00000000000E+00 0. -1.
         11    1    3    3    0    0  0.17871919452E+02 -0.18794487133E+02  0.36740770952E+02  0.44972463815E+02  0.00000000000E+00 0.  1.
         -1    1    1    2    0  502 -0.27521533847E+02  0.79465406655E+02 -0.43437203156E+02  0.94651868962E+02  0.00000000000E+00 0.  1.
<scales pt_clust_5="13000.00000" pt_clust_6="13000.00000" pt_clust_7="13000.00000" pt_clust_8="13000.00000" pt_clust_9="13000.00000"></scales>
<clustering>
<clus scale="   77.988">  5  6 -1 -1</clus>
<clus scale="   84.096">  5  9 -1 -1</clus>
<clus scale="   96.302">  7  8 -1 -1</clus>
<clus scale="  103.994">  2  7  1 -1</clus>
<clus scale="  212.907">  1  5  2 -1</clus>
</clustering>
</event>
<event>
 9    1  0.2728138E-005  0.1525636E+03  0.7546771E-02  0.1215779E+00
         21   -1    0    0  501  502  0.00000000000E+00  0.00000000000E+00  0.73749021944E+02  0.73749021944E+02  0.00000000000E+00 0. -1.
          3   -1    0    0  502    0 -0.00000000000E+00 -0.00000000000E+00 -0.28012017378E+03  0.28012017378E+03  0.00000000000E+00 0. -1.
         23    2    1    2    0    0 -0.39071228210E+02  0.22793217083E+02 -0.16741529099E+03  0.19641057975E+03  0.92212496787E+02 0.  0.
        -24    2    1    2    0    0  0.31477559241E+02  0.34563946708E+02 -0.14177704727E+02  0.94518445431E+02  0.80914931055E+02 0.  0.
         13    1    4    4    0    0  0.80620791153E+01  0.49838748374E+02  0.16402932270E+02  0.53084405867E+02  0.00000000000E+00 0. -1.
        -14    1    4    4    0    0  0.23415480126E+02 -0.15274801667E+02 -0.30580636997E+02  0.41434039564E+02  0.00000000000E+00 0.  1.
        -13    1    3    3    0    0 -0.11150342386E+02  0.43167198249E+02 -0.27711216098E+02  0.52494272427E+02  0.00000000000E+00 0.  1.
         13    1    3    3    0    0 -0.27920885824E+02 -0.20373981166E+02 -0.13970407489E+03  0.14391630733E+03  0.00000000000E+00 0. -1.
          4    1    1    2  501    0  0.75936689690E+01 -0.57357163790E+02 -0.24778156120E+02  0.62940170537E+02  0.00000000000E+00 0. -1.
<scales pt_clust_5="13000.00000" pt_clust_6="13000.00000" pt_clust_7="13000.00000" pt_clust_8="13000.00000" pt_clust_9="13000.00000"></scales>
<clustering>
<clus scale="   80.915">  5  6 -1 -1</clus>
<clus scale="   57.858">  5  9 -1 -1</clus>
<clus scale="   92.212">  7  8 -1 -1</clus>
<clus scale="  102.709">  2  7  1 -1</clus>
<clus scale="  152.564">  1  5  2 -1</clus>
</clustering>
</event>
<event>
 9    1  0.2728138E-005  0.2336911E+03  0.7546771E-02  0.1157294E+00
         21   -1    0    0  501  502  0.00000000000E+00  0.00000000000E+00  0.33155879269E+02  0.33155879269E+02  0.00000000000E+00 0.  1.
          1   -1    0    0  502    0 -0.00000000000E+00 -0.00000000000E+00 -0.94637307614E+03  0.94637307614E+03  0.00000000000E+00 0. -1.
         23    2    1    2    0    0 -0.28343096537E+02  0.42662005804E+02 -0.43209733342E+03  0.44465714176E+03  0.91588701858E+02 0.  0.
        -24    2    1    2    0    0  0.86866586114E+02  0.22765643177E+02 -0.12376599641E+03  0.16689414806E+03  0.66869697898E+02 0.  0.
         11    1    4    4    0    0  0.54086919959E+02  0.13421009471E+02 -0.12036466869E+03  0.13263925465E+03  0.00000000000E+00 0. -1.
        -12    1    4    4    0    0  0.32779666155E+02  0.93446337055E+01 -0.34013277237E+01  0.34254893411E+02  0.00000000000E+00 0.  1.
        -11    1    3    3    0    0 -0.34488320940E+01  0.62446350254E+02 -0.36604244941E+03  0.37134689426E+03  0.00000000000E+00 0. -1.
         11    1    3    3    0    0 -0.24894264443E+02 -0.19784344450E+02 -0.66054884009E+02  0.73310247503E+02  0.00000000000E+00 0.  1.
          2    1    1    2  501    0 -0.58523489577E+02 -0.65427648981E+02 -0.35735386704E+03  0.36797766559E+03  0.00000000000E+00 0. -1.
<scales pt_clust_5="13000.00000" pt_clust_6="13000.00000" pt_clust_7="13000.00000" pt_clust_8="13000.00000" pt_clust_9="13000.00000"></scales>
<clustering>
<clus scale="   66.870">  5  6 -1 -1</clus>
<clus scale="   87.783">  5  9 -1 -1</clus>
<clus scale="   91.589">  7  8 -1 -1</clus>
<clus scale="  104.937">  2  7  1 -1</clus>
<clus scale="  233.691">  1  5  2 -1</clus>
</clustering>
</event>
<event>
 9    1  0.2728138E-005  0.1467631E+03  0.7546771E-02  0.1219851E+00
          1   -1    0    0  502    0 -0.00000000000E+00  0.00000000000E+00  0.37619298870E+02  0.37619298870E+02  0.00000000000E+00 0. -1.
         21   -1    0    0  501  502  0.00000000000E+00 -0.00000000000E+00 -0.42546661541E+03  0.42546661541E+03  0.00000000000E+00 0. -1.
         23    2    1    2    0    0  0.55705094097E+02 -0.15262310735E+02 -0.17511719129E+03  0.20464149294E+03  0.88747474955E+02 0.  0.
        -24    2    1    2    0    0 -0.10552148607E+02  0.27589272054E+02 -0.72841472634E+02  0.11093314180E+03  0.78280048802E+02 0.  0.
         13    1    4    4    0    0 -0.90106373045E+01  0.54488592684E+02 -0.38687233167E+02  0.67430707600E+02  0.00000000000E+00 0. -1.
        -14    1    4    4    0    0 -0.15415113025E+01 -0.26899320629E+02 -0.34154239467E+02  0.43502434196E+02  0.00000000000E+00 0.  1.
        -13    1    3    3    0    0  0.49927478685E+01 -0.43929894499E+02 -0.50754764417E+02  0.67311286372E+02  0.00000000000E+00 0.  1.
         13    1    3    3    0    0  0.50712346228E+02  0.28667583764E+02 -0.12436242687E+03  0.13733020657E+03  0.00000000000E+00 0. -1.
          2    1    1    2  501    0 -0.45152945489E+02 -0.12326961319E+02 -0.13988865262E+03  0.14751127955E+03  0.00000000000E+00 0. -1.
<scales pt_clust_5="13000.00000" pt_clust_6="13000.00000" pt_clust_7="13000.00000" pt_clust_8="13000.00000" pt_clust_9="13000.00000"></scales>
<clustering>
<clus scale="   78.280">  5  6 -1 -1</clus>
<clus scale="   46.805">  5  9 -1 -1</clus>
<clus scale="   88.747">  7  8 -1 -1</clus>
<clus scale="  105.887">  1  7  2 -1</clus>
<clus scale="  146.763">  2  5  1 -1</clus>
</clustering>
</event>
<event>
 9    1  0.2728138E-005  0.5386461E+03  0.7546771E-02  0.1051124E+00
         21   -1    0    0  501  502  0.00000000000E+00  0.00000000000E+00  0.21905477337E+03  0.21905477337E+03  0.00000000000E+00 0.  1.
          1   -1    0    0  502    0 -0.00000000000E+00 -0.00000000000E+00 -0.52532185014E+03  0.52532185014E+03  0.00000000000E+00 0. -1.
         23    2    1    2    0    0 -0.89356642694E+02  0.41028469516E+02 -0.19416053516E+02  0.13411182751E+03  0.89112593043E+02 0.  0.
        -24    2    1    2    0    0 -0.94207495190E+02  0.51644259323E+02  0.10024050423E+03  0.17194541697E+03  0.89302217534E+02 0.  0.
         11    1    4    4    0    0 -0.20581316154E+02 -0.14232975563E+02  0.60473776548E+02  0.65446511121E+02  0.00000000000E+00 0. -1.
        -12    1    4    4    0    0 -0.73626179036E+02  0.65877234886E+02  0.39766727683E+02  0.10649890585E+03  0.00000000000E+00 0.  1.
        -13    1    3    3    0    0 -0.94621770782E+02  0.20533042733E+02 -0.39842024713E+02  0.10470087050E+03  0.00000000000E+00 0.  1.
         13    1    3    3    0    0  0.52651280879E+01  0.20495426784E+02  0.20425971198E+02  0.29410957009E+02  0.00000000000E+00 0. -1.
          2    1    1    2  501    0  0.18356413788E+03 -0.92672728839E+02 -0.38709152749E+03  0.43831937904E+03  0.00000000000E+00 0. -1.
<scales pt_clust_5="13000.00000" pt_clust_6="13000.00000" pt_clust_7="13000.00000" pt_clust_8="13000.00000" pt_clust_9="13000.00000"></scales>
<clustering>
<clus scale="   89.113">  7  8 -1 -1</clus>
<clus scale="   89.302">  5  6 -1 -1</clus>
<clus scale="  132.699">  2  7  1 -1</clus>
<clus scale="  115.275">  5  9 -1 -1</clus>
<clus scale="  538.646">  1  5  2 -1</clus>
</clustering>
</event>
<event>
 9    1  0.2728138E-005  0.2913949E+03  0.7546771E-02  0.1100733E+00
         21   -1    0    0  501  502  0.00000000000E+00  0.00000000000E+00  0.49879067263E+02  0.49879067263E+02  0.00000000000E+00 0. -1.
          1   -1    0    0  502    0 -0.00000000000E+00 -0.00000000000E+00 -0.14709504656E+04  0.14709504656E+04  0.00000000000E+00 0. -1.
         23    2    1    2    0    0  0.17041529227E+03 -0.10061140474E+03 -0.87684719941E+03  0.90350388114E+03  0.91072638738E+02 0.  0.
        -24    2    1    2    0    0 -0.17167945510E+03  0.96202946663E+01 -0.28500453630E+03  0.34259703342E+03  0.81109532280E+02 0.  0.
         11    1    4    4    0    0 -0.17104807539E+03  0.22618726900E+02 -0.23889400364E+03  0.29468524883E+03  0.00000000000E+00 0. -1.
        -12    1    4    4    0    0 -0.63137970442E+00 -0.12998432233E+02 -0.46110532658E+02  0.47911784593E+02  0.00000000000E+00 0.  1.
        -11    1    3    3    0    0  0.33446606752E+02  0.16362171740E+02 -0.12854866674E+03  0.13383256662E+03  0.00000000000E+00 0.  1.
         11    1    3    3    0    0  0.13696868552E+03 -0.11697357648E+03 -0.74829853266E+03  0.76967131452E+03  0.00000000000E+00 0. -1.
          2    1    1    2  501    0  0.12641628224E+01  0.90991110075E+02 -0.25921966267E+03  0.27472861834E+03  0.00000000000E+00 0. -1.
<scales pt_clust_5="13000.00000" pt_clust_6="13000.00000" pt_clust_7="13000.00000" pt_clust_8="13000.00000" pt_clust_9="13000.00000"></scales>
<clustering>
<clus scale="   81.110">  5  6 -1 -1</clus>
<clus scale="   91.000">  5  9 -1 -1</clus>
<clus scale="   91.073">  7  8 -1 -1</clus>
<clus scale="  217.849">  2  7  1 -1</clus>
<clus scale="  291.395">  1  5  2 -1</clus>
</clustering>
</event>
<event>
 9    1  0.2728138E-005  0.4135831E+03  0.7546771E-02  0.1085252E+00
         21   -1    0    0  501  502  0.00000000000E+00  0.00000000000E+00  0.91446630311E+02  0.91446630311E+02  0.00000000000E+00 0. -1.
          1   -1    0    0  502    0 -0.00000000000E+00 -0.00000000000E+00 -0.87652880419E+03  0.87652880419E+03  0.00000000000E+00 0. -1.
         23    2    1    2    0    0 -0.92244666953E+01  0.73850276794E+02 -0.34752391736E+03  0.36588890404E+03  0.86964721587E+02 0.  0.
        -24    2    1    2    0    0  0.14921727637E+03  0.34785452462E+02 -0.56646748722E+02  0.18197549131E+03  0.80189787554E+02 0.  0.
         11    1    4    4    0    0  0.13944398704E+03  0.84136006389E+01 -0.29279067466E+02  0.14273289035E+03  0.00000000000E+00 0. -1.
        -12    1    4    4    0    0  0.97732893327E+01  0.26371851823E+02 -0.27367681255E+02  0.39242600962E+02  0.00000000000E+00 0.  1.
        -13    1    3    3    0    0  0.13559062298E+02 -0.16282702139E+02 -0.54672546791E+02  0.58634988974E+02  0.00000000000E+00 0.  1.
         13    1    3    3    0    0 -0.22783528994E+02  0.90132978934E+02 -0.29285137056E+03  0.30725391507E+03  0.00000000000E+00 0. -1.
          2    1    1    2  501    0 -0.13999280968E+03 -0.10863572926E+03 -0.38091150780E+03  0.42011103914E+03  0.00000000000E+00 0. -1.
<scales pt_clust_5="13000.00000" pt_clust_6="13000.00000" pt_clust_7="13000.00000" pt_clust_8="13000.00000" pt_clust_9="13000.00000"></scales>
<clustering>
<clus scale="   80.190">  5  6 -1 -1</clus>
<clus scale="   86.965">  7  8 -1 -1</clus>
<clus scale="  114.463">  2  7  1 -1</clus>
<clus scale="  155.933">  5  9 -1 -1</clus>
<clus scale="  413.583">  1  5  2 -1</clus>
</clustering>
</event>
<event>
 9    1  0.2728138E-005  0.1798844E+03  0.7546771E-02  0.1186818E+00
         -2   -1    0    0    0  501 -0.00000000000E+00  0.00000000000E+00  0.92387054216E+02  0.92387054216E+02  0.00000000000E+00 0.  1.
         21   -1    0    0  501  502  0.00000000000E+00 -0.00000000000E+00 -0.57983574523E+03  0.57983574523E+03  0.00000000000E+00 0.  1.
         23    2    1    2    0    0  0.59574373124E+02  0.44204486806E+02  0.32696756441E+02  0.12185048049E+03  0.90968781051E+02 0.  0.
        -24    2    1    2    0    0  0.24217494568E+02 -0.45628820514E+02 -0.29337531059E+03  0.30861251918E+03  0.80648235094E+02 0.  0.
         13    1    4    4    0    0  0.31349226291E+02  0.14853626574E+02 -0.97468565945E+02  0.10345784436E+03  0.00000000000E+00 0. -1.
        -14    1    4    4    0    0 -0.71317317235E+01 -0.60482447088E+02 -0.19590674465E+03  0.20515467482E+03  0.00000000000E+00 0.  1.
        -13    1    3    3    0    0  0.32262689013E+02 -0.23115399272E+02 -0.50015191677E+01  0.40002724655E+02  0.00000000000E+00 0. -1.
         13    1    3    3    0    0  0.27311684111E+02  0.67319886078E+02  0.37698275609E+02  0.81847755830E+02  0.00000000000E+00 0.  1.
         -1    1    1    2    0  502 -0.83791867692E+02  0.14243337082E+01 -0.22677013686E+03  0.24175979978E+03  0.00000000000E+00 0.  1.
<scales pt_clust_5="13000.00000" pt_clust_6="13000.00000" pt_clust_7="13000.00000" pt_clust_8="13000.00000" pt_clust_9="13000.00000"></scales>
<clustering>
<clus scale="   80.648">  5  6 -1 -1</clus>
<clus scale="   83.804">  5  9 -1 -1</clus>
<clus scale="   90.969">  7  8 -1 -1</clus>
<clus scale="  117.382">  1  7  2 -1</clus>
<clus scale="  179.884">  2  5  1 -1</clus>
</clustering>
</event>
<event>
 9    1  0.2728138E-005  0.5535170E+03  0.7546771E-02  0.1030790E+00
         21   -1    0    0  501  502  0.00000000000E+00  0.00000000000E+00  0.54616709129E+02  0.54616709129E+02  0.00000000000E+00 0.  1.
          1   -1    0    0  502    0 -0.00000000000E+00 -0.00000000000E+00 -0.27592361473E+04  0.27592361473E+04  0.00000000000E+00 0. -1.
         23    2    1    2    0    0 -0.17823214944E+03 -0.59912711067E+02 -0.67956442840E+03  0.71451276167E+03  0.11560468071E+03 0.  0.
        -24    2    1    2    0    0 -0.14734965703E+03 -0.45549016258E+02 -0.36397642962E+03  0.40337201190E+03  0.80271441734E+02 0.  0.
         11    1    4    4    0    0 -0.23023886974E+02 -0.35168193435E+02 -0.48834127912E+02  0.64433479262E+02  0.00000000000E+00 0. -1.
        -12    1    4    4    0    0 -0.12432577005E+03 -0.10380822823E+02 -0.31514230171E+03  0.33893853264E+03  0.00000000000E+00 0.  1.
        -11    1    3    3    0    0 -0.74743630491E+02 -0.27779225793E+02 -0.11688193366E+03  0.14149092586E+03  0.00000000000E+00 0.  1.
         11    1    3    3    0    0 -0.10348851895E+03 -0.32133485274E+02 -0.56268249473E+03  0.57302183581E+03  0.00000000000E+00 0. -1.
          2    1    1    2  501    0  0.32558180647E+03  0.10546172732E+03 -0.16610785802E+04  0.16959680829E+04  0.00000000000E+00 0. -1.
<scales pt_clust_5="13000.00000" pt_clust_6="13000.00000" pt_clust_7="13000.00000" pt_clust_8="13000.00000" pt_clust_9="13000.00000"></scales>
<clustering>
<clus scale="   80.271">  5  6 -1 -1</clus>
<clus scale="  115.605">  7  8 -1 -1</clus>
<clus scale="  220.728">  2  7  1 -1</clus>
<clus scale="  189.204">  5  9 -1 -1</clus>
<clus scale="  553.517">  1  5  2 -1</clus>
</clustering>
</event>
<event>
 9    1  0.2728138E-005  0.2883037E+03  0.7546771E-02  0.1130731E+00
         21   -1    0    0  501  502  0.00000000000E+00  0.00000000000E+00  0.11648166073E+03  0.11648166073E+03  0.00000000000E+00 0.  1.
         -4   -1    0    0    0  501 -0.00000000000E+00 -0.00000000000E+00 -0.44760909812E+03  0.44760909812E+03  0.00000000000E+00 0.  1.
         23    2    1    2    0    0 -0.39190193239E+02 -0.33413951221E+02  0.22371866040E+02  0.10793202664E+03  0.92176236648E+02 0.  0.
        -24    2    1    2    0    0 -0.32720534063E+02 -0.92262212370E+02 -0.24353614137E+03  0.27434138483E+03  0.79814748607E+02 0.  0.
         11    1    4    4    0    0 -0.43183256778E+01 -0.94468918920E+02 -0.15748084443E+03  0.18369333396E+03  0.00000000000E+00 0. -1.
        -12    1    4    4    0    0 -0.28402208385E+02  0.22067065495E+01 -0.86055296943E+02  0.90648050872E+02  0.00000000000E+00 0.  1.
        -13    1    3    3    0    0 -0.28161273692E+02  0.35517217572E+01  0.52032796244E+02  0.59271274226E+02  0.00000000000E+00 0.  1.
         13    1    3    3    0    0 -0.11028919548E+02 -0.36965672978E+02 -0.29660930204E+02  0.48660752416E+02  0.00000000000E+00 0. -1.
         -3    1    1    2    0  502  0.71910727302E+02  0.12567616359E+03 -0.10996316206E+03  0.18181734737E+03  0.00000000000E+00 0.  1.
<scales pt_clust_5="13000.00000" pt_clust_6="13000.00000" pt_clust_7="13000.00000" pt_clust_8="13000.00000" pt_clust_9="13000.00000"></scales>
<clustering>
<clus scale="   79.815">  5  6 -1 -1</clus>
<clus scale="   92.176">  7  8 -1 -1</clus>
<clus scale="  105.588">  2  7  1 -1</clus>
<clus scale="  127.484">  5  9 -1 -1</clus>
<clus scale="  288.304">  1  5  2 -1</clus>
</clustering>
</event>
<event>
 9    1  0.2728138E-005  0.1350890E+03  0.7546771E-02  0.1222044E+00
         21   -1    0    0  501  502  0.00000000000E+00  0.00000000000E+00  0.93966956978E+02  0.93966956978E+02  0.00000000000E+00 0. -1.
          1   -1    0    0  502    0 -0.00000000000E+00 -0.00000000000E+00 -0.21374683922E+03  0.21374683922E+03  0.00000000000E+00 0. -1.
         23    2    1    2    0    0 -0.71046814430E+02  0.19250970105E+02 -0.11587168515E+03  0.17797553875E+03  0.11327310043E+03 0.  0.
        -24    2    1    2    0    0  0.52832527338E+02 -0.33857749826E+02  0.72016849559E+01  0.10388196717E+03  0.82474090889E+02 0.  0.
         13    1    4    4    0    0  0.56653750518E+02 -0.33261010953E+02  0.35940336256E+02  0.74884244455E+02  0.00000000000E+00 0. -1.
        -14    1    4    4    0    0 -0.38212231798E+01 -0.59673887268E+00 -0.28738651301E+02  0.28997722711E+02  0.00000000000E+00 0.  1.
        -13    1    3    3    0    0 -0.17533313220E+02 -0.30257159982E+02  0.64663113073E+01  0.35562986160E+02  0.00000000000E+00 0.  1.
         13    1    3    3    0    0 -0.53513501210E+02  0.49508130087E+02 -0.12233799646E+03  0.14241255259E+03  0.00000000000E+00 0. -1.
          2    1    1    2  501    0  0.18214287092E+02  0.14606779721E+02 -0.11109882041E+02  0.25856290281E+02  0.00000000000E+00 0. -1.
<scales pt_clust_5="13000.00000" pt_clust_6="13000.00000" pt_clust_7="13000.00000" pt_clust_8="13000.00000" pt_clust_9="13000.00000"></scales>
<clustering>
<clus scale="   82.474">  5  6 -1 -1</clus>
<clus scale="   23.348">  5  9 -1 -1</clus>
<clus scale="  113.273">  7  8 -1 -1</clus>
<clus scale="  129.679">  1  5  2 -1</clus>
<clus scale="  129.679">  1  5  2 -1</clus>
</clustering>
</event>
<event>
 9    1  0.2728138E-005  0.1943992E+03  0.7546771E-02  0.1186933E+00
         21   -1    0    0  501  502  0.00000000000E+00  0.00000000000E+00  0.17091305174E+02  0.17091305174E+02  0.00000000000E+00 0. -1.
          1   -1    0    0  502    0 -0.00000000000E+00 -0.00000000000E+00 -0.12150023592E+04  0.12150023592E+04  0.00000000000E+00 0. -1.
         23    2    1    2    0    0  0.86361719643E+01 -0.18464204555E+02 -0.43752247753E+03  0.44724855474E+03  0.90497740575E+02 0.  0.
        -24    2    1    2    0    0 -0.47651607552E+02 -0.34220411864E+02 -0.23402197584E+03  0.25441163473E+03  0.80729687353E+02 0.  0.
         13    1    4    4    0    0 -0.51161015611E+02 -0.89815100287E+01 -0.63698402129E+02  0.82192478211E+02  0.00000000000E+00 0. -1.
        -14    1    4    4    0    0  0.35094080589E+01 -0.25238901835E+02 -0.17032357371E+03  0.17221915652E+03  0.00000000000E+00 0.  1.
        -11    1    3    3    0    0 -0.40936117006E+01  0.36299185260E+02 -0.16876541981E+03  0.17267355163E+03  0.00000000000E+00 0.  1.
         11    1    3    3    0    0  0.12729783665E+02 -0.54763389816E+02 -0.26875705772E+03  0.27457500311E+03  0.00000000000E+00 0. -1.
          2    1    1    2  501    0  0.39015435587E+02  0.52684616419E+02 -0.52636660063E+03  0.53043347489E+03  0.00000000000E+00 0. -1.
<scales pt_clust_5="13000.00000" pt_clust_6="13000.00000" pt_clust_7="13000.00000" pt_clust_8="13000.00000" pt_clust_9="13000.00000"></scales>
<clustering>
<clus scale="   80.730">  5  6 -1 -1</clus>
<clus scale="   65.558">  5  9 -1 -1</clus>
<clus scale="   90.498">  7  8 -1 -1</clus>
<clus scale="   92.765">  2  7  1 -1</clus>
<clus scale="  194.399">  1  5  2 -1</clus>
</clustering>
</event>
<event>
 9    1  0.2728138E-005  0.2613735E+03  0.7546771E-02  0.1112068E+00
         21   -1    0    0  501  502  0.00000000000E+00  0.00000000000E+00  0.25889285178E+03  0.25889285178E+03  0.00000000000E+00 0.  1.
          1   -1    0    0  502    0 -0.00000000000E+00 -0.00000000000E+00 -0.23213236122E+03  0.23213236122E+03  0.00000000000E+00 0. -1.
         23    2    1    2    0    0 -0.14316175588E+03  0.14811317488E+03  0.40303827744E+02  0.22930108271E+03  0.92313525988E+02 0.  0.
        -24    2    1    2    0    0  0.56600028718E+02 -0.36760875716E+02  0.44725212460E+02  0.10912173511E+03  0.73159300219E+02 0.  0.
         11    1    4    4    0    0  0.48443959915E+02 -0.11691211506E+02  0.60513573823E+02  0.78392565307E+02  0.00000000000E+00 0. -1.
        -12    1    4    4    0    0  0.81560688038E+01 -0.25069664210E+02 -0.15788361363E+02  0.30729169798E+02  0.00000000000E+00 0.  1.
        -11    1    3    3    0    0 -0.11782429668E+03  0.58996049215E+02  0.35785368426E+02  0.13654190311E+03  0.00000000000E+00 0. -1.
         11    1    3    3    0    0 -0.25337459204E+02  0.89117125665E+02  0.45184593185E+01  0.92759179601E+02  0.00000000000E+00 0.  1.
          2    1    1    2  501    0  0.86561727165E+02 -0.11135229916E+03 -0.58268549646E+02  0.15260239519E+03  0.00000000000E+00 0. -1.
<scales pt_clust_5="13000.00000" pt_clust_6="13000.00000" pt_clust_7="13000.00000" pt_clust_8="13000.00000" pt_clust_9="13000.00000"></scales>
<clustering>
<clus scale="   73.159">  5  6 -1 -1</clus>
<clus scale="   92.314">  7  8 -1 -1</clus>
<clus scale="  141.040">  5  9 -1 -1</clus>
<clus scale="  225.731">  2  7  1 -1</clus>
<clus scale="  261.373">  1  5  2 -1</clus>
</clustering>
</event>
<event>
 9    1  0.2728138E-005  0.2270766E+03  0.7546771E-02  0.1164358E+00
         21   -1    0    0  501  502  0.00000000000E+00  0.00000000000E+00  0.81450880716E+02  0.81450880716E+02  0.00000000000E+00 0. -1.
          1   -1    0    0  502    0 -0.00000000000E+00 -0.00000000000E+00 -0.37068468875E+03  0.37068468875E+03  0.00000000000E+00 0. -1.
         23    2    1    2    0    0  0.22811326506E+02  0.38848632482E+01 -0.16976007898E+03  0.19554692243E+03  0.94258504531E+02 0.  0.
        -24    2    1    2    0    0 -0.72955763969E+02  0.26715824111E+02 -0.15259417705E+03  0.18915104068E+03  0.80354555354E+02 0.  0.
         13    1    4    4    0    0 -0.81700504645E+02  0.43702514342E+02 -0.12542757635E+03  0.15593895962E+03  0.00000000000E+00 0. -1.
        -14    1    4    4    0    0  0.87447406760E+01 -0.16986690231E+02 -0.27166600703E+02  0.33212081059E+02  0.00000000000E+00 0.  1.
        -13    1    3    3    0    0  0.10748483484E+02  0.45902305373E+02 -0.53327708903E+02  0.71178620896E+02  0.00000000000E+00 0.  1.
         13    1    3    3    0    0  0.12062843023E+02 -0.42017442125E+02 -0.11643237007E+03  0.12436830153E+03  0.00000000000E+00 0. -1.
          2    1    1    2  501    0  0.50144437463E+02 -0.30600687359E+02  0.33120448000E+02  0.67437606356E+02  0.00000000000E+00 0. -1.
<scales pt_clust_5="13000.00000" pt_clust_6="13000.00000" pt_clust_7="13000.00000" pt_clust_8="13000.00000" pt_clust_9="13000.00000"></scales>
<clustering>
<clus scale="   80.355">  5  6 -1 -1</clus>
<clus scale="   58.744">  5  9 -1 -1</clus>
<clus scale="   94.259">  7  8 -1 -1</clus>
<clus scale="   97.057">  2  7  1 -1</clus>
<clus scale="  227.077">  1  5  2 -1</clus>
</clustering>
</event>
<event>
 9    1  0.2728138E-005  0.1322168E+03  0.7546771E-02  0.1239599E+00
         21   -1    0    0  501  502  0.00000000000E+00  0.00000000000E+00  0.10305430659E+03  0.10305430659E+03  0.00000000000E+00 0.  1.
          3   -1    0    0  502    0 -0.00000000000E+00 -0.00000000000E+00 -0.52501497168E+03  0.52501497168E+03  0.00000000000E+00 0. -1.
         23    2    1    2    0    0 -0.30192115288E+02  0.11976890361E+02  0.69738336020E+02  0.11890409801E+03  0.90662777838E+02 0.  0.
        -24    2    1    2    0    0  0.54105719653E+01  0.21170110684E+02 -0.40592286029E+03  0.41392655941E+03  0.78002437164E+02 0.  0.
         11    1    4    4    0    0 -0.85428781260E+01  0.47737155297E+02 -0.19816617326E+03  0.20401384508E+03  0.00000000000E+00 0. -1.
        -12    1    4    4    0    0  0.13953450091E+02 -0.26567044612E+02 -0.20775668704E+03  0.20991271433E+03  0.00000000000E+00 0.  1.
        -13    1    3    3    0    0 -0.24439432892E+02 -0.35973321769E+02  0.51191933927E+02  0.67171272567E+02  0.00000000000E+00 0.  1.
         13    1    3    3    0    0 -0.57526823957E+01  0.47950212130E+02  0.18546402094E+02  0.51732825447E+02  0.00000000000E+00 0. -1.
          4    1    1    2  501    0  0.24781543323E+02 -0.33147001046E+02 -0.85776140812E+02  0.95238620844E+02  0.00000000000E+00 0. -1.
<scales pt_clust_5="13000.00000" pt_clust_6="13000.00000" pt_clust_7="13000.00000" pt_clust_8="13000.00000" pt_clust_9="13000.00000"></scales>
<clustering>
<clus scale="   78.002">  5  6 -1 -1</clus>
<clus scale="   41.387">  5  9 -1 -1</clus>
<clus scale="   90.663">  7  8 -1 -1</clus>
<clus scale="   96.306">  2  7  1 -1</clus>
<clus scale="  132.217">  1  5  2 -1</clus>
</clustering>
</event>
<event>
 9    1  0.2728138E-005  0.1347112E+03  0.7546771E-02  0.1238517E+00
          1   -1    0    0  502    0 -0.00000000000E+00  0.00000000000E+00  0.19427425698E+03  0.19427425698E+03  0.00000000000E+00 0. -1.
         21   -1    0    0  501  502  0.00000000000E+00 -0.00000000000E+00 -0.69058997178E+02  0.69058997178E+02  0.00000000000E+00 0. -1.
         23    2    1    2    0    0 -0.79165735397E+00  0.15586469258E+02  0.27980084314E+02  0.97195368028E+02  0.91763226309E+02 0.  0.
        -24    2    1    2    0    0  0.31427667196E+02 -0.42084019813E+02  0.60452441656E+02  0.11142358459E+03  0.77472282219E+02 0.  0.
         11    1    4    4    0    0  0.50205022963E+02 -0.31871572355E+01  0.35095284709E+02  0.61338253242E+02  0.00000000000E+00 0. -1.
        -12    1    4    4    0    0 -0.18777355768E+02 -0.38896862578E+02  0.25357156947E+02  0.50085331350E+02  0.00000000000E+00 0.  1.
        -11    1    3    3    0    0 -0.66491039451E+01  0.42201374059E+02  0.47339778103E+02  0.63766928314E+02  0.00000000000E+00 0.  1.
         11    1    3    3    0    0  0.58574465911E+01 -0.26614904801E+02 -0.19359693789E+02  0.33428439715E+02  0.00000000000E+00 0. -1.
          2    1    1    2  501    0 -0.30636009842E+02  0.26497550555E+02  0.36782733831E+02  0.54714301536E+02  0.00000000000E+00 0. -1.
<scales pt_clust_5="13000.00000" pt_clust_6="13000.00000" pt_clust_7="13000.00000" pt_clust_8="13000.00000" pt_clust_9="13000.00000"></scales>
<clustering>
<clus scale="   77.472">  5  6 -1 -1</clus>
<clus scale="   40.505">  5  9 -1 -1</clus>
<clus scale="   91.763">  7  8 -1 -1</clus>
<clus scale="   93.081">  1  7  2 -1</clus>
<clus scale="  134.711">  2  5  1 -1</clus>
</clustering>
</event>
<event>
 9    1  0.2728138E-005  0.2559331E+03  0.7546771E-02  0.1146097E+00
         21   -1    0    0  501  502  0.00000000000E+00  0.00000000000E+00  0.85663418744E+02  0.85663418744E+02  0.00000000000E+00 0. -1.
          1   -1    0    0  502    0 -0.00000000000E+00 -0.00000000000E+00 -0.39243592331E+03  0.39243592331E+03  0.00000000000E+00 0. -1.
         23    2    1    2    0    0  0.27811821416E+01 -0.50069628577E+02 -0.13239942914E+03  0.16840960498E+03  0.91200238674E+02 0.  0.
        -24    2    1    2    0    0 -0.40703868829E+02 -0.78588959167E+02 -0.83197016414E+02  0.14750392973E+03  0.83681756105E+02 0.  0.
         13    1    4    4    0    0 -0.35524501184E+02 -0.88350193408E+02 -0.40637649170E+02  0.10353340229E+03  0.00000000000E+00 0. -1.
        -14    1    4    4    0    0 -0.51793676445E+01  0.97612342411E+01 -0.42559367244E+02  0.43970527440E+02  0.00000000000E+00 0.  1.
        -11    1    3    3    0    0 -0.10836048310E+02 -0.68999325283E+02 -0.59111554946E+02  0.91501381195E+02  0.00000000000E+00 0. -1.
         11    1    3    3    0    0  0.13617230451E+02  0.18929696705E+02 -0.73287874191E+02  0.76908223786E+02  0.00000000000E+00 0.  1.
          2    1    1    2  501    0  0.37922686687E+02  0.12865858774E+03 -0.91176059012E+02  0.16218580734E+03  0.00000000000E+00 0. -1.
<scales pt_clust_5="13000.00000" pt_clust_6="13000.00000" pt_clust_7="13000.00000" pt_clust_8="13000.00000" pt_clust_9="13000.00000"></scales>
<clustering>
<clus scale="   83.682">  5  6 -1 -1</clus>
<clus scale="   91.200">  7  8 -1 -1</clus>
<clus scale="  104.078">  2  7  1 -1</clus>
<clus scale="  109.759">  5  9 -1 -1</clus>
<clus scale="  255.933">  1  5  2 -1</clus>
</clustering>
</event>
<event>
 9    1  0.2728138E-005  0.3100676E+03  0.7546771E-02  0.1109948E+00
         21   -1    0    0  501  502  0.00000000000E+00  0.00000000000E+00  0.28497482370E+03  0.28497482370E+03  0.00000000000E+00 0. -1.
          1   -1    0    0  502    0 -0.00000000000E+00 -0.00000000000E+00 -0.20371074528E+03  0.20371074528E+03  0.00000000000E+00 0. -1.
         23    2    1    2    0    0  0.10044880040E+03  0.45141508581E+02 -0.51066366413E+02  0.15156055951E+03  0.90747518537E+02 0.  0.
        -24    2    1    2    0    0  0.78883779980E+02  0.26339995915E+02  0.36192187394E+02  0.12145780191E+03  0.80781663060E+02 0.  0.
         13    1    4    4    0    0  0.70431408031E+02  0.15178890064E+01  0.54844017852E+02  0.89279076599E+02  0.00000000000E+00 0. -1.
        -14    1    4    4    0    0  0.84523719487E+01  0.24822106909E+02 -0.18651830457E+02  0.32178725307E+02  0.00000000000E+00 0.  1.
        -13    1    3    3    0    0  0.64154804347E+02  0.72778830545E+02 -0.32658800966E+02  0.10236793627E+03  0.00000000000E+00 0. -1.
         13    1    3    3    0    0  0.36293996057E+02 -0.27637321965E+02 -0.18407565447E+02  0.49192623236E+02  0.00000000000E+00 0.  1.
          2    1    1    2  501    0 -0.17933258038E+03 -0.71481504496E+02  0.96138257440E+02  0.21566720756E+03  0.00000000000E+00 0. -1.
<scales pt_clust_5="13000.00000" pt_clust_6="13000.00000" pt_clust_7="13000.00000" pt_clust_8="13000.00000" pt_clust_9="13000.00000"></scales>
<clustering>
<clus scale="   80.782">  5  6 -1 -1</clus>
<clus scale="   90.748">  7  8 -1 -1</clus>
<clus scale="  142.698">  2  7  1 -1</clus>
<clus scale="  128.868">  5  9 -1 -1</clus>
<clus scale="  310.068">  1  5  2 -1</clus>
</clustering>
</event>
<event>
 9    1  0.2728138E-005  0.6630968E+03  0.7546771E-02  0.1020616E+00
          1   -1    0    0  502    0 -0.00000000000E+00  0.00000000000E+00  0.46970183171E+03  0.46970183171E+03  0.00000000000E+00 0. -1.
         21   -1    0    0  501  502  0.00000000000E+00 -0.00000000000E+00 -0.37968715320E+03  0.37968715320E+03  0.00000000000E+00 0.  1.
         23    2    1    2    0    0 -0.72887159820E+02 -0.10767053425E+03  0.64987509699E+02  0.18582004025E+03  0.11575935785E+03 0.  0.
        -24    2    1    2    0    0 -0.24194009989E+03 -0.11202363240E+03  0.34181445430E+01  0.27905798220E+03  0.82324768831E+02 0.  0.
         11    1    4    4    0    0 -0.21827392141E+02  0.90298954543E+01  0.14309665952E+02  0.27617758766E+02  0.00000000000E+00 0. -1.
        -12    1    4    4    0    0 -0.22011270775E+03 -0.12105352786E+03 -0.10891521409E+02  0.25144022343E+03  0.00000000000E+00 0.  1.
        -11    1    3    3    0    0 -0.13007137272E+02 -0.10719404457E+03  0.17489163184E+02  0.10938747478E+03  0.00000000000E+00 0.  1.
         11    1    3    3    0    0 -0.59880022548E+02 -0.47648968718E+00  0.47498346515E+02  0.76432565471E+02  0.00000000000E+00 0. -1.
          2    1    1    2  501    0  0.31482725971E+03  0.21969416666E+03  0.21609024277E+02  0.38451096246E+03  0.00000000000E+00 0. -1.
<scales pt_clust_5="13000.00000" pt_clust_6="13000.00000" pt_clust_7="13000.00000" pt_clust_8="13000.00000" pt_clust_9="13000.00000"></scales>
<clustering>
<clus scale="   82.325">  5  6 -1 -1</clus>
<clus scale="  115.759">  7  8 -1 -1</clus>
<clus scale="  174.085">  1  7  2 -1</clus>
<clus scale="  313.517">  5  9 -1 -1</clus>
<clus scale="  663.097">  2  5  1 -1</clus>
</clustering>
</event>
<event>
 9    1  0.2728138E-005  0.1856297E+03  0.7546771E-02  0.1191621E+00
          3   -1    0    0  502    0 -0.00000000000E+00  0.00000000000E+00  0.64057309176E+03  0.64057309176E+03  0.00000000000E+00 0. -1.
         21   -1    0    0  501  502  0.00000000000E+00 -0.00000000000E+00 -0.31614282855E+02  0.31614282855E+02  0.00000000000E+00 0. -1.
         23    2    1    2    0    0 -0.57894892606E+01 -0.27703062568E+02  0.25534269550E+03  0.27280942464E+03  0.91782962285E+02 0.  0.
        -24    2    1    2    0    0  0.59149688142E+02 -0.30819959449E+02  0.16992379604E+03  0.19934014758E+03  0.80086468685E+02 0.  0.
         11    1    4    4    0    0  0.77304688625E+02 -0.25400909472E+02  0.11229881098E+03  0.13868036643E+03  0.00000000000E+00 0. -1.
        -12    1    4    4    0    0 -0.18155000484E+02 -0.54190499773E+01  0.57624985068E+02  0.60659781151E+02  0.00000000000E+00 0.  1.
        -13    1    3    3    0    0 -0.38026006288E+02 -0.40207464256E+02  0.20032558534E+03  0.20782915454E+03  0.00000000000E+00 0. -1.
         13    1    3    3    0    0  0.32236517027E+02  0.12504401688E+02  0.55017110159E+02  0.64980270097E+02  0.00000000000E+00 0.  1.
          4    1    1    2  501    0 -0.53360198881E+02  0.58523022017E+02  0.18369231737E+03  0.20003780240E+03  0.00000000000E+00 0. -1.
<scales pt_clust_5="13000.00000" pt_clust_6="13000.00000" pt_clust_7="13000.00000" pt_clust_8="13000.00000" pt_clust_9="13000.00000"></scales>
<clustering>
<clus scale="   80.086">  5  6 -1 -1</clus>
<clus scale="   79.198">  5  9 -1 -1</clus>
<clus scale="   91.783">  7  8 -1 -1</clus>
<clus scale="   96.047">  1  7  2 -1</clus>
<clus scale="  185.630">  2  5  1 -1</clus>
</clustering>
</event>
<event>
 9    1  0.2728138E-005  0.8320129E+03  0.7546771E-02  0.9893195E-01
         21   -1    0    0  501  502  0.00000000000E+00  0.00000000000E+00  0.13586614899E+04  0.13586614899E+04  0.00000000000E+00 0. -1.
         -2   -1    0    0    0  501 -0.00000000000E+00 -0.00000000000E+00 -0.34188788042E+03  0.34188788042E+03  0.00000000000E+00 0.  1.
         23    2    1    2    0    0 -0.92974150112E+02  0.19573220864E+03 -0.14220377419E+03  0.27384898662E+03  0.88408506302E+02 0.  0.
        -24    2    1    2    0    0  0.23651043006E+03  0.16433568342E+03  0.92913098990E+03  0.97605538453E+03  0.80351209787E+02 0.  0.
         11    1    4    4    0    0  0.18819225968E+03  0.13976060816E+03  0.63313593797E+03  0.67513737131E+03  0.00000000000E+00 0. -1.
        -12    1    4    4    0    0  0.48318170377E+02  0.24575075259E+02  0.29599505193E+03  0.30091801322E+03  0.00000000000E+00 0.  1.
        -11    1    3    3    0    0 -0.33074468154E+02  0.11935398921E+03 -0.12368150678E+03  0.17503259783E+03  0.00000000000E+00 0.  1.
         11    1    3    3    0    0 -0.59899681958E+02  0.76378219434E+02 -0.18522267413E+02  0.98816388786E+02  0.00000000000E+00 0. -1.
         -1    1    1    2    0  502 -0.14353627995E+03 -0.36006789206E+03  0.22984639380E+03  0.45064499919E+03  0.00000000000E+00 0.  1.
<scales pt_clust_5="13000.00000" pt_clust_6="13000.00000" pt_clust_7="13000.00000" pt_clust_8="13000.00000" pt_clust_9="13000.00000"></scales>
<clustering>
<clus scale="   80.351">  5  6 -1 -1</clus>
<clus scale="   88.409">  7  8 -1 -1</clus>
<clus scale="  234.033">  2  7  1 -1</clus>
<clus scale="  296.569">  5  9 -1 -1</clus>
<clus scale="  832.013">  1  5  2 -1</clus>
</clustering>
</event>
<event>
 9    1  0.2728138E-005  0.3781629E+03  0.7546771E-02  0.1066699E+00
         21   -1    0    0  501  502  0.00000000000E+00  0.00000000000E+00  0.24057818929E+03  0.24057818929E+03  0.00000000000E+00 0. -1.
          1   -1    0    0  502    0 -0.00000000000E+00 -0.00000000000E+00 -0.53498586151E+03  0.53498586151E+03  0.00000000000E+00 0. -1.
         23    2    1    2    0    0  0.22731745024E+03  0.49771325149E+02 -0.31028009041E+03  0.39706815826E+03  0.85082194438E+02 0.  0.
        -24    2    1    2    0    0  0.18620235580E+02 -0.34078718780E+02  0.83318888989E+02  0.12299514963E+03  0.81717178870E+02 0.  0.
         13    1    4    4    0    0  0.15990927998E+02 -0.58801823519E+02  0.75306838199E+02  0.96873546992E+02  0.00000000000E+00 0. -1.
        -14    1    4    4    0    0  0.26293075818E+01  0.24723104739E+02  0.80120507901E+01  0.26121602634E+02  0.00000000000E+00 0.  1.
        -11    1    3    3    0    0  0.54270115824E+01  0.23679173170E+02 -0.27964520503E+02  0.37042814468E+02  0.00000000000E+00 0.  1.
         11    1    3    3    0    0  0.22189043866E+03  0.26092151979E+02 -0.28231556991E+03  0.36002534380E+03  0.00000000000E+00 0. -1.
          2    1    1    2  501    0 -0.24593768582E+03 -0.15692606369E+02 -0.67446470800E+02  0.25550074290E+03  0.00000000000E+00 0. -1.
<scales pt_clust_5="13000.00000" pt_clust_6="13000.00000" pt_clust_7="13000.00000" pt_clust_8="13000.00000" pt_clust_9="13000.00000"></scales>
<clustering>
<clus scale="   81.717">  5  6 -1 -1</clus>
<clus scale="   85.082">  7  8 -1 -1</clus>
<clus scale="  246.438">  5  9 -1 -1</clus>
<clus scale="  247.769">  2  7  1 -1</clus>
<clus scale="  378.163">  1  5  2 -1</clus>
</clustering>
</event>
<event>
 9    1  0.2728138E-005  0.1584712E+03  0.7546771E-02  0.1207752E+00
         21   -1    0    0  501  502  0.00000000000E+00  0.00000000000E+00  0.31781957332E+03  0.31781957332E+03  0.00000000000E+00 0. -1.
          1   -1    0    0  502    0 -0.00000000000E+00 -0.00000000000E+00 -0.59469892980E+02  0.59469892980E+02  0.00000000000E+00 0. -1.
         23    2    1    2    0    0 -0.75976284209E+01  0.55270151580E+02  0.15023686841E+03  0.18545228116E+03  0.93321585639E+02 0.  0.
        -24    2    1    2    0    0 -0.18824946461E+02 -0.84752907784E+01  0.15338497279E+02  0.84622517670E+02  0.80619425915E+02 0.  0.
         11    1    4    4    0    0 -0.50483052886E+02 -0.28118318614E+00  0.10516157295E+02  0.51567501945E+02  0.00000000000E+00 0. -1.
        -12    1    4    4    0    0  0.31658106424E+02 -0.81941075922E+01  0.48223399833E+01  0.33055015724E+02  0.00000000000E+00 0.  1.
        -11    1    3    3    0    0  0.38552156950E+02  0.25450229458E+01  0.55141105867E+02  0.67329692585E+02  0.00000000000E+00 0.  1.
         11    1    3    3    0    0 -0.46149785371E+02  0.52725128634E+02  0.95095762538E+02  0.11812258858E+03  0.00000000000E+00 0. -1.
          2    1    1    2  501    0  0.26422574882E+02 -0.46794860802E+02  0.92774314658E+02  0.10721466747E+03  0.00000000000E+00 0. -1.
<scales pt_clust_5="13000.00000" pt_clust_6="13000.00000" pt_clust_7="13000.00000" pt_clust_8="13000.00000" pt_clust_9="13000.00000"></scales>
<clustering>
<clus scale="   80.619">  5  6 -1 -1</clus>
<clus scale="   53.739">  5  9 -1 -1</clus>
<clus scale="   93.322">  7  8 -1 -1</clus>
<clus scale="  108.726">  2  7  1 -1</clus>
<clus scale="  158.471">  1  5  2 -1</clus>
</clustering>
</event>
<event>
 9    1  0.2728138E-005  0.3466035E+03  0.7546771E-02  0.1102461E+00
         21   -1    0    0  501  502  0.00000000000E+00  0.00000000000E+00  0.18049401725E+03  0.18049401725E+03  0.00000000000E+00 0. -1.
          1   -1    0    0  502    0 -0.00000000000E+00 -0.00000000000E+00 -0.36446319514E+03  0.36446319514E+03  0.00000000000E+00 0. -1.
         23    2    1    2    0    0  0.79481699846E+02  0.28094018715E+02 -0.15323847179E+03  0.19699402978E+03  0.90653207524E+02 0.  0.
        -24    2    1    2    0    0 -0.33512164481E+02  0.82606338552E+02 -0.14131132440E+03  0.18488087080E+03  0.79152849888E+02 0.  0.
         11    1    4    4    0    0 -0.36528408517E+02  0.90162733119E+02 -0.88713895292E+02  0.13165788351E+03  0.00000000000E+00 0. -1.
        -12    1    4    4    0    0  0.30162440358E+01 -0.75563945669E+01 -0.52597429108E+02  0.53222987287E+02  0.00000000000E+00 0.  1.
        -11    1    3    3    0    0  0.10662700827E+02  0.23120660321E+02 -0.11565348475E+03  0.11842291441E+03  0.00000000000E+00 0. -1.
         11    1    3    3    0    0  0.68818999019E+02  0.49733583936E+01 -0.37584987042E+02  0.78571115371E+02  0.00000000000E+00 0.  1.
          2    1    1    2  501    0 -0.45969535365E+02 -0.11070035727E+03  0.11058061831E+03  0.16308231181E+03  0.00000000000E+00 0. -1.
<scales pt_clust_5="13000.00000" pt_clust_6="13000.00000" pt_clust_7="13000.00000" pt_clust_8="13000.00000" pt_clust_9="13000.00000"></scales>
<clustering>
<clus scale="   79.153">  5  6 -1 -1</clus>
<clus scale="   90.653">  7  8 -1 -1</clus>
<clus scale="  119.866">  5  9 -1 -1</clus>
<clus scale="  123.793">  2  7  1 -1</clus>
<clus scale="  346.604">  1  5  2 -1</clus>
</clustering>
</event>
<event>
 9    1  0.2728138E-005  0.1644578E+03  0.7546771E-02  0.1210613E+00
          1   -1    0    0  502    0 -0.00000000000E+00  0.00000000000E+00  0.56949908522E+03  0.56949908522E+03  0.00000000000E+00 0. -1.
         21   -1    0    0  501  502  0.00000000000E+00 -0.00000000000E+00 -0.54777494071E+02  0.54777494071E+02  0.00000000000E+00 0. -1.
         23    2    1    2    0    0 -0.18314540228E+01 -0.18987472873E+02  0.42932572946E+03  0.43896919725E+03  0.89495786518E+02 0.  0.
        -24    2    1    2    0    0  0.50400928545E+02 -0.26222496926E+02  0.49629935435E+02  0.10992743308E+03  0.79956470094E+02 0.  0.
         13    1    4    4    0    0  0.28568094013E+02 -0.33595171003E+02 -0.10671920007E+02  0.45372473890E+02  0.00000000000E+00 0. -1.
        -14    1    4    4    0    0  0.21832834532E+02  0.73726740769E+01  0.60301855443E+02  0.64554959194E+02  0.00000000000E+00 0.  1.
        -11    1    3    3    0    0  0.22665316452E+02 -0.46384814519E+02  0.30450265469E+03  0.30884807641E+03  0.00000000000E+00 0. -1.
         11    1    3    3    0    0 -0.24496770475E+02  0.27397341647E+02  0.12482307478E+03  0.13012112084E+03  0.00000000000E+00 0.  1.
          2    1    1    2  501    0 -0.48569474522E+02  0.45209969798E+02  0.35765926252E+02  0.75379948960E+02  0.00000000000E+00 0. -1.
<scales pt_clust_5="13000.00000" pt_clust_6="13000.00000" pt_clust_7="13000.00000" pt_clust_8="13000.00000" pt_clust_9="13000.00000"></scales>
<clustering>
<clus scale="   79.956">  5  6 -1 -1</clus>
<clus scale="   66.355">  5  9 -1 -1</clus>
<clus scale="   89.496">  7  8 -1 -1</clus>
<clus scale="   91.506">  1  7  2 -1</clus>
<clus scale="  164.458">  2  5  1 -1</clus>
</clustering>
</event>
<event>
 9    1  0.2728138E-005  0.2018280E+03  0.7546771E-02  0.1180937E+00
          1   -1    0    0  502    0 -0.00000000000E+00  0.00000000000E+00  0.31493012724E+03  0.31493012724E+03  0.00000000000E+00 0. -1.
         21   -1    0    0  501  502  0.00000000000E+00 -0.00000000000E+00 -0.84587164476E+02  0.84587164476E+02  0.00000000000E+00 0. -1.
         23    2    1    2    0    0  0.19823086570E+02 -0.10668513046E+02  0.15966611965E+03  0.18567210108E+03  0.92054806625E+02 0.  0.
        -24    2    1    2    0    0 -0.61701808286E+02 -0.19559672338E+02  0.10804911133E+03  0.15009366552E+03  0.81632126281E+02 0.  0.
         13    1    4    4    0    0 -0.44342931618E+02 -0.15860101063E+02  0.71358857921E+01  0.47631494374E+02  0.00000000000E+00 0. -1.
        -14    1    4    4    0    0 -0.17358876667E+02 -0.36995712742E+01  0.10091322554E+03  0.10246217114E+03  0.00000000000E+00 0.  1.
        -11    1    3    3    0    0  0.33225317805E+02 -0.44062884193E+02  0.12020850462E+03  0.13227072272E+03  0.00000000000E+00 0. -1.
         11    1    3    3    0    0 -0.13402231235E+02  0.33394371147E+02  0.39457615033E+02  0.53401378358E+02  0.00000000000E+00 0.  1.
          2    1    1    2  501    0  0.41878721715E+02  0.30228185383E+02 -0.37372268214E+02  0.63751525123E+02  0.00000000000E+00 0. -1.
<scales pt_clust_5="13000.00000" pt_clust_6="13000.00000" pt_clust_7="13000.00000" pt_clust_8="13000.00000" pt_clust_9="13000.00000"></scales>
<clustering>
<clus scale="   81.632">  5  6 -1 -1</clus>
<clus scale="   51.649">  5  9 -1 -1</clus>
<clus scale="   92.055">  7  8 -1 -1</clus>
<clus scale="   94.767">  1  7  2 -1</clus>
<clus scale="  201.828">  2  5  1 -1</clus>
</clustering>
</event>
<event>
 9    1  0.2728138E-005  0.1750851E+03  0.7546771E-02  0.1198319E+00
          1   -1    0    0  502    0 -0.00000000000E+00  0.00000000000E+00  0.73382276977E+03  0.73382276977E+03  0.00000000000E+00 0. -1.
         21   -1    0    0  501  502  0.00000000000E+00 -0.00000000000E+00 -0.32352852672E+02  0.32352852672E+02  0.00000000000E+00 0. -1.
         23    2    1    2    0    0  0.34575999265E+02 -0.19055962761E+02  0.44363123357E+03  0.45450982419E+03  0.90619420870E+02 0.  0.
        -24    2    1    2    0    0 -0.64772799386E+02  0.53178146965E+02  0.22835526522E+03  0.25739387045E+03  0.84154896103E+02 0.  0.
         11    1    4    4    0    0 -0.73463607495E+02  0.68929921159E+02  0.19137445775E+03  0.21626931992E+03  0.00000000000E+00 0. -1.
        -12    1    4    4    0    0  0.86908081088E+01 -0.15751774195E+02  0.36980807469E+02  0.41124550537E+02  0.00000000000E+00 0.  1.
        -13    1    3    3    0    0 -0.23744356099E+02  0.17534968529E+02  0.15449901752E+03  0.15729340731E+03  0.00000000000E+00 0. -1.
         13    1    3    3    0    0  0.58320355365E+02 -0.36590931290E+02  0.28913221605E+03  0.29721641688E+03  0.00000000000E+00 0.  1.
          2    1    1    2  501    0  0.30196800121E+02 -0.34122184204E+02  0.29483418306E+02  0.54271927803E+02  0.00000000000E+00 0. -1.
<scales pt_clust_5="13000.00000" pt_clust_6="13000.00000" pt_clust_7="13000.00000" pt_clust_8="13000.00000" pt_clust_9="13000.00000"></scales>
<clustering>
<clus scale="   84.155">  5  6 -1 -1</clus>
<clus scale="   45.565">  5  9 -1 -1</clus>
<clus scale="   90.619">  7  8 -1 -1</clus>
<clus scale="   98.846">  1  7  2 -1</clus>
<clus scale="  175.085">  2  5  1 -1</clus>
</clustering>
</event>
<event>
 9    1  0.2728138E-005  0.2385673E+03  0.7546771E-02  0.1151108E+00
         -2   -1    0    0    0  501 -0.00000000000E+00  0.00000000000E+00  0.58269825934E+02  0.58269825934E+02  0.00000000000E+00 0.  1.
         21   -1    0    0  501  502  0.00000000000E+00 -0.00000000000E+00 -0.58634218332E+03  0.58634218332E+03  0.00000000000E+00 0.  1.
         23    2    1    2    0    0  0.37928124479E+02 -0.58178155725E+02 -0.88158453710E+02  0.14417361689E+03  0.90503471845E+02 0.  0.
        -24    2    1    2    0    0 -0.75651819563E+02 -0.44296756587E+02 -0.15661030857E+03  0.19681838014E+03  0.80779239681E+02 0.  0.
         11    1    4    4    0    0 -0.13453455835E+02  0.23517541795E+02 -0.39008707105E+02  0.47494731034E+02  0.00000000000E+00 0. -1.
        -12    1    4    4    0    0 -0.62198363727E+02 -0.67814298382E+02 -0.11760160147E+03  0.14932364911E+03  0.00000000000E+00 0.  1.
        -11    1    3    3    0    0  0.45631630302E+02 -0.17856649189E+02 -0.90651101915E+02  0.10304721191E+03  0.00000000000E+00 0.  1.
         11    1    3    3    0    0 -0.77035058227E+01 -0.40321506535E+02  0.24926482048E+01  0.41126404977E+02  0.00000000000E+00 0. -1.
         -1    1    1    2    0  502  0.37723695084E+02  0.10247491231E+03 -0.28330359510E+03  0.30362001222E+03  0.00000000000E+00 0.  1.
<scales pt_clust_5="13000.00000" pt_clust_6="13000.00000" pt_clust_7="13000.00000" pt_clust_8="13000.00000" pt_clust_9="13000.00000"></scales>
<clustering>
<clus scale="   80.779">  5  6 -1 -1</clus>
<clus scale="   90.503">  7  8 -1 -1</clus>
<clus scale="  109.198">  5  9 -1 -1</clus>
<clus scale="  114.079">  1  7  2 -1</clus>
<clus scale="  238.567">  2  5  1 -1</clus>
</clustering>
</event>
<event>
 9    1  0.2728138E-005  0.4412573E+03  0.7546771E-02  0.1074577E+00
         21   -1    0    0  501  502  0.00000000000E+00  0.00000000000E+00  0.23330279112E+03  0.23330279112E+03  0.00000000000E+00 0. -1.
          1   -1    0    0  502    0 -0.00000000000E+00 -0.00000000000E+00 -0.36459278601E+03  0.36459278601E+03  0.00000000000E+00 0. -1.
         23    2    1    2    0    0  0.65224878360E+01  0.80396594463E+02 -0.90303333610E+02  0.15473879356E+03  0.96349607797E+02 0.  0.
        -24    2    1    2    0    0 -0.19243301184E+03  0.27552751022E+02  0.38761742599E+02  0.21386310278E+03  0.80282849397E+02 0.  0.
         13    1    4    4    0    0 -0.16279955698E+03  0.52901449808E+02  0.34650632736E+02  0.17465086743E+03  0.00000000000E+00 0. -1.
        -14    1    4    4    0    0 -0.29633454864E+02 -0.25348698786E+02  0.41111098632E+01  0.39212235357E+02  0.00000000000E+00 0.  1.
        -13    1    3    3    0    0  0.22484767112E+02  0.92980573452E+02 -0.93958829593E+02  0.13408658937E+03  0.00000000000E+00 0.  1.
         13    1    3    3    0    0 -0.15962279276E+02 -0.12583978989E+02  0.36554959827E+01  0.20652204186E+02  0.00000000000E+00 0. -1.
          2    1    1    2  501    0  0.18591052401E+03 -0.10794934548E+03 -0.79748403879E+02  0.22929368079E+03  0.00000000000E+00 0. -1.
<scales pt_clust_5="13000.00000" pt_clust_6="13000.00000" pt_clust_7="13000.00000" pt_clust_8="13000.00000" pt_clust_9="13000.00000"></scales>
<clustering>
<clus scale="   80.283">  5  6 -1 -1</clus>
<clus scale="   96.350">  7  8 -1 -1</clus>
<clus scale="  125.656">  2  7  1 -1</clus>
<clus scale="  198.331">  5  9 -1 -1</clus>
<clus scale="  441.257">  1  5  2 -1</clus>
</clustering>
</event>
<event>
 9    1  0.2728138E-005  0.3813629E+03  0.7546771E-02  0.1073436E+00
         21   -1    0    0  501  502  0.00000000000E+00  0.00000000000E+00  0.53511465860E+03  0.53511465860E+03  0.00000000000E+00 0.  1.
         -2   -1    0    0    0  501 -0.00000000000E+00 -0.00000000000E+00 -0.15869006015E+03  0.15869006015E+03  0.00000000000E+00 0.  1.
         23    2    1    2    0    0 -0.14194568562E+03 -0.10910794807E+03  0.11432257739E+03  0.23105737442E+03  0.90910596596E+02 0.  0.
        -24    2    1    2    0    0 -0.49399916025E+02  0.59215779735E+01 -0.29653128196E+02  0.98904475273E+02  0.80170882671E+02 0.  0.
         11    1    4    4    0    0 -0.48342148970E+02  0.37280453365E+02 -0.28840651252E+02  0.67517247684E+02  0.00000000000E+00 0. -1.
        -12    1    4    4    0    0 -0.10577670551E+01 -0.31358875391E+02 -0.81247694464E+00  0.31387227589E+02  0.00000000000E+00 0.  1.
        -13    1    3    3    0    0 -0.45617670791E+02 -0.74160461166E+01  0.70483841763E+02  0.84284883449E+02  0.00000000000E+00 0. -1.
         13    1    3    3    0    0 -0.96328014828E+02 -0.10169190196E+03  0.43838735631E+02  0.14677249097E+03  0.00000000000E+00 0.  1.
         -1    1    1    2    0  502  0.19134560164E+03  0.10318637010E+03  0.29175514926E+03  0.36384286905E+03  0.00000000000E+00 0.  1.
<scales pt_clust_5="13000.00000" pt_clust_6="13000.00000" pt_clust_7="13000.00000" pt_clust_8="13000.00000" pt_clust_9="13000.00000"></scales>
<clustering>
<clus scale="   80.171">  5  6 -1 -1</clus>
<clus scale="   90.911">  7  8 -1 -1</clus>
<clus scale="  200.793">  2  7  1 -1</clus>
<clus scale="  154.245">  5  9 -1 -1</clus>
<clus scale="  381.363">  1  5  2 -1</clus>
</clustering>
</event>
<event>
 9    1  0.2728138E-005  0.3476271E+03  0.7546771E-02  0.1093489E+00
          1   -1    0    0  502    0 -0.00000000000E+00  0.00000000000E+00  0.33712538101E+03  0.33712538101E+03  0.00000000000E+00 0. -1.
         21   -1    0    0  501  502  0.00000000000E+00 -0.00000000000E+00 -0.19323517511E+03  0.19323517511E+03  0.00000000000E+00 0. -1.
         23    2    1    2    0    0  0.72791031728E+01  0.95480449978E+02  0.88085385982E+02  0.17828278929E+03  0.12188607822E+03 0.  0.
        -24    2    1    2    0    0  0.13114841172E+02  0.11015038206E+03  0.49156641872E+02  0.14533118204E+03  0.79997945629E+02 0.  0.
         11    1    4    4    0    0 -0.20398769008E+01  0.11356963458E+03  0.57911103290E+02  0.12749870149E+03  0.00000000000E+00 0. -1.
        -12    1    4    4    0    0  0.15154718072E+02 -0.34192525244E+01 -0.87544614187E+01  0.17832480546E+02  0.00000000000E+00 0.  1.
        -13    1    3    3    0    0  0.33485543498E+02  0.86001723781E+02  0.70157450643E+01  0.92557002952E+02  0.00000000000E+00 0. -1.
         13    1    3    3    0    0 -0.26206440325E+02  0.94787261966E+01  0.81069640918E+02  0.85725786339E+02  0.00000000000E+00 0.  1.
          2    1    1    2  501    0 -0.20393944344E+02 -0.20563083204E+03  0.66481780497E+01  0.20674658479E+03  0.00000000000E+00 0. -1.
<scales pt_clust_5="13000.00000" pt_clust_6="13000.00000" pt_clust_7="13000.00000" pt_clust_8="13000.00000" pt_clust_9="13000.00000"></scales>
<clustering>
<clus scale="   79.998">  5  6 -1 -1</clus>
<clus scale="  121.886">  7  8 -1 -1</clus>
<clus scale="  155.002">  1  7  2 -1</clus>
<clus scale="  156.559">  5  9 -1 -1</clus>
<clus scale="  347.627">  2  5  1 -1</clus>
</clustering>
</event>
<event>
 9    1  0.2728138E-005  0.1456090E+03  0.7546771E-02  0.1224240E+00
         21   -1    0    0  501  502  0.00000000000E+00  0.00000000000E+00  0.22034441483E+03  0.22034441483E+03  0.00000000000E+00 0.  1.
          1   -1    0    0  502    0 -0.00000000000E+00 -0.00000000000E+00 -0.77203166831E+02  0.77203166831E+02  0.00000000000E+00 0. -1.
         23    2    1    2    0    0  0.43577939235E+02 -0.76827424580E+01  0.85791874765E+01  0.99282759084E+02  0.88461304952E+02 0.  0.
        -24    2    1    2    0    0 -0.36853683205E+01 -0.27542059211E+02  0.11522991118E+03  0.14164383827E+03  0.77542875379E+02 0.  0.
         13    1    4    4    0    0  0.28645355602E+02  0.88750738697E+01  0.24716200892E+02  0.38861470897E+02  0.00000000000E+00 0. -1.
        -14    1    4    4    0    0 -0.32330723922E+02 -0.36417133080E+02  0.90513710292E+02  0.10278236737E+03  0.00000000000E+00 0.  1.
        -11    1    3    3    0    0  0.14159097712E+02 -0.45793788633E+02 -0.75168031006E+01  0.48518588749E+02  0.00000000000E+00 0.  1.
         11    1    3    3    0    0  0.29418841523E+02  0.38111046175E+02  0.16095990577E+02  0.50764170334E+02  0.00000000000E+00 0. -1.
          2    1    1    2  501    0 -0.39892570914E+02  0.35224801669E+02  0.19332149343E+02  0.56620984316E+02  0.00000000000E+00 0. -1.
<scales pt_clust_5="13000.00000" pt_clust_6="13000.00000" pt_clust_7="13000.00000" pt_clust_8="13000.00000" pt_clust_9="13000.00000"></scales>
<clustering>
<clus scale="   77.543">  5  6 -1 -1</clus>
<clus scale="   53.218">  5  9 -1 -1</clus>
<clus scale="   88.461">  7  8 -1 -1</clus>
<clus scale="   98.911">  2  7  1 -1</clus>
<clus scale="  145.609">  1  5  2 -1</clus>
</clustering>
</event>
<event>
 9    1  0.2728138E-005  0.4578421E+03  0.7546771E-02  0.1072658E+00
          1   -1    0    0  502    0 -0.00000000000E+00  0.00000000000E+00  0.70990094539E+03  0.70990094539E+03  0.00000000000E+00 0. -1.
         21   -1    0    0  501  502  0.00000000000E+00 -0.00000000000E+00 -0.11929700584E+03  0.11929700584E+03  0.00000000000E+00 0. -1.
         23    2    1    2    0    0 -0.56352107805E+02  0.52117909414E+02  0.17165065896E+03  0.20860044337E+03  0.90323638741E+02 0.  0.
        -24    2    1    2    0    0 -0.38120382331E+02  0.15595018403E+03  0.49964116954E+02  0.18658093470E+03  0.80885157868E+02 0.  0.
         13    1    4    4    0    0 -0.67641494032E+01  0.14358598757E+03  0.28274998420E+02  0.14649971016E+03  0.00000000000E+00 0. -1.
        -14    1    4    4    0    0 -0.31356232927E+02  0.12364196462E+02  0.21689118534E+02  0.40081224536E+02  0.00000000000E+00 0.  1.
        -11    1    3    3    0    0  0.31268872711E+01 -0.20803256032E+02  0.53949809831E+02  0.57906259302E+02  0.00000000000E+00 0. -1.
         11    1    3    3    0    0 -0.59478995076E+02  0.72921165445E+02  0.11770084913E+03  0.15069418407E+03  0.00000000000E+00 0.  1.
          2    1    1    2  501    0  0.94472490136E+02 -0.20806809344E+03  0.36898916363E+03  0.43401657316E+03  0.00000000000E+00 0. -1.
<scales pt_clust_5="13000.00000" pt_clust_6="13000.00000" pt_clust_7="13000.00000" pt_clust_8="13000.00000" pt_clust_9="13000.00000"></scales>
<clustering>
<clus scale="   80.885">  5  6 -1 -1</clus>
<clus scale="   90.324">  7  8 -1 -1</clus>
<clus scale="  118.534">  1  7  2 -1</clus>
<clus scale="  175.372">  5  9 -1 -1</clus>
<clus scale="  457.842">  2  5  1 -1</clus>
</clustering>
</event>
<event>
 9    1  0.2728138E-005  0.1471608E+03  0.7546771E-02  0.1218631E+00
         -4   -1    0    0    0  501 -0.00000000000E+00  0.00000000000E+00  0.16598455269E+03  0.16598455269E+03  0.00000000000E+00 0.  1.
         21   -1    0    0  501  502  0.00000000000E+00 -0.00000000000E+00 -0.11592903561E+03  0.11592903561E+03  0.00000000000E+00 0.  1.
         23    2    1    2    0    0 -0.51910314887E+02 -0.18335934671E+02 -0.33294559441E+02  0.11278782320E+03  0.92637347117E+02 0.  0.
        -24    2    1    2    0    0 -0.28162752085E+02  0.64606752468E+01  0.53536264330E+02  0.82861164959E+02  0.56257978370E+02 0.  0.
         11    1    4    4    0    0 -0.65295056219E+01  0.30331856657E+02  0.26612096159E+02  0.40876149940E+02  0.00000000000E+00 0. -1.
        -12    1    4    4    0    0 -0.21633246463E+02 -0.23871181410E+02  0.26924168171E+02  0.41985015019E+02  0.00000000000E+00 0.  1.
        -13    1    3    3    0    0 -0.55299747302E+01 -0.36469517149E+02  0.18217400201E+02  0.41139761444E+02  0.00000000000E+00 0. -1.
         13    1    3    3    0    0 -0.46380340157E+02  0.18133582478E+02 -0.51511959642E+02  0.71648061752E+02  0.00000000000E+00 0.  1.
         -3    1    1    2    0  502  0.80073066973E+02  0.11875259424E+02  0.29813812194E+02  0.86264600146E+02  0.00000000000E+00 0.  1.
<scales pt_clust_5="13000.00000" pt_clust_6="13000.00000" pt_clust_7="13000.00000" pt_clust_8="13000.00000" pt_clust_9="13000.00000"></scales>
<clustering>
<clus scale="   56.258">  5  6 -1 -1</clus>
<clus scale="   80.949">  5  9 -1 -1</clus>
<clus scale="   92.637">  7  8 -1 -1</clus>
<clus scale="  107.762">  1  7  2 -1</clus>
<clus scale="  147.161">  2  5  1 -1</clus>
</clustering>
</event>
<event>
 9    1  0.2728138E-005  0.1954601E+03  0.7546771E-02  0.1182759E+00
          3   -1    0    0  502    0 -0.00000000000E+00  0.00000000000E+00  0.82964548325E+02  0.82964548325E+02  0.00000000000E+00 0. -1.
         21   -1    0    0  501  502  0.00000000000E+00 -0.00000000000E+00 -0.28575240457E+03  0.28575240457E+03  0.00000000000E+00 0. -1.
         23    2    1    2    0    0 -0.51722328494E+01 -0.43464848629E+02 -0.12036654152E+03  0.15658985793E+03  0.90090700014E+02 0.  0.
        -24    2    1    2    0    0  0.14360140519E+02 -0.52880532437E+00 -0.13076522960E+03  0.14611957008E+03  0.63599451394E+02 0.  0.
         13    1    4    4    0    0  0.18243339021E+02 -0.28023514313E+02 -0.95810260732E+02  0.10147779479E+03  0.00000000000E+00 0. -1.
        -14    1    4    4    0    0 -0.38831985015E+01  0.27494708989E+02 -0.34954968871E+02  0.44641775298E+02  0.00000000000E+00 0.  1.
        -11    1    3    3    0    0 -0.38838926557E+02 -0.52459085244E+02 -0.80615854761E+02  0.10372720896E+03  0.00000000000E+00 0. -1.
         11    1    3    3    0    0  0.33666693707E+02  0.89942366151E+01 -0.39750686757E+02  0.52862648961E+02  0.00000000000E+00 0.  1.
          4    1    1    2  501    0 -0.91879076700E+01  0.43993653953E+02  0.48343914879E+02  0.66007524884E+02  0.00000000000E+00 0. -1.
<scales pt_clust_5="13000.00000" pt_clust_6="13000.00000" pt_clust_7="13000.00000" pt_clust_8="13000.00000" pt_clust_9="13000.00000"></scales>
<clustering>
<clus scale="   63.599">  5  6 -1 -1</clus>
<clus scale="   44.943">  5  9 -1 -1</clus>
<clus scale="   90.091">  7  8 -1 -1</clus>
<clus scale="  100.161">  1  7  2 -1</clus>
<clus scale="  195.460">  2  5  1 -1</clus>
</clustering>
</event>
<event>
 9    1  0.2728138E-005  0.4519436E+03  0.7546771E-02  0.1082762E+00
         21   -1    0    0  501  502  0.00000000000E+00  0.00000000000E+00  0.49246791506E+03  0.49246791506E+03  0.00000000000E+00 0. -1.
          1   -1    0    0  502    0 -0.00000000000E+00 -0.00000000000E+00 -0.16489854838E+03  0.16489854838E+03  0.00000000000E+00 0. -1.
         23    2    1    2    0    0  0.25136799195E+02  0.12881562596E+01  0.13898926915E+03  0.16765690040E+03  0.90317779492E+02 0.  0.
        -24    2    1    2    0    0 -0.23133810351E+02 -0.16585311068E+03 -0.56323839840E+02  0.19464418939E+03  0.81679605916E+02 0.  0.
         13    1    4    4    0    0 -0.40193991894E+02 -0.16156882830E+03 -0.59429744737E+02  0.17678217620E+03  0.00000000000E+00 0. -1.
        -14    1    4    4    0    0  0.17060181543E+02 -0.42842823846E+01  0.31059048973E+01  0.17862013186E+02  0.00000000000E+00 0.  1.
        -11    1    3    3    0    0  0.20275626352E-01  0.23164407451E+02  0.13149060660E+03  0.13351542910E+03  0.00000000000E+00 0. -1.
         11    1    3    3    0    0  0.25116523569E+02 -0.21876251192E+02  0.74986625497E+01  0.34141471298E+02  0.00000000000E+00 0.  1.
          2    1    1    2  501    0 -0.20029888440E+01  0.16456495442E+03  0.24490393737E+03  0.29506537365E+03  0.00000000000E+00 0. -1.
<scales pt_clust_5="13000.00000" pt_clust_6="13000.00000" pt_clust_7="13000.00000" pt_clust_8="13000.00000" pt_clust_9="13000.00000"></scales>
<clustering>
<clus scale="   81.680">  5  6 -1 -1</clus>
<clus scale="   90.318">  7  8 -1 -1</clus>
<clus scale="   93.759">  2  7  1 -1</clus>
<clus scale="  164.794">  5  9 -1 -1</clus>
<clus scale="  451.944">  1  5  2 -1</clus>
</clustering>
</event>
<event>
 9    1  0.2728138E-005  0.1563395E+03  0.7546771E-02  0.1217406E+00
         -2   -1    0    0    0  501 -0.00000000000E+00  0.00000000000E+00  0.63063007883E+03  0.63063007883E+03  0.00000000000E+00 0.  1.
         21   -1    0    0  501  502  0.00000000000E+00 -0.00000000000E+00 -0.24528841158E+02  0.24528841158E+02  0.00000000000E+00 0. -1.
         23    2    1    2    0    0  0.80399887488E+01 -0.13490465165E+02  0.21280090441E+03  0.23192473010E+03  0.90874756908E+02 0.  0.
        -24    2    1    2    0    0  0.79396084237E+01 -0.22198656961E+02  0.34675519744E+03  0.36244347816E+03  0.10281191642E+03 0.  0.
         13    1    4    4    0    0  0.40926184682E+01 -0.61556809334E+02  0.25805828200E+03  0.26533010989E+03  0.00000000000E+00 0. -1.
        -14    1    4    4    0    0  0.38469899555E+01  0.39358152373E+02  0.88696915433E+02  0.97113368273E+02  0.00000000000E+00 0.  1.
        -13    1    3    3    0    0 -0.86322950783E+01  0.28979847428E+02  0.15680675813E+03  0.15969567142E+03  0.00000000000E+00 0.  1.
         13    1    3    3    0    0  0.16672283827E+02 -0.42470312593E+02  0.55994146288E+02  0.72229058683E+02  0.00000000000E+00 0. -1.
         -1    1    1    2    0  502 -0.15979597173E+02  0.35689122126E+02  0.46545135821E+02  0.60790711729E+02  0.00000000000E+00 0.  1.
<scales pt_clust_5="13000.00000" pt_clust_6="13000.00000" pt_clust_7="13000.00000" pt_clust_8="13000.00000" pt_clust_9="13000.00000"></scales>
<clustering>
<clus scale="   90.875">  7  8 -1 -1</clus>
<clus scale="   92.222">  1  7  2 -1</clus>
<clus scale="  102.812">  5  6 -1 -1</clus>
<clus scale="   37.054">  5  9 -1 -1</clus>
<clus scale="  156.339">  2  5  1 -1</clus>
</clustering>
</event>
<event>
 9    1  0.2728138E-005  0.1519351E+03  0.7546771E-02  0.1218246E+00
          1   -1    0    0  502    0 -0.00000000000E+00  0.00000000000E+00  0.28641552104E+03  0.28641552104E+03  0.00000000000E+00 0. -1.
         21   -1    0    0  501  502  0.00000000000E+00 -0.00000000000E+00 -0.56874315327E+02  0.56874315327E+02  0.00000000000E+00 0.  1.
         23    2    1    2    0    0  0.14837620096E+02  0.31411732242E+02  0.12304434161E+03  0.15774774175E+03  0.92399069970E+02 0.  0.
        -24    2    1    2    0    0  0.81783191125E+01  0.28311435951E+02  0.47260379491E+02  0.98332282180E+02  0.81038706431E+02 0.  0.
         13    1    4    4    0    0 -0.33932667703E+02  0.48392323160E+00  0.29053963301E+02  0.44674298010E+02  0.00000000000E+00 0. -1.
        -14    1    4    4    0    0  0.42110986816E+02  0.27827512720E+02  0.18206416190E+02  0.53657984171E+02  0.00000000000E+00 0.  1.
        -13    1    3    3    0    0 -0.22175772737E+02  0.38723184982E+02  0.10849085375E+03  0.11730948512E+03  0.00000000000E+00 0.  1.
         13    1    3    3    0    0  0.37013392832E+02 -0.73114527396E+01  0.14553487861E+02  0.40438256627E+02  0.00000000000E+00 0. -1.
          2    1    1    2  501    0 -0.23015939208E+02 -0.59723168194E+02  0.59236484608E+02  0.87209812438E+02  0.00000000000E+00 0. -1.
<scales pt_clust_5="13000.00000" pt_clust_6="13000.00000" pt_clust_7="13000.00000" pt_clust_8="13000.00000" pt_clust_9="13000.00000"></scales>
<clustering>
<clus scale="   81.039">  5  6 -1 -1</clus>
<clus scale="   64.005">  5  9 -1 -1</clus>
<clus scale="   92.399">  7  8 -1 -1</clus>
<clus scale="   98.714">  1  7  2 -1</clus>
<clus scale="  151.935">  2  5  1 -1</clus>
</clustering>
</event>
<event>
 9    1  0.2728138E-005  0.1713544E+03  0.7546771E-02  0.1196929E+00
          1   -1    0    0  502    0 -0.00000000000E+00  0.00000000000E+00  0.75596168407E+03  0.75596168407E+03  0.00000000000E+00 0. -1.
         21   -1    0    0  501  502  0.00000000000E+00 -0.00000000000E+00 -0.26993631123E+02  0.26993631123E+02  0.00000000000E+00 0. -1.
         23    2    1    2    0    0  0.69417671892E+01 -0.56683417249E+02  0.36175604088E+03  0.37773069265E+03  0.92476186874E+02 0.  0.
        -24    2    1    2    0    0 -0.54233012375E+02  0.16742020844E+02  0.14078367010E+03  0.17048738420E+03  0.77616953752E+02 0.  0.
         13    1    4    4    0    0 -0.14555902769E+02  0.29214222521E+02  0.11384003639E+02  0.34567913472E+02  0.00000000000E+00 0. -1.
        -14    1    4    4    0    0 -0.39677109606E+02 -0.12472201678E+02  0.12939966646E+03  0.13591947073E+03  0.00000000000E+00 0.  1.
        -13    1    3    3    0    0  0.44681205038E+02 -0.55233110386E+01  0.14234188306E+03  0.14929209196E+03  0.00000000000E+00 0.  1.
         13    1    3    3    0    0 -0.37739437849E+02 -0.51160106210E+02  0.21941415782E+03  0.22843860069E+03  0.00000000000E+00 0. -1.
          2    1    1    2  501    0  0.47291245186E+02  0.39941396405E+02  0.22642834197E+03  0.23473723834E+03  0.00000000000E+00 0. -1.
<scales pt_clust_5="13000.00000" pt_clust_6="13000.00000" pt_clust_7="13000.00000" pt_clust_8="13000.00000" pt_clust_9="13000.00000"></scales>
<clustering>
<clus scale="   77.617">  5  6 -1 -1</clus>
<clus scale="   61.901">  5  9 -1 -1</clus>
<clus scale="   92.476">  7  8 -1 -1</clus>
<clus scale="  108.688">  1  7  2 -1</clus>
<clus scale="  171.354">  2  5  1 -1</clus>
</clustering>
</event>
<event>
 9    1  0.2728138E-005  0.2292166E+03  0.7546771E-02  0.1142782E+00
          1   -1    0    0  502    0 -0.00000000000E+00  0.00000000000E+00  0.94536113753E+03  0.94536113753E+03  0.00000000000E+00 0. -1.
         21   -1    0    0  501  502  0.00000000000E+00 -0.00000000000E+00 -0.48140114916E+02  0.48140114916E+02  0.00000000000E+00 0. -1.
         23    2    1    2    0    0  0.32337017590E+02  0.12324443074E+03  0.58818797438E+03  0.60873939557E+03  0.91453190732E+02 0.  0.
        -24    2    1    2    0    0  0.26462746439E+02  0.10874643928E+02  0.11405357075E+03  0.14091285631E+03  0.77651022162E+02 0.  0.
         11    1    4    4    0    0  0.46853861919E+02 -0.14250201222E+02  0.55535714056E+02  0.74044366074E+02  0.00000000000E+00 0. -1.
        -12    1    4    4    0    0 -0.20391115480E+02  0.25124845150E+02  0.58517856690E+02  0.66868490232E+02  0.00000000000E+00 0.  1.
        -11    1    3    3    0    0  0.35056378131E+02  0.10988576532E+02  0.76351228811E+02  0.84730210685E+02  0.00000000000E+00 0.  1.
         11    1    3    3    0    0 -0.27193605408E+01  0.11225585421E+03  0.51183674557E+03  0.52400918488E+03  0.00000000000E+00 0. -1.
          2    1    1    2  501    0 -0.58799764029E+02 -0.13411907467E+03  0.19497947749E+03  0.24384900058E+03  0.00000000000E+00 0. -1.
<scales pt_clust_5="13000.00000" pt_clust_6="13000.00000" pt_clust_7="13000.00000" pt_clust_8="13000.00000" pt_clust_9="13000.00000"></scales>
<clustering>
<clus scale="   77.651">  5  6 -1 -1</clus>
<clus scale="   91.453">  7  8 -1 -1</clus>
<clus scale="  146.442">  5  9 -1 -1</clus>
<clus scale="  156.839">  1  7  2 -1</clus>
<clus scale="  229.217">  2  5  1 -1</clus>
</clustering>
</event>
<event>
 9    1  0.2728138E-005  0.3958083E+03  0.7546771E-02  0.1098572E+00
          1   -1    0    0  502    0 -0.00000000000E+00  0.00000000000E+00  0.22630313145E+03  0.22630313145E+03  0.00000000000E+00 0. -1.
         21   -1    0    0  501  502  0.00000000000E+00 -0.00000000000E+00 -0.32396325693E+03  0.32396325693E+03  0.00000000000E+00 0. -1.
         23    2    1    2    0    0 -0.54695088197E+01  0.18168133871E+02 -0.12309509145E+03  0.15364173225E+03  0.89963235464E+02 0.  0.
        -24    2    1    2    0    0  0.15517705661E+03  0.69057228926E+02 -0.67887795016E+02  0.19982589724E+03  0.80453817376E+02 0.  0.
         11    1    4    4    0    0  0.12281920137E+03  0.58352119511E+02 -0.86337026870E+02  0.16107019676E+03  0.00000000000E+00 0. -1.
        -12    1    4    4    0    0  0.32357855246E+02  0.10705109415E+02  0.18449231855E+02  0.38755700481E+02  0.00000000000E+00 0.  1.
        -13    1    3    3    0    0  0.19948610251E+02 -0.27434900672E+02 -0.23734554595E+02  0.41399878112E+02  0.00000000000E+00 0. -1.
         13    1    3    3    0    0 -0.25418119071E+02  0.45603034544E+02 -0.99360536852E+02  0.11224185414E+03  0.00000000000E+00 0.  1.
          2    1    1    2  501    0 -0.14970754779E+03 -0.87225362797E+02  0.93322760980E+02  0.19679875888E+03  0.00000000000E+00 0. -1.
<scales pt_clust_5="13000.00000" pt_clust_6="13000.00000" pt_clust_7="13000.00000" pt_clust_8="13000.00000" pt_clust_9="13000.00000"></scales>
<clustering>
<clus scale="   80.454">  5  6 -1 -1</clus>
<clus scale="   89.963">  7  8 -1 -1</clus>
<clus scale="   91.942">  1  7  2 -1</clus>
<clus scale="  170.698">  5  9 -1 -1</clus>
<clus scale="  395.808">  2  5  1 -1</clus>
</clustering>
</event>
<event>
 9    1  0.2728138E-005  0.1921343E+03  0.7546771E-02  0.1187453E+00
         21   -1    0    0  501  502  0.00000000000E+00  0.00000000000E+00  0.48794767276E+02  0.48794767276E+02  0.00000000000E+00 0. -1.
          1   -1    0    0  502    0 -0.00000000000E+00 -0.00000000000E+00 -0.42493884705E+03  0.42493884705E+03  0.00000000000E+00 0. -1.
         23    2    1    2    0    0 -0.10456490289E+02 -0.26055927295E+02 -0.14218777639E+03  0.17099419782E+03  0.90738097816E+02 0.  0.
        -24    2    1    2    0    0 -0.30904684289E+02  0.22815168872E+02 -0.24507414673E+03  0.25978763286E+03  0.77153388468E+02 0.  0.
         13    1    4    4    0    0 -0.11516560240E+02  0.46678261045E+02 -0.93613491560E+02  0.10523771670E+03  0.00000000000E+00 0. -1.
        -14    1    4    4    0    0 -0.19388124049E+02 -0.23863092173E+02 -0.15146065517E+03  0.15454991616E+03  0.00000000000E+00 0.  1.
        -13    1    3    3    0    0  0.40339551613E+02 -0.13221003627E+02 -0.59064512805E+02  0.72737136554E+02  0.00000000000E+00 0.  1.
         13    1    3    3    0    0 -0.50796041902E+02 -0.12834923667E+02 -0.83123263590E+02  0.98257061264E+02  0.00000000000E+00 0. -1.
          2    1    1    2  501    0  0.41361174578E+02  0.32407584230E+01  0.11117843348E+02  0.42951783646E+02  0.00000000000E+00 0. -1.
<scales pt_clust_5="13000.00000" pt_clust_6="13000.00000" pt_clust_7="13000.00000" pt_clust_8="13000.00000" pt_clust_9="13000.00000"></scales>
<clustering>
<clus scale="   77.153">  5  6 -1 -1</clus>
<clus scale="   41.488">  5  9 -1 -1</clus>
<clus scale="   90.738">  7  8 -1 -1</clus>
<clus scale="   94.982">  2  7  1 -1</clus>
<clus scale="  192.134">  1  5  2 -1</clus>
</clustering>
</event>
<event>
 9    1  0.2728138E-005  0.1886569E+03  0.7546771E-02  0.1188417E+00
         21   -1    0    0  501  502  0.00000000000E+00  0.00000000000E+00  0.49861936331E+02  0.49861936331E+02  0.00000000000E+00 0. -1.
          1   -1    0    0  502    0 -0.00000000000E+00 -0.00000000000E+00 -0.45017362623E+03  0.45017362623E+03  0.00000000000E+00 0. -1.
         23    2    1    2    0    0 -0.95728316789E+01  0.30148547605E+02 -0.21117462653E+03  0.23289469989E+03  0.92976579393E+02 0.  0.
        -24    2    1    2    0    0  0.63036029074E+02 -0.10800224837E+02 -0.45353414351E+02  0.11252388820E+03  0.80712498446E+02 0.  0.
         13    1    4    4    0    0  0.44127446353E+02 -0.11326813990E+02  0.16027010371E+02  0.48294857886E+02  0.00000000000E+00 0. -1.
        -14    1    4    4    0    0  0.18908582721E+02  0.52658915297E+00 -0.61380424721E+02  0.64229030318E+02  0.00000000000E+00 0.  1.
        -13    1    3    3    0    0 -0.37403453475E+02  0.48897179982E+02 -0.10696902686E+03  0.12341930664E+03  0.00000000000E+00 0.  1.
         13    1    3    3    0    0  0.27830621796E+02 -0.18748632377E+02 -0.10420559967E+03  0.10947539325E+03  0.00000000000E+00 0. -1.
          2    1    1    2  501    0 -0.53463197395E+02 -0.19348322768E+02 -0.14378364901E+03  0.15461697447E+03  0.00000000000E+00 0. -1.
<scales pt_clust_5="13000.00000" pt_clust_6="13000.00000" pt_clust_7="13000.00000" pt_clust_8="13000.00000" pt_clust_9="13000.00000"></scales>
<clustering>
<clus scale="   80.712">  5  6 -1 -1</clus>
<clus scale="   56.857">  5  9 -1 -1</clus>
<clus scale="   92.977">  7  8 -1 -1</clus>
<clus scale="   98.210">  2  7  1 -1</clus>
<clus scale="  188.657">  1  5  2 -1</clus>
</clustering>
</event>
<event>
 9    1  0.2728138E-005  0.3613795E+03  0.7546771E-02  0.1105831E+00
         21   -1    0    0  501  502  0.00000000000E+00  0.00000000000E+00  0.13741329381E+03  0.13741329381E+03  0.00000000000E+00 0. -1.
          1   -1    0    0  502    0 -0.00000000000E+00 -0.00000000000E+00 -0.44119492678E+03  0.44119492678E+03  0.00000000000E+00 0. -1.
         23    2    1    2    0    0  0.36761922268E+02 -0.12160538018E+02 -0.16191411819E+03  0.19037949002E+03  0.92351778209E+02 0.  0.
        -24    2    1    2    0    0  0.17734914418E+00 -0.11017204339E+03 -0.20489618575E+03  0.24574229750E+03  0.79176506935E+02 0.  0.
         13    1    4    4    0    0  0.12952284006E+01 -0.86026497369E+02 -0.76617684711E+02  0.11520636040E+03  0.00000000000E+00 0. -1.
        -14    1    4    4    0    0 -0.11178792564E+01 -0.24145546018E+02 -0.12827850104E+03  0.13053593710E+03  0.00000000000E+00 0.  1.
        -13    1    3    3    0    0  0.13466603660E+02  0.27197949990E+02 -0.10350722725E+02  0.32065797335E+02  0.00000000000E+00 0.  1.
         13    1    3    3    0    0  0.23295318609E+02 -0.39358488009E+02 -0.15156339546E+03  0.15831369269E+03  0.00000000000E+00 0. -1.
          2    1    1    2  501    0 -0.36939271413E+02  0.12233258141E+03  0.63028670969E+02  0.14248643307E+03  0.00000000000E+00 0. -1.
<scales pt_clust_5="13000.00000" pt_clust_6="13000.00000" pt_clust_7="13000.00000" pt_clust_8="13000.00000" pt_clust_9="13000.00000"></scales>
<clustering>
<clus scale="   79.177">  5  6 -1 -1</clus>
<clus scale="   92.352">  7  8 -1 -1</clus>
<clus scale="  100.141">  2  7  1 -1</clus>
<clus scale="  124.541">  5  9 -1 -1</clus>
<clus scale="  361.380">  1  5  2 -1</clus>
</clustering>
</event>
<event>
 9    1  0.2728138E-005  0.4889468E+03  0.7546771E-02  0.1072361E+00
          1   -1    0    0  502    0 -0.00000000000E+00  0.00000000000E+00  0.27161668930E+03  0.27161668930E+03  0.00000000000E+00 0. -1.
         21   -1    0    0  501  502  0.00000000000E+00 -0.00000000000E+00 -0.38165611599E+03  0.38165611599E+03  0.00000000000E+00 0. -1.
         23    2    1    2    0    0 -0.80627116749E+02 -0.59695715664E+01  0.82096462027E+02  0.12792988716E+03  0.55586502052E+02 0.  0.
        -24    2    1    2    0    0 -0.41334077879E+02  0.10789697782E+03  0.11362810921E+03  0.18073393455E+03  0.80019648077E+02 0.  0.
         13    1    4    4    0    0  0.52701168785E+01  0.90696648620E+02  0.74920067017E+02  0.11775683693E+03  0.00000000000E+00 0. -1.
        -14    1    4    4    0    0 -0.46604194758E+02  0.17200329198E+02  0.38708042191E+02  0.62977097613E+02  0.00000000000E+00 0.  1.
        -13    1    3    3    0    0 -0.22183241458E+02  0.79839090582E+01 -0.29910922517E+01  0.23765219088E+02  0.00000000000E+00 0.  1.
         13    1    3    3    0    0 -0.58443875291E+02 -0.13953480625E+02  0.85087554279E+02  0.10416466807E+03  0.00000000000E+00 0. -1.
          2    1    1    2  501    0  0.12196119463E+03 -0.10192740625E+03 -0.30576399793E+03  0.34460898359E+03  0.00000000000E+00 0. -1.
<scales pt_clust_5="13000.00000" pt_clust_6="13000.00000" pt_clust_7="13000.00000" pt_clust_8="13000.00000" pt_clust_9="13000.00000"></scales>
<clustering>
<clus scale="   55.587">  7  8 -1 -1</clus>
<clus scale="   80.020">  5  6 -1 -1</clus>
<clus scale="   98.113">  1  7  2 -1</clus>
<clus scale="  152.321">  5  9 -1 -1</clus>
<clus scale="  488.947">  2  5  1 -1</clus>
</clustering>
</event>
<event>
 9    1  0.2728138E-005  0.2131285E+03  0.7546771E-02  0.1175010E+00
          1   -1    0    0  502    0 -0.00000000000E+00  0.00000000000E+00  0.65012962102E+03  0.65012962102E+03  0.00000000000E+00 0. -1.
         21   -1    0    0  501  502  0.00000000000E+00 -0.00000000000E+00 -0.37887483885E+02  0.37887483885E+02  0.00000000000E+00 0.  1.
         23    2    1    2    0    0 -0.10620655056E+02  0.93634809866E+01  0.11679249935E+03  0.14867112055E+03  0.90896320562E+02 0.  0.
        -24    2    1    2    0    0 -0.48123828866E+02  0.61471395060E+02  0.16127240798E+03  0.19272960423E+03  0.71001939780E+02 0.  0.
         11    1    4    4    0    0 -0.35540957056E+02 -0.53969589101E+01  0.72077945960E+02  0.80545124544E+02  0.00000000000E+00 0. -1.
        -12    1    4    4    0    0 -0.12582871810E+02  0.66868353970E+02  0.89194462025E+02  0.11218447968E+03  0.00000000000E+00 0.  1.
        -13    1    3    3    0    0  0.26580738589E+02 -0.28153074618E+02  0.42304464277E+02  0.57348051162E+02  0.00000000000E+00 0.  1.
         13    1    3    3    0    0 -0.37201393644E+02  0.37516555605E+02  0.74488035075E+02  0.91323069390E+02  0.00000000000E+00 0. -1.
          2    1    1    2  501    0  0.58744483922E+02 -0.70834876046E+02  0.33417722980E+03  0.34661638013E+03  0.00000000000E+00 0. -1.
<scales pt_clust_5="13000.00000" pt_clust_6="13000.00000" pt_clust_7="13000.00000" pt_clust_8="13000.00000" pt_clust_9="13000.00000"></scales>
<clustering>
<clus scale="   71.002">  5  6 -1 -1</clus>
<clus scale="   90.896">  7  8 -1 -1</clus>
<clus scale="   91.993">  1  7  2 -1</clus>
<clus scale="   82.835">  5  9 -1 -1</clus>
<clus scale="  213.128">  2  5  1 -1</clus>
</clustering>
</event>
<event>
 9    1  0.2728138E-005  0.1782794E+03  0.7546771E-02  0.1194048E+00
         21   -1    0    0  501  502  0.00000000000E+00  0.00000000000E+00  0.14155325129E+03  0.14155325129E+03  0.00000000000E+00 0. -1.
         -4   -1    0    0    0  501 -0.00000000000E+00 -0.00000000000E+00 -0.13952602902E+03  0.13952602902E+03  0.00000000000E+00 0.  1.
         23    2    1    2    0    0 -0.27963622849E+02  0.46173503168E+01  0.20581553474E+00  0.10279060796E+03  0.98805782212E+02 0.  0.
        -24    2    1    2    0    0  0.38992187381E+02 -0.68365855944E+02  0.10849682281E+02  0.11296631044E+03  0.80308098929E+02 0.  0.
         13    1    4    4    0    0  0.62014394720E+02 -0.63567482321E+02  0.64424583563E+01  0.89039964234E+02  0.00000000000E+00 0. -1.
        -14    1    4    4    0    0 -0.23022207339E+02 -0.47983736235E+01  0.44072239247E+01  0.23926346209E+02  0.00000000000E+00 0.  1.
        -11    1    3    3    0    0 -0.69887886468E+01 -0.44843397808E+02  0.13681262033E+02  0.47402008655E+02  0.00000000000E+00 0.  1.
         11    1    3    3    0    0 -0.20974834202E+02  0.49460748125E+02 -0.13475446498E+02  0.55388599307E+02  0.00000000000E+00 0. -1.
         -3    1    1    2    0  502 -0.11028564532E+02  0.63748505628E+02 -0.90282755417E+01  0.65322361904E+02  0.00000000000E+00 0.  1.
<scales pt_clust_5="13000.00000" pt_clust_6="13000.00000" pt_clust_7="13000.00000" pt_clust_8="13000.00000" pt_clust_9="13000.00000"></scales>
<clustering>
<clus scale="   80.308">  5  6 -1 -1</clus>
<clus scale="   64.695">  5  9 -1 -1</clus>
<clus scale="   98.806">  7  8 -1 -1</clus>
<clus scale="  102.790">  2  7  1 -1</clus>
<clus scale="  178.279">  1  5  2 -1</clus>
</clustering>
</event>
<event>
 9    1  0.2728138E-005  0.2270288E+03  0.7546771E-02  0.1140843E+00
         21   -1    0    0  501  502  0.00000000000E+00  0.00000000000E+00  0.53682000717E+03  0.53682000717E+03  0.00000000000E+00 0.  1.
         -2   -1    0    0    0  501 -0.00000000000E+00 -0.00000000000E+00 -0.24463199956E+03  0.24463199956E+03  0.00000000000E+00 0.  1.
         23    2    1    2    0    0  0.13838531000E+03  0.24486784165E+02 -0.18643589873E+03  0.25171344739E+03  0.94080915388E+02 0.  0.
        -24    2    1    2    0    0 -0.33891351638E+02 -0.24051589476E+02  0.11100960905E+03  0.14756131210E+03  0.87886886708E+02 0.  0.
         11    1    4    4    0    0 -0.48911840920E+02  0.10948086704E+02  0.30960334205E+02  0.58913250451E+02  0.00000000000E+00 0. -1.
        -12    1    4    4    0    0  0.15020489282E+02 -0.34999676180E+02  0.80049274847E+02  0.88648061651E+02  0.00000000000E+00 0.  1.
        -13    1    3    3    0    0  0.12449062155E+03  0.54141377699E+02 -0.15830366051E+03  0.20854076955E+03  0.00000000000E+00 0. -1.
         13    1    3    3    0    0  0.13894688445E+02 -0.29654593534E+02 -0.28132238218E+02  0.43172677839E+02  0.00000000000E+00 0.  1.
         -1    1    1    2    0  502 -0.10449395836E+03 -0.43519468862E+00  0.36761429729E+03  0.38217724723E+03  0.00000000000E+00 0.  1.
<scales pt_clust_5="13000.00000" pt_clust_6="13000.00000" pt_clust_7="13000.00000" pt_clust_8="13000.00000" pt_clust_9="13000.00000"></scales>
<clustering>
<clus scale="   87.887">  5  6 -1 -1</clus>
<clus scale="   94.081">  7  8 -1 -1</clus>
<clus scale="  104.495">  5  9 -1 -1</clus>
<clus scale="  169.119">  2  7  1 -1</clus>
<clus scale="  227.029">  1  5  2 -1</clus>
</clustering>
</event>
<event>
 9    1  0.2728138E-005  0.3785117E+03  0.7546771E-02  0.1096826E+00
         21   -1    0    0  501  502  0.00000000000E+00  0.00000000000E+00  0.73293437910E+02  0.73293437910E+02  0.00000000000E+00 0.  1.
         -4   -1    0    0    0  501 -0.00000000000E+00 -0.00000000000E+00 -0.83725625511E+03  0.83725625511E+03  0.00000000000E+00 0.  1.
         23    2    1    2    0    0 -0.61828532283E+02  0.38185162438E+01 -0.24151843859E+03  0.26539913667E+03  0.90929627173E+02 0.  0.
        -24    2    1    2    0    0 -0.13369599082E+03 -0.63869821836E+02 -0.29410649527E+03  0.33859846060E+03  0.78716674586E+02 0.  0.
         13    1    4    4    0    0 -0.69438262823E+02 -0.48199705252E+02 -0.87485350145E+02  0.12164937493E+03  0.00000000000E+00 0. -1.
        -14    1    4    4    0    0 -0.64257727995E+02 -0.15670116584E+02 -0.20662114513E+03  0.21694908568E+03  0.00000000000E+00 0.  1.
        -13    1    3    3    0    0  0.51558729198E+01  0.34969318645E+02 -0.63780690854E+02  0.72920592413E+02  0.00000000000E+00 0.  1.
         13    1    3    3    0    0 -0.66984405203E+02 -0.31150802401E+02 -0.17773774773E+03  0.19247854426E+03  0.00000000000E+00 0. -1.
         -3    1    1    2    0  502  0.19552452310E+03  0.60051305593E+02 -0.22833788333E+03  0.30655209574E+03  0.00000000000E+00 0.  1.
<scales pt_clust_5="13000.00000" pt_clust_6="13000.00000" pt_clust_7="13000.00000" pt_clust_8="13000.00000" pt_clust_9="13000.00000"></scales>
<clustering>
<clus scale="   78.717">  5  6 -1 -1</clus>
<clus scale="   90.930">  7  8 -1 -1</clus>
<clus scale="  110.025">  2  7  1 -1</clus>
<clus scale="  178.256">  5  9 -1 -1</clus>
<clus scale="  378.512">  1  5  2 -1</clus>
</clustering>
</event>
<event>
 9    1  0.2728138E-005  0.3684999E+03  0.7546771E-02  0.1108017E+00
         21   -1    0    0  501  502  0.00000000000E+00  0.00000000000E+00  0.10543548010E+03  0.10543548010E+03  0.00000000000E+00 0.  1.
          1   -1    0    0  502    0 -0.00000000000E+00 -0.00000000000E+00 -0.49712038425E+03  0.49712038425E+03  0.00000000000E+00 0. -1.
         23    2    1    2    0    0  0.47077223662E+01  0.15849798055E+02 -0.72005193598E+02  0.11471646024E+03  0.87759555593E+02 0.  0.
        -24    2    1    2    0    0  0.73374679381E+02  0.16099902985E+02  0.40271753391E+02  0.11813316768E+03  0.81795970162E+02 0.  0.
         13    1    4    4    0    0  0.77177528726E+02  0.32213275224E+02  0.10793928257E+02  0.84324225037E+02  0.00000000000E+00 0. -1.
        -14    1    4    4    0    0 -0.38028493448E+01 -0.16113372239E+02  0.29477825134E+02  0.33808942644E+02  0.00000000000E+00 0.  1.
        -11    1    3    3    0    0  0.20748067440E+02  0.46131997814E+02 -0.59836048501E+02  0.78351746790E+02  0.00000000000E+00 0. -1.
         11    1    3    3    0    0 -0.16040345073E+02 -0.30282199759E+02 -0.12169145096E+02  0.36364713455E+02  0.00000000000E+00 0.  1.
          2    1    1    2  501    0 -0.78082401747E+02 -0.31949701040E+02 -0.35995146394E+03  0.36970623643E+03  0.00000000000E+00 0. -1.
<scales pt_clust_5="13000.00000" pt_clust_6="13000.00000" pt_clust_7="13000.00000" pt_clust_8="13000.00000" pt_clust_9="13000.00000"></scales>
<clustering>
<clus scale="   81.796">  5  6 -1 -1</clus>
<clus scale="   84.366">  5  9 -1 -1</clus>
<clus scale="   87.760">  7  8 -1 -1</clus>
<clus scale="   89.304">  2  7  1 -1</clus>
<clus scale="  368.500">  1  5  2 -1</clus>
</clustering>
</event>
<event>
 9    1  0.2728138E-005  0.4266017E+03  0.7546771E-02  0.1050613E+00
         21   -1    0    0  501  502  0.00000000000E+00  0.00000000000E+00  0.23558854561E+03  0.23558854561E+03  0.00000000000E+00 0. -1.
          1   -1    0    0  502    0 -0.00000000000E+00 -0.00000000000E+00 -0.78965875471E+03  0.78965875471E+03  0.00000000000E+00 0. -1.
         23    2    1    2    0    0  0.25472423984E+03 -0.92326110791E+01 -0.53320130967E+03  0.59813549364E+03  0.92156131897E+02 0.  0.
        -24    2    1    2    0    0 -0.29184483665E+02 -0.10500396844E+03 -0.92708139763E+02  0.16428286200E+03  0.80724792311E+02 0.  0.
         13    1    4    4    0    0 -0.12236574647E+02 -0.10565782450E+03 -0.48436200203E+02  0.11687332941E+03  0.00000000000E+00 0. -1.
        -14    1    4    4    0    0 -0.16947909019E+02  0.65385606165E+00 -0.44271939560E+02  0.47409532589E+02  0.00000000000E+00 0.  1.
        -11    1    3    3    0    0  0.14609303755E+03 -0.10950527447E+02 -0.20174361456E+03  0.24932624349E+03  0.00000000000E+00 0. -1.
         11    1    3    3    0    0  0.10863120228E+03  0.17179163677E+01 -0.33145769511E+03  0.34880925015E+03  0.00000000000E+00 0.  1.
          2    1    1    2  501    0 -0.22553975617E+03  0.11423657952E+03  0.71839240333E+02  0.26282894469E+03  0.00000000000E+00 0. -1.
<scales pt_clust_5="13000.00000" pt_clust_6="13000.00000" pt_clust_7="13000.00000" pt_clust_8="13000.00000" pt_clust_9="13000.00000"></scales>
<clustering>
<clus scale="   80.725">  5  6 -1 -1</clus>
<clus scale="   92.156">  7  8 -1 -1</clus>
<clus scale="  252.821">  5  9 -1 -1</clus>
<clus scale="  271.040">  2  7  1 -1</clus>
<clus scale="  426.602">  1  5  2 -1</clus>
</clustering>
</event>
<event>
 9    1  0.2728138E-005  0.5264777E+03  0.7546771E-02  0.1038385E+00
         21   -1    0    0  501  502  0.00000000000E+00  0.00000000000E+00  0.27948979360E+03  0.27948979360E+03  0.00000000000E+00 0.  1.
         -4   -1    0    0    0  501 -0.00000000000E+00 -0.00000000000E+00 -0.50100231580E+03  0.50100231580E+03  0.00000000000E+00 0.  1.
         23    2    1    2    0    0 -0.15113956899E+03 -0.10239368165E+03  0.98769895050E+01  0.20540963683E+03  0.93637218144E+02 0.  0.
        -24    2    1    2    0    0 -0.12865338206E+03 -0.79943575817E+02 -0.15612089760E+03  0.23274296975E+03  0.82782167589E+02 0.  0.
         13    1    4    4    0    0 -0.61695407632E+02 -0.30081172986E+02 -0.12693473761E+03  0.14430394278E+03  0.00000000000E+00 0. -1.
        -14    1    4    4    0    0 -0.66957974433E+02 -0.49862402831E+02 -0.29186159992E+02  0.88439026970E+02  0.00000000000E+00 0.  1.
        -13    1    3    3    0    0 -0.16499019293E+02 -0.62237899159E+02 -0.19007954273E+01  0.64415733735E+02  0.00000000000E+00 0.  1.
         13    1    3    3    0    0 -0.13464054970E+03 -0.40155782494E+02  0.11777784932E+02  0.14099390309E+03  0.00000000000E+00 0. -1.
         -3    1    1    2    0  502  0.27979295106E+03  0.18233725747E+03 -0.75268614099E+02  0.34233950282E+03  0.00000000000E+00 0.  1.
<scales pt_clust_5="13000.00000" pt_clust_6="13000.00000" pt_clust_7="13000.00000" pt_clust_8="13000.00000" pt_clust_9="13000.00000"></scales>
<clustering>
<clus scale="   82.782">  5  6 -1 -1</clus>
<clus scale="   93.637">  7  8 -1 -1</clus>
<clus scale="  205.172">  2  7  1 -1</clus>
<clus scale="  239.451">  5  9 -1 -1</clus>
<clus scale="  526.478">  1  5  2 -1</clus>
</clustering>
</event>
<event>
 9    1  0.2728138E-005  0.2078161E+03  0.7546771E-02  0.1177613E+00
          1   -1    0    0  502    0 -0.00000000000E+00  0.00000000000E+00  0.16713445908E+03  0.16713445908E+03  0.00000000000E+00 0. -1.
         21   -1    0    0  501  502  0.00000000000E+00 -0.00000000000E+00 -0.16098549315E+03  0.16098549315E+03  0.00000000000E+00 0.  1.
         23    2    1    2    0    0 -0.13936454915E+02 -0.20649508309E+02 -0.58671942611E+02  0.11042917914E+03  0.90175272587E+02 0.  0.
        -24    2    1    2    0    0 -0.62725299815E+02 -0.40241337941E+02  0.43084283341E+02  0.11740517756E+03  0.79836656555E+02 0.  0.
         13    1    4    4    0    0 -0.76183696014E+02 -0.12234715729E+02  0.37670897853E+02  0.85864663001E+02  0.00000000000E+00 0. -1.
        -14    1    4    4    0    0  0.13458396199E+02 -0.28006622212E+02  0.54133854886E+01  0.31540514555E+02  0.00000000000E+00 0.  1.
        -11    1    3    3    0    0 -0.18298760717E+02  0.25530533239E+02  0.48401882975E+01  0.31781758825E+02  0.00000000000E+00 0. -1.
         11    1    3    3    0    0  0.43623058020E+01 -0.46180041548E+02 -0.63512130908E+02  0.78647420313E+02  0.00000000000E+00 0.  1.
          2    1    1    2  501    0  0.76661754730E+02  0.60890846250E+02  0.21736625199E+02  0.10028559553E+03  0.00000000000E+00 0. -1.
<scales pt_clust_5="13000.00000" pt_clust_6="13000.00000" pt_clust_7="13000.00000" pt_clust_8="13000.00000" pt_clust_9="13000.00000"></scales>
<clustering>
<clus scale="   79.837">  5  6 -1 -1</clus>
<clus scale="   90.175">  7  8 -1 -1</clus>
<clus scale="   93.553">  1  7  2 -1</clus>
<clus scale="   87.701">  5  9 -1 -1</clus>
<clus scale="  207.816">  2  5  1 -1</clus>
</clustering>
</event>
<event>
 9    1  0.2728138E-005  0.2228193E+03  0.7546771E-02  0.1144046E+00
         21   -1    0    0  501  502  0.00000000000E+00  0.00000000000E+00  0.19440633035E+03  0.19440633035E+03  0.00000000000E+00 0. -1.
          1   -1    0    0  502    0 -0.00000000000E+00 -0.00000000000E+00 -0.19412454924E+03  0.19412454924E+03  0.00000000000E+00 0. -1.
         23    2    1    2    0    0  0.11024464379E+03  0.80614216594E+02 -0.35540271490E+01  0.16567852957E+03  0.93724119891E+02 0.  0.
        -24    2    1    2    0    0 -0.11885407593E+01  0.47079465936E+01 -0.13850895808E+02  0.83260356553E+02  0.81956465689E+02 0.  0.
         11    1    4    4    0    0 -0.32804554517E+02 -0.11650258115E+02  0.14541500591E+02  0.37726947274E+02  0.00000000000E+00 0. -1.
        -12    1    4    4    0    0  0.31616013758E+02  0.16358204709E+02 -0.28392396399E+02  0.45533409278E+02  0.00000000000E+00 0.  1.
        -13    1    3    3    0    0 -0.26216694974E+01  0.34844536952E+02  0.21920268850E+02  0.41249401121E+02  0.00000000000E+00 0.  1.
         13    1    3    3    0    0  0.11286631329E+03  0.45769679642E+02 -0.25474295999E+02  0.12442912845E+03  0.00000000000E+00 0. -1.
          2    1    1    2  501    0 -0.10905610303E+03 -0.85322163188E+02  0.17686704070E+02  0.13959199347E+03  0.00000000000E+00 0. -1.
<scales pt_clust_5="13000.00000" pt_clust_6="13000.00000" pt_clust_7="13000.00000" pt_clust_8="13000.00000" pt_clust_9="13000.00000"></scales>
<clustering>
<clus scale="   81.956">  5  6 -1 -1</clus>
<clus scale="   93.724">  7  8 -1 -1</clus>
<clus scale="  138.467">  5  9 -1 -1</clus>
<clus scale="  165.640">  2  7  1 -1</clus>
<clus scale="  222.819">  1  5  2 -1</clus>
</clustering>
</event>
<event>
 9    1  0.2728138E-005  0.3113095E+03  0.7546771E-02  0.1086451E+00
          1   -1    0    0  502    0 -0.00000000000E+00  0.00000000000E+00  0.16864698804E+04  0.16864698804E+04  0.00000000000E+00 0. -1.
         21   -1    0    0  501  502  0.00000000000E+00 -0.00000000000E+00 -0.74174194166E+02  0.74174194166E+02  0.00000000000E+00 0. -1.
         23    2    1    2    0    0 -0.81978865110E+02  0.23012353650E+03  0.12766752010E+04  0.13028725903E+04  0.88882176853E+02 0.  0.
        -24    2    1    2    0    0 -0.35190324760E+02 -0.91682077998E+02  0.11382768259E+03  0.17126371160E+03  0.82039961023E+02 0.  0.
         13    1    4    4    0    0  0.21012759945E+02 -0.47365613886E+01  0.73696523697E+01  0.22765826810E+02  0.00000000000E+00 0. -1.
        -14    1    4    4    0    0 -0.56203084705E+02 -0.86945516610E+02  0.10645803022E+03  0.14849788479E+03  0.00000000000E+00 0.  1.
        -13    1    3    3    0    0  0.17037139074E+02  0.13602416020E+02  0.11564713036E+03  0.11768410508E+03  0.00000000000E+00 0.  1.
         13    1    3    3    0    0 -0.99016004184E+02  0.21652112048E+03  0.11610280706E+04  0.11851884852E+04  0.00000000000E+00 0. -1.
          2    1    1    2  501    0  0.11716918987E+03 -0.13844145850E+03  0.22179280266E+03  0.28650777266E+03  0.00000000000E+00 0. -1.
<scales pt_clust_5="13000.00000" pt_clust_6="13000.00000" pt_clust_7="13000.00000" pt_clust_8="13000.00000" pt_clust_9="13000.00000"></scales>
<clustering>
<clus scale="   82.040">  5  6 -1 -1</clus>
<clus scale="   88.882">  7  8 -1 -1</clus>
<clus scale="  181.369">  5  9 -1 -1</clus>
<clus scale="  259.957">  1  7  2 -1</clus>
<clus scale="  311.310">  2  5  1 -1</clus>
</clustering>
</event>
<event>
 9    1  0.2728138E-005  0.1265117E+03  0.7546771E-02  0.1242455E+00
         21   -1    0    0  501  502  0.00000000000E+00  0.00000000000E+00  0.18514429353E+03  0.18514429353E+03  0.00000000000E+00 0. -1.
          3   -1    0    0  502    0 -0.00000000000E+00 -0.00000000000E+00 -0.11800864852E+03  0.11800864852E+03  0.00000000000E+00 0. -1.
         23    2    1    2    0    0 -0.55336047897E+02 -0.24210569254E+02 -0.63228238590E+02  0.12149402218E+03  0.84349021389E+02 0.  0.
        -24    2    1    2    0    0  0.34535941011E+02  0.16463393576E+02  0.13228841871E+03  0.15937962426E+03  0.80236303228E+02 0.  0.
         13    1    4    4    0    0  0.37652050522E+02  0.31339845904E+02  0.13529047891E+03  0.14388667949E+03  0.00000000000E+00 0. -1.
        -14    1    4    4    0    0 -0.31161095107E+01 -0.14876452328E+02 -0.30020602017E+01  0.15492944775E+02  0.00000000000E+00 0.  1.
        -13    1    3    3    0    0  0.10963083937E+02 -0.32097736282E+02 -0.35790750674E+02  0.49309549964E+02  0.00000000000E+00 0.  1.
         13    1    3    3    0    0 -0.66299131834E+02  0.78871670282E+01 -0.27437487917E+02  0.72184472214E+02  0.00000000000E+00 0. -1.
          4    1    1    2  501    0  0.20800106886E+02  0.77471756782E+01 -0.19245351061E+01  0.22279295609E+02  0.00000000000E+00 0. -1.
<scales pt_clust_5="13000.00000" pt_clust_6="13000.00000" pt_clust_7="13000.00000" pt_clust_8="13000.00000" pt_clust_9="13000.00000"></scales>
<clustering>
<clus scale="   80.236">  5  6 -1 -1</clus>
<clus scale="   22.196">  5  9 -1 -1</clus>
<clus scale="   84.349">  7  8 -1 -1</clus>
<clus scale="  103.745">  2  7  1 -1</clus>
<clus scale="  126.512">  1  5  2 -1</clus>
</clustering>
</event>
<event>
 9    1  0.2728138E-005  0.8330246E+03  0.7546771E-02  0.1000261E+00
         21   -1    0    0  501  502  0.00000000000E+00  0.00000000000E+00  0.40053229798E+03  0.40053229798E+03  0.00000000000E+00 0. -1.
          1   -1    0    0  502    0 -0.00000000000E+00 -0.00000000000E+00 -0.65937388779E+03  0.65937388779E+03  0.00000000000E+00 0. -1.
         23    2    1    2    0    0 -0.11602781484E+03  0.81833154896E+02 -0.14463729428E+03  0.21908951735E+03  0.83193453223E+02 0.  0.
        -24    2    1    2    0    0 -0.57821515487E+02 -0.34122726738E+03 -0.31072418322E+03  0.47186008356E+03  0.79517575152E+02 0.  0.
         11    1    4    4    0    0 -0.21751340553E+02 -0.19643451235E+03 -0.12594666444E+03  0.23435486072E+03  0.00000000000E+00 0. -1.
        -12    1    4    4    0    0 -0.36070174934E+02 -0.14479275503E+03 -0.18477751878E+03  0.23750522284E+03  0.00000000000E+00 0.  1.
        -13    1    3    3    0    0  0.70265629558E+01  0.29029412577E+02 -0.18521227666E+02  0.35144206575E+02  0.00000000000E+00 0.  1.
         13    1    3    3    0    0 -0.12305437780E+03  0.52803742319E+02 -0.12611606662E+03  0.18394531078E+03  0.00000000000E+00 0. -1.
          2    1    1    2  501    0  0.17384933033E+03  0.25939411249E+03  0.19651988770E+03  0.36895658486E+03  0.00000000000E+00 0. -1.
<scales pt_clust_5="13000.00000" pt_clust_6="13000.00000" pt_clust_7="13000.00000" pt_clust_8="13000.00000" pt_clust_9="13000.00000"></scales>
<clustering>
<clus scale="   79.518">  5  6 -1 -1</clus>
<clus scale="   83.193">  7  8 -1 -1</clus>
<clus scale="  164.561">  2  7  1 -1</clus>
<clus scale="  313.923">  5  9 -1 -1</clus>
<clus scale="  833.025">  1  5  2 -1</clus>
</clustering>
</event>
<event>
 9    1  0.2728138E-005  0.1868394E+03  0.7546771E-02  0.1161950E+00
         21   -1    0    0  501  502  0.00000000000E+00  0.00000000000E+00  0.29725411385E+03  0.29725411385E+03  0.00000000000E+00 0.  1.
          1   -1    0    0  502    0 -0.00000000000E+00 -0.00000000000E+00 -0.12038332678E+03  0.12038332678E+03  0.00000000000E+00 0. -1.
         23    2    1    2    0    0  0.85413333379E+02 -0.13613039853E+03  0.47101689773E+02  0.19015338568E+03  0.90071182871E+02 0.  0.
        -24    2    1    2    0    0 -0.62202495448E+02  0.94508200249E+02  0.87908402535E+02  0.16405324104E+03  0.79903869150E+02 0.  0.
         13    1    4    4    0    0  0.16989743011E+02  0.36732339020E+02  0.26712887773E+02  0.48492210412E+02  0.00000000000E+00 0. -1.
        -14    1    4    4    0    0 -0.79192238459E+02  0.57775861229E+02  0.61195514762E+02  0.11556103063E+03  0.00000000000E+00 0.  1.
        -13    1    3    3    0    0  0.44396584121E+02 -0.89394861367E+01 -0.72845298150E+01  0.45869766389E+02  0.00000000000E+00 0.  1.
         13    1    3    3    0    0  0.41016749259E+02 -0.12719091239E+03  0.54386219588E+02  0.14428361929E+03  0.00000000000E+00 0. -1.
          2    1    1    2  501    0 -0.23210837931E+02  0.41622198279E+02  0.41860694763E+02  0.63430813909E+02  0.00000000000E+00 0. -1.
<scales pt_clust_5="13000.00000" pt_clust_6="13000.00000" pt_clust_7="13000.00000" pt_clust_8="13000.00000" pt_clust_9="13000.00000"></scales>
<clustering>
<clus scale="   79.904">  5  6 -1 -1</clus>
<clus scale="   47.657">  5  9 -1 -1</clus>
<clus scale="   90.071">  7  8 -1 -1</clus>
<clus scale="  184.227">  2  7  1 -1</clus>
<clus scale="  186.839">  1  5  2 -1</clus>
</clustering>
</event>
<event>
 9    1  0.2728138E-005  0.2628739E+03  0.7546771E-02  0.1140751E+00
          1   -1    0    0  502    0 -0.00000000000E+00  0.00000000000E+00  0.49074243493E+03  0.49074243493E+03  0.00000000000E+00 0. -1.
         21   -1    0    0  501  502  0.00000000000E+00 -0.00000000000E+00 -0.73828644411E+02  0.73828644411E+02  0.00000000000E+00 0. -1.
         23    2    1    2    0    0  0.50285795128E+02  0.15250975314E+02  0.18088686213E+03  0.21128452429E+03  0.95707052381E+02 0.  0.
        -24    2    1    2    0    0 -0.35689972478E+02  0.33370284467E+02 -0.17159543203E+02  0.95060966966E+02  0.79716921018E+02 0.  0.
         11    1    4    4    0    0 -0.51937898008E+02  0.45205985393E+02 -0.34932407165E+00  0.68856723652E+02  0.00000000000E+00 0. -1.
        -12    1    4    4    0    0  0.16247925529E+02 -0.11835700925E+02 -0.16810219132E+02  0.26204243314E+02  0.00000000000E+00 0.  1.
        -11    1    3    3    0    0  0.23262145410E+01  0.38031909139E+02  0.22534417381E+02  0.44267791379E+02  0.00000000000E+00 0.  1.
         11    1    3    3    0    0  0.47959580587E+02 -0.22780933825E+02  0.15835244475E+03  0.16701673291E+03  0.00000000000E+00 0. -1.
          2    1    1    2  501    0 -0.14595822650E+02 -0.48621259781E+02  0.25318647160E+03  0.25822558808E+03  0.00000000000E+00 0. -1.
<scales pt_clust_5="13000.00000" pt_clust_6="13000.00000" pt_clust_7="13000.00000" pt_clust_8="13000.00000" pt_clust_9="13000.00000"></scales>
<clustering>
<clus scale="   79.717">  5  6 -1 -1</clus>
<clus scale="   50.765">  5  9 -1 -1</clus>
<clus scale="   95.707">  7  8 -1 -1</clus>
<clus scale="  109.184">  1  7  2 -1</clus>
<clus scale="  262.874">  2  5  1 -1</clus>
</clustering>
</event>
<event>
 9    1  0.2728138E-005  0.3407262E+03  0.7546771E-02  0.1106622E+00
          1   -1    0    0  502    0 -0.00000000000E+00  0.00000000000E+00  0.65667646684E+03  0.65667646684E+03  0.00000000000E+00 0. -1.
         21   -1    0    0  501  502  0.00000000000E+00 -0.00000000000E+00 -0.11895866917E+03  0.11895866917E+03  0.00000000000E+00 0.  1.
         23    2    1    2    0    0  0.65952504000E+02 -0.29787478862E+02 -0.23186882455E+02  0.11935136632E+03  0.92033094288E+02 0.  0.
        -24    2    1    2    0    0  0.52087821388E+02  0.38956681602E+02  0.10859742500E+02  0.93640875750E+02  0.66482444492E+02 0.  0.
         13    1    4    4    0    0  0.26441542023E+02  0.56129254062E+02  0.92810151649E+01  0.62735839427E+02  0.00000000000E+00 0. -1.
        -14    1    4    4    0    0  0.25646279366E+02 -0.17172572459E+02  0.15787273353E+01  0.30905036324E+02  0.00000000000E+00 0.  1.
        -13    1    3    3    0    0  0.68386616214E+02 -0.57342191812E+02 -0.14954172783E+02  0.90490239930E+02  0.00000000000E+00 0.  1.
         13    1    3    3    0    0 -0.24341122144E+01  0.27554712950E+02 -0.82327096720E+01  0.28861126392E+02  0.00000000000E+00 0. -1.
          2    1    1    2  501    0 -0.11804032539E+03 -0.91692027407E+01  0.55004493763E+03  0.56264289394E+03  0.00000000000E+00 0. -1.
<scales pt_clust_5="13000.00000" pt_clust_6="13000.00000" pt_clust_7="13000.00000" pt_clust_8="13000.00000" pt_clust_9="13000.00000"></scales>
<clustering>
<clus scale="   66.482">  5  6 -1 -1</clus>
<clus scale="   92.033">  7  8 -1 -1</clus>
<clus scale="  117.077">  1  7  2 -1</clus>
<clus scale="   68.264">  5  9 -1 -1</clus>
<clus scale="  340.726">  2  5  1 -1</clus>
</clustering>
</event>
<event>
 9    1  0.2728138E-005  0.2086763E+03  0.7546771E-02  0.1178030E+00
         21   -1    0    0  501  502  0.00000000000E+00  0.00000000000E+00  0.35298932950E+02  0.35298932950E+02  0.00000000000E+00 0.  1.
          1   -1    0    0  502    0 -0.00000000000E+00 -0.00000000000E+00 -0.66587333548E+03  0.66587333548E+03  0.00000000000E+00 0. -1.
         23    2    1    2    0    0  0.72742100792E+01  0.11619805473E+02 -0.13144545651E+03  0.16017733675E+03  0.90503796386E+02 0.  0.
        -24    2    1    2    0    0 -0.21326748230E+02 -0.81370996933E+02 -0.18277950579E+03  0.21674245154E+03  0.80578367025E+02 0.  0.
         11    1    4    4    0    0 -0.34185666285E+02 -0.45798131477E+01 -0.32013063697E+02  0.47058163108E+02  0.00000000000E+00 0. -1.
        -12    1    4    4    0    0  0.12858918054E+02 -0.76791183786E+02 -0.15076644209E+03  0.16968428843E+03  0.00000000000E+00 0.  1.
        -11    1    3    3    0    0  0.35942401097E+02  0.35168660653E+01 -0.13543957651E+02  0.38570238947E+02  0.00000000000E+00 0.  1.
         11    1    3    3    0    0 -0.28668191018E+02  0.81029394078E+01 -0.11790149886E+03  0.12160709781E+03  0.00000000000E+00 0. -1.
          2    1    1    2  501    0  0.14052538151E+02  0.69751191460E+02 -0.31634944023E+03  0.32425248013E+03  0.00000000000E+00 0. -1.
<scales pt_clust_5="13000.00000" pt_clust_6="13000.00000" pt_clust_7="13000.00000" pt_clust_8="13000.00000" pt_clust_9="13000.00000"></scales>
<clustering>
<clus scale="   80.578">  5  6 -1 -1</clus>
<clus scale="   71.153">  5  9 -1 -1</clus>
<clus scale="   90.504">  7  8 -1 -1</clus>
<clus scale="   91.536">  2  7  1 -1</clus>
<clus scale="  208.676">  1  5  2 -1</clus>
</clustering>
</event>
<event>
 9    1  0.2728138E-005  0.3771455E+03  0.7546771E-02  0.1088314E+00
         -2   -1    0    0    0  501 -0.00000000000E+00  0.00000000000E+00  0.41715805114E+03  0.41715805114E+03  0.00000000000E+00 0.  1.
         21   -1    0    0  501  502  0.00000000000E+00 -0.00000000000E+00 -0.16026534626E+03  0.16026534626E+03  0.00000000000E+00 0.  1.
         23    2    1    2    0    0 -0.10405728226E+03 -0.19476073021E+02  0.54786394209E+02  0.14953826883E+03  0.90293462900E+02 0.  0.
        -24    2    1    2    0    0 -0.83256290491E+02 -0.19974283826E+02  0.20497827342E+03  0.23644074145E+03  0.80978699192E+02 0.  0.
         13    1    4    4    0    0 -0.34419333758E+02 -0.33854933309E+02  0.36626805292E+02  0.60600081779E+02  0.00000000000E+00 0. -1.
        -14    1    4    4    0    0 -0.48836956733E+02  0.13880649483E+02  0.16835146813E+03  0.17584065967E+03  0.00000000000E+00 0.  1.
        -13    1    3    3    0    0 -0.83456765023E+02 -0.27212219358E+02 -0.28671266786E+01  0.87827996253E+02  0.00000000000E+00 0.  1.
         13    1    3    3    0    0 -0.20600517234E+02  0.77361463369E+01  0.57653520887E+02  0.61710272574E+02  0.00000000000E+00 0. -1.
         -1    1    1    2    0  502  0.18731357275E+03  0.39450356847E+02 -0.28719627463E+01  0.19144438712E+03  0.00000000000E+00 0.  1.
<scales pt_clust_5="13000.00000" pt_clust_6="13000.00000" pt_clust_7="13000.00000" pt_clust_8="13000.00000" pt_clust_9="13000.00000"></scales>
<clustering>
<clus scale="   80.979">  5  6 -1 -1</clus>
<clus scale="   90.293">  7  8 -1 -1</clus>
<clus scale="  139.141">  1  7  2 -1</clus>
<clus scale="  159.745">  5  9 -1 -1</clus>
<clus scale="  377.145">  2  5  1 -1</clus>
</clustering>
</event>
<event>
 9    1  0.2728138E-005  0.3402574E+03  0.7546771E-02  0.1103994E+00
          1   -1    0    0  502    0 -0.00000000000E+00  0.00000000000E+00  0.12621120657E+04  0.12621120657E+04  0.00000000000E+00 0. -1.
         21   -1    0    0  501  502  0.00000000000E+00 -0.00000000000E+00 -0.48954707165E+02  0.48954707165E+02  0.00000000000E+00 0. -1.
         23    2    1    2    0    0 -0.61537880020E+02  0.61502038238E+02  0.15535604418E+03  0.19988779023E+03  0.90830704246E+02 0.  0.
        -24    2    1    2    0    0  0.14933277557E+03  0.42703242220E+01  0.29904523756E+03  0.34453386825E+03  0.83408744948E+02 0.  0.
         11    1    4    4    0    0  0.32908485324E+02  0.11297557263E+02  0.15798296577E+02  0.38212424434E+02  0.00000000000E+00 0. -1.
        -12    1    4    4    0    0  0.11642429024E+03 -0.70272330408E+01  0.28324694098E+03  0.30632144381E+03  0.00000000000E+00 0.  1.
        -11    1    3    3    0    0 -0.59208114471E+02  0.21131264599E+01  0.44473489378E+02  0.74080749052E+02  0.00000000000E+00 0.  1.
         11    1    3    3    0    0 -0.23297655487E+01  0.59388911778E+02  0.11088255481E+03  0.12580704118E+03  0.00000000000E+00 0. -1.
          2    1    1    2  501    0 -0.87794895548E+02 -0.65772362460E+02  0.75875607678E+03  0.76664511437E+03  0.00000000000E+00 0. -1.
<scales pt_clust_5="13000.00000" pt_clust_6="13000.00000" pt_clust_7="13000.00000" pt_clust_8="13000.00000" pt_clust_9="13000.00000"></scales>
<clustering>
<clus scale="   83.409">  5  6 -1 -1</clus>
<clus scale="   90.831">  7  8 -1 -1</clus>
<clus scale="  109.699">  5  9 -1 -1</clus>
<clus scale="  125.776">  1  7  2 -1</clus>
<clus scale="  340.257">  2  5  1 -1</clus>
</clustering>
</event>
<event>
 9    1  0.2728138E-005  0.2488479E+03  0.7546771E-02  0.1148679E+00
          1   -1    0    0  502    0 -0.00000000000E+00  0.00000000000E+00  0.25529660399E+03  0.25529660399E+03  0.00000000000E+00 0. -1.
         21   -1    0    0  501  502  0.00000000000E+00 -0.00000000000E+00 -0.29194147753E+03  0.29194147753E+03  0.00000000000E+00 0. -1.
         23    2    1    2    0    0 -0.52609143853E+02  0.36228801070E+01  0.18535402814E+03  0.21375827288E+03  0.92496682110E+02 0.  0.
        -24    2    1    2    0    0 -0.20550331964E+01  0.14247243506E+01  0.21916530152E+02  0.83463032308E+02  0.80495282266E+02 0.  0.
         11    1    4    4    0    0 -0.17981547819E+02 -0.28639277438E+02 -0.11555280192E+02  0.35736099038E+02  0.00000000000E+00 0. -1.
        -12    1    4    4    0    0  0.15926514623E+02  0.30064001789E+02  0.33471810344E+02  0.47726933269E+02  0.00000000000E+00 0.  1.
        -13    1    3    3    0    0 -0.58540633634E+02  0.36156486787E+02  0.15170331465E+03  0.16657788869E+03  0.00000000000E+00 0. -1.
         13    1    3    3    0    0  0.59314897812E+01 -0.32533606680E+02  0.33650713484E+02  0.47180384194E+02  0.00000000000E+00 0.  1.
          2    1    1    2  501    0  0.54664177049E+02 -0.50476044576E+01 -0.24391543183E+03  0.25001677633E+03  0.00000000000E+00 0. -1.
<scales pt_clust_5="13000.00000" pt_clust_6="13000.00000" pt_clust_7="13000.00000" pt_clust_8="13000.00000" pt_clust_9="13000.00000"></scales>
<clustering>
<clus scale="   80.495">  5  6 -1 -1</clus>
<clus scale="   54.897">  5  9 -1 -1</clus>
<clus scale="   92.497">  7  8 -1 -1</clus>
<clus scale="  106.473">  1  7  2 -1</clus>
<clus scale="  248.848">  2  5  1 -1</clus>
</clustering>
</event>
<event>
 9    1  0.2728138E-005  0.3513835E+03  0.7546771E-02  0.1115450E+00
         21   -1    0    0  501  502  0.00000000000E+00  0.00000000000E+00  0.26898415773E+03  0.26898415773E+03  0.00000000000E+00 0. -1.
          1   -1    0    0  502    0 -0.00000000000E+00 -0.00000000000E+00 -0.19204749335E+03  0.19204749335E+03  0.00000000000E+00 0. -1.
         23    2    1    2    0    0  0.77655040763E+01  0.21045317435E+01 -0.35090782290E+02  0.92222092687E+02  0.84904765888E+02 0.  0.
        -24    2    1    2    0    0 -0.69944652150E+02 -0.75068974036E+02  0.19945459738E+03  0.23906533704E+03  0.82719367323E+02 0.  0.
         13    1    4    4    0    0 -0.65071059494E+02 -0.46580668287E+02  0.19372200584E+03  0.20960013594E+03  0.00000000000E+00 0. -1.
        -14    1    4    4    0    0 -0.48735926560E+01 -0.28488305749E+02  0.57325915422E+01  0.29465201096E+02  0.00000000000E+00 0.  1.
        -11    1    3    3    0    0  0.26576191977E+02 -0.11766457679E+02 -0.54550029243E+02  0.61809782370E+02  0.00000000000E+00 0.  1.
         11    1    3    3    0    0 -0.18810687900E+02  0.13870989422E+02  0.19459246953E+02  0.30412310317E+02  0.00000000000E+00 0. -1.
          2    1    1    2  501    0  0.62179148074E+02  0.72964442292E+02 -0.87427150709E+02  0.12974422136E+03  0.00000000000E+00 0. -1.
<scales pt_clust_5="13000.00000" pt_clust_6="13000.00000" pt_clust_7="13000.00000" pt_clust_8="13000.00000" pt_clust_9="13000.00000"></scales>
<clustering>
<clus scale="   82.719">  5  6 -1 -1</clus>
<clus scale="   84.905">  7  8 -1 -1</clus>
<clus scale="   85.285">  2  7  1 -1</clus>
<clus scale="  101.552">  5  9 -1 -1</clus>
<clus scale="  351.383">  1  5  2 -1</clus>
</clustering>
</event>
<event>
 9    1  0.2728138E-005  0.4049483E+03  0.7546771E-02  0.1086632E+00
          1   -1    0    0  502    0 -0.00000000000E+00  0.00000000000E+00  0.26501722049E+03  0.26501722049E+03  0.00000000000E+00 0. -1.
         21   -1    0    0  501  502  0.00000000000E+00 -0.00000000000E+00 -0.26253869161E+03  0.26253869161E+03  0.00000000000E+00 0. -1.
         23    2    1    2    0    0 -0.75548925918E+02  0.29720489891E+01  0.31137179117E+02  0.12159481884E+03  0.89996126372E+02 0.  0.
        -24    2    1    2    0    0  0.62972866734E+02 -0.18128199065E+03 -0.75100447115E+02  0.22127370047E+03  0.80580588766E+02 0.  0.
         11    1    4    4    0    0  0.59630106202E+02 -0.69462281804E+02 -0.57290582451E+02  0.10799522673E+03  0.00000000000E+00 0. -1.
        -12    1    4    4    0    0  0.33427605311E+01 -0.11181970884E+03 -0.17809864664E+02  0.11327847374E+03  0.00000000000E+00 0.  1.
        -13    1    3    3    0    0 -0.65650406525E+02  0.40043654732E+02  0.93367266835E+01  0.77463827857E+02  0.00000000000E+00 0.  1.
         13    1    3    3    0    0 -0.98985193935E+01 -0.37071605742E+02  0.21800452434E+02  0.44130990979E+02  0.00000000000E+00 0. -1.
          2    1    1    2  501    0  0.12576059185E+02  0.17830994166E+03  0.46441796878E+02  0.18468739279E+03  0.00000000000E+00 0. -1.
<scales pt_clust_5="13000.00000" pt_clust_6="13000.00000" pt_clust_7="13000.00000" pt_clust_8="13000.00000" pt_clust_9="13000.00000"></scales>
<clustering>
<clus scale="   80.581">  5  6 -1 -1</clus>
<clus scale="   89.996">  7  8 -1 -1</clus>
<clus scale="  117.541">  1  7  2 -1</clus>
<clus scale="  183.257">  5  9 -1 -1</clus>
<clus scale="  404.948">  2  5  1 -1</clus>
</clustering>
</event>
<event>
 9    1  0.2728138E-005  0.2950274E+03  0.7546771E-02  0.1096684E+00
         21   -1    0    0  501  502  0.00000000000E+00  0.00000000000E+00  0.70786956743E+02  0.70786956743E+02  0.00000000000E+00 0. -1.
          1   -1    0    0  502    0 -0.00000000000E+00 -0.00000000000E+00 -0.13049318465E+04  0.13049318465E+04  0.00000000000E+00 0. -1.
         23    2    1    2    0    0 -0.19933123897E+03 -0.79918854250E+02 -0.90111176574E+03  0.93080055623E+03  0.90924666828E+02 0.  0.
        -24    2    1    2    0    0  0.40284545335E+02  0.98018035432E+02 -0.17121829648E+03  0.21730570445E+03  0.81704860765E+02 0.  0.
         11    1    4    4    0    0  0.42361595744E+02  0.10925383859E+03 -0.13223954639E+03  0.17668673881E+03  0.00000000000E+00 0. -1.
        -12    1    4    4    0    0 -0.20770504087E+01 -0.11235803158E+02 -0.38978750092E+02  0.40618965641E+02  0.00000000000E+00 0.  1.
        -13    1    3    3    0    0 -0.42361241355E+02 -0.16953282194E+02 -0.76919474721E+02  0.89434300678E+02  0.00000000000E+00 0.  1.
         13    1    3    3    0    0 -0.15696999762E+03 -0.62965572056E+02 -0.82419229102E+03  0.84136625556E+03  0.00000000000E+00 0. -1.
          2    1    1    2  501    0  0.15904669363E+03 -0.18099181183E+02 -0.16181482750E+03  0.22761254252E+03  0.00000000000E+00 0. -1.
<scales pt_clust_5="13000.00000" pt_clust_6="13000.00000" pt_clust_7="13000.00000" pt_clust_8="13000.00000" pt_clust_9="13000.00000"></scales>
<clustering>
<clus scale="   81.705">  5  6 -1 -1</clus>
<clus scale="   90.925">  7  8 -1 -1</clus>
<clus scale="  160.073">  5  9 -1 -1</clus>
<clus scale="  233.211">  2  7  1 -1</clus>
<clus scale="  295.027">  1  5  2 -1</clus>
</clustering>
</event>
<event>
 9    1  0.2728138E-005  0.2222337E+03  0.7546771E-02  0.1158768E+00
         -2   -1    0    0    0  501 -0.00000000000E+00  0.00000000000E+00  0.21453130331E+03  0.21453130331E+03  0.00000000000E+00 0.  1.
         21   -1    0    0  501  502  0.00000000000E+00 -0.00000000000E+00 -0.18601569500E+03  0.18601569500E+03  0.00000000000E+00 0. -1.
         23    2    1    2    0    0  0.49631560084E+01  0.73671970520E+02 -0.90343154904E+02  0.14852475001E+03  0.91899529754E+02 0.  0.
        -24    2    1    2    0    0 -0.59674911822E+02 -0.18703545545E+02  0.13690786536E+03  0.17239389873E+03  0.84053405664E+02 0.  0.
         13    1    4    4    0    0 -0.49790663667E+02  0.15794997670E+02  0.31393495420E+02  0.60943774862E+02  0.00000000000E+00 0. -1.
        -14    1    4    4    0    0 -0.98842481557E+01 -0.34498543215E+02  0.10551436994E+03  0.11145012386E+03  0.00000000000E+00 0.  1.
        -11    1    3    3    0    0 -0.66069026541E+01  0.30290926709E+02 -0.98170866871E+02  0.10295003888E+03  0.00000000000E+00 0. -1.
         11    1    3    3    0    0  0.11570058663E+02  0.43381043811E+02  0.78277119674E+01  0.45574711126E+02  0.00000000000E+00 0.  1.
         -1    1    1    2    0  502  0.54711755814E+02 -0.54968424975E+02 -0.18049102143E+02  0.79628349579E+02  0.00000000000E+00 0.  1.
<scales pt_clust_5="13000.00000" pt_clust_6="13000.00000" pt_clust_7="13000.00000" pt_clust_8="13000.00000" pt_clust_9="13000.00000"></scales>
<clustering>
<clus scale="   84.053">  5  6 -1 -1</clus>
<clus scale="   77.556">  5  9 -1 -1</clus>
<clus scale="   91.900">  7  8 -1 -1</clus>
<clus scale="  117.889">  1  7  2 -1</clus>
<clus scale="  222.234">  2  5  1 -1</clus>
</clustering>
</event>
<event>
 9    1  0.2728138E-005  0.4728618E+03  0.7546771E-02  0.1049460E+00
          1   -1    0    0  502    0 -0.00000000000E+00  0.00000000000E+00  0.76171826712E+03  0.76171826712E+03  0.00000000000E+00 0. -1.
         21   -1    0    0  501  502  0.00000000000E+00 -0.00000000000E+00 -0.15375724381E+03  0.15375724381E+03  0.00000000000E+00 0. -1.
         23    2    1    2    0    0  0.14702185456E+03 -0.11910197085E+03  0.24161993297E+03  0.31730821246E+03  0.80644928574E+02 0.  0.
        -24    2    1    2    0    0  0.12630376664E+03  0.62456619809E+02  0.24456205775E+03  0.29362547248E+03  0.80943481379E+02 0.  0.
         11    1    4    4    0    0  0.10968637634E+03  0.41131703079E+02  0.12609568125E+03  0.17211344800E+03  0.00000000000E+00 0. -1.
        -12    1    4    4    0    0  0.16617390298E+02  0.21324916731E+02  0.11846637650E+03  0.12151202449E+03  0.00000000000E+00 0.  1.
        -11    1    3    3    0    0  0.11071042812E+03 -0.97762762582E+02  0.12560207521E+03  0.19388202067E+03  0.00000000000E+00 0.  1.
         11    1    3    3    0    0  0.36311426441E+02 -0.21339208269E+02  0.11601785776E+03  0.12342619178E+03  0.00000000000E+00 0. -1.
          2    1    1    2  501    0 -0.27332562120E+03  0.56645351043E+02  0.12177903260E+03  0.30454182599E+03  0.00000000000E+00 0. -1.
<scales pt_clust_5="13000.00000" pt_clust_6="13000.00000" pt_clust_7="13000.00000" pt_clust_8="13000.00000" pt_clust_9="13000.00000"></scales>
<clustering>
<clus scale="   80.645">  7  8 -1 -1</clus>
<clus scale="   80.943">  5  6 -1 -1</clus>
<clus scale="  205.680">  1  7  2 -1</clus>
<clus scale="  208.379">  5  9 -1 -1</clus>
<clus scale="  472.862">  2  5  1 -1</clus>
</clustering>
</event>
<event>
 9    1  0.2728138E-005  0.4502310E+03  0.7546771E-02  0.1076331E+00
          1   -1    0    0  502    0 -0.00000000000E+00  0.00000000000E+00  0.43415534092E+03  0.43415534092E+03  0.00000000000E+00 0. -1.
         21   -1    0    0  501  502  0.00000000000E+00 -0.00000000000E+00 -0.18264661936E+03  0.18264661936E+03  0.00000000000E+00 0. -1.
         23    2    1    2    0    0  0.20618085135E+02  0.63937627866E+02  0.56609087327E+02  0.12619637297E+03  0.90596965125E+02 0.  0.
        -24    2    1    2    0    0  0.13642925238E+03 -0.19093205612E+03  0.10842819094E+03  0.27090405904E+03  0.81020649554E+02 0.  0.
         11    1    4    4    0    0  0.74774369901E+02 -0.11427399592E+03  0.18857141048E+02  0.13785987200E+03  0.00000000000E+00 0. -1.
        -12    1    4    4    0    0  0.61654882476E+02 -0.76658060192E+02  0.89571049895E+02  0.13304418704E+03  0.00000000000E+00 0.  1.
        -11    1    3    3    0    0  0.11015149707E+02 -0.20266458533E+02  0.29016631586E+02  0.37067880613E+02  0.00000000000E+00 0.  1.
         11    1    3    3    0    0  0.96029354278E+01  0.84204086400E+02  0.27592455741E+02  0.89128492352E+02  0.00000000000E+00 0. -1.
          2    1    1    2  501    0 -0.15704733751E+03  0.12699442825E+03  0.86471443291E+02  0.21970152829E+03  0.00000000000E+00 0. -1.
<scales pt_clust_5="13000.00000" pt_clust_6="13000.00000" pt_clust_7="13000.00000" pt_clust_8="13000.00000" pt_clust_9="13000.00000"></scales>
<clustering>
<clus scale="   81.021">  5  6 -1 -1</clus>
<clus scale="   90.597">  7  8 -1 -1</clus>
<clus scale="  112.787">  1  7  2 -1</clus>
<clus scale="  214.599">  5  9 -1 -1</clus>
<clus scale="  450.231">  2  5  1 -1</clus>
</clustering>
</event>
<event>
 9    1  0.2728138E-005  0.7994025E+03  0.7546771E-02  0.9982228E-01
          1   -1    0    0  502    0 -0.00000000000E+00  0.00000000000E+00  0.20866358065E+04  0.20866358065E+04  0.00000000000E+00 0. -1.
         21   -1    0    0  501  502  0.00000000000E+00 -0.00000000000E+00 -0.13840384227E+03  0.13840384227E+03  0.00000000000E+00 0. -1.
         23    2    1    2    0    0  0.10658596945E+03 -0.14091337714E+03  0.12602960190E+03  0.23519901496E+03  0.90653005152E+02 0.  0.
        -24    2    1    2    0    0  0.49043625010E+02 -0.11173913493E+03 -0.19951258257E-01  0.14361528931E+03  0.75726082008E+02 0.  0.
         11    1    4    4    0    0  0.48125439914E+02 -0.94640288154E+02 -0.28903420458E+02  0.11003749281E+03  0.00000000000E+00 0. -1.
        -12    1    4    4    0    0  0.91818509672E+00 -0.17098846773E+02  0.28883469200E+02  0.33577796501E+02  0.00000000000E+00 0.  1.
        -11    1    3    3    0    0  0.99651021041E+02 -0.88107751692E+02  0.49429874520E+02  0.14190353906E+03  0.00000000000E+00 0. -1.
         11    1    3    3    0    0  0.69349484050E+01 -0.52805625448E+02  0.76599727384E+02  0.93295475901E+02  0.00000000000E+00 0.  1.
          2    1    1    2  501    0 -0.15562959446E+03  0.25265251207E+03  0.18222223136E+04  0.18462253445E+04  0.00000000000E+00 0. -1.
<scales pt_clust_5="13000.00000" pt_clust_6="13000.00000" pt_clust_7="13000.00000" pt_clust_8="13000.00000" pt_clust_9="13000.00000"></scales>
<clustering>
<clus scale="   75.726">  5  6 -1 -1</clus>
<clus scale="   90.653">  7  8 -1 -1</clus>
<clus scale="  198.583">  1  7  2 -1</clus>
<clus scale="  128.512">  5  9 -1 -1</clus>
<clus scale="  799.402">  2  5  1 -1</clus>
</clustering>
</event>
<event>
 9    1  0.2728138E-005  0.1283670E+03  0.7546771E-02  0.1235801E+00
         -4   -1    0    0    0  501 -0.00000000000E+00  0.00000000000E+00  0.17256585745E+03  0.17256585745E+03  0.00000000000E+00 0.  1.
         21   -1    0    0  501  502  0.00000000000E+00 -0.00000000000E+00 -0.10886442333E+03  0.10886442333E+03  0.00000000000E+00 0.  1.
         23    2    1    2    0    0  0.71431004234E+00  0.62219768424E+02  0.96283039331E+02  0.14899293143E+03  0.95166486389E+02 0.  0.
        -24    2    1    2    0    0 -0.29257353737E+01 -0.34455611291E+02 -0.47745026507E+02  0.10072507778E+03  0.81671320914E+02 0.  0.
         11    1    4    4    0    0  0.19143976500E+02 -0.36644146127E+02  0.67491426388E+01  0.41890765187E+02  0.00000000000E+00 0. -1.
        -12    1    4    4    0    0 -0.22069711874E+02  0.21885348355E+01 -0.54494169145E+02  0.58834312589E+02  0.00000000000E+00 0.  1.
        -13    1    3    3    0    0  0.22762431221E+02  0.43453991218E+02  0.10732616631E+03  0.11800543887E+03  0.00000000000E+00 0.  1.
         13    1    3    3    0    0 -0.22048121179E+02  0.18765777206E+02 -0.11043126980E+02  0.30987492560E+02  0.00000000000E+00 0. -1.
         -3    1    1    2    0  502  0.22114253313E+01 -0.27764157133E+02  0.15163421287E+02  0.31712271575E+02  0.00000000000E+00 0.  1.
<scales pt_clust_5="13000.00000" pt_clust_6="13000.00000" pt_clust_7="13000.00000" pt_clust_8="13000.00000" pt_clust_9="13000.00000"></scales>
<clustering>
<clus scale="   81.671">  5  6 -1 -1</clus>
<clus scale="   27.852">  5  9 -1 -1</clus>
<clus scale="   95.166">  7  8 -1 -1</clus>
<clus scale="  113.703">  1  7  2 -1</clus>
<clus scale="  128.367">  2  5  1 -1</clus>
</clustering>
</event>
<event>
 9    1  0.2728138E-005  0.2037377E+03  0.7546771E-02  0.1179506E+00
         21   -1    0    0  501  502  0.00000000000E+00  0.00000000000E+00  0.92267214413E+02  0.92267214413E+02  0.00000000000E+00 0. -1.
          3   -1    0    0  502    0 -0.00000000000E+00 -0.00000000000E+00 -0.24340724265E+03  0.24340724265E+03  0.00000000000E+00 0. -1.
         23    2    1    2    0    0  0.26524279489E+02  0.27398923357E+01 -0.60021932236E+02  0.11248944653E+03  0.91324688985E+02 0.  0.
        -24    2    1    2    0    0 -0.37144566379E+02 -0.72194611493E+02 -0.94561778938E+02  0.15283867119E+03  0.88464391907E+02 0.  0.
         13    1    4    4    0    0 -0.54872670775E+02 -0.78058884736E+02 -0.57669006792E+02  0.11148952340E+03  0.00000000000E+00 0. -1.
        -14    1    4    4    0    0  0.17728104396E+02  0.58642732437E+01 -0.36892772146E+02  0.41349147788E+02  0.00000000000E+00 0.  1.
        -11    1    3    3    0    0  0.14813191840E+02 -0.41732935443E+02 -0.11747588229E+02  0.45815656520E+02  0.00000000000E+00 0. -1.
         11    1    3    3    0    0  0.11711087650E+02  0.44472827779E+02 -0.48274344007E+02  0.66673790007E+02  0.00000000000E+00 0.  1.
          4    1    1    2  501    0  0.10620286889E+02  0.69454719157E+02  0.34436829393E+01  0.70346339343E+02  0.00000000000E+00 0. -1.
<scales pt_clust_5="13000.00000" pt_clust_6="13000.00000" pt_clust_7="13000.00000" pt_clust_8="13000.00000" pt_clust_9="13000.00000"></scales>
<clustering>
<clus scale="   88.464">  5  6 -1 -1</clus>
<clus scale="   70.262">  5  9 -1 -1</clus>
<clus scale="   91.325">  7  8 -1 -1</clus>
<clus scale="   95.138">  2  7  1 -1</clus>
<clus scale="  203.738">  1  5  2 -1</clus>
</clustering>
</event>
<event>
 9    1  0.2728138E-005  0.1608945E+03  0.7546771E-02  0.1198810E+00
         21   -1    0    0  501  502  0.00000000000E+00  0.00000000000E+00  0.37067893197E+02  0.37067893197E+02  0.00000000000E+00 0. -1.
          1   -1    0    0  502    0 -0.00000000000E+00 -0.00000000000E+00 -0.56028693110E+03  0.56028693110E+03  0.00000000000E+00 0. -1.
         23    2    1    2    0    0  0.66795061976E+02 -0.52269764013E+02 -0.20183568613E+03  0.23794654843E+03  0.93205188585E+02 0.  0.
        -24    2    1    2    0    0 -0.89316418434E+02  0.38381928550E+02 -0.29946674005E+03  0.32505101550E+03  0.80791331480E+02 0.  0.
         11    1    4    4    0    0 -0.82731266953E+02  0.32592561179E+01 -0.14960351351E+03  0.17098624663E+03  0.00000000000E+00 0. -1.
        -12    1    4    4    0    0 -0.65851514808E+01  0.35122672432E+02 -0.14986322654E+03  0.15406476887E+03  0.00000000000E+00 0.  1.
        -13    1    3    3    0    0  0.53973400291E+02 -0.78918874044E+02 -0.14179681951E+03  0.17101945691E+03  0.00000000000E+00 0. -1.
         13    1    3    3    0    0  0.12821661685E+02  0.26649110031E+02 -0.60038866622E+02  0.66927091518E+02  0.00000000000E+00 0.  1.
          2    1    1    2  501    0  0.22521356458E+02  0.13887835463E+02 -0.21916611726E+02  0.34357260369E+02  0.00000000000E+00 0. -1.
<scales pt_clust_5="13000.00000" pt_clust_6="13000.00000" pt_clust_7="13000.00000" pt_clust_8="13000.00000" pt_clust_9="13000.00000"></scales>
<clustering>
<clus scale="   80.791">  5  6 -1 -1</clus>
<clus scale="   26.459">  5  9 -1 -1</clus>
<clus scale="   93.205">  7  8 -1 -1</clus>
<clus scale="  126.020">  2  7  1 -1</clus>
<clus scale="  160.895">  1  5  2 -1</clus>
</clustering>
</event>
<event>
 9    1  0.2728138E-005  0.2797446E+03  0.7546771E-02  0.1127444E+00
          3   -1    0    0  502    0 -0.00000000000E+00  0.00000000000E+00  0.36829613833E+03  0.36829613833E+03  0.00000000000E+00 0. -1.
         21   -1    0    0  501  502  0.00000000000E+00 -0.00000000000E+00 -0.11142836580E+03  0.11142836580E+03  0.00000000000E+00 0. -1.
         23    2    1    2    0    0  0.85236605341E+02 -0.32212678656E+01  0.74527920137E+02  0.14580107775E+03  0.91803528993E+02 0.  0.
        -24    2    1    2    0    0  0.70330055312E+02  0.32018114927E+02  0.50191586664E+02  0.12778413260E+03  0.88533117023E+02 0.  0.
         11    1    4    4    0    0  0.49047960915E+02 -0.17014837841E+02  0.53088118778E+02  0.74253320007E+02  0.00000000000E+00 0. -1.
        -12    1    4    4    0    0  0.21282094397E+02  0.49032952767E+02 -0.28965321139E+01  0.53530812597E+02  0.00000000000E+00 0.  1.
        -11    1    3    3    0    0  0.31527498088E+02  0.68063289780E+00  0.85248040613E+02  0.90893755700E+02  0.00000000000E+00 0.  1.
         11    1    3    3    0    0  0.53709107252E+02 -0.39019007634E+01 -0.10720120476E+02  0.54907322047E+02  0.00000000000E+00 0. -1.
          4    1    1    2  501    0 -0.15556666065E+03 -0.28796847061E+02  0.13214826572E+03  0.20613929378E+03  0.00000000000E+00 0. -1.
<scales pt_clust_5="13000.00000" pt_clust_6="13000.00000" pt_clust_7="13000.00000" pt_clust_8="13000.00000" pt_clust_9="13000.00000"></scales>
<clustering>
<clus scale="   88.533">  5  6 -1 -1</clus>
<clus scale="   91.804">  7  8 -1 -1</clus>
<clus scale="  125.314">  1  7  2 -1</clus>
<clus scale="  104.395">  5  9 -1 -1</clus>
<clus scale="  279.745">  2  5  1 -1</clus>
</clustering>
</event>
<event>
 9    1  0.2728138E-005  0.3276227E+03  0.7546771E-02  0.1112025E+00
          1   -1    0    0  502    0 -0.00000000000E+00  0.00000000000E+00  0.81188183642E+03  0.81188183642E+03  0.00000000000E+00 0. -1.
         21   -1    0    0  501  502  0.00000000000E+00 -0.00000000000E+00 -0.60468422339E+02  0.60468422339E+02  0.00000000000E+00 0. -1.
         23    2    1    2    0    0  0.63164902440E+02 -0.55264394343E+01  0.17295010817E+03  0.20755223493E+03  0.95633905463E+02 0.  0.
        -24    2    1    2    0    0  0.51244470076E+02 -0.11851418074E+03  0.34039316414E+03  0.37298820156E+03  0.81123890184E+02 0.  0.
         13    1    4    4    0    0  0.44943735677E+02 -0.12948068227E+03  0.32702580922E+03  0.35458576728E+03  0.00000000000E+00 0. -1.
        -14    1    4    4    0    0  0.63007343992E+01  0.10966501536E+02  0.13367354919E+02  0.18402434281E+02  0.00000000000E+00 0.  1.
        -13    1    3    3    0    0  0.26294275352E+02  0.44521768081E+02  0.65922475537E+02  0.83781558414E+02  0.00000000000E+00 0. -1.
         13    1    3    3    0    0  0.36870627088E+02 -0.50048207515E+02  0.10702763264E+03  0.12377067652E+03  0.00000000000E+00 0.  1.
          2    1    1    2  501    0 -0.11440937252E+03  0.12404062017E+03  0.23807014176E+03  0.29180982227E+03  0.00000000000E+00 0. -1.
<scales pt_clust_5="13000.00000" pt_clust_6="13000.00000" pt_clust_7="13000.00000" pt_clust_8="13000.00000" pt_clust_9="13000.00000"></scales>
<clustering>
<clus scale="   81.124">  5  6 -1 -1</clus>
<clus scale="   95.634">  7  8 -1 -1</clus>
<clus scale="  114.744">  1  7  2 -1</clus>
<clus scale="  149.872">  5  9 -1 -1</clus>
<clus scale="  327.623">  2  5  1 -1</clus>
</clustering>
</event>
<event>
 9    1  0.2728138E-005  0.2076715E+03  0.7546771E-02  0.1174189E+00
         21   -1    0    0  501  502  0.00000000000E+00  0.00000000000E+00  0.97248366849E+02  0.97248366849E+02  0.00000000000E+00 0. -1.
          1   -1    0    0  502    0 -0.00000000000E+00 -0.00000000000E+00 -0.38637091852E+03  0.38637091852E+03  0.00000000000E+00 0. -1.
         23    2    1    2    0    0 -0.14620983241E+02 -0.42889371401E+02 -0.25339755082E+03  0.27289732499E+03  0.90605518017E+02 0.  0.
        -24    2    1    2    0    0  0.53076177497E+02 -0.43639720702E+02 -0.45948582059E+02  0.11548222413E+03  0.80643450181E+02 0.  0.
         11    1    4    4    0    0  0.34622817337E+02 -0.93132193684E+01  0.18363974370E+02  0.40282888303E+02  0.00000000000E+00 0. -1.
        -12    1    4    4    0    0  0.18453360160E+02 -0.34326501333E+02 -0.64312556429E+02  0.75199335831E+02  0.00000000000E+00 0.  1.
        -11    1    3    3    0    0  0.35562242579E+02 -0.33541837007E+02 -0.14641908028E+03  0.15436409880E+03  0.00000000000E+00 0. -1.
         11    1    3    3    0    0 -0.50183225820E+02 -0.93475343941E+01 -0.10697847054E+03  0.11853322620E+03  0.00000000000E+00 0.  1.
          2    1    1    2  501    0 -0.38455194256E+02  0.86529092103E+02  0.10223581217E+02  0.95239736236E+02  0.00000000000E+00 0. -1.
<scales pt_clust_5="13000.00000" pt_clust_6="13000.00000" pt_clust_7="13000.00000" pt_clust_8="13000.00000" pt_clust_9="13000.00000"></scales>
<clustering>
<clus scale="   80.643">  5  6 -1 -1</clus>
<clus scale="   90.606">  7  8 -1 -1</clus>
<clus scale="   94.689">  5  9 -1 -1</clus>
<clus scale="  101.305">  2  7  1 -1</clus>
<clus scale="  207.672">  1  5  2 -1</clus>
</clustering>
</event>
<event>
 9    1  0.2728138E-005  0.1667903E+03  0.7546771E-02  0.1191880E+00
         21   -1    0    0  501  502  0.00000000000E+00  0.00000000000E+00  0.71864384717E+02  0.71864384717E+02  0.00000000000E+00 0.  1.
         -2   -1    0    0    0  501 -0.00000000000E+00 -0.00000000000E+00 -0.31079697390E+03  0.31079697390E+03  0.00000000000E+00 0.  1.
         23    2    1    2    0    0  0.31764266663E+02  0.90033486554E+02 -0.11591742172E+03  0.17541334322E+03  0.90653157594E+02 0.  0.
        -24    2    1    2    0    0 -0.41645843302E+02 -0.13862053616E+02 -0.40095486788E+02  0.94219672957E+02  0.73096962430E+02 0.  0.
         13    1    4    4    0    0 -0.43994336973E+02 -0.20671486599E+02 -0.57553518050E+02  0.75334052617E+02  0.00000000000E+00 0. -1.
        -14    1    4    4    0    0  0.23484936708E+01  0.68094329831E+01  0.17458031262E+02  0.18885620339E+02  0.00000000000E+00 0.  1.
        -11    1    3    3    0    0  0.42835049187E+02  0.11965677002E+02 -0.14144624173E+02  0.46670003835E+02  0.00000000000E+00 0.  1.
         11    1    3    3    0    0 -0.11070782524E+02  0.78067809552E+02 -0.10177279755E+03  0.12874333938E+03  0.00000000000E+00 0. -1.
         -1    1    1    2    0  502  0.98815766390E+01 -0.76171432938E+02 -0.82919680667E+02  0.11302834244E+03  0.00000000000E+00 0.  1.
<scales pt_clust_5="13000.00000" pt_clust_6="13000.00000" pt_clust_7="13000.00000" pt_clust_8="13000.00000" pt_clust_9="13000.00000"></scales>
<clustering>
<clus scale="   73.097">  5  6 -1 -1</clus>
<clus scale="   76.810">  5  9 -1 -1</clus>
<clus scale="   90.653">  7  8 -1 -1</clus>
<clus scale="  131.655">  2  7  1 -1</clus>
<clus scale="  166.790">  1  5  2 -1</clus>
</clustering>
</event>
<event>
 9    1  0.6868505E-005  0.5013581E+03  0.7546771E-02  0.1068257E+00
         -2   -1    0    0    0  501 -0.00000000000E+00  0.00000000000E+00  0.12348886899E+04  0.12348886899E+04  0.00000000000E+00 0.  1.
         21   -1    0    0  501  502  0.00000000000E+00 -0.00000000000E+00 -0.76069325853E+02  0.76069325853E+02  0.00000000000E+00 0.  1.
         23    2    1    2    0    0  0.32485919927E+02  0.32846238377E+02  0.29622366636E+03  0.31324497049E+03  0.90773017230E+02 0.  0.
        -24    2    1    2    0    0  0.17863313013E+03  0.10651839383E+03  0.56415795020E+03  0.60648569049E+03  0.79339376045E+02 0.  0.
         11    1    4    4    0    0  0.38958094557E+02  0.61234262590E+01  0.19862662007E+03  0.20250373745E+03  0.00000000000E+00 0. -1.
        -12    1    4    4    0    0  0.13967503557E+03  0.10039496757E+03  0.36553133014E+03  0.40398195305E+03  0.00000000000E+00 0.  1.
        -11    1    3    3    0    0 -0.15210177201E+02  0.49058833741E+02  0.15694375096E+03  0.16513467117E+03  0.00000000000E+00 0.  1.
         11    1    3    3    0    0  0.47696097129E+02 -0.16212595364E+02  0.13927991540E+03  0.14811029932E+03  0.00000000000E+00 0. -1.
         -1    1    1    2    0  502 -0.21111905005E+03 -0.13936463221E+03  0.29843774753E+03  0.39122735482E+03  0.00000000000E+00 0.  1.
<scales pt_clust_5="13000.00000" pt_clust_6="13000.00000" pt_clust_7="13000.00000" pt_clust_8="13000.00000" pt_clust_9="13000.00000"></scales>
<clustering>
<clus scale="   79.339">  5  6 -1 -1</clus>
<clus scale="   90.773">  7  8 -1 -1</clus>
<clus scale="  101.853">  1  7  2 -1</clus>
<clus scale="  236.237">  5  9 -1 -1</clus>
<clus scale="  501.358">  2  5  1 -1</clus>
</clustering>
</event>
<event>
 9    1  0.2728138E-005  0.1983029E+03  0.7546771E-02  0.1171636E+00
         -2   -1    0    0    0  501 -0.00000000000E+00  0.00000000000E+00  0.27062348436E+03  0.27062348436E+03  0.00000000000E+00 0.  1.
         21   -1    0    0  501  502  0.00000000000E+00 -0.00000000000E+00 -0.11889963525E+03  0.11889963525E+03  0.00000000000E+00 0.  1.
         23    2    1    2    0    0  0.73089425528E+02  0.40592160500E+02 -0.22749584114E+02  0.12539247081E+03  0.90641825556E+02 0.  0.
        -24    2    1    2    0    0 -0.80906557119E+01 -0.56466592433E+01  0.59446758115E+01  0.80152470170E+02  0.79320462892E+02 0.  0.
         13    1    4    4    0    0 -0.35247854911E+02  0.10005751486E+02  0.24169690391E+02  0.43894194061E+02  0.00000000000E+00 0. -1.
        -14    1    4    4    0    0  0.27157199199E+02 -0.15652410730E+02 -0.18225014579E+02  0.36258276109E+02  0.00000000000E+00 0.  1.
        -13    1    3    3    0    0  0.96634661967E+01  0.48082165454E+02  0.14896739621E+02  0.51256122220E+02  0.00000000000E+00 0.  1.
         13    1    3    3    0    0  0.63425959331E+02 -0.74900049545E+01 -0.37646323734E+02  0.74136348588E+02  0.00000000000E+00 0. -1.
         -1    1    1    2    0  502 -0.64998769816E+02 -0.34945501256E+02  0.16852875741E+03  0.18397817863E+03  0.00000000000E+00 0.  1.
<scales pt_clust_5="13000.00000" pt_clust_6="13000.00000" pt_clust_7="13000.00000" pt_clust_8="13000.00000" pt_clust_9="13000.00000"></scales>
<clustering>
<clus scale="   79.320">  5  6 -1 -1</clus>
<clus scale="   73.797">  5  9 -1 -1</clus>
<clus scale="   90.642">  7  8 -1 -1</clus>
<clus scale="  123.312">  1  7  2 -1</clus>
<clus scale="  198.303">  2  5  1 -1</clus>
</clustering>
</event>
<event>
 9    1  0.2728138E-005  0.4375517E+03  0.7546771E-02  0.1068385E+00
          1   -1    0    0  502    0 -0.00000000000E+00  0.00000000000E+00  0.10344543264E+04  0.10344543264E+04  0.00000000000E+00 0. -1.
         21   -1    0    0  501  502  0.00000000000E+00 -0.00000000000E+00 -0.87670306423E+02  0.87670306423E+02  0.00000000000E+00 0. -1.
         23    2    1    2    0    0 -0.62140734457E+02 -0.10498715482E+03  0.15552861915E+03  0.21794733056E+03  0.91804760031E+02 0.  0.
        -24    2    1    2    0    0 -0.82925620350E+02 -0.40034453818E+02  0.63443706567E+03  0.64597679006E+03  0.79348642012E+02 0.  0.
         13    1    4    4    0    0 -0.77123156914E+02 -0.75399037146E+01  0.29749373128E+03  0.30742048017E+03  0.00000000000E+00 0. -1.
        -14    1    4    4    0    0 -0.58024634355E+01 -0.32494550103E+02  0.33694333440E+03  0.33855630988E+03  0.00000000000E+00 0.  1.
        -11    1    3    3    0    0 -0.83873815880E+02 -0.97593015107E+02  0.14041974251E+03  0.19046500381E+03  0.00000000000E+00 0. -1.
         11    1    3    3    0    0  0.21733081422E+02 -0.73941397162E+01  0.15108876641E+02  0.27482326750E+02  0.00000000000E+00 0.  1.
          2    1    1    2  501    0  0.14506635481E+03  0.14502160864E+03  0.15681833517E+03  0.25820051223E+03  0.00000000000E+00 0. -1.
<scales pt_clust_5="13000.00000" pt_clust_6="13000.00000" pt_clust_7="13000.00000" pt_clust_8="13000.00000" pt_clust_9="13000.00000"></scales>
<clustering>
<clus scale="   79.349">  5  6 -1 -1</clus>
<clus scale="   91.805">  7  8 -1 -1</clus>
<clus scale="  152.682">  1  7  2 -1</clus>
<clus scale="  176.352">  5  9 -1 -1</clus>
<clus scale="  437.552">  2  5  1 -1</clus>
</clustering>
</event>
<event>
 9    1  0.2728138E-005  0.4412604E+03  0.7546771E-02  0.1068066E+00
          1   -1    0    0  502    0 -0.00000000000E+00  0.00000000000E+00  0.16628558518E+04  0.16628558518E+04  0.00000000000E+00 0. -1.
         21   -1    0    0  501  502  0.00000000000E+00 -0.00000000000E+00 -0.53056919917E+02  0.53056919917E+02  0.00000000000E+00 0. -1.
         23    2    1    2    0    0  0.34691375478E+02  0.11492923183E+03  0.34210700575E+03  0.37361862466E+03  0.90230003030E+02 0.  0.
        -24    2    1    2    0    0  0.84405631767E+02  0.11787526154E+03  0.33589698381E+03  0.37450086138E+03  0.80032640131E+02 0.  0.
         13    1    4    4    0    0  0.95585019012E+02  0.11827138405E+03  0.32531522993E+03  0.35910251318E+03  0.00000000000E+00 0. -1.
        -14    1    4    4    0    0 -0.11179387245E+02 -0.39612251368E+00  0.10581753870E+02  0.15398348197E+02  0.00000000000E+00 0.  1.
        -11    1    3    3    0    0  0.42368689911E+02  0.35848319797E+02  0.65624468516E+02  0.85946371564E+02  0.00000000000E+00 0.  1.
         11    1    3    3    0    0 -0.76773144333E+01  0.79080912028E+02  0.27648253723E+03  0.28767225309E+03  0.00000000000E+00 0. -1.
          2    1    1    2  501    0 -0.11909700724E+03 -0.23280449336E+03  0.93179494228E+03  0.96779328564E+03  0.00000000000E+00 0. -1.
<scales pt_clust_5="13000.00000" pt_clust_6="13000.00000" pt_clust_7="13000.00000" pt_clust_8="13000.00000" pt_clust_9="13000.00000"></scales>
<clustering>
<clus scale="   80.033">  5  6 -1 -1</clus>
<clus scale="   90.230">  7  8 -1 -1</clus>
<clus scale="  150.179">  1  7  2 -1</clus>
<clus scale="  176.225">  5  9 -1 -1</clus>
<clus scale="  441.260">  2  5  1 -1</clus>
</clustering>
</event>
<event>
 9    1  0.2728138E-005  0.1842860E+03  0.7546771E-02  0.1186262E+00
         21   -1    0    0  501  502  0.00000000000E+00  0.00000000000E+00  0.25956134750E+03  0.25956134750E+03  0.00000000000E+00 0. -1.
          3   -1    0    0  502    0 -0.00000000000E+00 -0.00000000000E+00 -0.18185241983E+03  0.18185241983E+03  0.00000000000E+00 0. -1.
         23    2    1    2    0    0  0.24605637131E+02  0.49341478454E+02  0.19416219205E+03  0.22341678882E+03  0.95791888137E+02 0.  0.
        -24    2    1    2    0    0  0.28223627352E+02  0.26455767162E+02 -0.51969048460E+02  0.10532769373E+03  0.83046133637E+02 0.  0.
         11    1    4    4    0    0  0.50880260016E+02 -0.43833983119E+01 -0.17968232622E+02  0.54137532485E+02  0.00000000000E+00 0. -1.
        -12    1    4    4    0    0 -0.22656632664E+02  0.30839165474E+02 -0.34000815838E+02  0.51190161246E+02  0.00000000000E+00 0.  1.
        -13    1    3    3    0    0 -0.17301162473E+02  0.55369779932E+02  0.15593006314E+03  0.16637105320E+03  0.00000000000E+00 0. -1.
         13    1    3    3    0    0  0.41906799604E+02 -0.60283014781E+01  0.38232128904E+02  0.57045735619E+02  0.00000000000E+00 0.  1.
          4    1    1    2  501    0 -0.52829264483E+02 -0.75797245616E+02 -0.64484215921E+02  0.11266928478E+03  0.00000000000E+00 0. -1.
<scales pt_clust_5="13000.00000" pt_clust_6="13000.00000" pt_clust_7="13000.00000" pt_clust_8="13000.00000" pt_clust_9="13000.00000"></scales>
<clustering>
<clus scale="   83.046">  5  6 -1 -1</clus>
<clus scale="   92.391">  5  9 -1 -1</clus>
<clus scale="   95.792">  7  8 -1 -1</clus>
<clus scale="  110.527">  2  7  1 -1</clus>
<clus scale="  184.286">  1  5  2 -1</clus>
</clustering>
</event>
<event>
 9    1  0.2728138E-005  0.1349619E+03  0.7546771E-02  0.1238569E+00
         21   -1    0    0  501  502  0.00000000000E+00  0.00000000000E+00  0.35766843845E+03  0.35766843845E+03  0.00000000000E+00 0.  1.
          1   -1    0    0  502    0 -0.00000000000E+00 -0.00000000000E+00 -0.15315238270E+03  0.15315238270E+03  0.00000000000E+00 0. -1.
         23    2    1    2    0    0  0.74192513034E+01  0.11070696426E+02 -0.12456905558E+03  0.15513595342E+03  0.91499228565E+02 0.  0.
        -24    2    1    2    0    0  0.18948613292E+02 -0.23632399221E+02  0.30875996171E+03  0.32010155188E+03  0.78833681363E+02 0.  0.
         11    1    4    4    0    0  0.35073270639E+02 -0.47447815748E+00  0.58166150757E+02  0.67923931988E+02  0.00000000000E+00 0. -1.
        -12    1    4    4    0    0 -0.16124657346E+02 -0.23157921064E+02  0.25059381096E+03  0.25217761989E+03  0.00000000000E+00 0.  1.
        -11    1    3    3    0    0 -0.25066152124E+02  0.26405327380E+02 -0.14219355561E+02  0.39086357836E+02  0.00000000000E+00 0. -1.
         11    1    3    3    0    0  0.32485403427E+02 -0.15334630954E+02 -0.11034970002E+03  0.11604959559E+03  0.00000000000E+00 0.  1.
          2    1    1    2  501    0 -0.26367864596E+02  0.12561702796E+02  0.20325149612E+02  0.35583315855E+02  0.00000000000E+00 0. -1.
<scales pt_clust_5="13000.00000" pt_clust_6="13000.00000" pt_clust_7="13000.00000" pt_clust_8="13000.00000" pt_clust_9="13000.00000"></scales>
<clustering>
<clus scale="   78.834">  5  6 -1 -1</clus>
<clus scale="   29.207">  5  9 -1 -1</clus>
<clus scale="   91.499">  7  8 -1 -1</clus>
<clus scale="   92.465">  2  7  1 -1</clus>
<clus scale="  134.962">  1  5  2 -1</clus>
</clustering>
</event>
<event>
 9    1  0.2728138E-005  0.1855714E+03  0.7546771E-02  0.1186583E+00
          1   -1    0    0  502    0 -0.00000000000E+00  0.00000000000E+00  0.85437335255E+03  0.85437335255E+03  0.00000000000E+00 0. -1.
         21   -1    0    0  501  502  0.00000000000E+00 -0.00000000000E+00 -0.29377090147E+02  0.29377090147E+02  0.00000000000E+00 0. -1.
         23    2    1    2    0    0 -0.42422105743E+02 -0.62473347290E+01  0.15561257257E+03  0.18912013763E+03  0.98551963285E+02 0.  0.
        -24    2    1    2    0    0  0.54152901284E+01 -0.64665659796E+02  0.31646629410E+03  0.33276175794E+03  0.79802877884E+02 0.  0.
         13    1    4    4    0    0  0.25279817223E+02 -0.68841144085E+02  0.29150739481E+03  0.30059064108E+03  0.00000000000E+00 0. -1.
        -14    1    4    4    0    0 -0.19864527095E+02  0.41754842890E+01  0.24958899290E+02  0.32171116852E+02  0.00000000000E+00 0.  1.
        -13    1    3    3    0    0 -0.29333618780E+02 -0.26726842036E+02  0.92421994144E+01  0.40745595173E+02  0.00000000000E+00 0. -1.
         13    1    3    3    0    0 -0.13088486963E+02  0.20479507307E+02  0.14637037316E+03  0.14837454246E+03  0.00000000000E+00 0.  1.
          2    1    1    2  501    0  0.37006815615E+02  0.70912994525E+02  0.35291739573E+03  0.36186854713E+03  0.00000000000E+00 0. -1.
<scales pt_clust_5="13000.00000" pt_clust_6="13000.00000" pt_clust_7="13000.00000" pt_clust_8="13000.00000" pt_clust_9="13000.00000"></scales>
<clustering>
<clus scale="   79.803">  5  6 -1 -1</clus>
<clus scale="   79.989">  5  9 -1 -1</clus>
<clus scale="   98.552">  7  8 -1 -1</clus>
<clus scale="  107.476">  1  7  2 -1</clus>
<clus scale="  185.571">  2  5  1 -1</clus>
</clustering>
</event>
<event>
 9    1  0.2728138E-005  0.2069504E+03  0.7546771E-02  0.1160107E+00
          1   -1    0    0  502    0 -0.00000000000E+00  0.00000000000E+00  0.21666231374E+03  0.21666231374E+03  0.00000000000E+00 0. -1.
         21   -1    0    0  501  502  0.00000000000E+00 -0.00000000000E+00 -0.16139343272E+03  0.16139343272E+03  0.00000000000E+00 0. -1.
         23    2    1    2    0    0 -0.10744901658E+03  0.10024981168E+02  0.90729585321E+02  0.16808924526E+03  0.91522375999E+02 0.  0.
        -24    2    1    2    0    0  0.88602540980E+02  0.34939214195E+02 -0.76358541189E+02  0.14633002134E+03  0.80688842949E+02 0.  0.
         11    1    4    4    0    0  0.61051104198E+02  0.66953940522E+01 -0.86032145413E+02  0.10570523010E+03  0.00000000000E+00 0. -1.
        -12    1    4    4    0    0  0.27551436781E+02  0.28243820143E+02  0.96736042239E+01  0.40624791245E+02  0.00000000000E+00 0.  1.
        -13    1    3    3    0    0 -0.22114029315E+02 -0.37695638759E+02  0.26591553953E+02  0.51157621285E+02  0.00000000000E+00 0.  1.
         13    1    3    3    0    0 -0.85334987265E+02  0.47720619927E+02  0.64138031368E+02  0.11693162398E+03  0.00000000000E+00 0. -1.
          2    1    1    2  501    0  0.18846475600E+02 -0.44964195363E+02  0.40897836884E+02  0.63636479860E+02  0.00000000000E+00 0. -1.
<scales pt_clust_5="13000.00000" pt_clust_6="13000.00000" pt_clust_7="13000.00000" pt_clust_8="13000.00000" pt_clust_9="13000.00000"></scales>
<clustering>
<clus scale="   80.689">  5  6 -1 -1</clus>
<clus scale="   48.754">  5  9 -1 -1</clus>
<clus scale="   91.522">  7  8 -1 -1</clus>
<clus scale="  141.500">  1  7  2 -1</clus>
<clus scale="  206.950">  2  5  1 -1</clus>
</clustering>
</event>
<event>
 9    1  0.2728138E-005  0.1429527E+03  0.7546771E-02  0.1224509E+00
         21   -1    0    0  501  502  0.00000000000E+00  0.00000000000E+00  0.64713786362E+02  0.64713786362E+02  0.00000000000E+00 0. -1.
          1   -1    0    0  502    0 -0.00000000000E+00 -0.00000000000E+00 -0.29023089328E+03  0.29023089328E+03  0.00000000000E+00 0. -1.
         23    2    1    2    0    0  0.33541439352E+02 -0.38373145994E+02 -0.17459389527E+03  0.20319279193E+03  0.90591147150E+02 0.  0.
        -24    2    1    2    0    0 -0.28776448218E+02 -0.15932672531E+02 -0.10028406283E+02  0.83603430847E+02  0.76203875826E+02 0.  0.
         13    1    4    4    0    0  0.21140018918E+02 -0.24438928378E+02 -0.24895876233E+01  0.32409252793E+02  0.00000000000E+00 0. -1.
        -14    1    4    4    0    0 -0.49916467136E+02  0.85062558471E+01 -0.75388186595E+01  0.51194178054E+02  0.00000000000E+00 0.  1.
        -13    1    3    3    0    0 -0.10195696645E+02 -0.29645177147E+02 -0.14796265518E+03  0.15124726802E+03  0.00000000000E+00 0. -1.
         13    1    3    3    0    0  0.43737135997E+02 -0.87279688477E+01 -0.26631240091E+02  0.51945523909E+02  0.00000000000E+00 0.  1.
          2    1    1    2  501    0 -0.47649911338E+01  0.54305818525E+02 -0.40894805366E+02  0.68148456858E+02  0.00000000000E+00 0. -1.
<scales pt_clust_5="13000.00000" pt_clust_6="13000.00000" pt_clust_7="13000.00000" pt_clust_8="13000.00000" pt_clust_9="13000.00000"></scales>
<clustering>
<clus scale="   76.204">  5  6 -1 -1</clus>
<clus scale="   54.514">  5  9 -1 -1</clus>
<clus scale="   90.591">  7  8 -1 -1</clus>
<clus scale="  103.944">  2  7  1 -1</clus>
<clus scale="  142.953">  1  5  2 -1</clus>
</clustering>
</event>
<event>
 9    1  0.2728138E-005  0.5789462E+03  0.7546771E-02  0.1003813E+00
          1   -1    0    0  502    0 -0.00000000000E+00  0.00000000000E+00  0.21952045300E+04  0.21952045300E+04  0.00000000000E+00 0. -1.
         21   -1    0    0  501  502  0.00000000000E+00 -0.00000000000E+00 -0.12089760862E+03  0.12089760862E+03  0.00000000000E+00 0. -1.
         23    2    1    2    0    0  0.37532155089E+03  0.20728070994E+03  0.10784208694E+04  0.11641612749E+04  0.91914868186E+02 0.  0.
        -24    2    1    2    0    0  0.28729647253E+02  0.37528966886E+02  0.96708869432E+02  0.13621021336E+03  0.83467363740E+02 0.  0.
         11    1    4    4    0    0 -0.44843328024E+01  0.56894490173E+02  0.51596091247E+02  0.76936655014E+02  0.00000000000E+00 0. -1.
        -12    1    4    4    0    0  0.33213980055E+02 -0.19365523288E+02  0.45112778185E+02  0.59273558345E+02  0.00000000000E+00 0.  1.
        -13    1    3    3    0    0  0.79912217031E+01  0.20131249641E+02  0.10205154339E+03  0.10432470630E+03  0.00000000000E+00 0.  1.
         13    1    3    3    0    0  0.36733032919E+03  0.18714946030E+03  0.97636932605E+03  0.10598365686E+04  0.00000000000E+00 0. -1.
          2    1    1    2  501    0 -0.40405119815E+03 -0.24480967682E+03  0.89917718250E+03  0.10157306504E+04  0.00000000000E+00 0. -1.
<scales pt_clust_5="13000.00000" pt_clust_6="13000.00000" pt_clust_7="13000.00000" pt_clust_8="13000.00000" pt_clust_9="13000.00000"></scales>
<clustering>
<clus scale="   83.467">  5  6 -1 -1</clus>
<clus scale="   91.915">  7  8 -1 -1</clus>
<clus scale="  438.497">  1  7  2 -1</clus>
<clus scale="   91.769">  5  9 -1 -1</clus>
<clus scale="  578.946">  2  5  1 -1</clus>
</clustering>
</event>
<event>
 9    1  0.2728138E-005  0.4124527E+03  0.7546771E-02  0.1080773E+00
         21   -1    0    0  501  502  0.00000000000E+00  0.00000000000E+00  0.81845758146E+02  0.81845758146E+02  0.00000000000E+00 0. -1.
          1   -1    0    0  502    0 -0.00000000000E+00 -0.00000000000E+00 -0.90417755468E+03  0.90417755468E+03  0.00000000000E+00 0. -1.
         23    2    1    2    0    0 -0.74242362661E+02 -0.54978569126E+02 -0.22966275723E+03  0.26396110779E+03  0.91629214176E+02 0.  0.
        -24    2    1    2    0    0  0.20048249894E+03  0.11461849403E+03 -0.49209145388E+03  0.54998854831E+03  0.83682571233E+02 0.  0.
         11    1    4    4    0    0  0.19847378922E+03  0.12365187726E+03 -0.45274051043E+03  0.50956412898E+03  0.00000000000E+00 0. -1.
        -12    1    4    4    0    0  0.20087097214E+01 -0.90333832303E+01 -0.39350943457E+02  0.40424419332E+02  0.00000000000E+00 0.  1.
        -13    1    3    3    0    0 -0.56424784634E+02 -0.40604557608E+01 -0.18644633243E+03  0.19483962251E+03  0.00000000000E+00 0.  1.
         13    1    3    3    0    0 -0.17817578027E+02 -0.50918113365E+02 -0.43216424804E+02  0.69121485286E+02  0.00000000000E+00 0. -1.
          2    1    1    2  501    0 -0.12624013628E+03 -0.59639924901E+02 -0.10057758542E+03  0.17207365673E+03  0.00000000000E+00 0. -1.
<scales pt_clust_5="13000.00000" pt_clust_6="13000.00000" pt_clust_7="13000.00000" pt_clust_8="13000.00000" pt_clust_9="13000.00000"></scales>
<clustering>
<clus scale="   83.683">  5  6 -1 -1</clus>
<clus scale="   91.629">  7  8 -1 -1</clus>
<clus scale="  130.117">  2  7  1 -1</clus>
<clus scale="  158.455">  5  9 -1 -1</clus>
<clus scale="  412.453">  1  5  2 -1</clus>
</clustering>
</event>
<event>
 9    1  0.2728138E-005  0.2867373E+03  0.7546771E-02  0.1132917E+00
          1   -1    0    0  502    0 -0.00000000000E+00  0.00000000000E+00  0.21493274957E+03  0.21493274957E+03  0.00000000000E+00 0. -1.
         21   -1    0    0  501  502  0.00000000000E+00 -0.00000000000E+00 -0.24460361828E+03  0.24460361828E+03  0.00000000000E+00 0. -1.
         23    2    1    2    0    0  0.31539218451E+02  0.35453504295E+02  0.10195444634E+03  0.14403124570E+03  0.89992318238E+02 0.  0.
        -24    2    1    2    0    0  0.25796561516E+02 -0.26807883552E+02  0.69232746103E+02  0.10644508497E+03  0.71786194878E+02 0.  0.
         11    1    4    4    0    0  0.47144250745E+02 -0.82783493319E+01  0.25131590222E+02  0.54062077957E+02  0.00000000000E+00 0. -1.
        -12    1    4    4    0    0 -0.21347689229E+02 -0.18529534220E+02  0.44101155881E+02  0.52383007014E+02  0.00000000000E+00 0.  1.
        -11    1    3    3    0    0  0.10459333780E+02  0.57669017504E+02  0.30023529381E+02  0.65852301095E+02  0.00000000000E+00 0.  1.
         11    1    3    3    0    0  0.21079884671E+02 -0.22215513210E+02  0.71930916955E+02  0.78178944601E+02  0.00000000000E+00 0. -1.
          2    1    1    2  501    0 -0.57335779967E+02 -0.86456207424E+01 -0.20085806115E+03  0.20906003719E+03  0.00000000000E+00 0. -1.
<scales pt_clust_5="13000.00000" pt_clust_6="13000.00000" pt_clust_7="13000.00000" pt_clust_8="13000.00000" pt_clust_9="13000.00000"></scales>
<clustering>
<clus scale="   71.786">  5  6 -1 -1</clus>
<clus scale="   57.984">  5  9 -1 -1</clus>
<clus scale="   89.992">  7  8 -1 -1</clus>
<clus scale="  101.736">  1  7  2 -1</clus>
<clus scale="  286.737">  2  5  1 -1</clus>
</clustering>
</event>
<event>
 9    1  0.2728138E-005  0.1918372E+03  0.7546771E-02  0.1185983E+00
         21   -1    0    0  501  502  0.00000000000E+00  0.00000000000E+00  0.15370166082E+02  0.15370166082E+02  0.00000000000E+00 0. -1.
          1   -1    0    0  502    0 -0.00000000000E+00 -0.00000000000E+00 -0.13755229201E+04  0.13755229201E+04  0.00000000000E+00 0. -1.
         23    2    1    2    0    0  0.10965896691E+02  0.34562851503E+02 -0.49586400518E+03  0.50557022635E+03  0.91680426194E+02 0.  0.
        -24    2    1    2    0    0  0.67120582363E+02 -0.25048837508E+02 -0.39167341797E+03  0.40620568665E+03  0.80388908924E+02 0.  0.
         13    1    4    4    0    0  0.65175033725E+02  0.63176692364E+01 -0.16756958390E+03  0.17990904206E+03  0.00000000000E+00 0. -1.
        -14    1    4    4    0    0  0.19455486379E+01 -0.31366506744E+02 -0.22410383407E+03  0.22629664459E+03  0.00000000000E+00 0.  1.
        -13    1    3    3    0    0  0.57717283065E+01  0.66042363359E+02 -0.31297580366E+03  0.31991992793E+03  0.00000000000E+00 0.  1.
         13    1    3    3    0    0  0.51941683844E+01 -0.31479511856E+02 -0.18288820152E+03  0.18565029843E+03  0.00000000000E+00 0. -1.
          2    1    1    2  501    0 -0.78086479053E+02 -0.95140139945E+01 -0.47261533088E+03  0.47911717320E+03  0.00000000000E+00 0. -1.
<scales pt_clust_5="13000.00000" pt_clust_6="13000.00000" pt_clust_7="13000.00000" pt_clust_8="13000.00000" pt_clust_9="13000.00000"></scales>
<clustering>
<clus scale="   80.389">  5  6 -1 -1</clus>
<clus scale="   78.664">  5  9 -1 -1</clus>
<clus scale="   91.680">  7  8 -1 -1</clus>
<clus scale="   98.591">  2  7  1 -1</clus>
<clus scale="  191.837">  1  5  2 -1</clus>
</clustering>
</event>
<event>
 9    1  0.2728138E-005  0.3087260E+03  0.7546771E-02  0.1085108E+00
         -2   -1    0    0    0  501 -0.00000000000E+00  0.00000000000E+00  0.81250200287E+03  0.81250200287E+03  0.00000000000E+00 0.  1.
         21   -1    0    0  501  502  0.00000000000E+00 -0.00000000000E+00 -0.10763410069E+03  0.10763410069E+03  0.00000000000E+00 0.  1.
         23    2    1    2    0    0  0.94376187437E+02 -0.24290162389E+03  0.26553025165E+03  0.38317302987E+03  0.91690744551E+02 0.  0.
        -24    2    1    2    0    0 -0.13058727195E+02  0.18480324205E+03  0.23476216805E+03  0.30928110396E+03  0.78859096438E+02 0.  0.
         13    1    4    4    0    0 -0.44262432500E+02  0.77114901923E+02  0.11248207825E+03  0.14338092257E+03  0.00000000000E+00 0. -1.
        -14    1    4    4    0    0  0.31203705305E+02  0.10768834012E+03  0.12228008980E+03  0.16590018139E+03  0.00000000000E+00 0.  1.
        -11    1    3    3    0    0  0.47206980625E+02 -0.34998811068E+02  0.87625768259E+02  0.10550682944E+03  0.00000000000E+00 0. -1.
         11    1    3    3    0    0  0.47169206812E+02 -0.20790281282E+03  0.17790448339E+03  0.27766620042E+03  0.00000000000E+00 0.  1.
         -1    1    1    2    0  502 -0.81317460242E+02  0.58098381841E+02  0.20457548248E+03  0.22768196974E+03  0.00000000000E+00 0.  1.
<scales pt_clust_5="13000.00000" pt_clust_6="13000.00000" pt_clust_7="13000.00000" pt_clust_8="13000.00000" pt_clust_9="13000.00000"></scales>
<clustering>
<clus scale="   78.859">  5  6 -1 -1</clus>
<clus scale="   91.691">  7  8 -1 -1</clus>
<clus scale="   99.940">  5  9 -1 -1</clus>
<clus scale="  276.252">  1  7  2 -1</clus>
<clus scale="  308.726">  2  5  1 -1</clus>
</clustering>
</event>
<event>
 9    1  0.2728138E-005  0.2261819E+03  0.7546771E-02  0.1145032E+00
         -2   -1    0    0    0  501 -0.00000000000E+00  0.00000000000E+00  0.23608765755E+03  0.23608765755E+03  0.00000000000E+00 0.  1.
         21   -1    0    0  501  502  0.00000000000E+00 -0.00000000000E+00 -0.15647857890E+03  0.15647857890E+03  0.00000000000E+00 0.  1.
         23    2    1    2    0    0 -0.91542122810E+02  0.88961249919E+02  0.62982096283E+01  0.15480011719E+03  0.87346119561E+02 0.  0.
        -24    2    1    2    0    0  0.13220276990E+03 -0.50673533258E+02  0.75914709540E+02  0.18185532017E+03  0.85222854972E+02 0.  0.
         11    1    4    4    0    0  0.14724752863E+02 -0.19762419780E+02  0.52703455607E+02  0.58180974685E+02  0.00000000000E+00 0. -1.
        -12    1    4    4    0    0  0.11747801703E+03 -0.30911113478E+02  0.23211253933E+02  0.12367434549E+03  0.00000000000E+00 0.  1.
        -11    1    3    3    0    0 -0.58398768462E+02  0.10318932510E+03  0.34292885330E+01  0.11861792863E+03  0.00000000000E+00 0.  1.
         11    1    3    3    0    0 -0.33143354348E+02 -0.14228075182E+02  0.28689210953E+01  0.36182188562E+02  0.00000000000E+00 0. -1.
         -1    1    1    2    0  502 -0.40660647087E+02 -0.38287716661E+02 -0.26038405212E+01  0.55910799083E+02  0.00000000000E+00 0.  1.
<scales pt_clust_5="13000.00000" pt_clust_6="13000.00000" pt_clust_7="13000.00000" pt_clust_8="13000.00000" pt_clust_9="13000.00000"></scales>
<clustering>
<clus scale="   85.223">  5  6 -1 -1</clus>
<clus scale="   55.850">  5  9 -1 -1</clus>
<clus scale="   87.346">  7  8 -1 -1</clus>
<clus scale="  154.672">  1  7  2 -1</clus>
<clus scale="  226.182">  2  5  1 -1</clus>
</clustering>
</event>
<event>
 9    1  0.2728138E-005  0.1038227E+04  0.7546771E-02  0.9957791E-01
         21   -1    0    0  501  502  0.00000000000E+00  0.00000000000E+00  0.18550979805E+03  0.18550979805E+03  0.00000000000E+00 0. -1.
          1   -1    0    0  502    0 -0.00000000000E+00 -0.00000000000E+00 -0.18119332320E+04  0.18119332320E+04  0.00000000000E+00 0. -1.
         23    2    1    2    0    0  0.32661743773E+02  0.89456061026E+01 -0.28377216713E+03  0.30020210469E+03  0.91912172455E+02 0.  0.
        -24    2    1    2    0    0  0.66626140292E+02  0.44282867367E+03 -0.10639748026E+04  0.11572236520E+04  0.81166024627E+02 0.  0.
         13    1    4    4    0    0  0.39224964672E+02  0.15671065544E+03 -0.47782955509E+03  0.50439856374E+03  0.00000000000E+00 0. -1.
        -14    1    4    4    0    0  0.27401175621E+02  0.28611801823E+03 -0.58614524747E+03  0.65282508830E+03  0.00000000000E+00 0.  1.
        -11    1    3    3    0    0  0.52295626687E+02 -0.18175525350E+02 -0.10903209133E+03  0.12228319276E+03  0.00000000000E+00 0. -1.
         11    1    3    3    0    0 -0.19633882914E+02  0.27121131453E+02 -0.17474007580E+03  0.17791891192E+03  0.00000000000E+00 0.  1.
          2    1    1    2  501    0 -0.99287884065E+02 -0.45177427977E+03 -0.27867646429E+03  0.54001727337E+03  0.00000000000E+00 0. -1.
<scales pt_clust_5="13000.00000" pt_clust_6="13000.00000" pt_clust_7="13000.00000" pt_clust_8="13000.00000" pt_clust_9="13000.00000"></scales>
<clustering>
<clus scale="   81.166">  5  6 -1 -1</clus>
<clus scale="   91.912">  7  8 -1 -1</clus>
<clus scale="   97.952">  2  7  1 -1</clus>
<clus scale="  458.386">  5  9 -1 -1</clus>
<clus scale=" 1038.227">  1  5  2 -1</clus>
</clustering>
</event>
<event>
 9    1  0.2728138E-005  0.2923132E+03  0.7546771E-02  0.1123797E+00
         21   -1    0    0  501  502  0.00000000000E+00  0.00000000000E+00  0.25806595905E+02  0.25806595905E+02  0.00000000000E+00 0. -1.
          1   -1    0    0  502    0 -0.00000000000E+00 -0.00000000000E+00 -0.17748540895E+04  0.17748540895E+04  0.00000000000E+00 0. -1.
         23    2    1    2    0    0  0.21829930829E+02  0.69967966713E+02 -0.31576494823E+03  0.33787366718E+03  0.95284050058E+02 0.  0.
        -24    2    1    2    0    0  0.17951980363E+02  0.84447717100E+02 -0.45116745464E+03  0.46781121184E+03  0.88552624323E+02 0.  0.
         11    1    4    4    0    0 -0.28467826903E+02  0.14628018717E+02 -0.62674009263E+02  0.70373486039E+02  0.00000000000E+00 0. -1.
        -12    1    4    4    0    0  0.46419807266E+02  0.69819698383E+02 -0.38849344538E+03  0.39743772580E+03  0.00000000000E+00 0.  1.
        -13    1    3    3    0    0  0.49257027312E+02  0.28907167405E+02 -0.24509824074E+03  0.25166451216E+03  0.00000000000E+00 0. -1.
         13    1    3    3    0    0 -0.27427096484E+02  0.41060799308E+02 -0.70666707488E+02  0.86209155016E+02  0.00000000000E+00 0.  1.
          2    1    1    2  501    0 -0.39781911192E+02 -0.15441568381E+03 -0.98211509071E+03  0.99497580637E+03  0.00000000000E+00 0. -1.
<scales pt_clust_5="13000.00000" pt_clust_6="13000.00000" pt_clust_7="13000.00000" pt_clust_8="13000.00000" pt_clust_9="13000.00000"></scales>
<clustering>
<clus scale="   88.553">  5  6 -1 -1</clus>
<clus scale="   95.284">  7  8 -1 -1</clus>
<clus scale="  120.213">  2  7  1 -1</clus>
<clus scale="  109.513">  5  9 -1 -1</clus>
<clus scale="  292.313">  1  5  2 -1</clus>
</clustering>
</event>
<event>
 9    1  0.2728138E-005  0.2228747E+03  0.7546771E-02  0.1136628E+00
          1   -1    0    0  502    0 -0.00000000000E+00  0.00000000000E+00  0.67994080367E+02  0.67994080367E+02  0.00000000000E+00 0. -1.
         21   -1    0    0  501  502  0.00000000000E+00 -0.00000000000E+00 -0.67906259764E+03  0.67906259764E+03  0.00000000000E+00 0. -1.
         23    2    1    2    0    0 -0.24717788136E+02  0.17385536190E+03 -0.21246499211E+03  0.29037528064E+03  0.91322367579E+02 0.  0.
        -24    2    1    2    0    0 -0.27047186586E+02 -0.12586721329E+03 -0.26619510477E+03  0.30663318909E+03  0.81178649704E+02 0.  0.
         13    1    4    4    0    0 -0.15962255978E+02 -0.10885753956E+03 -0.26424795395E+03  0.28623720706E+03  0.00000000000E+00 0. -1.
        -14    1    4    4    0    0 -0.11084930608E+02 -0.17009673724E+02 -0.19471508119E+01  0.20395982032E+02  0.00000000000E+00 0.  1.
        -11    1    3    3    0    0  0.23391907723E+02  0.12816292777E+03 -0.15604236002E+03  0.20327846792E+03  0.00000000000E+00 0.  1.
         11    1    3    3    0    0 -0.48109695859E+02  0.45692434135E+02 -0.56422632089E+02  0.87096812713E+02  0.00000000000E+00 0. -1.
          2    1    1    2  501    0  0.51764974722E+02 -0.47988148617E+02 -0.13240842040E+03  0.15004820828E+03  0.00000000000E+00 0. -1.
<scales pt_clust_5="13000.00000" pt_clust_6="13000.00000" pt_clust_7="13000.00000" pt_clust_8="13000.00000" pt_clust_9="13000.00000"></scales>
<clustering>
<clus scale="   81.179">  5  6 -1 -1</clus>
<clus scale="   70.587">  5  9 -1 -1</clus>
<clus scale="   91.322">  7  8 -1 -1</clus>
<clus scale="  197.930">  1  7  2 -1</clus>
<clus scale="  222.875">  2  5  1 -1</clus>
</clustering>
</event>
<event>
 9    1  0.2728138E-005  0.3765480E+03  0.7546771E-02  0.1059305E+00
         21   -1    0    0  501  502  0.00000000000E+00  0.00000000000E+00  0.93436651268E+02  0.93436651268E+02  0.00000000000E+00 0. -1.
          1   -1    0    0  502    0 -0.00000000000E+00 -0.00000000000E+00 -0.13172499754E+04  0.13172499754E+04  0.00000000000E+00 0. -1.
         23    2    1    2    0    0  0.29379952407E+03  0.92668425813E+01 -0.70656153284E+03  0.77089152271E+03  0.92954318842E+02 0.  0.
        -24    2    1    2    0    0 -0.94527833613E+02 -0.82206199484E+02 -0.30583426658E+03  0.34025090661E+03  0.80887021672E+02 0.  0.
         11    1    4    4    0    0 -0.50322953884E+02 -0.68286105379E+02 -0.10945249699E+03  0.13847469434E+03  0.00000000000E+00 0. -1.
        -12    1    4    4    0    0 -0.44204879729E+02 -0.13920094105E+02 -0.19638176958E+03  0.20177621227E+03  0.00000000000E+00 0.  1.
        -11    1    3    3    0    0  0.57203889546E+02 -0.22731171204E+02 -0.84151887380E+02  0.10426183997E+03  0.00000000000E+00 0.  1.
         11    1    3    3    0    0  0.23659563452E+03  0.31998013786E+02 -0.62240964546E+03  0.66662968274E+03  0.00000000000E+00 0. -1.
          2    1    1    2  501    0 -0.19927169045E+03  0.72939356903E+02 -0.21141752470E+03  0.29954419732E+03  0.00000000000E+00 0. -1.
<scales pt_clust_5="13000.00000" pt_clust_6="13000.00000" pt_clust_7="13000.00000" pt_clust_8="13000.00000" pt_clust_9="13000.00000"></scales>
<clustering>
<clus scale="   80.887">  5  6 -1 -1</clus>
<clus scale="   92.954">  7  8 -1 -1</clus>
<clus scale="  212.201">  5  9 -1 -1</clus>
<clus scale="  308.293">  2  7  1 -1</clus>
<clus scale="  376.548">  1  5  2 -1</clus>
</clustering>
</event>
<event>
 9    1  0.2728138E-005  0.2317633E+03  0.7546771E-02  0.1157195E+00
         21   -1    0    0  501  502  0.00000000000E+00  0.00000000000E+00  0.18861090023E+03  0.18861090023E+03  0.00000000000E+00 0. -1.
          3   -1    0    0  502    0 -0.00000000000E+00 -0.00000000000E+00 -0.23244858762E+03  0.23244858762E+03  0.00000000000E+00 0. -1.
         23    2    1    2    0    0  0.51617337999E+02  0.17541231622E+02 -0.13433123007E+03  0.17225570279E+03  0.93032808106E+02 0.  0.
        -24    2    1    2    0    0 -0.73676950357E+02  0.22740975601E+02  0.14106694579E+03  0.18048869288E+03  0.82041697193E+02 0.  0.
         13    1    4    4    0    0 -0.20605568773E+02  0.50473870974E+01  0.11814016708E+03  0.12002984904E+03  0.00000000000E+00 0. -1.
        -14    1    4    4    0    0 -0.53071381584E+02  0.17693588503E+02  0.22926778708E+02  0.60458843846E+02  0.00000000000E+00 0.  1.
        -11    1    3    3    0    0  0.78386406839E+02  0.16449263680E+02 -0.10996244549E+03  0.13603950334E+03  0.00000000000E+00 0. -1.
         11    1    3    3    0    0 -0.26769068840E+02  0.10919679413E+01 -0.24368784585E+02  0.36216199451E+02  0.00000000000E+00 0.  1.
          4    1    1    2  501    0  0.22059612358E+02 -0.40282207222E+02 -0.50573403112E+02  0.68315092172E+02  0.00000000000E+00 0. -1.
<scales pt_clust_5="13000.00000" pt_clust_6="13000.00000" pt_clust_7="13000.00000" pt_clust_8="13000.00000" pt_clust_9="13000.00000"></scales>
<clustering>
<clus scale="   82.042">  5  6 -1 -1</clus>
<clus scale="   45.927">  5  9 -1 -1</clus>
<clus scale="   93.033">  7  8 -1 -1</clus>
<clus scale="  107.829">  2  7  1 -1</clus>
<clus scale="  231.763">  1  5  2 -1</clus>
</clustering>
</event>
<event>
 9    1  0.2728138E-005  0.2184267E+03  0.7546771E-02  0.1156601E+00
          1   -1    0    0  502    0 -0.00000000000E+00  0.00000000000E+00  0.22382146302E+03  0.22382146302E+03  0.00000000000E+00 0. -1.
         21   -1    0    0  501  502  0.00000000000E+00 -0.00000000000E+00 -0.14034089857E+03  0.14034089857E+03  0.00000000000E+00 0. -1.
         23    2    1    2    0    0  0.22205366719E+02  0.87403604165E+02  0.81557146047E+00  0.13061635356E+03  0.94485439770E+02 0.  0.
        -24    2    1    2    0    0 -0.53825030366E+02 -0.49535753464E+02  0.12679755463E+03  0.16735340842E+03  0.81108684392E+02 0.  0.
         11    1    4    4    0    0 -0.33693765693E+02 -0.62057348534E+02  0.48809384833E+02  0.85841367658E+02  0.00000000000E+00 0. -1.
        -12    1    4    4    0    0 -0.20131264672E+02  0.12521595070E+02  0.77988169801E+02  0.81512040763E+02  0.00000000000E+00 0.  1.
        -13    1    3    3    0    0  0.41003604424E+02  0.95541862898E+02  0.15899445597E+02  0.10517763789E+03  0.00000000000E+00 0. -1.
         13    1    3    3    0    0 -0.18798237705E+02 -0.81382587331E+01 -0.15083874136E+02  0.25438715671E+02  0.00000000000E+00 0.  1.
          2    1    1    2  501    0  0.31619663647E+02 -0.37867850701E+02 -0.44132561647E+02  0.66192599612E+02  0.00000000000E+00 0. -1.
<scales pt_clust_5="13000.00000" pt_clust_6="13000.00000" pt_clust_7="13000.00000" pt_clust_8="13000.00000" pt_clust_9="13000.00000"></scales>
<clustering>
<clus scale="   81.109">  5  6 -1 -1</clus>
<clus scale="   49.333">  5  9 -1 -1</clus>
<clus scale="   94.485">  7  8 -1 -1</clus>
<clus scale="  130.614">  1  7  2 -1</clus>
<clus scale="  218.427">  2  5  1 -1</clus>
</clustering>
</event>
<event>
 9    1  0.2728138E-005  0.2613909E+03  0.7546771E-02  0.1140618E+00
         21   -1    0    0  501  502  0.00000000000E+00  0.00000000000E+00  0.29102891286E+03  0.29102891286E+03  0.00000000000E+00 0. -1.
          3   -1    0    0  502    0 -0.00000000000E+00 -0.00000000000E+00 -0.14620388486E+03  0.14620388486E+03  0.00000000000E+00 0. -1.
         23    2    1    2    0    0  0.38723412663E+02  0.49741719814E+02 -0.38599328354E+02  0.11790589301E+03  0.91859403872E+02 0.  0.
        -24    2    1    2    0    0  0.19477960359E+02 -0.27392101580E+02  0.22734127736E+03  0.24306681549E+03  0.79168821098E+02 0.  0.
         13    1    4    4    0    0  0.16417707687E+02 -0.48759748675E+02  0.20737792750E+03  0.21366482872E+03  0.00000000000E+00 0. -1.
        -14    1    4    4    0    0  0.30602526721E+01  0.21367647095E+02  0.19963349859E+02  0.29401986776E+02  0.00000000000E+00 0.  1.
        -11    1    3    3    0    0  0.63835776070E+02  0.16116571325E+02 -0.87767151774E+01  0.66421238373E+02  0.00000000000E+00 0. -1.
         11    1    3    3    0    0 -0.25112363407E+02  0.33625148489E+02 -0.29822613176E+02  0.51484654641E+02  0.00000000000E+00 0.  1.
          4    1    1    2  501    0 -0.58201373022E+02 -0.22349618234E+02 -0.43916921005E+02  0.76260089217E+02  0.00000000000E+00 0. -1.
<scales pt_clust_5="13000.00000" pt_clust_6="13000.00000" pt_clust_7="13000.00000" pt_clust_8="13000.00000" pt_clust_9="13000.00000"></scales>
<clustering>
<clus scale="   79.169">  5  6 -1 -1</clus>
<clus scale="   62.345">  5  9 -1 -1</clus>
<clus scale="   91.859">  7  8 -1 -1</clus>
<clus scale="  111.409">  2  7  1 -1</clus>
<clus scale="  261.391">  1  5  2 -1</clus>
</clustering>
</event>
<event>
 9    1  0.2728138E-005  0.3003620E+03  0.7546771E-02  0.1126334E+00
          1   -1    0    0  502    0 -0.00000000000E+00  0.00000000000E+00  0.95723997891E+03  0.95723997891E+03  0.00000000000E+00 0. -1.
         21   -1    0    0  501  502  0.00000000000E+00 -0.00000000000E+00 -0.45180727289E+02  0.45180727289E+02  0.00000000000E+00 0. -1.
         23    2    1    2    0    0  0.24184017829E+02 -0.46535008621E+02  0.14350794777E+03  0.17726107994E+03  0.89869826089E+02 0.  0.
        -24    2    1    2    0    0  0.57726989480E+02 -0.27630020790E+02  0.66591860021E+03  0.67435068567E+03  0.84884873780E+02 0.  0.
         13    1    4    4    0    0  0.65481039446E+02 -0.28696126068E+02  0.30196371204E+03  0.31031164588E+03  0.00000000000E+00 0. -1.
        -14    1    4    4    0    0 -0.77540499660E+01  0.10661052770E+01  0.36395488817E+03  0.36403903979E+03  0.00000000000E+00 0.  1.
        -11    1    3    3    0    0 -0.31781692412E+02 -0.49378225821E+01  0.29638011615E+02  0.43736366983E+02  0.00000000000E+00 0.  1.
         11    1    3    3    0    0  0.55965710241E+02 -0.41597186039E+02  0.11386993616E+03  0.13352471295E+03  0.00000000000E+00 0. -1.
          2    1    1    2  501    0 -0.81911007309E+02  0.74165029411E+02  0.10263270364E+03  0.15080894059E+03  0.00000000000E+00 0. -1.
<scales pt_clust_5="13000.00000" pt_clust_6="13000.00000" pt_clust_7="13000.00000" pt_clust_8="13000.00000" pt_clust_9="13000.00000"></scales>
<clustering>
<clus scale="   84.885">  5  6 -1 -1</clus>
<clus scale="   89.870">  7  8 -1 -1</clus>
<clus scale="  104.053">  1  7  2 -1</clus>
<clus scale="  102.721">  5  9 -1 -1</clus>
<clus scale="  300.362">  2  5  1 -1</clus>
</clustering>
</event>
<event>
 9    1  0.2728138E-005  0.7393976E+03  0.7546771E-02  0.1010751E+00
         21   -1    0    0  501  502  0.00000000000E+00  0.00000000000E+00  0.91818706697E+02  0.91818706697E+02  0.00000000000E+00 0. -1.
          1   -1    0    0  502    0 -0.00000000000E+00 -0.00000000000E+00 -0.22667917102E+04  0.22667917102E+04  0.00000000000E+00 0. -1.
         23    2    1    2    0    0 -0.10515471394E+03  0.96424999968E+02 -0.48972721223E+03  0.51829463921E+03  0.91876526648E+02 0.  0.
        -24    2    1    2    0    0  0.15391873790E+03 -0.39314088882E+03 -0.84744317251E+03  0.95018574408E+03  0.80263822978E+02 0.  0.
         13    1    4    4    0    0  0.12616367265E+03 -0.32012228531E+03 -0.61166986144E+03  0.70180878396E+03  0.00000000000E+00 0. -1.
        -14    1    4    4    0    0  0.27755065255E+02 -0.73018603508E+02 -0.23577331107E+03  0.24837696012E+03  0.00000000000E+00 0.  1.
        -13    1    3    3    0    0  0.16310408095E+02  0.18380369725E+02 -0.55574544361E+02  0.60765100053E+02  0.00000000000E+00 0.  1.
         13    1    3    3    0    0 -0.12146512204E+03  0.78044630243E+02 -0.43415266787E+03  0.45752953916E+03  0.00000000000E+00 0. -1.
          2    1    1    2  501    0 -0.48764023959E+02  0.29671588885E+03 -0.83780261876E+03  0.89013003361E+03  0.00000000000E+00 0. -1.
<scales pt_clust_5="13000.00000" pt_clust_6="13000.00000" pt_clust_7="13000.00000" pt_clust_8="13000.00000" pt_clust_9="13000.00000"></scales>
<clustering>
<clus scale="   80.264">  5  6 -1 -1</clus>
<clus scale="   91.877">  7  8 -1 -1</clus>
<clus scale="  169.696">  2  7  1 -1</clus>
<clus scale="  358.301">  5  9 -1 -1</clus>
<clus scale="  739.398">  1  5  2 -1</clus>
</clustering>
</event>
<event>
 9    1  0.2728138E-005  0.3061783E+03  0.7546771E-02  0.1106422E+00
         21   -1    0    0  501  502  0.00000000000E+00  0.00000000000E+00  0.60295845592E+02  0.60295845592E+02  0.00000000000E+00 0. -1.
          1   -1    0    0  502    0 -0.00000000000E+00 -0.00000000000E+00 -0.11121426908E+04  0.11121426908E+04  0.00000000000E+00 0. -1.
         23    2    1    2    0    0 -0.12115754201E+03 -0.57184300422E+02 -0.63404665309E+03  0.65445959877E+03  0.91394824460E+02 0.  0.
        -24    2    1    2    0    0 -0.50273204812E+02 -0.22144460242E+02 -0.69265280530E+02  0.12154718079E+03  0.83416220422E+02 0.  0.
         11    1    4    4    0    0 -0.55234937592E+02 -0.17725918275E+02 -0.64336083158E+01  0.58365210746E+02  0.00000000000E+00 0. -1.
        -12    1    4    4    0    0  0.49617327800E+01 -0.44185419669E+01 -0.62831672214E+02  0.63181970043E+02  0.00000000000E+00 0.  1.
        -13    1    3    3    0    0 -0.28181978986E+02  0.20481800604E+02 -0.78918636379E+02  0.86266327518E+02  0.00000000000E+00 0.  1.
         13    1    3    3    0    0 -0.92975563024E+02 -0.77666101026E+02 -0.55512801671E+03  0.56819327126E+03  0.00000000000E+00 0. -1.
          2    1    1    2  501    0  0.17143074682E+03  0.79328760663E+02 -0.34853491160E+03  0.39643175683E+03  0.00000000000E+00 0. -1.
<scales pt_clust_5="13000.00000" pt_clust_6="13000.00000" pt_clust_7="13000.00000" pt_clust_8="13000.00000" pt_clust_9="13000.00000"></scales>
<clustering>
<clus scale="   83.416">  5  6 -1 -1</clus>
<clus scale="   91.395">  7  8 -1 -1</clus>
<clus scale="  162.180">  2  7  1 -1</clus>
<clus scale="   82.247">  5  9 -1 -1</clus>
<clus scale="  306.178">  1  5  2 -1</clus>
</clustering>
</event>
<event>
 9    1  0.2728138E-005  0.3392971E+03  0.7546771E-02  0.1101556E+00
         21   -1    0    0  501  502  0.00000000000E+00  0.00000000000E+00  0.20897770228E+03  0.20897770228E+03  0.00000000000E+00 0. -1.
          3   -1    0    0  502    0 -0.00000000000E+00 -0.00000000000E+00 -0.26965336972E+03  0.26965336972E+03  0.00000000000E+00 0. -1.
         23    2    1    2    0    0 -0.13367573093E+02  0.98998207490E+02 -0.26022109673E+02  0.13756896518E+03  0.90932573325E+02 0.  0.
        -24    2    1    2    0    0  0.52235853324E+02 -0.29992443389E+02 -0.16252354541E+03  0.19065176002E+03  0.79410703005E+02 0.  0.
         11    1    4    4    0    0  0.59575031338E+02 -0.45093296320E+02 -0.93873818002E+02  0.11997867910E+03  0.00000000000E+00 0. -1.
        -12    1    4    4    0    0 -0.73391780145E+01  0.15100852931E+02 -0.68649727410E+02  0.70673080920E+02  0.00000000000E+00 0.  1.
        -13    1    3    3    0    0 -0.42470297176E+02  0.14452914683E+02 -0.15842591929E+02  0.47577311863E+02  0.00000000000E+00 0.  1.
         13    1    3    3    0    0  0.29102724083E+02  0.84545292807E+02 -0.10179517744E+02  0.89991653315E+02  0.00000000000E+00 0. -1.
          4    1    1    2  501    0 -0.38868280231E+02 -0.69005764101E+02  0.12786998765E+03  0.15041034681E+03  0.00000000000E+00 0. -1.
<scales pt_clust_5="13000.00000" pt_clust_6="13000.00000" pt_clust_7="13000.00000" pt_clust_8="13000.00000" pt_clust_9="13000.00000"></scales>
<clustering>
<clus scale="   79.411">  5  6 -1 -1</clus>
<clus scale="   79.199">  5  9 -1 -1</clus>
<clus scale="   90.933">  7  8 -1 -1</clus>
<clus scale="  135.085">  2  7  1 -1</clus>
<clus scale="  339.297">  1  5  2 -1</clus>
</clustering>
</event>
<event>
 9    1  0.2919867E-005  0.1587695E+03  0.7546771E-02  0.1203716E+00
         -2   -1    0    0    0  501 -0.00000000000E+00  0.00000000000E+00  0.10264070812E+03  0.10264070812E+03  0.00000000000E+00 0.  1.
         21   -1    0    0  501  502  0.00000000000E+00 -0.00000000000E+00 -0.59732150864E+03  0.59732150864E+03  0.00000000000E+00 0. -1.
         23    2    1    2    0    0 -0.40668089253E+02  0.61818095074E+02  0.53328527465E+02  0.12941687011E+03  0.91811895010E+02 0.  0.
        -24    2    1    2    0    0 -0.11573437471E+02 -0.11618849695E+02 -0.22238817032E+03  0.23696135473E+03  0.80157614829E+02 0.  0.
         11    1    4    4    0    0 -0.18021939051E+02 -0.40414321681E+02 -0.78819496988E+02  0.90391486267E+02  0.00000000000E+00 0. -1.
        -12    1    4    4    0    0  0.64485015807E+01  0.28795471986E+02 -0.14356867333E+03  0.14656986847E+03  0.00000000000E+00 0.  1.
        -13    1    3    3    0    0 -0.64434036309E+02  0.49695279165E+02  0.60953321207E+02  0.10166943087E+03  0.00000000000E+00 0.  1.
         13    1    3    3    0    0  0.23765947055E+02  0.12122815909E+02 -0.76247937419E+01  0.27747439244E+02  0.00000000000E+00 0. -1.
         -1    1    1    2    0  502  0.52241526724E+02 -0.50199245379E+02 -0.32562115766E+03  0.33358399192E+03  0.00000000000E+00 0.  1.
<scales pt_clust_5="13000.00000" pt_clust_6="13000.00000" pt_clust_7="13000.00000" pt_clust_8="13000.00000" pt_clust_9="13000.00000"></scales>
<clustering>
<clus scale="   80.158">  5  6 -1 -1</clus>
<clus scale="   72.451">  5  9 -1 -1</clus>
<clus scale="   91.812">  7  8 -1 -1</clus>
<clus scale="  117.919">  1  7  2 -1</clus>
<clus scale="  158.770">  2  5  1 -1</clus>
</clustering>
</event>
<event>
 9    1  0.2728138E-005  0.2186229E+03  0.7546771E-02  0.1153293E+00
          1   -1    0    0  502    0 -0.00000000000E+00  0.00000000000E+00  0.26577369589E+03  0.26577369589E+03  0.00000000000E+00 0. -1.
         21   -1    0    0  501  502  0.00000000000E+00 -0.00000000000E+00 -0.16286570009E+03  0.16286570009E+03  0.00000000000E+00 0. -1.
         23    2    1    2    0    0  0.84846117166E+02  0.64815914569E+02 -0.62952866707E+02  0.15422037125E+03  0.91765424335E+02 0.  0.
        -24    2    1    2    0    0 -0.93455822533E+02  0.11230482774E+02  0.44086786774E+02  0.13059236832E+03  0.79060782857E+02 0.  0.
         11    1    4    4    0    0 -0.89816660894E+02 -0.10973335834E+02  0.11816942577E+02  0.91252872861E+02  0.00000000000E+00 0. -1.
        -12    1    4    4    0    0 -0.36391616388E+01  0.22203818608E+02  0.32269844198E+02  0.39339495457E+02  0.00000000000E+00 0.  1.
        -13    1    3    3    0    0 -0.60554123380E+00  0.54486816561E+02 -0.20201116291E+02  0.58114240583E+02  0.00000000000E+00 0.  1.
         13    1    3    3    0    0  0.85451658400E+02  0.10329098009E+02 -0.42751750416E+02  0.96106130671E+02  0.00000000000E+00 0. -1.
          2    1    1    2  501    0  0.86097053668E+01 -0.76046397344E+02  0.12177407572E+03  0.14382665641E+03  0.00000000000E+00 0. -1.
<scales pt_clust_5="13000.00000" pt_clust_6="13000.00000" pt_clust_7="13000.00000" pt_clust_8="13000.00000" pt_clust_9="13000.00000"></scales>
<clustering>
<clus scale="   79.061">  5  6 -1 -1</clus>
<clus scale="   76.532">  5  9 -1 -1</clus>
<clus scale="   91.765">  7  8 -1 -1</clus>
<clus scale="  140.787">  1  7  2 -1</clus>
<clus scale="  218.623">  2  5  1 -1</clus>
</clustering>
</event>
<event>
 9    1  0.2728138E-005  0.2270490E+03  0.7546771E-02  0.1137617E+00
         21   -1    0    0  501  502  0.00000000000E+00  0.00000000000E+00  0.10642220919E+03  0.10642220919E+03  0.00000000000E+00 0.  1.
          1   -1    0    0  502    0 -0.00000000000E+00 -0.00000000000E+00 -0.39630300773E+03  0.39630300773E+03  0.00000000000E+00 0. -1.
         23    2    1    2    0    0 -0.13960743978E+03  0.75345560979E+02 -0.11274525244E+03  0.21475256091E+03  0.90774333761E+02 0.  0.
        -24    2    1    2    0    0  0.47915597469E+02 -0.62604826966E+02 -0.39232234355E+02  0.12187917739E+03  0.84262072301E+02 0.  0.
         13    1    4    4    0    0 -0.45460624512E+01 -0.52566038475E+02 -0.43378716136E+02  0.68304963937E+02  0.00000000000E+00 0. -1.
        -14    1    4    4    0    0  0.52461659920E+02 -0.10038788491E+02  0.41464817810E+01  0.53574213453E+02  0.00000000000E+00 0.  1.
        -11    1    3    3    0    0  0.53477094194E+00  0.26663121924E+02  0.26512987953E+01  0.26799952164E+02  0.00000000000E+00 0. -1.
         11    1    3    3    0    0 -0.14014221072E+03  0.48682439055E+02 -0.11539655124E+03  0.18795260875E+03  0.00000000000E+00 0.  1.
          2    1    1    2  501    0  0.91691842310E+02 -0.12740734013E+02 -0.13790331174E+03  0.16609347862E+03  0.00000000000E+00 0. -1.
<scales pt_clust_5="13000.00000" pt_clust_6="13000.00000" pt_clust_7="13000.00000" pt_clust_8="13000.00000" pt_clust_9="13000.00000"></scales>
<clustering>
<clus scale="   84.262">  5  6 -1 -1</clus>
<clus scale="   90.774">  7  8 -1 -1</clus>
<clus scale="   92.573">  5  9 -1 -1</clus>
<clus scale="  182.776">  2  7  1 -1</clus>
<clus scale="  227.049">  1  5  2 -1</clus>
</clustering>
</event>
<event>
 9    1  0.2728138E-005  0.2568833E+03  0.7546771E-02  0.1142649E+00
         21   -1    0    0  501  502  0.00000000000E+00  0.00000000000E+00  0.29336843129E+02  0.29336843129E+02  0.00000000000E+00 0. -1.
          1   -1    0    0  502    0 -0.00000000000E+00 -0.00000000000E+00 -0.13626813237E+04  0.13626813237E+04  0.00000000000E+00 0. -1.
         23    2    1    2    0    0  0.59040853828E+02 -0.29035527210E+02 -0.19241869858E+03  0.22253082126E+03  0.90366623180E+02 0.  0.
        -24    2    1    2    0    0 -0.11635673700E+03  0.62714261328E+02 -0.10180433888E+04  0.10297753198E+04  0.80949977848E+02 0.  0.
         11    1    4    4    0    0 -0.11965052071E+03  0.34848370559E+02 -0.75200279098E+03  0.76225904631E+03  0.00000000000E+00 0. -1.
        -12    1    4    4    0    0  0.32937837142E+01  0.27865890769E+02 -0.26604059783E+03  0.26751627348E+03  0.00000000000E+00 0.  1.
        -11    1    3    3    0    0  0.31198150119E+02  0.32000188990E+02 -0.77758190748E+02  0.89686525714E+02  0.00000000000E+00 0.  1.
         11    1    3    3    0    0  0.27842703709E+02 -0.61035716200E+02 -0.11466050784E+03  0.13284429555E+03  0.00000000000E+00 0. -1.
          2    1    1    2  501    0  0.57315883167E+02 -0.33678734118E+02 -0.12288239313E+03  0.13971202574E+03  0.00000000000E+00 0. -1.
<scales pt_clust_5="13000.00000" pt_clust_6="13000.00000" pt_clust_7="13000.00000" pt_clust_8="13000.00000" pt_clust_9="13000.00000"></scales>
<clustering>
<clus scale="   80.950">  5  6 -1 -1</clus>
<clus scale="   66.478">  5  9 -1 -1</clus>
<clus scale="   90.367">  7  8 -1 -1</clus>
<clus scale="  111.781">  2  7  1 -1</clus>
<clus scale="  256.883">  1  5  2 -1</clus>
</clustering>
</event>
<event>
 9    1  0.2728138E-005  0.2880232E+03  0.7546771E-02  0.1132990E+00
         21   -1    0    0  501  502  0.00000000000E+00  0.00000000000E+00  0.95121215803E+03  0.95121215803E+03  0.00000000000E+00 0. -1.
          3   -1    0    0  502    0 -0.00000000000E+00 -0.00000000000E+00 -0.39639713114E+02  0.39639713114E+02  0.00000000000E+00 0. -1.
         23    2    1    2    0    0  0.37053876479E+02  0.20934134215E+02  0.24682811674E+03  0.26639179201E+03  0.90715158044E+02 0.  0.
        -24    2    1    2    0    0 -0.47438585492E+02  0.10744151138E+03  0.45356205806E+03  0.47710183736E+03  0.90075107209E+02 0.  0.
         11    1    4    4    0    0 -0.62675632454E+02  0.11245097404E+03  0.42783605943E+03  0.44678535138E+03  0.00000000000E+00 0. -1.
        -12    1    4    4    0    0  0.15237046962E+02 -0.50094626568E+01  0.25725998636E+02  0.30316485978E+02  0.00000000000E+00 0.  1.
        -11    1    3    3    0    0 -0.12131024286E+02 -0.26147815589E+02  0.45499590604E+02  0.53861700265E+02  0.00000000000E+00 0. -1.
         11    1    3    3    0    0  0.49184900764E+02  0.47081949804E+02  0.20132852614E+03  0.21253009174E+03  0.00000000000E+00 0.  1.
          4    1    1    2  501    0  0.10384709013E+02 -0.12837564559E+03  0.21118227011E+03  0.24735824177E+03  0.00000000000E+00 0. -1.
<scales pt_clust_5="13000.00000" pt_clust_6="13000.00000" pt_clust_7="13000.00000" pt_clust_8="13000.00000" pt_clust_9="13000.00000"></scales>
<clustering>
<clus scale="   90.075">  5  6 -1 -1</clus>
<clus scale="   90.715">  7  8 -1 -1</clus>
<clus scale="  100.202">  2  7  1 -1</clus>
<clus scale="  120.262">  5  9 -1 -1</clus>
<clus scale="  288.023">  1  5  2 -1</clus>
</clustering>
</event>
<event>
 9    1  0.2728138E-005  0.4727676E+03  0.7546771E-02  0.1058485E+00
         21   -1    0    0  501  502  0.00000000000E+00  0.00000000000E+00  0.84448371010E+03  0.84448371010E+03  0.00000000000E+00 0. -1.
          1   -1    0    0  502    0 -0.00000000000E+00 -0.00000000000E+00 -0.17646616864E+03  0.17646616864E+03  0.00000000000E+00 0. -1.
         23    2    1    2    0    0 -0.12868366093E+03 -0.13330266146E+02 -0.44829018586E+02  0.16557896860E+03  0.93110543706E+02 0.  0.
        -24    2    1    2    0    0  0.71810747906E+01 -0.18213558988E+03  0.18225507780E+03  0.27701366732E+03  0.10146288761E+03 0.  0.
         11    1    4    4    0    0 -0.73091846456E+01 -0.16359899012E+03  0.19128747261E+03  0.25181133995E+03  0.00000000000E+00 0. -1.
        -12    1    4    4    0    0  0.14490259436E+02 -0.18536599754E+02 -0.90323948066E+01  0.25202327371E+02  0.00000000000E+00 0.  1.
        -13    1    3    3    0    0 -0.24818868458E+02  0.11647816153E+01 -0.54864755337E+02  0.60228517547E+02  0.00000000000E+00 0. -1.
         13    1    3    3    0    0 -0.10386479247E+03 -0.14495047761E+02  0.10035736751E+02  0.10535045105E+03  0.00000000000E+00 0.  1.
          2    1    1    2  501    0  0.12150258614E+03  0.19546585602E+03  0.53059148224E+03  0.57835724283E+03  0.00000000000E+00 0. -1.
<scales pt_clust_5="13000.00000" pt_clust_6="13000.00000" pt_clust_7="13000.00000" pt_clust_8="13000.00000" pt_clust_9="13000.00000"></scales>
<clustering>
<clus scale="   93.111">  7  8 -1 -1</clus>
<clus scale="  101.463">  5  6 -1 -1</clus>
<clus scale="  159.395">  2  7  1 -1</clus>
<clus scale="  206.454">  5  9 -1 -1</clus>
<clus scale="  472.768">  1  5  2 -1</clus>
</clustering>
</event>
<event>
 9    1  0.2728138E-005  0.2209623E+03  0.7546771E-02  0.1156346E+00
          1   -1    0    0  502    0 -0.00000000000E+00  0.00000000000E+00  0.50965876501E+03  0.50965876501E+03  0.00000000000E+00 0. -1.
         21   -1    0    0  501  502  0.00000000000E+00 -0.00000000000E+00 -0.96532884887E+02  0.96532884887E+02  0.00000000000E+00 0.  1.
         23    2    1    2    0    0  0.71743805926E+02  0.49538000969E+02 -0.11572515598E+02  0.12745053336E+03  0.92241683132E+02 0.  0.
        -24    2    1    2    0    0 -0.59989013603E+02  0.44031420265E+02  0.13262719582E+03  0.17182256456E+03  0.79972325835E+02 0.  0.
         13    1    4    4    0    0 -0.75894183189E+02  0.20015893085E+02  0.81566930352E+02  0.11319773472E+03  0.00000000000E+00 0. -1.
        -14    1    4    4    0    0  0.15905169586E+02  0.24015527180E+02  0.51060265464E+02  0.58624829847E+02  0.00000000000E+00 0.  1.
        -13    1    3    3    0    0  0.47106130659E+02  0.66689148287E+02 -0.35529156930E+02  0.89043534505E+02  0.00000000000E+00 0.  1.
         13    1    3    3    0    0  0.24637675267E+02 -0.17151147319E+02  0.23956641332E+02  0.38406998852E+02  0.00000000000E+00 0. -1.
          2    1    1    2  501    0 -0.11754792323E+02 -0.93569421234E+02  0.29207119990E+03  0.30691855197E+03  0.00000000000E+00 0. -1.
<scales pt_clust_5="13000.00000" pt_clust_6="13000.00000" pt_clust_7="13000.00000" pt_clust_8="13000.00000" pt_clust_9="13000.00000"></scales>
<clustering>
<clus scale="   79.972">  5  6 -1 -1</clus>
<clus scale="   92.242">  7  8 -1 -1</clus>
<clus scale="   94.305">  5  9 -1 -1</clus>
<clus scale="  126.924">  1  7  2 -1</clus>
<clus scale="  220.962">  2  5  1 -1</clus>
</clustering>
</event>
<event>
 9    1  0.2728138E-005  0.2128723E+03  0.7546771E-02  0.1154690E+00
         21   -1    0    0  501  502  0.00000000000E+00  0.00000000000E+00  0.48717291602E+03  0.48717291602E+03  0.00000000000E+00 0. -1.
         -2   -1    0    0    0  501 -0.00000000000E+00 -0.00000000000E+00 -0.21277063601E+03  0.21277063601E+03  0.00000000000E+00 0.  1.
         23    2    1    2    0    0 -0.11132882214E+03  0.34349447482E+02 -0.15909366584E+03  0.21700114697E+03  0.90579865857E+02 0.  0.
        -24    2    1    2    0    0  0.39327035002E+02 -0.92875070201E+01  0.75840142991E+02  0.11725123546E+03  0.79769990972E+02 0.  0.
         11    1    4    4    0    0  0.21503666591E+02  0.33990917518E+02  0.48642500671E+02  0.63118008699E+02  0.00000000000E+00 0. -1.
        -12    1    4    4    0    0  0.17823368411E+02 -0.43278424538E+02  0.27197642319E+02  0.54133226763E+02  0.00000000000E+00 0.  1.
        -11    1    3    3    0    0 -0.56927162182E+02  0.48461500366E+02 -0.13804002850E+03  0.15698493010E+03  0.00000000000E+00 0.  1.
         11    1    3    3    0    0 -0.54401659955E+02 -0.14112052885E+02 -0.21053637338E+02  0.60016216872E+02  0.00000000000E+00 0. -1.
         -1    1    1    2    0  502  0.72001787135E+02 -0.25061940461E+02  0.35765580285E+03  0.36569116960E+03  0.00000000000E+00 0.  1.
<scales pt_clust_5="13000.00000" pt_clust_6="13000.00000" pt_clust_7="13000.00000" pt_clust_8="13000.00000" pt_clust_9="13000.00000"></scales>
<clustering>
<clus scale="   79.770">  5  6 -1 -1</clus>
<clus scale="   76.239">  5  9 -1 -1</clus>
<clus scale="   90.580">  7  8 -1 -1</clus>
<clus scale="  147.576">  2  7  1 -1</clus>
<clus scale="  212.872">  1  5  2 -1</clus>
</clustering>
</event>
<event>
 9    1  0.2728138E-005  0.2657046E+03  0.7546771E-02  0.1144396E+00
          1   -1    0    0  502    0 -0.00000000000E+00  0.00000000000E+00  0.22875585342E+03  0.22875585342E+03  0.00000000000E+00 0. -1.
         21   -1    0    0  501  502  0.00000000000E+00 -0.00000000000E+00 -0.42751551365E+03  0.42751551365E+03  0.00000000000E+00 0. -1.
         23    2    1    2    0    0  0.10364292677E+02 -0.12988068257E+02  0.17361966465E+03  0.19881612565E+03  0.95435608578E+02 0.  0.
        -24    2    1    2    0    0 -0.72836546245E+02  0.10619684202E+03 -0.18983366059E+03  0.24318070367E+03  0.80728583683E+02 0.  0.
         11    1    4    4    0    0 -0.58540704753E+02  0.11142785006E+03 -0.19005493804E+03  0.22795626632E+03  0.00000000000E+00 0. -1.
        -12    1    4    4    0    0 -0.14295841492E+02 -0.52310080390E+01  0.22127745007E+00  0.15224437355E+02  0.00000000000E+00 0.  1.
        -13    1    3    3    0    0 -0.26559249873E+02 -0.29110880152E+02  0.14266666016E+03  0.14800882751E+03  0.00000000000E+00 0.  1.
         13    1    3    3    0    0  0.36923542550E+02  0.16122811895E+02  0.30953004486E+02  0.50807298142E+02  0.00000000000E+00 0. -1.
          2    1    1    2  501    0  0.62472253568E+02 -0.93208773765E+02 -0.18254566430E+03  0.21427453775E+03  0.00000000000E+00 0. -1.
<scales pt_clust_5="13000.00000" pt_clust_6="13000.00000" pt_clust_7="13000.00000" pt_clust_8="13000.00000" pt_clust_9="13000.00000"></scales>
<clustering>
<clus scale="   80.729">  5  6 -1 -1</clus>
<clus scale="   95.436">  7  8 -1 -1</clus>
<clus scale="   96.871">  1  7  2 -1</clus>
<clus scale="  118.385">  5  9 -1 -1</clus>
<clus scale="  265.705">  2  5  1 -1</clus>
</clustering>
</event>
<event>
 9    1  0.3046522E-005  0.9686336E+03  0.7546771E-02  0.9676087E-01
         21   -1    0    0  501  502  0.00000000000E+00  0.00000000000E+00  0.62370769595E+03  0.62370769595E+03  0.00000000000E+00 0.  1.
         -2   -1    0    0    0  501 -0.00000000000E+00 -0.00000000000E+00 -0.66174201722E+03  0.66174201722E+03  0.00000000000E+00 0.  1.
         23    2    1    2    0    0  0.15807545100E+03  0.24165102858E+03 -0.87131511404E+02  0.31557264583E+03  0.92796156670E+02 0.  0.
        -24    2    1    2    0    0 -0.10952815398E+03  0.33324593224E+03 -0.10017223679E+03  0.37393687116E+03  0.82128184709E+02 0.  0.
         13    1    4    4    0    0 -0.56265602832E+02  0.61753362419E+02 -0.20367955551E+02  0.85989240289E+02  0.00000000000E+00 0. -1.
        -14    1    4    4    0    0 -0.53262551150E+02  0.27149256982E+03 -0.79804281236E+02  0.28794763087E+03  0.00000000000E+00 0.  1.
        -11    1    3    3    0    0  0.13933669409E+03  0.14221764616E+03 -0.78519605391E+02  0.21402313340E+03  0.00000000000E+00 0.  1.
         11    1    3    3    0    0  0.18738756915E+02  0.99433382416E+02 -0.86119060130E+01  0.10154951243E+03  0.00000000000E+00 0. -1.
         -1    1    1    2    0  502 -0.48547297020E+02 -0.57489696082E+03  0.14926942692E+03  0.59594019617E+03  0.00000000000E+00 0.  1.
<scales pt_clust_5="13000.00000" pt_clust_6="13000.00000" pt_clust_7="13000.00000" pt_clust_8="13000.00000" pt_clust_9="13000.00000"></scales>
<clustering>
<clus scale="   82.128">  5  6 -1 -1</clus>
<clus scale="   92.796">  7  8 -1 -1</clus>
<clus scale="  303.305">  2  7  1 -1</clus>
<clus scale="  458.536">  5  9 -1 -1</clus>
<clus scale="  968.634">  1  5  2 -1</clus>
</clustering>
</event>
<event>
 9    1  0.2728138E-005  0.8579737E+03  0.7546771E-02  0.1008289E+00
         21   -1    0    0  501  502  0.00000000000E+00  0.00000000000E+00  0.94312111432E+03  0.94312111432E+03  0.00000000000E+00 0. -1.
          1   -1    0    0  502    0 -0.00000000000E+00 -0.00000000000E+00 -0.44506732320E+03  0.44506732320E+03  0.00000000000E+00 0. -1.
         23    2    1    2    0    0  0.34423027783E+02  0.65773156760E+02 -0.23311668588E+03  0.26092225110E+03  0.90697182374E+02 0.  0.
        -24    2    1    2    0    0 -0.19371903342E+03  0.67792917965E+02 -0.11972781384E+03  0.25134209434E+03  0.81946051416E+02 0.  0.
         11    1    4    4    0    0 -0.18040818703E+03  0.84041459188E+02 -0.10092063191E+03  0.22314805568E+03  0.00000000000E+00 0. -1.
        -12    1    4    4    0    0 -0.13310846397E+02 -0.16248541222E+02 -0.18807181936E+02  0.28194038661E+02  0.00000000000E+00 0.  1.
        -13    1    3    3    0    0  0.40663578808E+02  0.25919775246E+01 -0.37924164915E+02  0.55664057286E+02  0.00000000000E+00 0.  1.
         13    1    3    3    0    0 -0.62405510250E+01  0.63181179235E+02 -0.19519252096E+03  0.20525819381E+03  0.00000000000E+00 0. -1.
          2    1    1    2  501    0  0.15929600564E+03 -0.13356607472E+03  0.85089829084E+03  0.87592409208E+03  0.00000000000E+00 0. -1.
<scales pt_clust_5="13000.00000" pt_clust_6="13000.00000" pt_clust_7="13000.00000" pt_clust_8="13000.00000" pt_clust_9="13000.00000"></scales>
<clustering>
<clus scale="   81.946">  5  6 -1 -1</clus>
<clus scale="   90.697">  7  8 -1 -1</clus>
<clus scale="  117.205">  2  7  1 -1</clus>
<clus scale="  206.930">  5  9 -1 -1</clus>
<clus scale="  857.974">  1  5  2 -1</clus>
</clustering>
</event>
<event>
 9    1  0.2728138E-005  0.2266399E+03  0.7546771E-02  0.1166005E+00
          1   -1    0    0  502    0 -0.00000000000E+00  0.00000000000E+00  0.15718915564E+03  0.15718915564E+03  0.00000000000E+00 0. -1.
         21   -1    0    0  501  502  0.00000000000E+00 -0.00000000000E+00 -0.17061505166E+03  0.17061505166E+03  0.00000000000E+00 0. -1.
         23    2    1    2    0    0 -0.18111798784E+02 -0.10574923634E+02 -0.34669182750E+02  0.10017089717E+03  0.91609989312E+02 0.  0.
        -24    2    1    2    0    0  0.62612083220E+02  0.19811475437E+02 -0.68475946333E+02  0.12705930760E+03  0.84512394932E+02 0.  0.
         11    1    4    4    0    0  0.67224693766E+02 -0.67636117296E-01 -0.79299450644E+02  0.10395944834E+03  0.00000000000E+00 0. -1.
        -12    1    4    4    0    0 -0.46126105458E+01  0.19879111554E+02  0.10823504311E+02  0.23099859259E+02  0.00000000000E+00 0.  1.
        -11    1    3    3    0    0  0.22278114726E+02 -0.38614177301E+02 -0.12980189701E+02  0.46431179277E+02  0.00000000000E+00 0.  1.
         11    1    3    3    0    0 -0.40389913510E+02  0.28039253667E+02 -0.21688993049E+02  0.53739717891E+02  0.00000000000E+00 0. -1.
          2    1    1    2  501    0 -0.44500284436E+02 -0.92365518026E+01  0.89719233063E+02  0.10057400253E+03  0.00000000000E+00 0. -1.
<scales pt_clust_5="13000.00000" pt_clust_6="13000.00000" pt_clust_7="13000.00000" pt_clust_8="13000.00000" pt_clust_9="13000.00000"></scales>
<clustering>
<clus scale="   84.512">  5  6 -1 -1</clus>
<clus scale="   45.449">  5  9 -1 -1</clus>
<clus scale="   91.610">  7  8 -1 -1</clus>
<clus scale="   93.980">  1  7  2 -1</clus>
<clus scale="  226.640">  2  5  1 -1</clus>
</clustering>
</event>
<event>
 9    1  0.2728138E-005  0.5819134E+03  0.7546771E-02  0.1037833E+00
         21   -1    0    0  501  502  0.00000000000E+00  0.00000000000E+00  0.27613205781E+03  0.27613205781E+03  0.00000000000E+00 0. -1.
          1   -1    0    0  502    0 -0.00000000000E+00 -0.00000000000E+00 -0.49177309824E+03  0.49177309824E+03  0.00000000000E+00 0. -1.
         23    2    1    2    0    0 -0.52246471496E+02 -0.11058820276E+03 -0.31902516464E+02  0.15767320339E+03  0.94252979450E+02 0.  0.
        -24    2    1    2    0    0 -0.62103923681E+02 -0.16359851969E+03 -0.24017344027E+03  0.30784268131E+03  0.80389439880E+02 0.  0.
         13    1    4    4    0    0 -0.51253102699E+02 -0.16805492660E+03 -0.20107027886E+03  0.26701796930E+03  0.00000000000E+00 0. -1.
        -14    1    4    4    0    0 -0.10850820982E+02  0.44564069028E+01 -0.39103161410E+02  0.40824712011E+02  0.00000000000E+00 0.  1.
        -11    1    3    3    0    0  0.19975719862E+02 -0.59144314171E+02 -0.29308945892E+02  0.68964437155E+02  0.00000000000E+00 0.  1.
         11    1    3    3    0    0 -0.72222191358E+02 -0.51443888594E+02 -0.25935705718E+01  0.88708766232E+02  0.00000000000E+00 0. -1.
          2    1    1    2  501    0  0.11435039518E+03  0.27418672246E+03  0.56434916307E+02  0.30238927135E+03  0.00000000000E+00 0. -1.
<scales pt_clust_5="13000.00000" pt_clust_6="13000.00000" pt_clust_7="13000.00000" pt_clust_8="13000.00000" pt_clust_9="13000.00000"></scales>
<clustering>
<clus scale="   80.389">  5  6 -1 -1</clus>
<clus scale="   94.253">  7  8 -1 -1</clus>
<clus scale="  154.412">  2  7  1 -1</clus>
<clus scale="  259.234">  5  9 -1 -1</clus>
<clus scale="  581.913">  1  5  2 -1</clus>
</clustering>
</event>
<event>
 9    1  0.2728138E-005  0.3297339E+03  0.7546771E-02  0.1113939E+00
         21   -1    0    0  501  502  0.00000000000E+00  0.00000000000E+00  0.21563101648E+03  0.21563101648E+03  0.00000000000E+00 0. -1.
          1   -1    0    0  502    0 -0.00000000000E+00 -0.00000000000E+00 -0.23520117914E+03  0.23520117914E+03  0.00000000000E+00 0. -1.
         23    2    1    2    0    0 -0.27702143146E+01  0.55052928676E+02 -0.52629654923E+02  0.11944517199E+03  0.91971568925E+02 0.  0.
        -24    2    1    2    0    0 -0.79706572614E+02 -0.91017974841E+01 -0.11094782114E+03  0.15918936640E+03  0.81214868862E+02 0.  0.
         11    1    4    4    0    0 -0.12988650900E+02  0.32758629972E+02 -0.38181349476E+02  0.51958140245E+02  0.00000000000E+00 0. -1.
        -12    1    4    4    0    0 -0.66717921715E+02 -0.41860427457E+02 -0.72766471665E+02  0.10723122616E+03  0.00000000000E+00 0.  1.
        -13    1    3    3    0    0  0.42279388646E+02  0.35584752746E+02 -0.14047895370E+02  0.57018985405E+02  0.00000000000E+00 0.  1.
         13    1    3    3    0    0 -0.45049602961E+02  0.19468175930E+02 -0.38581759553E+02  0.62426186582E+02  0.00000000000E+00 0. -1.
          2    1    1    2  501    0  0.82476786929E+02 -0.45951131192E+02  0.14400731340E+03  0.17219765723E+03  0.00000000000E+00 0. -1.
<scales pt_clust_5="13000.00000" pt_clust_6="13000.00000" pt_clust_7="13000.00000" pt_clust_8="13000.00000" pt_clust_9="13000.00000"></scales>
<clustering>
<clus scale="   81.215">  5  6 -1 -1</clus>
<clus scale="   91.972">  7  8 -1 -1</clus>
<clus scale="   94.414">  5  9 -1 -1</clus>
<clus scale="  107.225">  2  7  1 -1</clus>
<clus scale="  329.734">  1  5  2 -1</clus>
</clustering>
</event>
<event>
 9    1  0.2728138E-005  0.1150659E+03  0.7546771E-02  0.1260826E+00
         21   -1    0    0  501  502  0.00000000000E+00  0.00000000000E+00  0.71451776026E+02  0.71451776026E+02  0.00000000000E+00 0. -1.
          1   -1    0    0  502    0 -0.00000000000E+00 -0.00000000000E+00 -0.17274036046E+03  0.17274036046E+03  0.00000000000E+00 0. -1.
         23    2    1    2    0    0 -0.10778065577E+02  0.29708559187E+02 -0.85079108552E+02  0.12799013898E+03  0.90245530516E+02 0.  0.
        -24    2    1    2    0    0 -0.63250513762E+01 -0.21581136080E+01 -0.96061118465E+00  0.80368053600E+02  0.80083940565E+02 0.  0.
         13    1    4    4    0    0 -0.59671077682E+00  0.35572281441E+02  0.15499427199E+02  0.38806900342E+02  0.00000000000E+00 0. -1.
        -14    1    4    4    0    0 -0.57283405993E+01 -0.37730395049E+02 -0.16460038383E+02  0.41561153258E+02  0.00000000000E+00 0.  1.
        -13    1    3    3    0    0 -0.30960791747E+02  0.55023328008E+02 -0.59083688832E+02  0.86469760822E+02  0.00000000000E+00 0. -1.
         13    1    3    3    0    0  0.20182726171E+02 -0.25314768821E+02 -0.25995419720E+02  0.41520378160E+02  0.00000000000E+00 0.  1.
          2    1    1    2  501    0  0.17103116953E+02 -0.27550445579E+02 -0.15248864699E+02  0.35833943904E+02  0.00000000000E+00 0. -1.
<scales pt_clust_5="13000.00000" pt_clust_6="13000.00000" pt_clust_7="13000.00000" pt_clust_8="13000.00000" pt_clust_9="13000.00000"></scales>
<clustering>
<clus scale="   80.084">  5  6 -1 -1</clus>
<clus scale="   32.428">  5  9 -1 -1</clus>
<clus scale="   90.246">  7  8 -1 -1</clus>
<clus scale="   95.619">  2  7  1 -1</clus>
<clus scale="  115.066">  1  5  2 -1</clus>
</clustering>
</event>
<event>
 9    1  0.2728138E-005  0.1235657E+03  0.7546771E-02  0.1246469E+00
         21   -1    0    0  501  502  0.00000000000E+00  0.00000000000E+00  0.24178342141E+03  0.24178342141E+03  0.00000000000E+00 0. -1.
          1   -1    0    0  502    0 -0.00000000000E+00 -0.00000000000E+00 -0.12650341495E+03  0.12650341495E+03  0.00000000000E+00 0. -1.
         23    2    1    2    0    0 -0.37604980967E+02  0.22743733545E+02 -0.84765813067E+02  0.13315533274E+03  0.92809954013E+02 0.  0.
        -24    2    1    2    0    0  0.18514170856E+01  0.28126524920E+01  0.13689373963E+03  0.15819236278E+03  0.79205990518E+02 0.  0.
         13    1    4    4    0    0 -0.25421522679E+02 -0.22149175851E+02  0.30164473836E+02  0.45240858612E+02  0.00000000000E+00 0. -1.
        -14    1    4    4    0    0  0.27272939764E+02  0.24961828343E+02  0.10672926579E+03  0.11295150417E+03  0.00000000000E+00 0.  1.
        -13    1    3    3    0    0 -0.30424019897E+02  0.50877282575E+02 -0.85582817536E+02  0.10410829711E+03  0.00000000000E+00 0.  1.
         13    1    3    3    0    0 -0.71809610694E+01 -0.28133549031E+02  0.81700446915E+00  0.29047035636E+02  0.00000000000E+00 0. -1.
          2    1    1    2  501    0  0.35753563881E+02 -0.25556386037E+02  0.63152079897E+02  0.76939140837E+02  0.00000000000E+00 0. -1.
<scales pt_clust_5="13000.00000" pt_clust_6="13000.00000" pt_clust_7="13000.00000" pt_clust_8="13000.00000" pt_clust_9="13000.00000"></scales>
<clustering>
<clus scale="   79.206">  5  6 -1 -1</clus>
<clus scale="   43.948">  5  9 -1 -1</clus>
<clus scale="   92.810">  7  8 -1 -1</clus>
<clus scale="  102.689">  2  7  1 -1</clus>
<clus scale="  123.566">  1  5  2 -1</clus>
</clustering>
</event>
<event>
 9    1  0.2728138E-005  0.2071212E+03  0.7546771E-02  0.1156332E+00
         21   -1    0    0  501  502  0.00000000000E+00  0.00000000000E+00  0.61362209072E+03  0.61362209072E+03  0.00000000000E+00 0. -1.
          3   -1    0    0  502    0 -0.00000000000E+00 -0.00000000000E+00 -0.72038530044E+02  0.72038530044E+02  0.00000000000E+00 0. -1.
         23    2    1    2    0    0  0.10792188315E+03  0.59787956470E+02  0.67464236803E+02  0.16827455389E+03  0.92429268287E+02 0.  0.
        -24    2    1    2    0    0 -0.18059804850E+02 -0.75687664299E+02  0.31402967713E+03  0.33311265908E+03  0.79338681891E+02 0.  0.
         11    1    4    4    0    0 -0.14183348760E+02 -0.63663842895E+02  0.31376913939E+03  0.32047671539E+03  0.00000000000E+00 0. -1.
        -12    1    4    4    0    0 -0.38764560900E+01 -0.12023821403E+02  0.26053773596E+00  0.12635943687E+02  0.00000000000E+00 0.  1.
        -11    1    3    3    0    0  0.14252044360E+02  0.56361658272E+02  0.11999263295E+02  0.59361095098E+02  0.00000000000E+00 0.  1.
         11    1    3    3    0    0  0.93669838794E+02  0.34262981973E+01  0.55464973508E+02  0.10891345879E+03  0.00000000000E+00 0. -1.
          4    1    1    2  501    0 -0.89862078303E+02  0.15899707829E+02  0.16008964675E+03  0.18427340780E+03  0.00000000000E+00 0. -1.
<scales pt_clust_5="13000.00000" pt_clust_6="13000.00000" pt_clust_7="13000.00000" pt_clust_8="13000.00000" pt_clust_9="13000.00000"></scales>
<clustering>
<clus scale="   79.339">  5  6 -1 -1</clus>
<clus scale="   91.258">  5  9 -1 -1</clus>
<clus scale="   92.429">  7  8 -1 -1</clus>
<clus scale="  154.159">  2  7  1 -1</clus>
<clus scale="  207.121">  1  5  2 -1</clus>
</clustering>
</event>
<event>
 9    1  0.2728138E-005  0.2636892E+03  0.7546771E-02  0.1120877E+00
          1   -1    0    0  502    0 -0.00000000000E+00  0.00000000000E+00  0.97617175256E+02  0.97617175256E+02  0.00000000000E+00 0. -1.
         21   -1    0    0  501  502  0.00000000000E+00 -0.00000000000E+00 -0.49554599674E+03  0.49554599674E+03  0.00000000000E+00 0. -1.
         23    2    1    2    0    0  0.15066320627E+03  0.15418919652E+02 -0.15399139366E+03  0.23394528754E+03  0.89888283071E+02 0.  0.
        -24    2    1    2    0    0  0.17762305404E+01 -0.35119841187E+02 -0.22961672810E+02  0.90041004866E+02  0.79646631436E+02 0.  0.
         13    1    4    4    0    0 -0.26304851655E+02 -0.49082520864E+02 -0.15521598335E+02  0.57809679898E+02  0.00000000000E+00 0. -1.
        -14    1    4    4    0    0  0.28081082195E+02  0.13962679677E+02 -0.74400744754E+01  0.32231324968E+02  0.00000000000E+00 0.  1.
        -13    1    3    3    0    0  0.90647657532E+02  0.45444185507E+02 -0.57982230060E+02  0.11680800835E+03  0.00000000000E+00 0.  1.
         13    1    3    3    0    0  0.60015548736E+02 -0.30025265854E+02 -0.96009163604E+02  0.11713727919E+03  0.00000000000E+00 0. -1.
          2    1    1    2  501    0 -0.15243943681E+03  0.19700921535E+02 -0.22097575501E+03  0.26917687959E+03  0.00000000000E+00 0. -1.
<scales pt_clust_5="13000.00000" pt_clust_6="13000.00000" pt_clust_7="13000.00000" pt_clust_8="13000.00000" pt_clust_9="13000.00000"></scales>
<clustering>
<clus scale="   79.647">  5  6 -1 -1</clus>
<clus scale="   89.888">  7  8 -1 -1</clus>
<clus scale="  153.707">  5  9 -1 -1</clus>
<clus scale="  176.117">  1  7  2 -1</clus>
<clus scale="  263.689">  2  5  1 -1</clus>
</clustering>
</event>
<event>
 9    1  0.2728138E-005  0.1929709E+03  0.7546771E-02  0.1178645E+00
         -2   -1    0    0    0  501 -0.00000000000E+00  0.00000000000E+00  0.44384377233E+03  0.44384377233E+03  0.00000000000E+00 0.  1.
         21   -1    0    0  501  502  0.00000000000E+00 -0.00000000000E+00 -0.54632695397E+02  0.54632695397E+02  0.00000000000E+00 0.  1.
         23    2    1    2    0    0  0.69552043221E+02  0.94256677361E+01  0.10607742418E+03  0.15583605840E+03  0.90034033825E+02 0.  0.
        -24    2    1    2    0    0 -0.28478448386E+02  0.65693968450E+01  0.39102366322E+02  0.94660266901E+02  0.81101122560E+02 0.  0.
         13    1    4    4    0    0 -0.11174414251E+02 -0.32869360145E+02  0.38149997376E+02  0.51581824997E+02  0.00000000000E+00 0. -1.
        -14    1    4    4    0    0 -0.17304034135E+02  0.39438756990E+02  0.95236894602E+00  0.43078441904E+02  0.00000000000E+00 0.  1.
        -11    1    3    3    0    0  0.75073596137E+02  0.35860843204E+02  0.95940262861E+02  0.12699046795E+03  0.00000000000E+00 0.  1.
         11    1    3    3    0    0 -0.55215529152E+01 -0.26435175467E+02  0.10137161322E+02  0.28845590447E+02  0.00000000000E+00 0. -1.
         -1    1    1    2    0  502 -0.41073594835E+02 -0.15995064581E+02  0.24403128643E+03  0.24798014243E+03  0.00000000000E+00 0.  1.
<scales pt_clust_5="13000.00000" pt_clust_6="13000.00000" pt_clust_7="13000.00000" pt_clust_8="13000.00000" pt_clust_9="13000.00000"></scales>
<clustering>
<clus scale="   81.101">  5  6 -1 -1</clus>
<clus scale="   44.078">  5  9 -1 -1</clus>
<clus scale="   90.034">  7  8 -1 -1</clus>
<clus scale="  114.160">  1  7  2 -1</clus>
<clus scale="  192.971">  2  5  1 -1</clus>
</clustering>
</event>
<event>
 9    1  0.2728138E-005  0.1973191E+03  0.7546771E-02  0.1176586E+00
          1   -1    0    0  502    0 -0.00000000000E+00  0.00000000000E+00  0.13271030828E+03  0.13271030828E+03  0.00000000000E+00 0. -1.
         21   -1    0    0  501  502  0.00000000000E+00 -0.00000000000E+00 -0.19322713537E+03  0.19322713537E+03  0.00000000000E+00 0. -1.
         23    2    1    2    0    0 -0.57368779569E+02 -0.31685100826E+02  0.18516161151E+02  0.11337908842E+03  0.90646825554E+02 0.  0.
        -24    2    1    2    0    0  0.41492119392E+02  0.48565009920E+02 -0.12531521825E+03  0.16079886834E+03  0.77924424756E+02 0.  0.
         13    1    4    4    0    0  0.54401496791E+02  0.55546017490E+02 -0.12360399393E+03  0.14602338932E+03  0.00000000000E+00 0. -1.
        -14    1    4    4    0    0 -0.12909377399E+02 -0.69810075704E+01 -0.17112243159E+01  0.14775479017E+02  0.00000000000E+00 0.  1.
        -11    1    3    3    0    0 -0.76624289879E+02 -0.92348960079E+01  0.28333899282E+02  0.82215417971E+02  0.00000000000E+00 0. -1.
         11    1    3    3    0    0  0.19255510310E+02 -0.22450204818E+02 -0.98177381310E+01  0.31163670446E+02  0.00000000000E+00 0.  1.
          2    1    1    2  501    0  0.15876660177E+02 -0.16879909094E+02  0.46282230005E+02  0.51759486895E+02  0.00000000000E+00 0. -1.
<scales pt_clust_5="13000.00000" pt_clust_6="13000.00000" pt_clust_7="13000.00000" pt_clust_8="13000.00000" pt_clust_9="13000.00000"></scales>
<clustering>
<clus scale="   77.924">  5  6 -1 -1</clus>
<clus scale="   23.173">  5  9 -1 -1</clus>
<clus scale="   90.647">  7  8 -1 -1</clus>
<clus scale="  111.857">  1  7  2 -1</clus>
<clus scale="  197.319">  2  5  1 -1</clus>
</clustering>
</event>
<event>
 9    1  0.2728138E-005  0.2788205E+03  0.7546771E-02  0.1110853E+00
          1   -1    0    0  502    0 -0.00000000000E+00  0.00000000000E+00  0.13372237403E+04  0.13372237403E+04  0.00000000000E+00 0. -1.
         21   -1    0    0  501  502  0.00000000000E+00 -0.00000000000E+00 -0.74935080199E+02  0.74935080199E+02  0.00000000000E+00 0. -1.
         23    2    1    2    0    0  0.16927153896E+03 -0.19472064108E+02  0.10344784850E+04  0.10521055634E+04  0.88024800029E+02 0.  0.
        -24    2    1    2    0    0  0.12895139625E+02 -0.23486590087E+01  0.25968720321E+02  0.87288128077E+02  0.82298493565E+02 0.  0.
         11    1    4    4    0    0  0.19574309714E+02  0.87033677608E+01 -0.26029105269E+02  0.33710777687E+02  0.00000000000E+00 0. -1.
        -12    1    4    4    0    0 -0.66791700886E+01 -0.11052026769E+02  0.51997825590E+02  0.53577350391E+02  0.00000000000E+00 0.  1.
        -11    1    3    3    0    0  0.16804179235E+03  0.16792959477E+01  0.96300480373E+03  0.97755773027E+03  0.00000000000E+00 0. -1.
         11    1    3    3    0    0  0.12297466114E+01 -0.21151360056E+02  0.71473681231E+02  0.74547833085E+02  0.00000000000E+00 0.  1.
          2    1    1    2  501    0 -0.18216667859E+03  0.21820723117E+02  0.20184145478E+03  0.27276512903E+03  0.00000000000E+00 0. -1.
<scales pt_clust_5="13000.00000" pt_clust_6="13000.00000" pt_clust_7="13000.00000" pt_clust_8="13000.00000" pt_clust_9="13000.00000"></scales>
<clustering>
<clus scale="   82.298">  5  6 -1 -1</clus>
<clus scale="   88.025">  7  8 -1 -1</clus>
<clus scale="  183.469">  5  9 -1 -1</clus>
<clus scale="  191.782">  1  7  2 -1</clus>
<clus scale="  278.821">  2  5  1 -1</clus>
</clustering>
</event>
<event>
 9    1  0.2728138E-005  0.2804721E+03  0.7546771E-02  0.1133984E+00
          1   -1    0    0  502    0 -0.00000000000E+00  0.00000000000E+00  0.52343076400E+03  0.52343076400E+03  0.00000000000E+00 0. -1.
         21   -1    0    0  501  502  0.00000000000E+00 -0.00000000000E+00 -0.80862017552E+02  0.80862017552E+02  0.00000000000E+00 0. -1.
         23    2    1    2    0    0 -0.38653169579E+01 -0.55209039156E+02  0.39067522897E+02  0.11288886380E+03  0.90303076051E+02 0.  0.
        -24    2    1    2    0    0 -0.44220790605E+02  0.10694396563E+03  0.39585183884E+03  0.42035963970E+03  0.81308414492E+02 0.  0.
         11    1    4    4    0    0 -0.36147911949E+02  0.11712145263E+03  0.30702693058E+03  0.33058983999E+03  0.00000000000E+00 0. -1.
        -12    1    4    4    0    0 -0.80728786562E+01 -0.10177487003E+02  0.88824908269E+02  0.89769799713E+02  0.00000000000E+00 0.  1.
        -13    1    3    3    0    0 -0.21031537034E+02 -0.75918426669E+02  0.32367262140E+02  0.85167908959E+02  0.00000000000E+00 0.  1.
         13    1    3    3    0    0  0.17166220077E+02  0.20709387513E+02  0.67002607568E+01  0.27720954838E+02  0.00000000000E+00 0. -1.
          2    1    1    2  501    0  0.48086107563E+02 -0.51734926476E+02  0.76493847075E+01  0.71044278055E+02  0.00000000000E+00 0. -1.
<scales pt_clust_5="13000.00000" pt_clust_6="13000.00000" pt_clust_7="13000.00000" pt_clust_8="13000.00000" pt_clust_9="13000.00000"></scales>
<clustering>
<clus scale="   81.308">  5  6 -1 -1</clus>
<clus scale="   70.631">  5  9 -1 -1</clus>
<clus scale="   90.303">  7  8 -1 -1</clus>
<clus scale="  105.913">  1  7  2 -1</clus>
<clus scale="  280.472">  2  5  1 -1</clus>
</clustering>
</event>
<event>
 9    1  0.2728138E-005  0.3964168E+03  0.7546771E-02  0.1071145E+00
         -2   -1    0    0    0  501 -0.00000000000E+00  0.00000000000E+00  0.21510122403E+03  0.21510122403E+03  0.00000000000E+00 0.  1.
         21   -1    0    0  501  502  0.00000000000E+00 -0.00000000000E+00 -0.49081527605E+03  0.49081527605E+03  0.00000000000E+00 0.  1.
         23    2    1    2    0    0 -0.95212378837E+02 -0.13829720851E+03 -0.24227152339E+03  0.30809156379E+03  0.89629267913E+02 0.  0.
        -24    2    1    2    0    0 -0.10939853027E+03  0.20589772361E+02  0.51987281514E+02  0.14678924737E+03  0.80327010119E+02 0.  0.
         11    1    4    4    0    0 -0.10377941749E+02  0.30100781470E+02 -0.48709934032E+01  0.32210018578E+02  0.00000000000E+00 0. -1.
        -12    1    4    4    0    0 -0.99020588520E+02 -0.95110091084E+01  0.56858274917E+02  0.11457922880E+03  0.00000000000E+00 0.  1.
        -11    1    3    3    0    0 -0.81743641828E+02 -0.40520972713E+02 -0.12628329017E+03  0.15579294459E+03  0.00000000000E+00 0. -1.
         11    1    3    3    0    0 -0.13468737008E+02 -0.97776235797E+02 -0.11598823322E+03  0.15229861920E+03  0.00000000000E+00 0.  1.
         -1    1    1    2    0  502  0.20461090911E+03  0.11770743615E+03 -0.85429810137E+02  0.25103568892E+03  0.00000000000E+00 0.  1.
<scales pt_clust_5="13000.00000" pt_clust_6="13000.00000" pt_clust_7="13000.00000" pt_clust_8="13000.00000" pt_clust_9="13000.00000"></scales>
<clustering>
<clus scale="   80.327">  5  6 -1 -1</clus>
<clus scale="   89.629">  7  8 -1 -1</clus>
<clus scale="  190.329">  1  7  2 -1</clus>
<clus scale="  170.408">  5  9 -1 -1</clus>
<clus scale="  396.417">  2  5  1 -1</clus>
</clustering>
</event>
<event>
 9    1  0.2728138E-005  0.2575231E+03  0.7546771E-02  0.1113954E+00
         21   -1    0    0  501  502  0.00000000000E+00  0.00000000000E+00  0.80603319640E+03  0.80603319640E+03  0.00000000000E+00 0. -1.
          3   -1    0    0  502    0 -0.00000000000E+00 -0.00000000000E+00 -0.46662587434E+03  0.46662587434E+03  0.00000000000E+00 0. -1.
         23    2    1    2    0    0 -0.89417713087E+02  0.18357196467E+03  0.75275024827E+03  0.78565750383E+03  0.94501764202E+02 0.  0.
        -24    2    1    2    0    0  0.11966236829E+03 -0.13085822540E+03 -0.28804067999E+03  0.34773875643E+03  0.80696046109E+02 0.  0.
         13    1    4    4    0    0  0.12757240405E+03 -0.13476561811E+03 -0.27923278345E+03  0.33527218413E+03  0.00000000000E+00 0. -1.
        -14    1    4    4    0    0 -0.79100357638E+01  0.39073927040E+01 -0.88078965432E+01  0.12466572305E+02  0.00000000000E+00 0.  1.
        -13    1    3    3    0    0 -0.85290933623E+02  0.12098656363E+03  0.38273031926E+03  0.41035934157E+03  0.00000000000E+00 0.  1.
         13    1    3    3    0    0 -0.41267794637E+01  0.62585401042E+02  0.37001992901E+03  0.37529816226E+03  0.00000000000E+00 0. -1.
          4    1    1    2  501    0 -0.30244655202E+02 -0.52713739267E+02 -0.12530224622E+03  0.13926281048E+03  0.00000000000E+00 0. -1.
<scales pt_clust_5="13000.00000" pt_clust_6="13000.00000" pt_clust_7="13000.00000" pt_clust_8="13000.00000" pt_clust_9="13000.00000"></scales>
<clustering>
<clus scale="   80.696">  5  6 -1 -1</clus>
<clus scale="   60.774">  5  9 -1 -1</clus>
<clus scale="   94.502">  7  8 -1 -1</clus>
<clus scale="  225.000">  2  7  1 -1</clus>
<clus scale="  257.523">  1  5  2 -1</clus>
</clustering>
</event>
<event>
 9    1  0.2728138E-005  0.2861485E+03  0.7546771E-02  0.1123411E+00
          3   -1    0    0  502    0 -0.00000000000E+00  0.00000000000E+00  0.39420077108E+03  0.39420077108E+03  0.00000000000E+00 0. -1.
         21   -1    0    0  501  502  0.00000000000E+00 -0.00000000000E+00 -0.11179043240E+03  0.11179043240E+03  0.00000000000E+00 0. -1.
         23    2    1    2    0    0 -0.40662400829E+02 -0.83929972690E+02  0.12257920503E+03  0.17823069948E+03  0.89681935615E+02 0.  0.
        -24    2    1    2    0    0 -0.10560207688E+02 -0.75202375254E+02  0.99691400767E+02  0.15009889514E+03  0.82609852357E+02 0.  0.
         13    1    4    4    0    0 -0.30169000117E+02 -0.24865499708E+01  0.54290345847E+02  0.62159417235E+02  0.00000000000E+00 0. -1.
        -14    1    4    4    0    0  0.19608792429E+02 -0.72715825283E+02  0.45401054920E+02  0.87939477909E+02  0.00000000000E+00 0.  1.
        -13    1    3    3    0    0 -0.60584193887E+02 -0.89276211464E+02  0.10995197446E+03  0.15404584762E+03  0.00000000000E+00 0. -1.
         13    1    3    3    0    0  0.19921793058E+02  0.53462387737E+01  0.12627230574E+02  0.24184851863E+02  0.00000000000E+00 0.  1.
          4    1    1    2  501    0  0.51222608517E+02  0.15913234794E+03  0.60139732883E+02  0.17766160884E+03  0.00000000000E+00 0. -1.
<scales pt_clust_5="13000.00000" pt_clust_6="13000.00000" pt_clust_7="13000.00000" pt_clust_8="13000.00000" pt_clust_9="13000.00000"></scales>
<clustering>
<clus scale="   82.610">  5  6 -1 -1</clus>
<clus scale="   89.682">  7  8 -1 -1</clus>
<clus scale="  129.385">  1  7  2 -1</clus>
<clus scale="  122.297">  5  9 -1 -1</clus>
<clus scale="  286.148">  2  5  1 -1</clus>
</clustering>
</event>
<event>
 9    1  0.2728138E-005  0.1694708E+03  0.7546771E-02  0.1204925E+00
         21   -1    0    0  501  502  0.00000000000E+00  0.00000000000E+00  0.87747064823E+02  0.87747064823E+02  0.00000000000E+00 0. -1.
          1   -1    0    0  502    0 -0.00000000000E+00 -0.00000000000E+00 -0.21258477003E+03  0.21258477003E+03  0.00000000000E+00 0. -1.
         23    2    1    2    0    0 -0.18396511184E+02 -0.29904797364E+01 -0.86627156833E+01  0.94864094592E+02  0.92610902204E+02 0.  0.
        -24    2    1    2    0    0 -0.49677083940E+02  0.11131157115E+02 -0.92919738126E+02  0.13307235574E+03  0.80513718101E+02 0.  0.
         13    1    4    4    0    0 -0.42189261429E+02  0.23583802879E+02 -0.10602821174E+02  0.49482818785E+02  0.00000000000E+00 0. -1.
        -14    1    4    4    0    0 -0.74878225116E+01 -0.12452645764E+02 -0.82316916952E+02  0.83589536959E+02  0.00000000000E+00 0.  1.
        -13    1    3    3    0    0  0.37441068827E+02  0.57634384190E+01 -0.52161372591E+01  0.38239494573E+02  0.00000000000E+00 0. -1.
         13    1    3    3    0    0 -0.55837580011E+02 -0.87539181554E+01 -0.34465784242E+01  0.56624600019E+02  0.00000000000E+00 0.  1.
          2    1    1    2  501    0  0.68073595124E+02 -0.81406773785E+01 -0.23255251394E+02  0.72395384512E+02  0.00000000000E+00 0. -1.
<scales pt_clust_5="13000.00000" pt_clust_6="13000.00000" pt_clust_7="13000.00000" pt_clust_8="13000.00000" pt_clust_9="13000.00000"></scales>
<clustering>
<clus scale="   80.514">  5  6 -1 -1</clus>
<clus scale="   68.559">  5  9 -1 -1</clus>
<clus scale="   92.611">  7  8 -1 -1</clus>
<clus scale="   94.468">  2  7  1 -1</clus>
<clus scale="  169.471">  1  5  2 -1</clus>
</clustering>
</event>
<event>
 9    1  0.2728138E-005  0.1849068E+03  0.7546771E-02  0.1190307E+00
          1   -1    0    0  502    0 -0.00000000000E+00  0.00000000000E+00  0.25339238838E+03  0.25339238838E+03  0.00000000000E+00 0. -1.
         21   -1    0    0  501  502  0.00000000000E+00 -0.00000000000E+00 -0.90997461657E+02  0.90997461657E+02  0.00000000000E+00 0. -1.
         23    2    1    2    0    0  0.17891388800E+02  0.41178161135E+02  0.11710777287E+03  0.15401796278E+03  0.89395523631E+02 0.  0.
        -24    2    1    2    0    0 -0.46834008391E+02  0.86803305376E+01 -0.27403254236E+02  0.97595597996E+02  0.80654757611E+02 0.  0.
         11    1    4    4    0    0 -0.14850398993E+02 -0.28267592239E+02 -0.35843787908E+02  0.48003835814E+02  0.00000000000E+00 0. -1.
        -12    1    4    4    0    0 -0.31983609398E+02  0.36947922777E+02  0.84405336727E+01  0.49591762182E+02  0.00000000000E+00 0.  1.
        -11    1    3    3    0    0  0.47868620787E+02  0.44018549336E+02  0.55697905373E+02  0.85622977083E+02  0.00000000000E+00 0. -1.
         11    1    3    3    0    0 -0.29977231987E+02 -0.28403882007E+01  0.61409867495E+02  0.68394985697E+02  0.00000000000E+00 0.  1.
          2    1    1    2  501    0  0.28942619591E+02 -0.49858491673E+02  0.72690408092E+02  0.92776289262E+02  0.00000000000E+00 0. -1.
<scales pt_clust_5="13000.00000" pt_clust_6="13000.00000" pt_clust_7="13000.00000" pt_clust_8="13000.00000" pt_clust_9="13000.00000"></scales>
<clustering>
<clus scale="   80.655">  5  6 -1 -1</clus>
<clus scale="   57.650">  5  9 -1 -1</clus>
<clus scale="   89.396">  7  8 -1 -1</clus>
<clus scale="  100.037">  1  7  2 -1</clus>
<clus scale="  184.907">  2  5  1 -1</clus>
</clustering>
</event>
<event>
 9    1  0.2728138E-005  0.1586618E+03  0.7546771E-02  0.1215191E+00
         21   -1    0    0  501  502  0.00000000000E+00  0.00000000000E+00  0.41852234998E+02  0.41852234998E+02  0.00000000000E+00 0. -1.
          1   -1    0    0  502    0 -0.00000000000E+00 -0.00000000000E+00 -0.37916759679E+03  0.37916759679E+03  0.00000000000E+00 0. -1.
         23    2    1    2    0    0 -0.17444195439E+02 -0.13506204033E+02 -0.10807338361E+03  0.14222696480E+03  0.89788283019E+02 0.  0.
        -24    2    1    2    0    0 -0.21157936359E+02  0.39268620647E+02 -0.70380440404E+02  0.11329116043E+03  0.76758047152E+02 0.  0.
         13    1    4    4    0    0  0.14985289852E+02  0.48230111265E+02 -0.48917667471E+02  0.70311028547E+02  0.00000000000E+00 0. -1.
        -14    1    4    4    0    0 -0.36143226211E+02 -0.89614906176E+01 -0.21462772933E+02  0.42980131887E+02  0.00000000000E+00 0.  1.
        -11    1    3    3    0    0  0.20647196729E+02  0.25988476770E+02 -0.20905578261E+02  0.39226914995E+02  0.00000000000E+00 0.  1.
         11    1    3    3    0    0 -0.38091392169E+02 -0.39494680803E+02 -0.87167805352E+02  0.10300004980E+03  0.00000000000E+00 0. -1.
          2    1    1    2  501    0  0.38602131799E+02 -0.25762416614E+02 -0.15886153777E+03  0.16550170656E+03  0.00000000000E+00 0. -1.
<scales pt_clust_5="13000.00000" pt_clust_6="13000.00000" pt_clust_7="13000.00000" pt_clust_8="13000.00000" pt_clust_9="13000.00000"></scales>
<clustering>
<clus scale="   76.758">  5  6 -1 -1</clus>
<clus scale="   46.409">  5  9 -1 -1</clus>
<clus scale="   89.788">  7  8 -1 -1</clus>
<clus scale="   92.459">  2  7  1 -1</clus>
<clus scale="  158.662">  1  5  2 -1</clus>
</clustering>
</event>
<event>
 9    1  0.2728138E-005  0.2794614E+03  0.7546771E-02  0.1127387E+00
         21   -1    0    0  501  502  0.00000000000E+00  0.00000000000E+00  0.69508352359E+03  0.69508352359E+03  0.00000000000E+00 0.  1.
         -2   -1    0    0    0  501 -0.00000000000E+00 -0.00000000000E+00 -0.61288652419E+02  0.61288652419E+02  0.00000000000E+00 0.  1.
         23    2    1    2    0    0  0.70828582717E+01  0.88337069914E+02  0.26757864131E+03  0.29570635539E+03  0.89388559270E+02 0.  0.
        -24    2    1    2    0    0  0.29311232060E+02  0.73979531895E+02  0.14043838278E+03  0.18022537192E+03  0.80163120339E+02 0.  0.
         13    1    4    4    0    0  0.22586050502E+02 -0.10686540386E+02  0.51533173916E+02  0.57271282826E+02  0.00000000000E+00 0. -1.
        -14    1    4    4    0    0  0.67251815587E+01  0.84666072281E+02  0.88905208866E+02  0.12295408910E+03  0.00000000000E+00 0.  1.
        -13    1    3    3    0    0  0.39265805941E+02  0.55623689875E+02  0.93392522389E+02  0.11557664829E+03  0.00000000000E+00 0.  1.
         13    1    3    3    0    0 -0.32182947669E+02  0.32713380039E+02  0.17418611892E+03  0.18012970710E+03  0.00000000000E+00 0. -1.
         -1    1    1    2    0  502 -0.36394090332E+02 -0.16231660181E+03  0.22577784708E+03  0.28044044869E+03  0.00000000000E+00 0.  1.
<scales pt_clust_5="13000.00000" pt_clust_6="13000.00000" pt_clust_7="13000.00000" pt_clust_8="13000.00000" pt_clust_9="13000.00000"></scales>
<clustering>
<clus scale="   80.163">  5  6 -1 -1</clus>
<clus scale="   89.389">  7  8 -1 -1</clus>
<clus scale="  125.873">  2  7  1 -1</clus>
<clus scale="  115.787">  5  9 -1 -1</clus>
<clus scale="  279.461">  1  5  2 -1</clus>
</clustering>
</event>
<event>
 9    1  0.2728138E-005  0.5451085E+03  0.7546771E-02  0.1041341E+00
          1   -1    0    0  502    0 -0.00000000000E+00  0.00000000000E+00  0.75715414748E+03  0.75715414748E+03  0.00000000000E+00 0. -1.
         21   -1    0    0  501  502  0.00000000000E+00 -0.00000000000E+00 -0.17062397284E+03  0.17062397284E+03  0.00000000000E+00 0. -1.
         23    2    1    2    0    0 -0.12589832218E+03  0.70326467763E+02  0.98582211687E+02  0.19617950457E+03  0.89284634479E+02 0.  0.
        -24    2    1    2    0    0 -0.11660519926E+03 -0.36834616728E+02  0.46289296918E+03  0.48551445392E+03  0.80627678626E+02 0.  0.
         11    1    4    4    0    0 -0.11930975140E+03 -0.51809541735E+02  0.43057435552E+03  0.44979253109E+03  0.00000000000E+00 0. -1.
        -12    1    4    4    0    0  0.27045521448E+01  0.14974925007E+02  0.32318613660E+02  0.35721922823E+02  0.00000000000E+00 0.  1.
        -13    1    3    3    0    0 -0.40721029830E+02  0.28517797085E+02 -0.11317944030E+02  0.50985908623E+02  0.00000000000E+00 0. -1.
         13    1    3    3    0    0 -0.85177292352E+02  0.41808670678E+02  0.10990015572E+03  0.14519359594E+03  0.00000000000E+00 0.  1.
          2    1    1    2  501    0  0.24250352144E+03 -0.33491851035E+02  0.25054993768E+02  0.24608416184E+03  0.00000000000E+00 0. -1.
<scales pt_clust_5="13000.00000" pt_clust_6="13000.00000" pt_clust_7="13000.00000" pt_clust_8="13000.00000" pt_clust_9="13000.00000"></scales>
<clustering>
<clus scale="   80.628">  5  6 -1 -1</clus>
<clus scale="   89.285">  7  8 -1 -1</clus>
<clus scale="  169.611">  1  7  2 -1</clus>
<clus scale="  215.255">  5  9 -1 -1</clus>
<clus scale="  545.109">  2  5  1 -1</clus>
</clustering>
</event>
<event>
 9    1  0.2728138E-005  0.1390961E+03  0.7546771E-02  0.1230286E+00
          1   -1    0    0  502    0 -0.00000000000E+00  0.00000000000E+00  0.78527802707E+02  0.78527802707E+02  0.00000000000E+00 0. -1.
         21   -1    0    0  501  502  0.00000000000E+00 -0.00000000000E+00 -0.28702770340E+03  0.28702770340E+03  0.00000000000E+00 0. -1.
         23    2    1    2    0    0 -0.32947361349E+02 -0.23103640231E+02  0.16093873824E+02  0.10137737426E+03  0.91646344306E+02 0.  0.
        -24    2    1    2    0    0  0.18162130136E+02  0.58256228797E+02 -0.17655493031E+03  0.20284267638E+03  0.79056035697E+02 0.  0.
         11    1    4    4    0    0  0.19588482848E+02  0.75659664967E+02 -0.16289258202E+03  0.18067121199E+03  0.00000000000E+00 0. -1.
        -12    1    4    4    0    0 -0.14263527123E+01 -0.17403436170E+02 -0.13662348284E+02  0.22171464391E+02  0.00000000000E+00 0.  1.
        -11    1    3    3    0    0  0.45916693444E+01 -0.46460281017E+02 -0.12986010163E+02  0.48459030113E+02  0.00000000000E+00 0.  1.
         11    1    3    3    0    0 -0.37539030693E+02  0.23356640786E+02  0.29079883987E+02  0.52918344144E+02  0.00000000000E+00 0. -1.
          2    1    1    2  501    0  0.14785231213E+02 -0.35152588566E+02 -0.48038844216E+02  0.61335455476E+02  0.00000000000E+00 0. -1.
<scales pt_clust_5="13000.00000" pt_clust_6="13000.00000" pt_clust_7="13000.00000" pt_clust_8="13000.00000" pt_clust_9="13000.00000"></scales>
<clustering>
<clus scale="   79.056">  5  6 -1 -1</clus>
<clus scale="   38.135">  5  9 -1 -1</clus>
<clus scale="   91.646">  7  8 -1 -1</clus>
<clus scale="  100.092">  1  7  2 -1</clus>
<clus scale="  139.096">  2  5  1 -1</clus>
</clustering>
</event>
<event>
 9    1  0.2728138E-005  0.2516373E+03  0.7546771E-02  0.1132100E+00
          1   -1    0    0  502    0 -0.00000000000E+00  0.00000000000E+00  0.10007813997E+03  0.10007813997E+03  0.00000000000E+00 0. -1.
         21   -1    0    0  501  502  0.00000000000E+00 -0.00000000000E+00 -0.76938425960E+03  0.76938425960E+03  0.00000000000E+00 0. -1.
         23    2    1    2    0    0 -0.13042583148E+03 -0.23797621848E+02  0.90809196927E+00  0.15356546642E+03  0.77487441081E+02 0.  0.
        -24    2    1    2    0    0  0.77902419230E+01 -0.89238247390E+01 -0.84978284316E+02  0.11705532515E+03  0.79626112698E+02 0.  0.
         11    1    4    4    0    0 -0.23413196662E+02 -0.29138622084E+02 -0.64658380889E+02  0.74685629770E+02  0.00000000000E+00 0. -1.
        -12    1    4    4    0    0  0.31203438585E+02  0.20214797345E+02 -0.20319903427E+02  0.42369695379E+02  0.00000000000E+00 0.  1.
        -11    1    3    3    0    0 -0.46227374243E+02  0.19862631516E+02 -0.23646165215E+02  0.55593483336E+02  0.00000000000E+00 0.  1.
         11    1    3    3    0    0 -0.84198457233E+02 -0.43660253364E+02  0.24554257184E+02  0.97971983088E+02  0.00000000000E+00 0. -1.
          2    1    1    2  501    0  0.12263558955E+03  0.32721446587E+02 -0.58523592728E+03  0.59884160800E+03  0.00000000000E+00 0. -1.
<scales pt_clust_5="13000.00000" pt_clust_6="13000.00000" pt_clust_7="13000.00000" pt_clust_8="13000.00000" pt_clust_9="13000.00000"></scales>
<clustering>
<clus scale="   77.487">  7  8 -1 -1</clus>
<clus scale="   79.626">  5  6 -1 -1</clus>
<clus scale="  126.926">  5  9 -1 -1</clus>
<clus scale="  153.563">  1  7  2 -1</clus>
<clus scale="  251.637">  2  5  1 -1</clus>
</clustering>
</event>
<event>
 9    1  0.2728138E-005  0.4715822E+03  0.7546771E-02  0.1054623E+00
         21   -1    0    0  501  502  0.00000000000E+00  0.00000000000E+00  0.23814723157E+03  0.23814723157E+03  0.00000000000E+00 0. -1.
          1   -1    0    0  502    0 -0.00000000000E+00 -0.00000000000E+00 -0.81043729214E+03  0.81043729214E+03  0.00000000000E+00 0. -1.
         23    2    1    2    0    0  0.14951184272E+03  0.33435977455E+02 -0.54785036010E+03  0.57636949792E+03  0.92682389743E+02 0.  0.
        -24    2    1    2    0    0  0.87005377195E+02  0.89790407877E+02 -0.11810668506E+03  0.18955154855E+03  0.79676517826E+02 0.  0.
         13    1    4    4    0    0  0.97932980038E+02  0.69047952610E+02 -0.77631513319E+02  0.14277653939E+03  0.00000000000E+00 0. -1.
        -14    1    4    4    0    0 -0.10927602844E+02  0.20742455267E+02 -0.40475171745E+02  0.46775009163E+02  0.00000000000E+00 0.  1.
        -11    1    3    3    0    0  0.11409848476E+03  0.39722933120E+02 -0.51016408361E+03  0.52427451573E+03  0.00000000000E+00 0. -1.
         11    1    3    3    0    0  0.35413357959E+02 -0.62869556643E+01 -0.37686276490E+02  0.52094982188E+02  0.00000000000E+00 0.  1.
          2    1    1    2  501    0 -0.23651721992E+03 -0.12322638533E+03  0.93666984593E+02  0.28266347723E+03  0.00000000000E+00 0. -1.
<scales pt_clust_5="13000.00000" pt_clust_6="13000.00000" pt_clust_7="13000.00000" pt_clust_8="13000.00000" pt_clust_9="13000.00000"></scales>
<clustering>
<clus scale="   79.677">  5  6 -1 -1</clus>
<clus scale="   92.682">  7  8 -1 -1</clus>
<clus scale="  179.058">  2  7  1 -1</clus>
<clus scale="  210.891">  5  9 -1 -1</clus>
<clus scale="  471.582">  1  5  2 -1</clus>
</clustering>
</event>
<event>
 9    1  0.2728138E-005  0.2832139E+03  0.7546771E-02  0.1108631E+00
         21   -1    0    0  501  502  0.00000000000E+00  0.00000000000E+00  0.26806493976E+02  0.26806493976E+02  0.00000000000E+00 0. -1.
          1   -1    0    0  502    0 -0.00000000000E+00 -0.00000000000E+00 -0.21208368808E+04  0.21208368808E+04  0.00000000000E+00 0. -1.
         23    2    1    2    0    0  0.66479316718E+02 -0.15733062131E+03 -0.85458689376E+03  0.87625424889E+03  0.91270618278E+02 0.  0.
        -24    2    1    2    0    0 -0.65598618704E+02  0.26443743669E+01 -0.26143646702E+03  0.28122431454E+03  0.80174293338E+02 0.  0.
         11    1    4    4    0    0 -0.79149032502E+02  0.19153218631E+02 -0.22039344134E+03  0.23495677074E+03  0.00000000000E+00 0. -1.
        -12    1    4    4    0    0  0.13550413798E+02 -0.16508844264E+02 -0.41043025679E+02  0.46267543807E+02  0.00000000000E+00 0.  1.
        -13    1    3    3    0    0  0.89498055099E+02 -0.12885795345E+03 -0.67880561362E+03  0.69670031945E+03  0.00000000000E+00 0. -1.
         13    1    3    3    0    0 -0.23018738381E+02 -0.28472667859E+02 -0.17578128014E+03  0.17955392944E+03  0.00000000000E+00 0.  1.
          2    1    1    2  501    0 -0.88069801384E+00  0.15468624694E+03 -0.97800702602E+03  0.99016481132E+03  0.00000000000E+00 0. -1.
<scales pt_clust_5="13000.00000" pt_clust_6="13000.00000" pt_clust_7="13000.00000" pt_clust_8="13000.00000" pt_clust_9="13000.00000"></scales>
<clustering>
<clus scale="   80.174">  5  6 -1 -1</clus>
<clus scale="   91.271">  7  8 -1 -1</clus>
<clus scale="  154.689">  5  9 -1 -1</clus>
<clus scale="  193.656">  2  7  1 -1</clus>
<clus scale="  283.214">  1  5  2 -1</clus>
</clustering>
</event>
<event>
 9    1  0.2728138E-005  0.3176226E+03  0.7546771E-02  0.1114519E+00
         -4   -1    0    0    0  501 -0.00000000000E+00  0.00000000000E+00  0.90290840004E+03  0.90290840004E+03  0.00000000000E+00 0.  1.
         21   -1    0    0  501  502  0.00000000000E+00 -0.00000000000E+00 -0.59694515030E+02  0.59694515030E+02  0.00000000000E+00 0.  1.
         23    2    1    2    0    0  0.57358740168E+02  0.41647005366E+02  0.40153668216E+03  0.41857822011E+03  0.94612478586E+02 0.  0.
        -24    2    1    2    0    0 -0.11230958679E+03  0.79174383780E+02  0.34356302689E+03  0.37896774980E+03  0.81847270023E+02 0.  0.
         13    1    4    4    0    0 -0.59367208431E+02  0.31415001241E+02  0.26273921721E+03  0.27118861333E+03  0.00000000000E+00 0. -1.
        -14    1    4    4    0    0 -0.52942378360E+02  0.47759382539E+02  0.80823809682E+02  0.10777913647E+03  0.00000000000E+00 0.  1.
        -13    1    3    3    0    0  0.65968936584E+02 -0.80591584027E+01  0.25849587470E+03  0.26690254376E+03  0.00000000000E+00 0.  1.
         13    1    3    3    0    0 -0.86101964161E+01  0.49706163769E+02  0.14304080746E+03  0.15167567636E+03  0.00000000000E+00 0. -1.
         -3    1    1    2    0  502  0.54950846623E+02 -0.12082138915E+03  0.98114175959E+02  0.16505694516E+03  0.00000000000E+00 0.  1.
<scales pt_clust_5="13000.00000" pt_clust_6="13000.00000" pt_clust_7="13000.00000" pt_clust_8="13000.00000" pt_clust_9="13000.00000"></scales>
<clustering>
<clus scale="   81.847">  5  6 -1 -1</clus>
<clus scale="   94.612">  7  8 -1 -1</clus>
<clus scale="  118.220">  1  7  2 -1</clus>
<clus scale="  130.276">  5  9 -1 -1</clus>
<clus scale="  317.623">  2  5  1 -1</clus>
</clustering>
</event>
<event>
 9    1  0.2728138E-005  0.1253384E+03  0.7546771E-02  0.1241757E+00
         21   -1    0    0  501  502  0.00000000000E+00  0.00000000000E+00  0.46210668973E+02  0.46210668973E+02  0.00000000000E+00 0. -1.
         -2   -1    0    0    0  501 -0.00000000000E+00 -0.00000000000E+00 -0.33060078084E+03  0.33060078084E+03  0.00000000000E+00 0.  1.
         23    2    1    2    0    0  0.38683984365E+02 -0.30441038848E+02 -0.19449855710E+03  0.22257074588E+03  0.96358397213E+02 0.  0.
        -24    2    1    2    0    0 -0.48304002512E+02  0.51984030055E+00 -0.71320090174E+02  0.11773423644E+03  0.80257387671E+02 0.  0.
         11    1    4    4    0    0  0.36730898634E+01  0.32145402442E+02 -0.30522135007E+02  0.44479424599E+02  0.00000000000E+00 0. -1.
        -12    1    4    4    0    0 -0.51977092375E+02 -0.31625562141E+02 -0.40797955167E+02  0.73254811844E+02  0.00000000000E+00 0.  1.
        -13    1    3    3    0    0  0.66424550283E+02 -0.16962795919E+02 -0.16960379049E+03  0.18293551616E+03  0.00000000000E+00 0.  1.
         13    1    3    3    0    0 -0.27740565918E+02 -0.13478242929E+02 -0.24894766617E+02  0.39635229718E+02  0.00000000000E+00 0. -1.
         -1    1    1    2    0  502  0.96200181465E+01  0.29921198548E+02 -0.18571464591E+02  0.36506467491E+02  0.00000000000E+00 0.  1.
<scales pt_clust_5="13000.00000" pt_clust_6="13000.00000" pt_clust_7="13000.00000" pt_clust_8="13000.00000" pt_clust_9="13000.00000"></scales>
<clustering>
<clus scale="   80.257">  5  6 -1 -1</clus>
<clus scale="   31.430">  5  9 -1 -1</clus>
<clus scale="   96.358">  7  8 -1 -1</clus>
<clus scale="  108.204">  2  7  1 -1</clus>
<clus scale="  125.338">  1  5  2 -1</clus>
</clustering>
</event>
<event>
 9    1  0.2728138E-005  0.1401061E+03  0.7546771E-02  0.1234063E+00
         21   -1    0    0  501  502  0.00000000000E+00  0.00000000000E+00  0.17586585555E+03  0.17586585555E+03  0.00000000000E+00 0. -1.
          1   -1    0    0  502    0 -0.00000000000E+00 -0.00000000000E+00 -0.77664376863E+02  0.77664376863E+02  0.00000000000E+00 0. -1.
         23    2    1    2    0    0 -0.89178265947E+01 -0.84783938200E+01  0.19013931375E+02  0.92594257066E+02  0.89781713407E+02 0.  0.
        -24    2    1    2    0    0 -0.33306584612E+02  0.16019683520E+02  0.75748519392E+02  0.11790576660E+03  0.82449819698E+02 0.  0.
         13    1    4    4    0    0 -0.46336599820E+02  0.40047697434E+02  0.62591137202E+02  0.87570251849E+02  0.00000000000E+00 0. -1.
        -14    1    4    4    0    0  0.13030015208E+02 -0.24028013913E+02  0.13157382190E+02  0.30335514748E+02  0.00000000000E+00 0.  1.
        -11    1    3    3    0    0 -0.17938486241E+02 -0.47365612904E+02  0.12197052886E+02  0.52096628235E+02  0.00000000000E+00 0. -1.
         11    1    3    3    0    0  0.90206596461E+01  0.38887219084E+02  0.68168784895E+01  0.40497628830E+02  0.00000000000E+00 0.  1.
          2    1    1    2  501    0  0.42224411207E+02 -0.75412897003E+01  0.34390279202E+01  0.43030208751E+02  0.00000000000E+00 0. -1.
<scales pt_clust_5="13000.00000" pt_clust_6="13000.00000" pt_clust_7="13000.00000" pt_clust_8="13000.00000" pt_clust_9="13000.00000"></scales>
<clustering>
<clus scale="   82.450">  5  6 -1 -1</clus>
<clus scale="   42.893">  5  9 -1 -1</clus>
<clus scale="   89.782">  7  8 -1 -1</clus>
<clus scale="   90.621">  2  7  1 -1</clus>
<clus scale="  140.106">  1  5  2 -1</clus>
</clustering>
</event>
<event>
 9    1  0.2728138E-005  0.6833672E+03  0.7546771E-02  0.1002201E+00
          1   -1    0    0  502    0 -0.00000000000E+00  0.00000000000E+00  0.37100513568E+03  0.37100513568E+03  0.00000000000E+00 0. -1.
         21   -1    0    0  501  502  0.00000000000E+00 -0.00000000000E+00 -0.63470281811E+03  0.63470281811E+03  0.00000000000E+00 0. -1.
         23    2    1    2    0    0 -0.18411986733E+03  0.19073261982E+03 -0.13117452164E+03  0.30960942984E+03  0.91499650857E+02 0.  0.
        -24    2    1    2    0    0  0.33912832999E+03  0.88738723374E+02 -0.31699806349E+02  0.36099077417E+03  0.80167799545E+02 0.  0.
         13    1    4    4    0    0  0.21781355405E+03  0.86787685086E+02 -0.45621144791E+02  0.23886426159E+03  0.00000000000E+00 0. -1.
        -14    1    4    4    0    0  0.12131477594E+03  0.19510382887E+01  0.13921338442E+02  0.12212651258E+03  0.00000000000E+00 0.  1.
        -13    1    3    3    0    0 -0.35026676598E+02  0.18738785559E+02 -0.58417898584E+02  0.70644610783E+02  0.00000000000E+00 0.  1.
         13    1    3    3    0    0 -0.14909319073E+03  0.17199383427E+03 -0.72756623059E+02  0.23896481906E+03  0.00000000000E+00 0. -1.
          2    1    1    2  501    0 -0.15500846266E+03 -0.27947134320E+03 -0.10082335443E+03  0.33510774978E+03  0.00000000000E+00 0. -1.
<scales pt_clust_5="13000.00000" pt_clust_6="13000.00000" pt_clust_7="13000.00000" pt_clust_8="13000.00000" pt_clust_9="13000.00000"></scales>
<clustering>
<clus scale="   80.168">  5  6 -1 -1</clus>
<clus scale="   91.500">  7  8 -1 -1</clus>
<clus scale="  280.448">  1  7  2 -1</clus>
<clus scale="  306.085">  5  9 -1 -1</clus>
<clus scale="  683.367">  2  5  1 -1</clus>
</clustering>
</event>
<event>
 9    1  0.2728138E-005  0.3186027E+03  0.7546771E-02  0.1098513E+00
         21   -1    0    0  501  502  0.00000000000E+00  0.00000000000E+00  0.25584168885E+02  0.25584168885E+02  0.00000000000E+00 0. -1.
          1   -1    0    0  502    0 -0.00000000000E+00 -0.00000000000E+00 -0.24047154795E+04  0.24047154795E+04  0.00000000000E+00 0. -1.
         23    2    1    2    0    0 -0.73478719078E+02 -0.13303213507E+03 -0.77898623136E+03  0.79874456978E+03  0.89870284181E+02 0.  0.
        -24    2    1    2    0    0  0.65536485758E+02 -0.57600394515E+02 -0.51096143961E+03  0.52578618716E+03  0.88072046839E+02 0.  0.
         13    1    4    4    0    0  0.72602042884E+02 -0.71380066284E+02 -0.36273488759E+03  0.37675292855E+03  0.00000000000E+00 0. -1.
        -14    1    4    4    0    0 -0.70655571261E+01  0.13779671769E+02 -0.14822655201E+03  0.14903325861E+03  0.00000000000E+00 0.  1.
        -11    1    3    3    0    0 -0.40726154531E+02 -0.17613806243E+02 -0.10235440987E+03  0.11155846473E+03  0.00000000000E+00 0. -1.
         11    1    3    3    0    0 -0.32752564547E+02 -0.11541832883E+03 -0.67663182149E+03  0.68718610505E+03  0.00000000000E+00 0.  1.
          2    1    1    2  501    0  0.79422333200E+01  0.19063252959E+03 -0.10891836396E+04  0.11057688914E+04  0.00000000000E+00 0. -1.
<scales pt_clust_5="13000.00000" pt_clust_6="13000.00000" pt_clust_7="13000.00000" pt_clust_8="13000.00000" pt_clust_9="13000.00000"></scales>
<clustering>
<clus scale="   88.072">  5  6 -1 -1</clus>
<clus scale="   89.870">  7  8 -1 -1</clus>
<clus scale="  176.560">  2  7  1 -1</clus>
<clus scale="  108.704">  5  9 -1 -1</clus>
<clus scale="  318.603">  1  5  2 -1</clus>
</clustering>
</event>
<event>
 9    1  0.4739552E-005  0.2435613E+03  0.7546771E-02  0.1143585E+00
         -2   -1    0    0    0  501 -0.00000000000E+00  0.00000000000E+00  0.35147346479E+02  0.35147346479E+02  0.00000000000E+00 0.  1.
         21   -1    0    0  501  502  0.00000000000E+00 -0.00000000000E+00 -0.98333457026E+03  0.98333457026E+03  0.00000000000E+00 0.  1.
         23    2    1    2    0    0  0.70349053504E+02 -0.55245341840E+02 -0.32177422099E+03  0.34638419013E+03  0.91882102466E+02 0.  0.
        -24    2    1    2    0    0  0.43854166812E+02 -0.27339077878E+02 -0.34335567803E+03  0.35589524242E+03  0.78087699487E+02 0.  0.
         13    1    4    4    0    0  0.20152774335E+02  0.99392919593E+00 -0.14199540470E+02  0.24672842523E+02  0.00000000000E+00 0. -1.
        -14    1    4    4    0    0  0.23701392477E+02 -0.28333007074E+02 -0.32915613756E+03  0.33122239989E+03  0.00000000000E+00 0.  1.
        -13    1    3    3    0    0  0.92668153789E+02 -0.50029669284E+02 -0.26462494883E+03  0.28480996836E+03  0.00000000000E+00 0.  1.
         13    1    3    3    0    0 -0.22319100285E+02 -0.52156725562E+01 -0.57149272162E+02  0.61574221769E+02  0.00000000000E+00 0. -1.
         -1    1    1    2    0  502 -0.11420322032E+03  0.82584419718E+02 -0.28305732475E+03  0.31620248419E+03  0.00000000000E+00 0.  1.
<scales pt_clust_5="13000.00000" pt_clust_6="13000.00000" pt_clust_7="13000.00000" pt_clust_8="13000.00000" pt_clust_9="13000.00000"></scales>
<clustering>
<clus scale="   78.088">  5  6 -1 -1</clus>
<clus scale="   91.882">  7  8 -1 -1</clus>
<clus scale="  128.232">  1  7  2 -1</clus>
<clus scale="   76.132">  5  9 -1 -1</clus>
<clus scale="  243.561">  2  5  1 -1</clus>
</clustering>
</event>
<event>
 9    1  0.2728138E-005  0.1965565E+03  0.7546771E-02  0.1182049E+00
         21   -1    0    0  501  502  0.00000000000E+00  0.00000000000E+00  0.13628806060E+02  0.13628806060E+02  0.00000000000E+00 0.  1.
          1   -1    0    0  502    0 -0.00000000000E+00 -0.00000000000E+00 -0.16366513739E+04  0.16366513739E+04  0.00000000000E+00 0. -1.
         23    2    1    2    0    0 -0.34584942887E+01  0.43536446791E+02 -0.45939748441E+03  0.47017094414E+03  0.90040461195E+02 0.  0.
        -24    2    1    2    0    0  0.16992372925E+02  0.54143884904E+02 -0.49638171233E+03  0.50561807253E+03  0.77682236878E+02 0.  0.
         13    1    4    4    0    0  0.43257244593E+02  0.29820982681E+02 -0.18927028419E+03  0.19642739294E+03  0.00000000000E+00 0. -1.
        -14    1    4    4    0    0 -0.26264871668E+02  0.24322902223E+02 -0.30711142814E+03  0.30919067960E+03  0.00000000000E+00 0.  1.
        -11    1    3    3    0    0  0.15272997295E+02 -0.24758191224E+02 -0.12176578637E+03  0.12519240876E+03  0.00000000000E+00 0. -1.
         11    1    3    3    0    0 -0.18731491583E+02  0.68294638015E+02 -0.33763169804E+03  0.34497853539E+03  0.00000000000E+00 0.  1.
          2    1    1    2  501    0 -0.13533878637E+02 -0.97680331695E+02 -0.66724337106E+03  0.67449116324E+03  0.00000000000E+00 0. -1.
<scales pt_clust_5="13000.00000" pt_clust_6="13000.00000" pt_clust_7="13000.00000" pt_clust_8="13000.00000" pt_clust_9="13000.00000"></scales>
<clustering>
<clus scale="   77.682">  5  6 -1 -1</clus>
<clus scale="   90.040">  7  8 -1 -1</clus>
<clus scale="   98.614">  5  9 -1 -1</clus>
<clus scale="  100.073">  2  7  1 -1</clus>
<clus scale="  196.557">  1  5  2 -1</clus>
</clustering>
</event>
<event>
 9    1  0.2728138E-005  0.3749851E+03  0.7546771E-02  0.1077828E+00
          1   -1    0    0  502    0 -0.00000000000E+00  0.00000000000E+00  0.31549326331E+03  0.31549326331E+03  0.00000000000E+00 0. -1.
         21   -1    0    0  501  502  0.00000000000E+00 -0.00000000000E+00 -0.25520866718E+03  0.25520866718E+03  0.00000000000E+00 0. -1.
         23    2    1    2    0    0  0.14039535503E+03  0.88227852421E+02  0.56172016499E+02  0.19569429011E+03  0.87441123548E+02 0.  0.
        -24    2    1    2    0    0 -0.31189575348E+02  0.94000448357E+02  0.78659907546E+02  0.14986244274E+03  0.80389655966E+02 0.  0.
         13    1    4    4    0    0 -0.18796438796E+02  0.10024660508E+03  0.41353318902E+02  0.11005809795E+03  0.00000000000E+00 0. -1.
        -14    1    4    4    0    0 -0.12393136552E+02 -0.62461567206E+01  0.37306588644E+02  0.39804344784E+02  0.00000000000E+00 0.  1.
        -11    1    3    3    0    0  0.71631377137E+02  0.89953779647E+02  0.16166504641E+02  0.11612102538E+03  0.00000000000E+00 0.  1.
         11    1    3    3    0    0  0.68763977898E+02 -0.17259272261E+01  0.40005511858E+02  0.79573264732E+02  0.00000000000E+00 0. -1.
          2    1    1    2  501    0 -0.10920577969E+03 -0.18222830078E+03 -0.74547327921E+02  0.22514519764E+03  0.00000000000E+00 0. -1.
<scales pt_clust_5="13000.00000" pt_clust_6="13000.00000" pt_clust_7="13000.00000" pt_clust_8="13000.00000" pt_clust_9="13000.00000"></scales>
<clustering>
<clus scale="   80.390">  5  6 -1 -1</clus>
<clus scale="   87.441">  7  8 -1 -1</clus>
<clus scale="  187.459">  1  7  2 -1</clus>
<clus scale="  156.582">  5  9 -1 -1</clus>
<clus scale="  374.985">  2  5  1 -1</clus>
</clustering>
</event>
<event>
 9    1  0.2728138E-005  0.1872949E+03  0.7546771E-02  0.1186705E+00
         21   -1    0    0  501  502  0.00000000000E+00  0.00000000000E+00  0.11163559140E+04  0.11163559140E+04  0.00000000000E+00 0.  1.
         -4   -1    0    0    0  501 -0.00000000000E+00 -0.00000000000E+00 -0.56078612590E+02  0.56078612590E+02  0.00000000000E+00 0.  1.
         23    2    1    2    0    0 -0.84040920703E+01  0.43899893645E+02  0.90415670636E+01  0.10464430415E+03  0.94185195388E+02 0.  0.
        -24    2    1    2    0    0 -0.81965296296E+01  0.46429423087E+02  0.42609319595E+03  0.43593726533E+03  0.79139201653E+02 0.  0.
         13    1    4    4    0    0  0.25463688265E+02  0.78184619592E+01  0.52723556866E+02  0.59070307397E+02  0.00000000000E+00 0. -1.
        -14    1    4    4    0    0 -0.33660217894E+02  0.38610961128E+02  0.37336963909E+03  0.37686695793E+03  0.00000000000E+00 0.  1.
        -13    1    3    3    0    0  0.32943435363E+02  0.34942324742E+02  0.30818830865E+02  0.57061688792E+02  0.00000000000E+00 0. -1.
         13    1    3    3    0    0 -0.41347527434E+02  0.89575689027E+01 -0.21777263801E+02  0.47582615357E+02  0.00000000000E+00 0.  1.
         -3    1    1    2    0  502  0.16600621700E+02 -0.90329316732E+02  0.62514253836E+03  0.63185295708E+03  0.00000000000E+00 0.  1.
<scales pt_clust_5="13000.00000" pt_clust_6="13000.00000" pt_clust_7="13000.00000" pt_clust_8="13000.00000" pt_clust_9="13000.00000"></scales>
<clustering>
<clus scale="   79.139">  5  6 -1 -1</clus>
<clus scale="   91.842">  5  9 -1 -1</clus>
<clus scale="   94.185">  7  8 -1 -1</clus>
<clus scale="  104.253">  2  7  1 -1</clus>
<clus scale="  187.295">  1  5  2 -1</clus>
</clustering>
</event>
<event>
 9    1  0.2728138E-005  0.1408286E+03  0.7546771E-02  0.1221994E+00
         21   -1    0    0  501  502  0.00000000000E+00  0.00000000000E+00  0.16134605966E+03  0.16134605966E+03  0.00000000000E+00 0. -1.
          1   -1    0    0  502    0 -0.00000000000E+00 -0.00000000000E+00 -0.13590179520E+03  0.13590179520E+03  0.00000000000E+00 0. -1.
         23    2    1    2    0    0  0.57626896074E+02 -0.39838843820E+02  0.86688580586E+02  0.14367848933E+03  0.90667555741E+02 0.  0.
        -24    2    1    2    0    0 -0.20897669961E+02  0.34350089068E+02 -0.96810078945E+01  0.90024599921E+02  0.79962900450E+02 0.  0.
         11    1    4    4    0    0 -0.17911188922E+02  0.20943602800E+02  0.34270879923E+02  0.43976566459E+02  0.00000000000E+00 0. -1.
        -12    1    4    4    0    0 -0.29864810387E+01  0.13406486268E+02 -0.43951887817E+02  0.46048033462E+02  0.00000000000E+00 0.  1.
        -11    1    3    3    0    0 -0.19263194217E+02 -0.93451241057E+01 -0.30580764562E+01  0.21627617243E+02  0.00000000000E+00 0.  1.
         11    1    3    3    0    0  0.76890090291E+02 -0.30493719714E+02  0.89746657042E+02  0.12205087209E+03  0.00000000000E+00 0. -1.
          2    1    1    2  501    0 -0.36729226114E+02  0.54887547518E+01 -0.51563308237E+02  0.63544765606E+02  0.00000000000E+00 0. -1.
<scales pt_clust_5="13000.00000" pt_clust_6="13000.00000" pt_clust_7="13000.00000" pt_clust_8="13000.00000" pt_clust_9="13000.00000"></scales>
<clustering>
<clus scale="   79.963">  5  6 -1 -1</clus>
<clus scale="   37.137">  5  9 -1 -1</clus>
<clus scale="   90.668">  7  8 -1 -1</clus>
<clus scale="  114.580">  2  7  1 -1</clus>
<clus scale="  140.829">  1  5  2 -1</clus>
</clustering>
</event>
<event>
 9    1  0.2728138E-005  0.5116637E+03  0.7546771E-02  0.1068624E+00
          1   -1    0    0  502    0 -0.00000000000E+00  0.00000000000E+00  0.53283500907E+03  0.53283500907E+03  0.00000000000E+00 0. -1.
         21   -1    0    0  501  502  0.00000000000E+00 -0.00000000000E+00 -0.24273517325E+03  0.24273517325E+03  0.00000000000E+00 0. -1.
         23    2    1    2    0    0  0.19802258029E+02 -0.89030998769E+00  0.24405295459E+03  0.26183869492E+03  0.92761713222E+02 0.  0.
        -24    2    1    2    0    0  0.19756770253E+03  0.17794487919E+02 -0.10973966961E+03  0.24576712333E+03  0.94915978310E+02 0.  0.
         11    1    4    4    0    0  0.12805678079E+03 -0.32556925542E+02 -0.50381864146E+02  0.14141012956E+03  0.00000000000E+00 0. -1.
        -12    1    4    4    0    0  0.69510921741E+02  0.50351413461E+02 -0.59357805466E+02  0.10435699377E+03  0.00000000000E+00 0.  1.
        -13    1    3    3    0    0 -0.97473974112E+01  0.29733306669E+02  0.29155885994E+02  0.42768527796E+02  0.00000000000E+00 0.  1.
         13    1    3    3    0    0  0.29549655440E+02 -0.30623616657E+02  0.21489706860E+03  0.21907016713E+03  0.00000000000E+00 0. -1.
          2    1    1    2  501    0 -0.21736996056E+03 -0.16904177932E+02  0.15578655085E+03  0.26796436406E+03  0.00000000000E+00 0. -1.
<scales pt_clust_5="13000.00000" pt_clust_6="13000.00000" pt_clust_7="13000.00000" pt_clust_8="13000.00000" pt_clust_9="13000.00000"></scales>
<clustering>
<clus scale="   92.762">  7  8 -1 -1</clus>
<clus scale="   94.856">  1  7  2 -1</clus>
<clus scale="   94.916">  5  6 -1 -1</clus>
<clus scale="  203.142">  5  9 -1 -1</clus>
<clus scale="  511.664">  2  5  1 -1</clus>
</clustering>
</event>
<event>
 9    1  0.2728138E-005  0.6335421E+03  0.7546771E-02  0.9968524E-01
         21   -1    0    0  501  502  0.00000000000E+00  0.00000000000E+00  0.88133343318E+02  0.88133343318E+02  0.00000000000E+00 0. -1.
          1   -1    0    0  502    0 -0.00000000000E+00 -0.00000000000E+00 -0.35684118946E+04  0.35684118946E+04  0.00000000000E+00 0. -1.
         23    2    1    2    0    0 -0.30350401338E+03  0.27190911610E+03 -0.20548885041E+04  0.20967015485E+04  0.86841036995E+02 0.  0.
        -24    2    1    2    0    0 -0.83820581536E+02  0.41256348521E+02 -0.38244731572E+03  0.40406581664E+03  0.90968448893E+02 0.  0.
         11    1    4    4    0    0 -0.90074614677E+02  0.29605030479E+02 -0.20211778243E+03  0.22325208177E+03  0.00000000000E+00 0. -1.
        -12    1    4    4    0    0  0.62540331402E+01  0.11651318042E+02 -0.18032953329E+03  0.18081373487E+03  0.00000000000E+00 0.  1.
        -13    1    3    3    0    0 -0.46238270253E+02  0.86341741688E+02 -0.41332496398E+03  0.42477099694E+03  0.00000000000E+00 0.  1.
         13    1    3    3    0    0 -0.25726574313E+03  0.18556737441E+03 -0.16415635401E+04  0.16719305516E+04  0.00000000000E+00 0. -1.
          2    1    1    2  501    0  0.38732459492E+03 -0.31316546462E+03 -0.10429427315E+04  0.11557778728E+04  0.00000000000E+00 0. -1.
<scales pt_clust_5="13000.00000" pt_clust_6="13000.00000" pt_clust_7="13000.00000" pt_clust_8="13000.00000" pt_clust_9="13000.00000"></scales>
<clustering>
<clus scale="   86.841">  7  8 -1 -1</clus>
<clus scale="   90.968">  5  6 -1 -1</clus>
<clus scale="  416.642">  2  7  1 -1</clus>
<clus scale="  198.924">  5  9 -1 -1</clus>
<clus scale="  633.542">  1  5  2 -1</clus>
</clustering>
</event>
<event>
 9    1  0.2728138E-005  0.3115343E+03  0.7546771E-02  0.1110533E+00
         21   -1    0    0  501  502  0.00000000000E+00  0.00000000000E+00  0.42914618006E+03  0.42914618006E+03  0.00000000000E+00 0.  1.
         -2   -1    0    0    0  501 -0.00000000000E+00 -0.00000000000E+00 -0.23502514291E+03  0.23502514291E+03  0.00000000000E+00 0.  1.
         23    2    1    2    0    0 -0.77830909757E+02  0.71943030490E+02 -0.14710663668E+03  0.20212162003E+03  0.89327132386E+02 0.  0.
        -24    2    1    2    0    0  0.95358183607E+02  0.79205070975E+02  0.11046487431E+03  0.18563620192E+03  0.83016170456E+02 0.  0.
         11    1    4    4    0    0  0.29564005954E+02 -0.10731844001E+02  0.43337260800E+01  0.31748765416E+02  0.00000000000E+00 0. -1.
        -12    1    4    4    0    0  0.65794177654E+02  0.89936914976E+02  0.10613114823E+03  0.15388743650E+03  0.00000000000E+00 0.  1.
        -13    1    3    3    0    0 -0.28799434601E+02  0.27587393118E+01  0.36424566298E+01  0.29159656483E+02  0.00000000000E+00 0. -1.
         13    1    3    3    0    0 -0.49031475156E+02  0.69184291178E+02 -0.15074909331E+03  0.17296196355E+03  0.00000000000E+00 0.  1.
         -1    1    1    2    0  502 -0.17527273850E+02 -0.15114810147E+03  0.23076279952E+03  0.27641350102E+03  0.00000000000E+00 0.  1.
<scales pt_clust_5="13000.00000" pt_clust_6="13000.00000" pt_clust_7="13000.00000" pt_clust_8="13000.00000" pt_clust_9="13000.00000"></scales>
<clustering>
<clus scale="   83.016">  5  6 -1 -1</clus>
<clus scale="   89.327">  7  8 -1 -1</clus>
<clus scale="  138.610">  2  7  1 -1</clus>
<clus scale="  132.553">  5  9 -1 -1</clus>
<clus scale="  311.534">  1  5  2 -1</clus>
</clustering>
</event>
<event>
 9    1  0.2728138E-005  0.4381802E+03  0.7546771E-02  0.1043310E+00
         21   -1    0    0  501  502  0.00000000000E+00  0.00000000000E+00  0.10520253911E+04  0.10520253911E+04  0.00000000000E+00 0.  1.
         -4   -1    0    0    0  501 -0.00000000000E+00 -0.00000000000E+00 -0.13674557566E+03  0.13674557566E+03  0.00000000000E+00 0.  1.
         23    2    1    2    0    0 -0.27495118636E+03  0.10312046096E+03  0.48417320746E+03  0.57407204338E+03  0.94355878586E+02 0.  0.
        -24    2    1    2    0    0 -0.36101231665E+02 -0.50776689676E+02  0.19881047157E+03  0.22296563129E+03  0.79413462275E+02 0.  0.
         13    1    4    4    0    0 -0.46983196864E+02 -0.83842046954E-01  0.11733730186E+03  0.12639410677E+03  0.00000000000E+00 0. -1.
        -14    1    4    4    0    0  0.10881965200E+02 -0.50692847629E+02  0.81473169709E+02  0.96571524529E+02  0.00000000000E+00 0.  1.
        -11    1    3    3    0    0 -0.22988423331E+03  0.79529505506E+02  0.45364060775E+03  0.51474411504E+03  0.00000000000E+00 0.  1.
         11    1    3    3    0    0 -0.45066953048E+02  0.23590955453E+02  0.30532599711E+02  0.59327928342E+02  0.00000000000E+00 0. -1.
         -3    1    1    2    0  502  0.31105241802E+03 -0.52343771283E+02  0.23229613644E+03  0.39173329212E+03  0.00000000000E+00 0.  1.
<scales pt_clust_5="13000.00000" pt_clust_6="13000.00000" pt_clust_7="13000.00000" pt_clust_8="13000.00000" pt_clust_9="13000.00000"></scales>
<clustering>
<clus scale="   79.413">  5  6 -1 -1</clus>
<clus scale="   94.356">  7  8 -1 -1</clus>
<clus scale="  308.440">  2  7  1 -1</clus>
<clus scale="   81.292">  5  9 -1 -1</clus>
<clus scale="  438.180">  1  5  2 -1</clus>
</clustering>
</event>
<event>
 9    1  0.2728138E-005  0.2004629E+03  0.7546771E-02  0.1174264E+00
         -2   -1    0    0    0  501 -0.00000000000E+00  0.00000000000E+00  0.49859712092E+02  0.49859712092E+02  0.00000000000E+00 0.  1.
         21   -1    0    0  501  502  0.00000000000E+00 -0.00000000000E+00 -0.60519293945E+03  0.60519293945E+03  0.00000000000E+00 0.  1.
         23    2    1    2    0    0 -0.37655766203E+02  0.55918439035E+02 -0.76628981375E+02  0.13606988679E+03  0.89989914730E+02 0.  0.
        -24    2    1    2    0    0 -0.42554004421E+02  0.10219037038E+02 -0.30377366713E+03  0.31549202672E+03  0.73085607839E+02 0.  0.
         11    1    4    4    0    0 -0.21811948397E+02  0.29501931767E+02 -0.61828604364E+02  0.71895072074E+02  0.00000000000E+00 0. -1.
        -12    1    4    4    0    0 -0.20742056023E+02 -0.19282894729E+02 -0.24194506276E+03  0.24359695464E+03  0.00000000000E+00 0.  1.
        -13    1    3    3    0    0  0.12181792272E+02  0.57575782692E+02 -0.58587605630E+02  0.83041401416E+02  0.00000000000E+00 0.  1.
         13    1    3    3    0    0 -0.49837558475E+02 -0.16573436577E+01 -0.18041375745E+02  0.53028485379E+02  0.00000000000E+00 0. -1.
         -1    1    1    2    0  502  0.80209770623E+02 -0.66137476072E+02 -0.17493057886E+03  0.20349073803E+03  0.00000000000E+00 0.  1.
<scales pt_clust_5="13000.00000" pt_clust_6="13000.00000" pt_clust_7="13000.00000" pt_clust_8="13000.00000" pt_clust_9="13000.00000"></scales>
<clustering>
<clus scale="   73.086">  5  6 -1 -1</clus>
<clus scale="   89.990">  7  8 -1 -1</clus>
<clus scale="  103.960">  5  9 -1 -1</clus>
<clus scale="  112.441">  1  7  2 -1</clus>
<clus scale="  200.463">  2  5  1 -1</clus>
</clustering>
</event>
<event>
 9    1  0.2728138E-005  0.1711980E+03  0.7546771E-02  0.1201911E+00
          1   -1    0    0  502    0 -0.00000000000E+00  0.00000000000E+00  0.19439465800E+03  0.19439465800E+03  0.00000000000E+00 0. -1.
         21   -1    0    0  501  502  0.00000000000E+00 -0.00000000000E+00 -0.13857846190E+03  0.13857846190E+03  0.00000000000E+00 0. -1.
         23    2    1    2    0    0  0.35496679939E+02  0.20327961490E+02  0.11579809946E+03  0.15157142448E+03  0.88833870647E+02 0.  0.
        -24    2    1    2    0    0 -0.79955086069E+02  0.12144145593E+02 -0.54597213105E+02  0.12608458683E+03  0.79850931718E+02 0.  0.
         11    1    4    4    0    0 -0.90734722863E+02  0.98637766673E+01 -0.64103875469E+02  0.11153201726E+03  0.00000000000E+00 0. -1.
        -12    1    4    4    0    0  0.10779636793E+02  0.22803689258E+01  0.95066623643E+01  0.14552569572E+02  0.00000000000E+00 0.  1.
        -11    1    3    3    0    0  0.24485297716E+02 -0.23317911782E+02  0.79898874011E+01  0.34743245600E+02  0.00000000000E+00 0.  1.
         11    1    3    3    0    0  0.11011382222E+02  0.43645873272E+02  0.10780821206E+03  0.11682817888E+03  0.00000000000E+00 0. -1.
          2    1    1    2  501    0  0.44458406131E+02 -0.32472107083E+02 -0.53846902567E+01  0.55317108595E+02  0.00000000000E+00 0. -1.
<scales pt_clust_5="13000.00000" pt_clust_6="13000.00000" pt_clust_7="13000.00000" pt_clust_8="13000.00000" pt_clust_9="13000.00000"></scales>
<clustering>
<clus scale="   79.851">  5  6 -1 -1</clus>
<clus scale="   55.054">  5  9 -1 -1</clus>
<clus scale="   88.834">  7  8 -1 -1</clus>
<clus scale="   97.799">  1  7  2 -1</clus>
<clus scale="  171.198">  2  5  1 -1</clus>
</clustering>
</event>
<event>
 9    1  0.2728138E-005  0.2520608E+03  0.7546771E-02  0.1144054E+00
         -4   -1    0    0    0  501 -0.00000000000E+00  0.00000000000E+00  0.74116022132E+03  0.74116022132E+03  0.00000000000E+00 0.  1.
         21   -1    0    0  501  502  0.00000000000E+00 -0.00000000000E+00 -0.45540994217E+02  0.45540994217E+02  0.00000000000E+00 0.  1.
         23    2    1    2    0    0  0.54307684465E+02  0.45500494165E+02  0.24444625506E+03  0.26989204514E+03  0.89822741324E+02 0.  0.
        -24    2    1    2    0    0  0.21029240269E+02  0.51118961123E+02  0.33052278140E+03  0.34485731704E+03  0.81399526776E+02 0.  0.
         11    1    4    4    0    0  0.43146364877E+02  0.60607424684E+01  0.10250865778E+03  0.11138386921E+03  0.00000000000E+00 0. -1.
        -12    1    4    4    0    0 -0.22117124609E+02  0.45058218655E+02  0.22801412362E+03  0.23347344783E+03  0.00000000000E+00 0.  1.
        -13    1    3    3    0    0 -0.79590665334E+01 -0.19497376999E+02  0.24904335208E+02  0.32614726154E+02  0.00000000000E+00 0. -1.
         13    1    3    3    0    0  0.62266750998E+02  0.64997871165E+02  0.21954191985E+03  0.23727731899E+03  0.00000000000E+00 0.  1.
         -3    1    1    2    0  502 -0.75336924733E+02 -0.96619455289E+02  0.12065019064E+03  0.17195185335E+03  0.00000000000E+00 0.  1.
<scales pt_clust_5="13000.00000" pt_clust_6="13000.00000" pt_clust_7="13000.00000" pt_clust_8="13000.00000" pt_clust_9="13000.00000"></scales>
<clustering>
<clus scale="   81.400">  5  6 -1 -1</clus>
<clus scale="   89.823">  7  8 -1 -1</clus>
<clus scale="  114.402">  1  7  2 -1</clus>
<clus scale="  101.678">  5  9 -1 -1</clus>
<clus scale="  252.061">  2  5  1 -1</clus>
</clustering>
</event>
<event>
 9    1  0.2728138E-005  0.3170385E+03  0.7546771E-02  0.1085365E+00
         21   -1    0    0  501  502  0.00000000000E+00  0.00000000000E+00  0.10413509484E+03  0.10413509484E+03  0.00000000000E+00 0.  1.
         -4   -1    0    0    0  501 -0.00000000000E+00 -0.00000000000E+00 -0.15106851584E+04  0.15106851584E+04  0.00000000000E+00 0.  1.
         23    2    1    2    0    0  0.21427143053E+03  0.89557684458E+02 -0.12219883536E+04  0.12479736526E+04  0.10124167367E+03 0.  0.
        -24    2    1    2    0    0 -0.29087264178E+02 -0.39032889225E+02 -0.13903357388E+03  0.16956826529E+03  0.83984680439E+02 0.  0.
         13    1    4    4    0    0  0.89977075431E+01 -0.49344583731E+02 -0.44200513977E+02  0.66854559459E+02  0.00000000000E+00 0. -1.
        -14    1    4    4    0    0 -0.38084971722E+02  0.10311694506E+02 -0.94833059903E+02  0.10271370583E+03  0.00000000000E+00 0.  1.
        -11    1    3    3    0    0  0.14662983186E+03  0.97379966899E+02 -0.10127988837E+04  0.10279809066E+04  0.00000000000E+00 0.  1.
         11    1    3    3    0    0  0.67641598669E+02 -0.78222824413E+01 -0.20918946994E+03  0.21999274604E+03  0.00000000000E+00 0. -1.
         -3    1    1    2    0  502 -0.18518416635E+03 -0.50524795232E+02 -0.45528136014E+02  0.19727833527E+03  0.00000000000E+00 0.  1.
<scales pt_clust_5="13000.00000" pt_clust_6="13000.00000" pt_clust_7="13000.00000" pt_clust_8="13000.00000" pt_clust_9="13000.00000"></scales>
<clustering>
<clus scale="   83.985">  5  6 -1 -1</clus>
<clus scale="  101.242">  7  8 -1 -1</clus>
<clus scale="  191.953">  5  9 -1 -1</clus>
<clus scale="  253.343">  2  7  1 -1</clus>
<clus scale="  317.038">  1  5  2 -1</clus>
</clustering>
</event>
<event>
 9    1  0.2728138E-005  0.4131926E+03  0.7546771E-02  0.1083270E+00
         -2   -1    0    0    0  501 -0.00000000000E+00  0.00000000000E+00  0.56814724349E+03  0.56814724349E+03  0.00000000000E+00 0.  1.
         21   -1    0    0  501  502  0.00000000000E+00 -0.00000000000E+00 -0.12609185082E+03  0.12609185082E+03  0.00000000000E+00 0.  1.
         23    2    1    2    0    0 -0.24906815483E+02 -0.76857565947E+02  0.11914553664E+03  0.16983568537E+03  0.90116958583E+02 0.  0.
        -24    2    1    2    0    0 -0.41017184157E+02 -0.55868184480E+02 -0.54462023932E+02  0.11897569117E+03  0.79908945711E+02 0.  0.
         13    1    4    4    0    0  0.11471120978E+02 -0.48561816897E+02 -0.12660865662E+02  0.51479454117E+02  0.00000000000E+00 0. -1.
        -14    1    4    4    0    0 -0.52488305135E+02 -0.73063675826E+01 -0.41801158270E+02  0.67496237050E+02  0.00000000000E+00 0.  1.
        -13    1    3    3    0    0  0.69712240161E+01  0.18821225241E+02  0.22551845248E+02  0.30189769922E+02  0.00000000000E+00 0. -1.
         13    1    3    3    0    0 -0.31878039499E+02 -0.95678791188E+02  0.96593691393E+02  0.13964591545E+03  0.00000000000E+00 0.  1.
         -1    1    1    2    0  502  0.65923999640E+02  0.13272575043E+03  0.37737187996E+03  0.40542771777E+03  0.00000000000E+00 0.  1.
<scales pt_clust_5="13000.00000" pt_clust_6="13000.00000" pt_clust_7="13000.00000" pt_clust_8="13000.00000" pt_clust_9="13000.00000"></scales>
<clustering>
<clus scale="   79.909">  5  6 -1 -1</clus>
<clus scale="   90.117">  7  8 -1 -1</clus>
<clus scale="  121.031">  1  7  2 -1</clus>
<clus scale="   75.173">  5  9 -1 -1</clus>
<clus scale="  413.193">  2  5  1 -1</clus>
</clustering>
</event>
<event>
 9    1  0.2728138E-005  0.2312286E+03  0.7546771E-02  0.1138766E+00
         -2   -1    0    0    0  501 -0.00000000000E+00  0.00000000000E+00  0.50462198882E+03  0.50462198882E+03  0.00000000000E+00 0.  1.
         21   -1    0    0  501  502  0.00000000000E+00 -0.00000000000E+00 -0.25250371779E+03  0.25250371779E+03  0.00000000000E+00 0.  1.
         23    2    1    2    0    0 -0.12969887769E+03  0.51107211638E+02  0.43235119920E+03  0.46395243355E+03  0.94289740682E+02 0.  0.
        -24    2    1    2    0    0  0.62904994363E+02 -0.43199149741E+02 -0.11616684611E+02  0.11163705660E+03  0.80651597574E+02 0.  0.
         13    1    4    4    0    0  0.75014190421E+02 -0.13969621210E+02  0.38896197416E+01  0.76402933341E+02  0.00000000000E+00 0. -1.
        -14    1    4    4    0    0 -0.12109196058E+02 -0.29229528531E+02 -0.15506304352E+02  0.35234123261E+02  0.00000000000E+00 0.  1.
        -11    1    3    3    0    0 -0.60959819991E+02 -0.21174270267E+02  0.12275255987E+03  0.13868179523E+03  0.00000000000E+00 0. -1.
         11    1    3    3    0    0 -0.68739057699E+02  0.72281481905E+02  0.30959863933E+03  0.32527063832E+03  0.00000000000E+00 0.  1.
         -1    1    1    2    0  502  0.66793883326E+02 -0.79080618973E+01 -0.16861624355E+03  0.18153621645E+03  0.00000000000E+00 0.  1.
<scales pt_clust_5="13000.00000" pt_clust_6="13000.00000" pt_clust_7="13000.00000" pt_clust_8="13000.00000" pt_clust_9="13000.00000"></scales>
<clustering>
<clus scale="   80.652">  5  6 -1 -1</clus>
<clus scale="   67.260">  5  9 -1 -1</clus>
<clus scale="   94.290">  7  8 -1 -1</clus>
<clus scale="  168.298">  1  7  2 -1</clus>
<clus scale="  231.229">  2  5  1 -1</clus>
</clustering>
</event>
<event>
 9    1  0.2728138E-005  0.1985998E+03  0.7546771E-02  0.1181789E+00
         21   -1    0    0  501  502  0.00000000000E+00  0.00000000000E+00  0.35876369351E+02  0.35876369351E+02  0.00000000000E+00 0. -1.
          1   -1    0    0  502    0 -0.00000000000E+00 -0.00000000000E+00 -0.61398341961E+03  0.61398341961E+03  0.00000000000E+00 0. -1.
         23    2    1    2    0    0  0.31890906220E+02  0.15506291705E+02 -0.21111309634E+03  0.23257518701E+03  0.90912062911E+02 0.  0.
        -24    2    1    2    0    0 -0.13661262724E+02 -0.83302707622E+02 -0.16330151814E+03  0.20183325639E+03  0.83326504551E+02 0.  0.
         11    1    4    4    0    0  0.22252094302E+01 -0.59757944003E+02 -0.16278960959E+03  0.17342554719E+03  0.00000000000E+00 0. -1.
        -12    1    4    4    0    0 -0.15886472155E+02 -0.23544763618E+02 -0.51190855130E+00  0.28407709195E+02  0.00000000000E+00 0.  1.
        -13    1    3    3    0    0 -0.12064422897E+02  0.31994749767E+02 -0.15813415509E+03  0.16178882940E+03  0.00000000000E+00 0.  1.
         13    1    3    3    0    0  0.43955329118E+02 -0.16488458062E+02 -0.52978941246E+02  0.70786357603E+02  0.00000000000E+00 0. -1.
          2    1    1    2  501    0 -0.18229643496E+02  0.67796415917E+02 -0.20369243578E+03  0.21545134557E+03  0.00000000000E+00 0. -1.
<scales pt_clust_5="13000.00000" pt_clust_6="13000.00000" pt_clust_7="13000.00000" pt_clust_8="13000.00000" pt_clust_9="13000.00000"></scales>
<clustering>
<clus scale="   83.327">  5  6 -1 -1</clus>
<clus scale="   70.205">  5  9 -1 -1</clus>
<clus scale="   90.912">  7  8 -1 -1</clus>
<clus scale="   97.583">  2  7  1 -1</clus>
<clus scale="  198.600">  1  5  2 -1</clus>
</clustering>
</event>
<event>
 9    1  0.2728138E-005  0.3623350E+03  0.7546771E-02  0.1090810E+00
         21   -1    0    0  501  502  0.00000000000E+00  0.00000000000E+00  0.58844954779E+02  0.58844954779E+02  0.00000000000E+00 0. -1.
          1   -1    0    0  502    0 -0.00000000000E+00 -0.00000000000E+00 -0.11618801297E+04  0.11618801297E+04  0.00000000000E+00 0. -1.
         23    2    1    2    0    0 -0.11579048808E+03 -0.75067293395E+01 -0.20364373581E+03  0.25109030389E+03  0.90065428763E+02 0.  0.
        -24    2    1    2    0    0 -0.44162499129E+02 -0.10933570643E+03 -0.21924314730E+03  0.26122895639E+03  0.79173145612E+02 0.  0.
         13    1    4    4    0    0 -0.27552699049E+02 -0.11080457950E+03 -0.21588513445E+03  0.24421956789E+03  0.00000000000E+00 0. -1.
        -14    1    4    4    0    0 -0.16609800081E+02  0.14688730717E+01 -0.33580128553E+01  0.17009388500E+02  0.00000000000E+00 0.  1.
        -13    1    3    3    0    0 -0.20944075738E+02 -0.24472003650E+02 -0.82790086453E+01  0.33257709713E+02  0.00000000000E+00 0.  1.
         13    1    3    3    0    0 -0.94846412339E+02  0.16965274311E+02 -0.19536472716E+03  0.21783259417E+03  0.00000000000E+00 0. -1.
          2    1    1    2  501    0  0.15995298721E+03  0.11684243577E+03 -0.68014829184E+03  0.70840582423E+03  0.00000000000E+00 0. -1.
<scales pt_clust_5="13000.00000" pt_clust_6="13000.00000" pt_clust_7="13000.00000" pt_clust_8="13000.00000" pt_clust_9="13000.00000"></scales>
<clustering>
<clus scale="   79.173">  5  6 -1 -1</clus>
<clus scale="   90.065">  7  8 -1 -1</clus>
<clus scale="  146.886">  2  7  1 -1</clus>
<clus scale="  133.587">  5  9 -1 -1</clus>
<clus scale="  362.335">  1  5  2 -1</clus>
</clustering>
</event>
<event>
 9    1  0.2790500E-005  0.7954563E+03  0.7546771E-02  0.1010562E+00
         21   -1    0    0  501  502  0.00000000000E+00  0.00000000000E+00  0.28095169318E+03  0.28095169318E+03  0.00000000000E+00 0. -1.
          1   -1    0    0  502    0 -0.00000000000E+00 -0.00000000000E+00 -0.89678975265E+03  0.89678975265E+03  0.00000000000E+00 0. -1.
         23    2    1    2    0    0 -0.77528870111E+01 -0.10237440359E+03 -0.28494687223E+03  0.31620813354E+03  0.90841829341E+02 0.  0.
        -24    2    1    2    0    0  0.19243681247E+01 -0.12175318767E+03 -0.53723876370E+03  0.55682612317E+03  0.81254540342E+02 0.  0.
         13    1    4    4    0    0 -0.23499406162E+02 -0.94389295586E+02 -0.26994681363E+03  0.28693700249E+03  0.00000000000E+00 0. -1.
        -14    1    4    4    0    0  0.25423774287E+02 -0.27363892083E+02 -0.26729195007E+03  0.26988912068E+03  0.00000000000E+00 0.  1.
        -11    1    3    3    0    0 -0.22881543293E+02 -0.47732983042E+02 -0.44459718790E+02  0.69127919746E+02  0.00000000000E+00 0.  1.
         11    1    3    3    0    0  0.15128656282E+02 -0.54641420543E+02 -0.24048715344E+03  0.24708021379E+03  0.00000000000E+00 0. -1.
          2    1    1    2  501    0  0.58285188864E+01  0.22412759125E+03  0.20634757645E+03  0.30470718912E+03  0.00000000000E+00 0. -1.
<scales pt_clust_5="13000.00000" pt_clust_6="13000.00000" pt_clust_7="13000.00000" pt_clust_8="13000.00000" pt_clust_9="13000.00000"></scales>
<clustering>
<clus scale="   81.255">  5  6 -1 -1</clus>
<clus scale="   90.842">  7  8 -1 -1</clus>
<clus scale="  137.087">  2  7  1 -1</clus>
<clus scale="  215.746">  5  9 -1 -1</clus>
<clus scale="  795.456">  1  5  2 -1</clus>
</clustering>
</event>
<event>
 9    1  0.2728138E-005  0.2806026E+03  0.7546771E-02  0.1135802E+00
         21   -1    0    0  501  502  0.00000000000E+00  0.00000000000E+00  0.76305978106E+02  0.76305978106E+02  0.00000000000E+00 0.  1.
          3   -1    0    0  502    0 -0.00000000000E+00 -0.00000000000E+00 -0.64087899284E+03  0.64087899284E+03  0.00000000000E+00 0. -1.
         23    2    1    2    0    0  0.46079963913E+02 -0.43703356989E+02 -0.17977643415E+02  0.10277116462E+03  0.78774171704E+02 0.  0.
        -24    2    1    2    0    0  0.96729253799E+02 -0.31341717813E+01 -0.30329498407E+03  0.32843600090E+03  0.80721668395E+02 0.  0.
         11    1    4    4    0    0  0.71985338159E+02  0.35341165557E+02 -0.18719024028E+03  0.20364447684E+03  0.00000000000E+00 0. -1.
        -12    1    4    4    0    0  0.24743915640E+02 -0.38475337338E+02 -0.11610474380E+03  0.12479152406E+03  0.00000000000E+00 0.  1.
        -11    1    3    3    0    0  0.53838622756E+02  0.28729272744E+01 -0.79203470381E+01  0.54493879552E+02  0.00000000000E+00 0.  1.
         11    1    3    3    0    0 -0.77586588433E+01 -0.46576284263E+02 -0.10057296377E+02  0.48277285065E+02  0.00000000000E+00 0. -1.
          4    1    1    2  501    0 -0.14280921771E+03  0.46837528770E+02 -0.24330038725E+03  0.28597780543E+03  0.00000000000E+00 0. -1.
<scales pt_clust_5="13000.00000" pt_clust_6="13000.00000" pt_clust_7="13000.00000" pt_clust_8="13000.00000" pt_clust_9="13000.00000"></scales>
<clustering>
<clus scale="   78.774">  7  8 -1 -1</clus>
<clus scale="   80.722">  5  6 -1 -1</clus>
<clus scale="  101.187">  2  7  1 -1</clus>
<clus scale="  124.741">  5  9 -1 -1</clus>
<clus scale="  280.603">  1  5  2 -1</clus>
</clustering>
</event>
<event>
 9    1  0.2728138E-005  0.3859666E+03  0.7546771E-02  0.1071465E+00
          3   -1    0    0  502    0 -0.00000000000E+00  0.00000000000E+00  0.70208581948E+03  0.70208581948E+03  0.00000000000E+00 0. -1.
         21   -1    0    0  501  502  0.00000000000E+00 -0.00000000000E+00 -0.13480723977E+03  0.13480723977E+03  0.00000000000E+00 0. -1.
         23    2    1    2    0    0  0.15428112470E+03  0.97152262837E+02  0.31596091668E+03  0.37631645337E+03  0.92420477123E+02 0.  0.
        -24    2    1    2    0    0  0.73207082435E+02 -0.35808881518E+02  0.18089402095E+03  0.21466323865E+03  0.81951853551E+02 0.  0.
         13    1    4    4    0    0  0.37714521214E+02 -0.30609636857E+02  0.24871849423E+02  0.54570540337E+02  0.00000000000E+00 0. -1.
        -14    1    4    4    0    0  0.35492561220E+02 -0.51992446605E+01  0.15602217152E+03  0.16009269832E+03  0.00000000000E+00 0.  1.
        -11    1    3    3    0    0  0.50353288750E+02 -0.91947540255E+01  0.49680294414E+02  0.71331121136E+02  0.00000000000E+00 0.  1.
         11    1    3    3    0    0  0.10392783595E+03  0.10634701686E+03  0.26628062227E+03  0.30498533223E+03  0.00000000000E+00 0. -1.
          4    1    1    2  501    0 -0.22748820713E+03 -0.61343381319E+02  0.70423642082E+02  0.24591336723E+03  0.00000000000E+00 0. -1.
<scales pt_clust_5="13000.00000" pt_clust_6="13000.00000" pt_clust_7="13000.00000" pt_clust_8="13000.00000" pt_clust_9="13000.00000"></scales>
<clustering>
<clus scale="   81.952">  5  6 -1 -1</clus>
<clus scale="   92.420">  7  8 -1 -1</clus>
<clus scale="  204.408">  1  7  2 -1</clus>
<clus scale="  159.968">  5  9 -1 -1</clus>
<clus scale="  385.967">  2  5  1 -1</clus>
</clustering>
</event>
<event>
 9    1  0.2728138E-005  0.1650770E+03  0.7546771E-02  0.1202370E+00
          1   -1    0    0  502    0 -0.00000000000E+00  0.00000000000E+00  0.15651031619E+03  0.15651031619E+03  0.00000000000E+00 0. -1.
         21   -1    0    0  501  502  0.00000000000E+00 -0.00000000000E+00 -0.12270812581E+03  0.12270812581E+03  0.00000000000E+00 0. -1.
         23    2    1    2    0    0 -0.17424756032E+02  0.62237589465E+02  0.36829956365E+02  0.11411368078E+03  0.86535234384E+02 0.  0.
        -24    2    1    2    0    0  0.23615365252E+02  0.19449676163E+02 -0.47508512764E+00  0.83143494831E+02  0.77308729443E+02 0.  0.
         13    1    4    4    0    0  0.29582040945E+02 -0.17534941063E+02 -0.21132474445E+02  0.40362764781E+02  0.00000000000E+00 0. -1.
        -14    1    4    4    0    0 -0.59666756932E+01  0.36984617226E+02  0.20657389318E+02  0.42780730050E+02  0.00000000000E+00 0.  1.
        -11    1    3    3    0    0  0.10259996353E+02  0.64885966247E+02  0.50751177952E+02  0.83012879750E+02  0.00000000000E+00 0. -1.
         11    1    3    3    0    0 -0.27684752385E+02 -0.26483767818E+01 -0.13921221586E+02  0.31100801029E+02  0.00000000000E+00 0.  1.
          2    1    1    2  501    0 -0.61906092195E+01 -0.81687265628E+02 -0.25526808546E+01  0.81961266388E+02  0.00000000000E+00 0. -1.
<scales pt_clust_5="13000.00000" pt_clust_6="13000.00000" pt_clust_7="13000.00000" pt_clust_8="13000.00000" pt_clust_9="13000.00000"></scales>
<clustering>
<clus scale="   77.309">  5  6 -1 -1</clus>
<clus scale="   81.922">  5  9 -1 -1</clus>
<clus scale="   86.535">  7  8 -1 -1</clus>
<clus scale="  108.007">  1  7  2 -1</clus>
<clus scale="  165.077">  2  5  1 -1</clus>
</clustering>
</event>
<event>
 9    1  0.2728138E-005  0.5383439E+03  0.7546771E-02  0.1040088E+00
          1   -1    0    0  502    0 -0.00000000000E+00  0.00000000000E+00  0.10078967469E+04  0.10078967469E+04  0.00000000000E+00 0. -1.
         21   -1    0    0  501  502  0.00000000000E+00 -0.00000000000E+00 -0.25214144275E+03  0.25214144275E+03  0.00000000000E+00 0. -1.
         23    2    1    2    0    0  0.32353981591E+02  0.15499913130E+03  0.69463334373E+03  0.71823562944E+03  0.90969370365E+02 0.  0.
        -24    2    1    2    0    0  0.59449299552E+02  0.42451784107E+02  0.23788010691E+03  0.26134195907E+03  0.79851744600E+02 0.  0.
         11    1    4    4    0    0  0.72344770147E+02  0.41958125269E+02  0.14356446895E+03  0.16614754524E+03  0.00000000000E+00 0. -1.
        -12    1    4    4    0    0 -0.12895470596E+02  0.49365883793E+00  0.94315637957E+02  0.95194413828E+02  0.00000000000E+00 0.  1.
        -13    1    3    3    0    0 -0.30258524309E+02  0.33324016259E+02  0.20167575038E+03  0.20663779094E+03  0.00000000000E+00 0.  1.
         13    1    3    3    0    0  0.62612505900E+02  0.12167511504E+03  0.49295759335E+03  0.51159783850E+03  0.00000000000E+00 0. -1.
          2    1    1    2  501    0 -0.91803281143E+02 -0.19745091541E+03 -0.17675814651E+03  0.28046060112E+03  0.00000000000E+00 0. -1.
<scales pt_clust_5="13000.00000" pt_clust_6="13000.00000" pt_clust_7="13000.00000" pt_clust_8="13000.00000" pt_clust_9="13000.00000"></scales>
<clustering>
<clus scale="   79.852">  5  6 -1 -1</clus>
<clus scale="   90.969">  7  8 -1 -1</clus>
<clus scale="  182.611">  1  7  2 -1</clus>
<clus scale="  191.329">  5  9 -1 -1</clus>
<clus scale="  538.344">  2  5  1 -1</clus>
</clustering>
</event>
<event>
 9    1  0.2728138E-005  0.3616795E+03  0.7546771E-02  0.1074363E+00
         21   -1    0    0  501  502  0.00000000000E+00  0.00000000000E+00  0.22723434499E+03  0.22723434499E+03  0.00000000000E+00 0. -1.
          1   -1    0    0  502    0 -0.00000000000E+00 -0.00000000000E+00 -0.38454904667E+03  0.38454904667E+03  0.00000000000E+00 0. -1.
         23    2    1    2    0    0 -0.16072038494E+03  0.13664679430E+03 -0.62849482325E+02  0.23797096469E+03  0.90425295587E+02 0.  0.
        -24    2    1    2    0    0  0.23598017049E+03 -0.12198076940E+03 -0.40112871641E+02  0.27982676152E+03  0.78281702991E+02 0.  0.
         11    1    4    4    0    0  0.17807147277E+03 -0.10668420227E+03  0.28067565222E+00  0.20758383175E+03  0.00000000000E+00 0. -1.
        -12    1    4    4    0    0  0.57908697724E+02 -0.15296567129E+02 -0.40393547293E+02  0.72242929764E+02  0.00000000000E+00 0.  1.
        -13    1    3    3    0    0 -0.34386346422E+02  0.49295373141E+01  0.17099565351E+02  0.38718423181E+02  0.00000000000E+00 0.  1.
         13    1    3    3    0    0 -0.12633403852E+03  0.13171725698E+03 -0.79949047677E+02  0.19925254151E+03  0.00000000000E+00 0. -1.
          2    1    1    2  501    0 -0.75259785548E+02 -0.14666024900E+02 -0.54352347713E+02  0.93985665444E+02  0.00000000000E+00 0. -1.
<scales pt_clust_5="13000.00000" pt_clust_6="13000.00000" pt_clust_7="13000.00000" pt_clust_8="13000.00000" pt_clust_9="13000.00000"></scales>
<clustering>
<clus scale="   78.282">  5  6 -1 -1</clus>
<clus scale="   76.676">  5  9 -1 -1</clus>
<clus scale="   90.425">  7  8 -1 -1</clus>
<clus scale="  229.522">  2  7  1 -1</clus>
<clus scale="  361.679">  1  5  2 -1</clus>
</clustering>
</event>
<event>
 9    1  0.2728138E-005  0.2377755E+03  0.7546771E-02  0.1141570E+00
         21   -1    0    0  501  502  0.00000000000E+00  0.00000000000E+00  0.10955709620E+04  0.10955709620E+04  0.00000000000E+00 0. -1.
          3   -1    0    0  502    0 -0.00000000000E+00 -0.00000000000E+00 -0.34761052453E+02  0.34761052453E+02  0.00000000000E+00 0. -1.
         23    2    1    2    0    0  0.93687871363E+02  0.61425090825E+02  0.51605350602E+03  0.53594431697E+03  0.91513008899E+02 0.  0.
        -24    2    1    2    0    0 -0.12721070594E+03  0.17218163854E+02  0.37181160302E+03  0.40146686924E+03  0.80329011498E+02 0.  0.
         13    1    4    4    0    0 -0.13316974534E+03  0.29187471868E+00  0.31863226936E+03  0.34534155461E+03  0.00000000000E+00 0. -1.
        -14    1    4    4    0    0  0.59590393909E+01  0.16926289135E+02  0.53179333653E+02  0.56125314628E+02  0.00000000000E+00 0.  1.
        -13    1    3    3    0    0  0.75762189309E+02  0.84657129785E+02  0.37323332499E+03  0.39014081283E+03  0.00000000000E+00 0. -1.
         13    1    3    3    0    0  0.17925682055E+02 -0.23232038960E+02  0.14282018103E+03  0.14580350414E+03  0.00000000000E+00 0.  1.
          4    1    1    2  501    0  0.33522834581E+02 -0.78643254679E+02  0.17294480053E+03  0.19292082826E+03  0.00000000000E+00 0. -1.
<scales pt_clust_5="13000.00000" pt_clust_6="13000.00000" pt_clust_7="13000.00000" pt_clust_8="13000.00000" pt_clust_9="13000.00000"></scales>
<clustering>
<clus scale="   80.329">  5  6 -1 -1</clus>
<clus scale="   85.490">  5  9 -1 -1</clus>
<clus scale="   91.513">  7  8 -1 -1</clus>
<clus scale="  144.655">  2  7  1 -1</clus>
<clus scale="  237.776">  1  5  2 -1</clus>
</clustering>
</event>
<event>
 9    1  0.2728138E-005  0.3779716E+03  0.7546771E-02  0.1102293E+00
         21   -1    0    0  501  502  0.00000000000E+00  0.00000000000E+00  0.26194698697E+03  0.26194698697E+03  0.00000000000E+00 0.  1.
         -4   -1    0    0    0  501 -0.00000000000E+00 -0.00000000000E+00 -0.24696404665E+03  0.24696404665E+03  0.00000000000E+00 0.  1.
         23    2    1    2    0    0 -0.35459931125E+02 -0.36184257435E+01 -0.73398905801E+02  0.12074371809E+03  0.89000822276E+02 0.  0.
        -24    2    1    2    0    0 -0.13984317771E+03  0.71105426302E+02 -0.58664677389E+01  0.17800447419E+03  0.83899233529E+02 0.  0.
         13    1    4    4    0    0 -0.70635292379E+02  0.77264062813E+02  0.14294911778E+02  0.10565710783E+03  0.00000000000E+00 0. -1.
        -14    1    4    4    0    0 -0.69207885331E+02 -0.61586365107E+01 -0.20161379517E+02  0.72347366363E+02  0.00000000000E+00 0.  1.
        -11    1    3    3    0    0 -0.38563185063E+02 -0.40666778088E+02 -0.29897727544E+02  0.63519919668E+02  0.00000000000E+00 0. -1.
         11    1    3    3    0    0  0.31032539383E+01  0.37048352345E+02 -0.43501178256E+02  0.57223798425E+02  0.00000000000E+00 0.  1.
         -3    1    1    2    0  502  0.17530310883E+03 -0.67487000559E+02  0.94248313864E+02  0.21016284133E+03  0.00000000000E+00 0.  1.
<scales pt_clust_5="13000.00000" pt_clust_6="13000.00000" pt_clust_7="13000.00000" pt_clust_8="13000.00000" pt_clust_9="13000.00000"></scales>
<clustering>
<clus scale="   83.899">  5  6 -1 -1</clus>
<clus scale="   89.001">  7  8 -1 -1</clus>
<clus scale="   95.873">  2  7  1 -1</clus>
<clus scale="  175.663">  5  9 -1 -1</clus>
<clus scale="  377.972">  1  5  2 -1</clus>
</clustering>
</event>
<event>
 9    1  0.2728138E-005  0.1676529E+03  0.7546771E-02  0.1180947E+00
          1   -1    0    0  502    0 -0.00000000000E+00  0.00000000000E+00  0.99736749087E+03  0.99736749087E+03  0.00000000000E+00 0. -1.
         21   -1    0    0  501  502  0.00000000000E+00 -0.00000000000E+00 -0.32033236225E+02  0.32033236225E+02  0.00000000000E+00 0.  1.
         23    2    1    2    0    0  0.13512551447E+03 -0.10791419235E+02  0.29233157003E+03  0.33583018126E+03  0.94598120594E+02 0.  0.
        -24    2    1    2    0    0 -0.91964540175E+02 -0.46106795351E+01  0.49088870190E+03  0.50577918009E+03  0.79762938418E+02 0.  0.
         11    1    4    4    0    0 -0.16660839269E+02 -0.35621233105E+02  0.13010969431E+03  0.13592272939E+03  0.00000000000E+00 0. -1.
        -12    1    4    4    0    0 -0.75303700906E+02  0.31010553570E+02  0.36077900759E+03  0.36985645070E+03  0.00000000000E+00 0.  1.
        -13    1    3    3    0    0  0.38587314936E+02 -0.47692552977E+02  0.12300697930E+03  0.13745645652E+03  0.00000000000E+00 0. -1.
         13    1    3    3    0    0  0.96538199529E+02  0.36901133742E+02  0.16932459073E+03  0.19837372474E+03  0.00000000000E+00 0.  1.
          2    1    1    2  501    0 -0.43160974290E+02  0.15402098770E+02  0.18211398272E+03  0.18779136575E+03  0.00000000000E+00 0. -1.
<scales pt_clust_5="13000.00000" pt_clust_6="13000.00000" pt_clust_7="13000.00000" pt_clust_8="13000.00000" pt_clust_9="13000.00000"></scales>
<clustering>
<clus scale="   79.763">  5  6 -1 -1</clus>
<clus scale="   45.827">  5  9 -1 -1</clus>
<clus scale="   94.598">  7  8 -1 -1</clus>
<clus scale="  165.300">  1  7  2 -1</clus>
<clus scale="  167.653">  2  5  1 -1</clus>
</clustering>
</event>
<event>
 9    1  0.2728138E-005  0.3009975E+03  0.7546771E-02  0.1092014E+00
          1   -1    0    0  502    0 -0.00000000000E+00  0.00000000000E+00  0.13897845515E+03  0.13897845515E+03  0.00000000000E+00 0. -1.
         21   -1    0    0  501  502  0.00000000000E+00 -0.00000000000E+00 -0.55952154750E+03  0.55952154750E+03  0.00000000000E+00 0. -1.
         23    2    1    2    0    0 -0.18342596033E+03 -0.14061356623E+03 -0.13020886754E+03  0.28029737213E+03  0.90526292897E+02 0.  0.
        -24    2    1    2    0    0  0.23757207116E+02  0.43390266100E+02 -0.17483790707E+03  0.19846214665E+03  0.79823616939E+02 0.  0.
         11    1    4    4    0    0 -0.12400380183E+02  0.22756577024E+02 -0.89306421633E+01  0.27411450089E+02  0.00000000000E+00 0. -1.
        -12    1    4    4    0    0  0.36157587299E+02  0.20633689075E+02 -0.16590726491E+03  0.17105069656E+03  0.00000000000E+00 0.  1.
        -11    1    3    3    0    0 -0.18212639670E+03 -0.11241906211E+03 -0.92415866405E+02  0.23312820992E+03  0.00000000000E+00 0. -1.
         11    1    3    3    0    0 -0.12995636322E+01 -0.28194504125E+02 -0.37793001134E+02  0.47169162206E+02  0.00000000000E+00 0.  1.
          2    1    1    2  501    0  0.15966875321E+03  0.97223300134E+02 -0.11549631774E+03  0.21974048387E+03  0.00000000000E+00 0. -1.
<scales pt_clust_5="13000.00000" pt_clust_6="13000.00000" pt_clust_7="13000.00000" pt_clust_8="13000.00000" pt_clust_9="13000.00000"></scales>
<clustering>
<clus scale="   79.824">  5  6 -1 -1</clus>
<clus scale="   90.526">  7  8 -1 -1</clus>
<clus scale="  186.940">  5  9 -1 -1</clus>
<clus scale="  248.218">  1  7  2 -1</clus>
<clus scale="  300.997">  2  5  1 -1</clus>
</clustering>
</event>
<event>
 9    1  0.2728138E-005  0.4020569E+03  0.7546771E-02  0.1057173E+00
         21   -1    0    0  501  502  0.00000000000E+00  0.00000000000E+00  0.52357634397E+02  0.52357634397E+02  0.00000000000E+00 0.  1.
          1   -1    0    0  502    0 -0.00000000000E+00 -0.00000000000E+00 -0.22810418546E+04  0.22810418546E+04  0.00000000000E+00 0. -1.
         23    2    1    2    0    0  0.11445749688E+02  0.25275207493E+03 -0.63093750979E+03  0.68584241432E+03  0.91011314992E+02 0.  0.
        -24    2    1    2    0    0  0.78212475300E+02  0.18321475914E+02 -0.47304059877E+03  0.48717640229E+03  0.84383476397E+02 0.  0.
         11    1    4    4    0    0  0.29326927052E+02 -0.10933821804E+02 -0.41959761574E+02  0.52347289336E+02  0.00000000000E+00 0. -1.
        -12    1    4    4    0    0  0.48885548249E+02  0.29255297718E+02 -0.43108083720E+03  0.43482911295E+03  0.00000000000E+00 0.  1.
        -13    1    3    3    0    0 -0.12497991495E+02  0.24250559428E+03 -0.57161802287E+03  0.62105742658E+03  0.00000000000E+00 0.  1.
         13    1    3    3    0    0  0.23943741183E+02  0.10246480651E+02 -0.59319486925E+02  0.64784987741E+02  0.00000000000E+00 0. -1.
          2    1    1    2  501    0 -0.89658224989E+02 -0.27107355085E+03 -0.11247061116E+04  0.11603806723E+04  0.00000000000E+00 0. -1.
<scales pt_clust_5="13000.00000" pt_clust_6="13000.00000" pt_clust_7="13000.00000" pt_clust_8="13000.00000" pt_clust_9="13000.00000"></scales>
<clustering>
<clus scale="   84.383">  5  6 -1 -1</clus>
<clus scale="   91.011">  7  8 -1 -1</clus>
<clus scale="  268.882">  2  7  1 -1</clus>
<clus scale="  123.802">  5  9 -1 -1</clus>
<clus scale="  402.057">  1  5  2 -1</clus>
</clustering>
</event>
<event>
 9    1  0.2728138E-005  0.3476404E+03  0.7546771E-02  0.1110940E+00
         21   -1    0    0  501  502  0.00000000000E+00  0.00000000000E+00  0.18773370309E+03  0.18773370309E+03  0.00000000000E+00 0. -1.
          1   -1    0    0  502    0 -0.00000000000E+00 -0.00000000000E+00 -0.30888729472E+03  0.30888729472E+03  0.00000000000E+00 0. -1.
         23    2    1    2    0    0 -0.42692617120E+02 -0.18396913581E+02 -0.11139079120E+03  0.14884352184E+03  0.87094085018E+02 0.  0.
        -24    2    1    2    0    0 -0.22636875601E+01  0.76772686179E+02 -0.15176604434E+03  0.18779709768E+03  0.79596784218E+02 0.  0.
         13    1    4    4    0    0  0.61376576334E+01  0.54815097625E+02 -0.28075006977E+02  0.61891613209E+02  0.00000000000E+00 0. -1.
        -14    1    4    4    0    0 -0.84013451936E+01  0.21957588554E+02 -0.12369103736E+03  0.12590548447E+03  0.00000000000E+00 0.  1.
        -11    1    3    3    0    0  0.22185794010E+02 -0.16278143186E+02 -0.11743895854E+02  0.29918330355E+02  0.00000000000E+00 0.  1.
         11    1    3    3    0    0 -0.64878411130E+02 -0.21187703950E+01 -0.99646895343E+02  0.11892519149E+03  0.00000000000E+00 0. -1.
          2    1    1    2  501    0  0.44956304681E+02 -0.58375772598E+02  0.14200324391E+03  0.15998037829E+03  0.00000000000E+00 0. -1.
<scales pt_clust_5="13000.00000" pt_clust_6="13000.00000" pt_clust_7="13000.00000" pt_clust_8="13000.00000" pt_clust_9="13000.00000"></scales>
<clustering>
<clus scale="   79.597">  5  6 -1 -1</clus>
<clus scale="   73.680">  5  9 -1 -1</clus>
<clus scale="   87.094">  7  8 -1 -1</clus>
<clus scale="   98.724">  2  7  1 -1</clus>
<clus scale="  347.640">  1  5  2 -1</clus>
</clustering>
</event>
<event>
 9    1  0.2728138E-005  0.1284198E+03  0.7546771E-02  0.1249332E+00
         -2   -1    0    0    0  501 -0.00000000000E+00  0.00000000000E+00  0.26764334957E+02  0.26764334957E+02  0.00000000000E+00 0.  1.
         21   -1    0    0  501  502  0.00000000000E+00 -0.00000000000E+00 -0.43147503889E+03  0.43147503889E+03  0.00000000000E+00 0.  1.
         23    2    1    2    0    0  0.10982917092E+02 -0.22290329092E+01 -0.15503929822E+03  0.17747711469E+03  0.85646653116E+02 0.  0.
        -24    2    1    2    0    0  0.12231179218E+02  0.23122887790E+02 -0.10886754162E+03  0.13653613259E+03  0.78139005634E+02 0.  0.
         13    1    4    4    0    0  0.43505553155E+02  0.85711776478E+01 -0.40935814990E+02  0.60348481261E+02  0.00000000000E+00 0. -1.
        -14    1    4    4    0    0 -0.31274373938E+02  0.14551710142E+02 -0.67931726627E+02  0.76187651334E+02  0.00000000000E+00 0.  1.
        -11    1    3    3    0    0  0.32596637600E+02 -0.25774072651E+02 -0.13114560277E+03  0.13757184570E+03  0.00000000000E+00 0.  1.
         11    1    3    3    0    0 -0.21613720508E+02  0.23545039742E+02 -0.23893695451E+02  0.39905268988E+02  0.00000000000E+00 0. -1.
         -1    1    1    2    0  502 -0.23214096310E+02 -0.20893854880E+02 -0.14080386409E+03  0.14422612656E+03  0.00000000000E+00 0.  1.
<scales pt_clust_5="13000.00000" pt_clust_6="13000.00000" pt_clust_7="13000.00000" pt_clust_8="13000.00000" pt_clust_9="13000.00000"></scales>
<clustering>
<clus scale="   78.139">  5  6 -1 -1</clus>
<clus scale="   31.232">  5  9 -1 -1</clus>
<clus scale="   85.647">  7  8 -1 -1</clus>
<clus scale="   86.377">  1  7  2 -1</clus>
<clus scale="  128.420">  2  5  1 -1</clus>
</clustering>
</event>
<event>
 9    1  0.2728138E-005  0.1835818E+03  0.7546771E-02  0.1189150E+00
         21   -1    0    0  501  502  0.00000000000E+00  0.00000000000E+00  0.19352651436E+02  0.19352651436E+02  0.00000000000E+00 0. -1.
          1   -1    0    0  502    0 -0.00000000000E+00 -0.00000000000E+00 -0.10902443407E+04  0.10902443407E+04  0.00000000000E+00 0. -1.
         23    2    1    2    0    0 -0.36645627751E+02  0.39793696099E+02 -0.45494149777E+03  0.46687084614E+03  0.89834182259E+02 0.  0.
        -24    2    1    2    0    0 -0.29608576744E+02 -0.57734515442E+02 -0.47467467484E+03  0.48565844016E+03  0.79612382654E+02 0.  0.
         13    1    4    4    0    0 -0.23600406178E+02 -0.61702819911E+02 -0.19491109363E+03  0.20580221470E+03  0.00000000000E+00 0. -1.
        -14    1    4    4    0    0 -0.60081705660E+01  0.39683044693E+01 -0.27976358122E+03  0.27985622546E+03  0.00000000000E+00 0.  1.
        -13    1    3    3    0    0 -0.50033952791E+02  0.55717680948E+02 -0.41632945965E+03  0.42301072725E+03  0.00000000000E+00 0. -1.
         13    1    3    3    0    0  0.13388325040E+02 -0.15923984849E+02 -0.38612038118E+02  0.43860118883E+02  0.00000000000E+00 0.  1.
          2    1    1    2  501    0  0.66254204495E+02  0.17940819343E+02 -0.14127551671E+03  0.15706770589E+03  0.00000000000E+00 0. -1.
<scales pt_clust_5="13000.00000" pt_clust_6="13000.00000" pt_clust_7="13000.00000" pt_clust_8="13000.00000" pt_clust_9="13000.00000"></scales>
<clustering>
<clus scale="   79.612">  5  6 -1 -1</clus>
<clus scale="   68.640">  5  9 -1 -1</clus>
<clus scale="   89.834">  7  8 -1 -1</clus>
<clus scale="  104.865">  2  7  1 -1</clus>
<clus scale="  183.582">  1  5  2 -1</clus>
</clustering>
</event>
<event>
 9    1  0.2728138E-005  0.3736892E+03  0.7546771E-02  0.1070327E+00
          3   -1    0    0  502    0 -0.00000000000E+00  0.00000000000E+00  0.29368464351E+03  0.29368464351E+03  0.00000000000E+00 0. -1.
         21   -1    0    0  501  502  0.00000000000E+00 -0.00000000000E+00 -0.33910844160E+03  0.33910844160E+03  0.00000000000E+00 0. -1.
         23    2    1    2    0    0  0.12626354630E+03  0.16525755741E+03  0.68277060905E+02  0.24218906299E+03  0.10363996227E+03 0.  0.
        -24    2    1    2    0    0  0.65020192440E+02  0.27962488299E+01  0.16988320209E+02  0.10440267331E+03  0.79849049702E+02 0.  0.
         13    1    4    4    0    0  0.10893122294E+02 -0.28568130808E+02  0.27314408191E+02  0.40998476874E+02  0.00000000000E+00 0. -1.
        -14    1    4    4    0    0  0.54127070146E+02  0.31364379638E+02 -0.10326087982E+02  0.63404196436E+02  0.00000000000E+00 0.  1.
        -11    1    3    3    0    0  0.43447745794E+01  0.43965097062E+02 -0.20438697124E+02  0.48677994678E+02  0.00000000000E+00 0.  1.
         11    1    3    3    0    0  0.12191877172E+03  0.12129246035E+03  0.88715758028E+02  0.19351106831E+03  0.00000000000E+00 0. -1.
          4    1    1    2  501    0 -0.19128373874E+03 -0.16805380624E+03 -0.13068917920E+03  0.28620134881E+03  0.00000000000E+00 0. -1.
<scales pt_clust_5="13000.00000" pt_clust_6="13000.00000" pt_clust_7="13000.00000" pt_clust_8="13000.00000" pt_clust_9="13000.00000"></scales>
<clustering>
<clus scale="   79.849">  5  6 -1 -1</clus>
<clus scale="  103.640">  7  8 -1 -1</clus>
<clus scale="  232.366">  1  7  2 -1</clus>
<clus scale="  141.955">  5  9 -1 -1</clus>
<clus scale="  373.689">  2  5  1 -1</clus>
</clustering>
</event>
<event>
 9    1  0.2728138E-005  0.3715861E+03  0.7546771E-02  0.1104649E+00
          1   -1    0    0  502    0 -0.00000000000E+00  0.00000000000E+00  0.23420012497E+03  0.23420012497E+03  0.00000000000E+00 0. -1.
         21   -1    0    0  501  502  0.00000000000E+00 -0.00000000000E+00 -0.27077711478E+03  0.27077711478E+03  0.00000000000E+00 0. -1.
         23    2    1    2    0    0  0.15622849643E+02  0.11789826678E+02  0.70505692249E+02  0.11826942442E+03  0.92916794328E+02 0.  0.
        -24    2    1    2    0    0 -0.15975235523E+03  0.74037401857E+02 -0.10533560814E+03  0.21895001430E+03  0.76427524797E+02 0.  0.
         11    1    4    4    0    0 -0.83808831577E+02  0.78095136399E+02 -0.75810120196E+02  0.13736791803E+03  0.00000000000E+00 0. -1.
        -12    1    4    4    0    0 -0.75943523651E+02 -0.40577345424E+01 -0.29525487943E+02  0.81582096274E+02  0.00000000000E+00 0.  1.
        -11    1    3    3    0    0 -0.25449944444E+02  0.37208729915E+02  0.23360597189E+02  0.50773090856E+02  0.00000000000E+00 0. -1.
         11    1    3    3    0    0  0.41072794087E+02 -0.25418903236E+02  0.47145095060E+02  0.67496333560E+02  0.00000000000E+00 0.  1.
          2    1    1    2  501    0  0.14412950559E+03 -0.85827228535E+02 -0.17470739223E+01  0.16775780103E+03  0.00000000000E+00 0. -1.
<scales pt_clust_5="13000.00000" pt_clust_6="13000.00000" pt_clust_7="13000.00000" pt_clust_8="13000.00000" pt_clust_9="13000.00000"></scales>
<clustering>
<clus scale="   76.428">  5  6 -1 -1</clus>
<clus scale="   92.917">  7  8 -1 -1</clus>
<clus scale="   94.956">  1  7  2 -1</clus>
<clus scale="  172.473">  5  9 -1 -1</clus>
<clus scale="  371.586">  2  5  1 -1</clus>
</clustering>
</event>
<event>
 9    1  0.2728138E-005  0.1830884E+03  0.7546771E-02  0.1190297E+00
          1   -1    0    0  502    0 -0.00000000000E+00  0.00000000000E+00  0.13482563329E+03  0.13482563329E+03  0.00000000000E+00 0. -1.
         21   -1    0    0  501  502  0.00000000000E+00 -0.00000000000E+00 -0.15230217860E+03  0.15230217860E+03  0.00000000000E+00 0. -1.
         23    2    1    2    0    0  0.33071941726E+02  0.33470268002E+02 -0.13926716813E+02  0.10400503723E+03  0.91701047754E+02 0.  0.
        -24    2    1    2    0    0  0.47110263104E+02 -0.43648871970E+02 -0.61629747266E+01  0.10225486703E+03  0.79331422902E+02 0.  0.
         13    1    4    4    0    0  0.63155662591E+02 -0.15710388144E+02  0.10597942388E+02  0.65937625039E+02  0.00000000000E+00 0. -1.
        -14    1    4    4    0    0 -0.16045399487E+02 -0.27938483826E+02 -0.16760917115E+02  0.36317241990E+02  0.00000000000E+00 0.  1.
        -13    1    3    3    0    0  0.29997149536E+02 -0.14586385579E+02  0.25324398692E+02  0.41879789799E+02  0.00000000000E+00 0.  1.
         13    1    3    3    0    0  0.30747921903E+01  0.48056653581E+02 -0.39251115505E+02  0.62125247435E+02  0.00000000000E+00 0. -1.
          2    1    1    2  501    0 -0.80182204830E+02  0.10178603968E+02  0.26131462305E+01  0.80867907623E+02  0.00000000000E+00 0. -1.
<scales pt_clust_5="13000.00000" pt_clust_6="13000.00000" pt_clust_7="13000.00000" pt_clust_8="13000.00000" pt_clust_9="13000.00000"></scales>
<clustering>
<clus scale="   79.331">  5  6 -1 -1</clus>
<clus scale="   80.826">  5  9 -1 -1</clus>
<clus scale="   91.701">  7  8 -1 -1</clus>
<clus scale="  103.068">  1  7  2 -1</clus>
<clus scale="  183.088">  2  5  1 -1</clus>
</clustering>
</event>
<event>
 9    1  0.2728138E-005  0.2402808E+03  0.7546771E-02  0.1150655E+00
          1   -1    0    0  502    0 -0.00000000000E+00  0.00000000000E+00  0.34387316346E+03  0.34387316346E+03  0.00000000000E+00 0. -1.
         21   -1    0    0  501  502  0.00000000000E+00 -0.00000000000E+00 -0.10731138738E+03  0.10731138738E+03  0.00000000000E+00 0. -1.
         23    2    1    2    0    0 -0.39815317730E+02  0.59680683596E+02  0.16604634356E+03  0.20077028663E+03  0.87122191552E+02 0.  0.
        -24    2    1    2    0    0 -0.36601657673E+02 -0.98880239871E+02 -0.92274506442E+01  0.13321747775E+03  0.80899736404E+02 0.  0.
         13    1    4    4    0    0 -0.58680526744E+02 -0.68993988059E+02 -0.23237025554E+02  0.93506865865E+02  0.00000000000E+00 0. -1.
        -14    1    4    4    0    0  0.22078869071E+02 -0.29886251812E+02  0.14009574910E+02  0.39710611881E+02  0.00000000000E+00 0.  1.
        -11    1    3    3    0    0  0.21870971378E+01  0.36692476984E+02  0.10805431949E+02  0.38312904101E+02  0.00000000000E+00 0.  1.
         11    1    3    3    0    0 -0.42002414868E+02  0.22988206613E+02  0.15524091162E+03  0.16245738253E+03  0.00000000000E+00 0. -1.
          2    1    1    2  501    0  0.76416975403E+02  0.39199556275E+02  0.79742883164E+02  0.11719678646E+03  0.00000000000E+00 0. -1.
<scales pt_clust_5="13000.00000" pt_clust_6="13000.00000" pt_clust_7="13000.00000" pt_clust_8="13000.00000" pt_clust_9="13000.00000"></scales>
<clustering>
<clus scale="   80.900">  5  6 -1 -1</clus>
<clus scale="   85.885">  5  9 -1 -1</clus>
<clus scale="   87.122">  7  8 -1 -1</clus>
<clus scale="  112.860">  1  7  2 -1</clus>
<clus scale="  240.281">  2  5  1 -1</clus>
</clustering>
</event>
<event>
 9    1  0.2728138E-005  0.2638293E+03  0.7546771E-02  0.1139452E+00
         21   -1    0    0  501  502  0.00000000000E+00  0.00000000000E+00  0.73099980756E+02  0.73099980756E+02  0.00000000000E+00 0.  1.
          1   -1    0    0  502    0 -0.00000000000E+00 -0.00000000000E+00 -0.61304278120E+03  0.61304278120E+03  0.00000000000E+00 0. -1.
         23    2    1    2    0    0  0.47417664984E+02 -0.41548268355E+02 -0.33204114273E+03  0.35024245922E+03  0.91889967990E+02 0.  0.
        -24    2    1    2    0    0  0.36520607160E+02  0.11943898462E+03 -0.11806265977E+03  0.19035428677E+03  0.81832371752E+02 0.  0.
         13    1    4    4    0    0  0.19941847330E+02  0.70611281281E+02 -0.11780714628E+03  0.13878816244E+03  0.00000000000E+00 0. -1.
        -14    1    4    4    0    0  0.16578759830E+02  0.48827703340E+02 -0.25551348164E+00  0.51566124327E+02  0.00000000000E+00 0.  1.
        -11    1    3    3    0    0 -0.57250368816E+01 -0.46485372381E+02 -0.23374668073E+03  0.23839290393E+03  0.00000000000E+00 0. -1.
         11    1    3    3    0    0  0.53142701865E+02  0.49371040256E+01 -0.98294462001E+02  0.11184955529E+03  0.00000000000E+00 0.  1.
          2    1    1    2  501    0 -0.83938272143E+02 -0.77890716266E+02 -0.89838997943E+02  0.14554601596E+03  0.00000000000E+00 0. -1.
<scales pt_clust_5="13000.00000" pt_clust_6="13000.00000" pt_clust_7="13000.00000" pt_clust_8="13000.00000" pt_clust_9="13000.00000"></scales>
<clustering>
<clus scale="   81.832">  5  6 -1 -1</clus>
<clus scale="   91.890">  7  8 -1 -1</clus>
<clus scale="  111.438">  2  7  1 -1</clus>
<clus scale="  114.949">  5  9 -1 -1</clus>
<clus scale="  263.829">  1  5  2 -1</clus>
</clustering>
</event>
<event>
 9    1  0.2728138E-005  0.2520691E+03  0.7546771E-02  0.1133355E+00
         21   -1    0    0  501  502  0.00000000000E+00  0.00000000000E+00  0.54715087834E+02  0.54715087834E+02  0.00000000000E+00 0.  1.
          1   -1    0    0  502    0 -0.00000000000E+00 -0.00000000000E+00 -0.10341210724E+04  0.10341210724E+04  0.00000000000E+00 0. -1.
         23    2    1    2    0    0  0.11358060029E+03 -0.23314842222E+00 -0.11251088869E+03  0.18603720441E+03  0.95134295766E+02 0.  0.
        -24    2    1    2    0    0  0.92438805324E+01  0.40663250088E+02 -0.15801472425E+03  0.18222152939E+03  0.80604487828E+02 0.  0.
         11    1    4    4    0    0 -0.27378893228E+02  0.34773386893E+02 -0.44342389348E+02  0.62650137457E+02  0.00000000000E+00 0. -1.
        -12    1    4    4    0    0  0.36622773760E+02  0.58898631952E+01 -0.11367233490E+03  0.11957139193E+03  0.00000000000E+00 0.  1.
        -13    1    3    3    0    0  0.11494719633E+03  0.29066308987E+02 -0.85657563392E+02  0.14627004624E+03  0.00000000000E+00 0.  1.
         13    1    3    3    0    0 -0.13665960384E+01 -0.29299457409E+02 -0.26853325295E+02  0.39767158166E+02  0.00000000000E+00 0. -1.
          2    1    1    2  501    0 -0.12282448082E+03 -0.40430101666E+02 -0.70888037165E+03  0.72057742646E+03  0.00000000000E+00 0. -1.
<scales pt_clust_5="13000.00000" pt_clust_6="13000.00000" pt_clust_7="13000.00000" pt_clust_8="13000.00000" pt_clust_9="13000.00000"></scales>
<clustering>
<clus scale="   80.604">  5  6 -1 -1</clus>
<clus scale="   95.134">  7  8 -1 -1</clus>
<clus scale="  129.308">  5  9 -1 -1</clus>
<clus scale="  148.159">  2  7  1 -1</clus>
<clus scale="  252.069">  1  5  2 -1</clus>
</clustering>
</event>
<event>
 9    1  0.2728138E-005  0.1743179E+03  0.7546771E-02  0.1195118E+00
          1   -1    0    0  502    0 -0.00000000000E+00  0.00000000000E+00  0.63531383381E+03  0.63531383381E+03  0.00000000000E+00 0. -1.
         21   -1    0    0  501  502  0.00000000000E+00 -0.00000000000E+00 -0.34331520319E+02  0.34331520319E+02  0.00000000000E+00 0. -1.
         23    2    1    2    0    0  0.32434673441E+02  0.57752793138E+02  0.13759248939E+03  0.17455256954E+03  0.84554794297E+02 0.  0.
        -24    2    1    2    0    0  0.21899361354E+02 -0.65665950747E+02  0.19474165371E+03  0.22089095226E+03  0.77954486629E+02 0.  0.
         13    1    4    4    0    0  0.19026589180E+02 -0.83439551749E+02  0.15058959167E+03  0.17320910776E+03  0.00000000000E+00 0. -1.
        -14    1    4    4    0    0  0.28727721739E+01  0.17773601002E+02  0.44152062040E+02  0.47681844500E+02  0.00000000000E+00 0.  1.
        -13    1    3    3    0    0  0.33430328176E+02  0.78904504054E+01  0.74030599242E+01  0.35137605863E+02  0.00000000000E+00 0. -1.
         13    1    3    3    0    0 -0.99565473466E+00  0.49862342732E+02  0.13018942947E+03  0.13941496368E+03  0.00000000000E+00 0.  1.
          2    1    1    2  501    0 -0.54334034795E+02  0.79131576093E+01  0.26864817039E+03  0.27420183233E+03  0.00000000000E+00 0. -1.
<scales pt_clust_5="13000.00000" pt_clust_6="13000.00000" pt_clust_7="13000.00000" pt_clust_8="13000.00000" pt_clust_9="13000.00000"></scales>
<clustering>
<clus scale="   77.954">  5  6 -1 -1</clus>
<clus scale="   54.907">  5  9 -1 -1</clus>
<clus scale="   84.555">  7  8 -1 -1</clus>
<clus scale="  107.410">  1  7  2 -1</clus>
<clus scale="  174.318">  2  5  1 -1</clus>
</clustering>
</event>
<event>
 9    1  0.2728138E-005  0.8576397E+03  0.7546771E-02  0.1015183E+00
         21   -1    0    0  501  502  0.00000000000E+00  0.00000000000E+00  0.34880072251E+03  0.34880072251E+03  0.00000000000E+00 0. -1.
          1   -1    0    0  502    0 -0.00000000000E+00 -0.00000000000E+00 -0.65872370474E+03  0.65872370474E+03  0.00000000000E+00 0. -1.
         23    2    1    2    0    0  0.15845985774E+02  0.11202903193E+02 -0.66905814531E+02  0.11611923925E+03  0.92901503766E+02 0.  0.
        -24    2    1    2    0    0 -0.28609760703E+03  0.58806658419E+02  0.20376837435E+03  0.36457068069E+03  0.77975425699E+02 0.  0.
         11    1    4    4    0    0 -0.27536070217E+03  0.48529736371E+02  0.16887958375E+03  0.32664807580E+03  0.00000000000E+00 0. -1.
        -12    1    4    4    0    0 -0.10736904855E+02  0.10276922049E+02  0.34888790596E+02  0.37922604894E+02  0.00000000000E+00 0.  1.
        -11    1    3    3    0    0 -0.35693478021E+02  0.21717126458E+02 -0.35716944890E+02  0.54966881912E+02  0.00000000000E+00 0.  1.
         11    1    3    3    0    0  0.51539463795E+02 -0.10514223265E+02 -0.31188869642E+02  0.61152357343E+02  0.00000000000E+00 0. -1.
          2    1    1    2  501    0  0.27025162125E+03 -0.70009561612E+02 -0.44678554205E+03  0.52683450731E+03  0.00000000000E+00 0. -1.
<scales pt_clust_5="13000.00000" pt_clust_6="13000.00000" pt_clust_7="13000.00000" pt_clust_8="13000.00000" pt_clust_9="13000.00000"></scales>
<clustering>
<clus scale="   77.975">  5  6 -1 -1</clus>
<clus scale="   92.902">  7  8 -1 -1</clus>
<clus scale="   94.907">  2  7  1 -1</clus>
<clus scale="  290.206">  5  9 -1 -1</clus>
<clus scale="  857.640">  1  5  2 -1</clus>
</clustering>
</event>
<event>
 9    1  0.2728138E-005  0.3543275E+03  0.7546771E-02  0.1104803E+00
         21   -1    0    0  501  502  0.00000000000E+00  0.00000000000E+00  0.59275282118E+03  0.59275282118E+03  0.00000000000E+00 0. -1.
          3   -1    0    0  502    0 -0.00000000000E+00 -0.00000000000E+00 -0.90981258480E+02  0.90981258480E+02  0.00000000000E+00 0. -1.
         23    2    1    2    0    0  0.46511197437E+02  0.26308373392E+02  0.99252041776E+02  0.14747860011E+03  0.95097569352E+02 0.  0.
        -24    2    1    2    0    0 -0.64517018151E+02 -0.16697808734E+03  0.28336543757E+03  0.35102623353E+03  0.10430396988E+03 0.  0.
         13    1    4    4    0    0 -0.83375141504E+02 -0.72632172305E+02  0.14071375341E+03  0.17896146813E+03  0.00000000000E+00 0. -1.
        -14    1    4    4    0    0  0.18858123353E+02 -0.94345915033E+02  0.14265168415E+03  0.17206476540E+03  0.00000000000E+00 0.  1.
        -11    1    3    3    0    0 -0.97332910085E+01  0.47504886411E+02  0.37462142224E+02  0.61276939274E+02  0.00000000000E+00 0.  1.
         11    1    3    3    0    0  0.56244488445E+02 -0.21196513019E+02  0.61789899551E+02  0.86201660838E+02  0.00000000000E+00 0. -1.
          4    1    1    2  501    0  0.18005820714E+02  0.14066971395E+03  0.11915408336E+03  0.18522924602E+03  0.00000000000E+00 0. -1.
<scales pt_clust_5="13000.00000" pt_clust_6="13000.00000" pt_clust_7="13000.00000" pt_clust_8="13000.00000" pt_clust_9="13000.00000"></scales>
<clustering>
<clus scale="   95.098">  7  8 -1 -1</clus>
<clus scale="  104.304">  5  6 -1 -1</clus>
<clus scale="  109.082">  2  7  1 -1</clus>
<clus scale="  159.040">  5  9 -1 -1</clus>
<clus scale="  354.327">  1  5  2 -1</clus>
</clustering>
</event>
<event>
 9    1  0.2728138E-005  0.2414030E+03  0.7546771E-02  0.1156791E+00
          1   -1    0    0  502    0 -0.00000000000E+00  0.00000000000E+00  0.47006716084E+03  0.47006716084E+03  0.00000000000E+00 0. -1.
         21   -1    0    0  501  502  0.00000000000E+00 -0.00000000000E+00 -0.66273026100E+02  0.66273026100E+02  0.00000000000E+00 0. -1.
         23    2    1    2    0    0  0.17361096817E+02 -0.21878054441E+02  0.19364655582E+03  0.21628176601E+03  0.92188702006E+02 0.  0.
        -24    2    1    2    0    0  0.54519167082E+02  0.52054773488E+02  0.21575738262E+03  0.24189911817E+03  0.79258414037E+02 0.  0.
         13    1    4    4    0    0  0.59078951436E+02  0.48384209303E+02  0.99166052885E+02  0.12516093743E+03  0.00000000000E+00 0. -1.
        -14    1    4    4    0    0 -0.45597843546E+01  0.36705641856E+01  0.11659132973E+03  0.11673818074E+03  0.00000000000E+00 0.  1.
        -11    1    3    3    0    0 -0.31304512927E+02 -0.27349719149E+01  0.26373356534E+02  0.41024462651E+02  0.00000000000E+00 0.  1.
         11    1    3    3    0    0  0.48665609743E+02 -0.19143082526E+02  0.16727319929E+03  0.17525730336E+03  0.00000000000E+00 0. -1.
          2    1    1    2  501    0 -0.71880263898E+02 -0.30176719048E+02 -0.56098036976E+01  0.78159302761E+02  0.00000000000E+00 0. -1.
<scales pt_clust_5="13000.00000" pt_clust_6="13000.00000" pt_clust_7="13000.00000" pt_clust_8="13000.00000" pt_clust_9="13000.00000"></scales>
<clustering>
<clus scale="   79.258">  5  6 -1 -1</clus>
<clus scale="   77.958">  5  9 -1 -1</clus>
<clus scale="   92.189">  7  8 -1 -1</clus>
<clus scale="   96.327">  1  7  2 -1</clus>
<clus scale="  241.403">  2  5  1 -1</clus>
</clustering>
</event>
<event>
 9    1  0.2728138E-005  0.2945844E+03  0.7546771E-02  0.1128796E+00
         -4   -1    0    0    0  501 -0.00000000000E+00  0.00000000000E+00  0.50380058312E+03  0.50380058312E+03  0.00000000000E+00 0.  1.
         21   -1    0    0  501  502  0.00000000000E+00 -0.00000000000E+00 -0.85128203150E+02  0.85128203150E+02  0.00000000000E+00 0.  1.
         23    2    1    2    0    0 -0.52544570936E+02 -0.24308889758E+02  0.45077071255E+02  0.11316262767E+03  0.86150936694E+02 0.  0.
        -24    2    1    2    0    0 -0.40482767115E+02  0.10529327192E+03  0.30313843972E+03  0.33372135522E+03  0.82167522457E+02 0.  0.
         13    1    4    4    0    0 -0.58514519597E+02  0.55356651676E+02  0.22725929917E+03  0.24111220821E+03  0.00000000000E+00 0. -1.
        -14    1    4    4    0    0  0.18031752482E+02  0.49936620240E+02  0.75879140554E+02  0.92609147009E+02  0.00000000000E+00 0.  1.
        -13    1    3    3    0    0 -0.72391532135E+02 -0.44971854728E+00  0.35860997522E+02  0.80788286991E+02  0.00000000000E+00 0.  1.
         13    1    3    3    0    0  0.19846961199E+02 -0.23859171210E+02  0.92160737330E+01  0.32374340684E+02  0.00000000000E+00 0. -1.
         -3    1    1    2    0  502  0.93027338051E+02 -0.80984382158E+02  0.70456868993E+02  0.14204480338E+03  0.00000000000E+00 0.  1.
<scales pt_clust_5="13000.00000" pt_clust_6="13000.00000" pt_clust_7="13000.00000" pt_clust_8="13000.00000" pt_clust_9="13000.00000"></scales>
<clustering>
<clus scale="   82.168">  5  6 -1 -1</clus>
<clus scale="   86.151">  7  8 -1 -1</clus>
<clus scale="  103.797">  1  7  2 -1</clus>
<clus scale="  118.159">  5  9 -1 -1</clus>
<clus scale="  294.584">  2  5  1 -1</clus>
</clustering>
</event>
<event>
 9    1  0.2728138E-005  0.4362899E+03  0.7546771E-02  0.1043537E+00
          3   -1    0    0  502    0 -0.00000000000E+00  0.00000000000E+00  0.10119295483E+04  0.10119295483E+04  0.00000000000E+00 0. -1.
         21   -1    0    0  501  502  0.00000000000E+00 -0.00000000000E+00 -0.15815778418E+03  0.15815778418E+03  0.00000000000E+00 0. -1.
         23    2    1    2    0    0 -0.21213864891E+03  0.20762906759E+03  0.15669739453E+03  0.34773611851E+03  0.90849868405E+02 0.  0.
        -24    2    1    2    0    0 -0.35625867806E+02 -0.82612369746E+02  0.78626112994E+02  0.14449084740E+03  0.81249819973E+02 0.  0.
         11    1    4    4    0    0 -0.54262959597E+02 -0.84705345465E+02  0.56105049347E+02  0.11518350966E+03  0.00000000000E+00 0. -1.
        -12    1    4    4    0    0  0.18637091791E+02  0.20929757185E+01  0.22521063647E+02  0.29307337743E+02  0.00000000000E+00 0.  1.
        -11    1    3    3    0    0 -0.26352709770E+02  0.11417221978E+01 -0.42390822089E+01  0.26715887778E+02  0.00000000000E+00 0.  1.
         11    1    3    3    0    0 -0.18578593914E+03  0.20648734540E+03  0.16093647674E+03  0.32102023073E+03  0.00000000000E+00 0. -1.
          4    1    1    2  501    0  0.24776451672E+03 -0.12501669785E+03  0.61844825657E+03  0.67786036655E+03  0.00000000000E+00 0. -1.
<scales pt_clust_5="13000.00000" pt_clust_6="13000.00000" pt_clust_7="13000.00000" pt_clust_8="13000.00000" pt_clust_9="13000.00000"></scales>
<clustering>
<clus scale="   81.250">  5  6 -1 -1</clus>
<clus scale="   90.850">  7  8 -1 -1</clus>
<clus scale="  277.518">  5  9 -1 -1</clus>
<clus scale="  310.429">  1  7  2 -1</clus>
<clus scale="  436.290">  2  5  1 -1</clus>
</clustering>
</event>
<event>
 9    1  0.2728138E-005  0.1692995E+03  0.7546771E-02  0.1194124E+00
          1   -1    0    0  502    0 -0.00000000000E+00  0.00000000000E+00  0.75754849350E+03  0.75754849350E+03  0.00000000000E+00 0. -1.
         21   -1    0    0  501  502  0.00000000000E+00 -0.00000000000E+00 -0.35360954515E+02  0.35360954515E+02  0.00000000000E+00 0. -1.
         23    2    1    2    0    0  0.75250996157E+02  0.12374196990E+02  0.12914096187E+03  0.17617078459E+03  0.92427940236E+02 0.  0.
        -24    2    1    2    0    0 -0.33407466949E+02  0.43848011300E+02  0.27176337661E+03  0.28790023415E+03  0.77411271879E+02 0.  0.
         13    1    4    4    0    0 -0.51172748292E+02  0.19097492711E+02  0.10479542894E+03  0.11817548951E+03  0.00000000000E+00 0. -1.
        -14    1    4    4    0    0  0.17765281343E+02  0.24750518589E+02  0.16696794767E+03  0.16972474464E+03  0.00000000000E+00 0.  1.
        -13    1    3    3    0    0  0.48965699236E+02 -0.11683373607E+02  0.13115219014E+03  0.14048145038E+03  0.00000000000E+00 0. -1.
         13    1    3    3    0    0  0.26285296921E+02  0.24057570597E+02 -0.20112282755E+01  0.35689334211E+02  0.00000000000E+00 0.  1.
          2    1    1    2  501    0 -0.41843529208E+02 -0.56222208291E+02  0.32128320050E+03  0.32883842927E+03  0.00000000000E+00 0. -1.
<scales pt_clust_5="13000.00000" pt_clust_6="13000.00000" pt_clust_7="13000.00000" pt_clust_8="13000.00000" pt_clust_9="13000.00000"></scales>
<clustering>
<clus scale="   77.411">  5  6 -1 -1</clus>
<clus scale="   70.084">  5  9 -1 -1</clus>
<clus scale="   92.428">  7  8 -1 -1</clus>
<clus scale="  119.828">  1  7  2 -1</clus>
<clus scale="  169.300">  2  5  1 -1</clus>
</clustering>
</event>
<event>
 9    1  0.2728138E-005  0.1870496E+03  0.7546771E-02  0.1191863E+00
         21   -1    0    0  501  502  0.00000000000E+00  0.00000000000E+00  0.26394749723E+03  0.26394749723E+03  0.00000000000E+00 0.  1.
          3   -1    0    0  502    0 -0.00000000000E+00 -0.00000000000E+00 -0.10987836772E+03  0.10987836772E+03  0.00000000000E+00 0. -1.
         23    2    1    2    0    0  0.22390297895E+02  0.55410173822E+01  0.16158472084E+03  0.18662533834E+03  0.90484068153E+02 0.  0.
        -24    2    1    2    0    0  0.20248409372E+02 -0.21506338056E+02  0.60775137272E+02  0.10512388904E+03  0.80528840043E+02 0.  0.
         13    1    4    4    0    0 -0.12096279240E+02  0.16609131548E+02  0.49900301392E+02  0.53965019237E+02  0.00000000000E+00 0. -1.
        -14    1    4    4    0    0  0.32344688612E+02 -0.38115469604E+02  0.10874835880E+02  0.51158869807E+02  0.00000000000E+00 0.  1.
        -11    1    3    3    0    0  0.45265451552E+01  0.34039911654E+02  0.14521232145E+03  0.14921736996E+03  0.00000000000E+00 0.  1.
         11    1    3    3    0    0  0.17863752740E+02 -0.28498894272E+02  0.16372399384E+02  0.37407968379E+02  0.00000000000E+00 0. -1.
          4    1    1    2  501    0 -0.42638707267E+02  0.15965320673E+02 -0.68290728595E+02  0.82076637563E+02  0.00000000000E+00 0. -1.
<scales pt_clust_5="13000.00000" pt_clust_6="13000.00000" pt_clust_7="13000.00000" pt_clust_8="13000.00000" pt_clust_9="13000.00000"></scales>
<clustering>
<clus scale="   80.529">  5  6 -1 -1</clus>
<clus scale="   45.530">  5  9 -1 -1</clus>
<clus scale="   90.484">  7  8 -1 -1</clus>
<clus scale="   93.378">  2  7  1 -1</clus>
<clus scale="  187.050">  1  5  2 -1</clus>
</clustering>
</event>
<event>
 9    1  0.2728138E-005  0.2170542E+03  0.7546771E-02  0.1167424E+00
         -4   -1    0    0    0  501 -0.00000000000E+00  0.00000000000E+00  0.83145812329E+02  0.83145812329E+02  0.00000000000E+00 0.  1.
         21   -1    0    0  501  502  0.00000000000E+00 -0.00000000000E+00 -0.52710670571E+03  0.52710670571E+03  0.00000000000E+00 0. -1.
         23    2    1    2    0    0  0.49303030975E+02  0.73200310574E+01  0.12993856180E+02  0.10436696855E+03  0.90770326145E+02 0.  0.
        -24    2    1    2    0    0 -0.60815277949E+02  0.69174041197E+02 -0.17170838355E+03  0.21033629092E+03  0.79208839700E+02 0.  0.
         13    1    4    4    0    0 -0.38246459586E+02 -0.39139030830E+01 -0.92745597899E+02  0.10039848723E+03  0.00000000000E+00 0. -1.
        -14    1    4    4    0    0 -0.22568818363E+02  0.73087944280E+02 -0.78962785655E+02  0.10993780369E+03  0.00000000000E+00 0.  1.
        -13    1    3    3    0    0  0.12697711188E+02  0.43268916986E+02  0.25161111870E+02  0.51638286156E+02  0.00000000000E+00 0. -1.
         13    1    3    3    0    0  0.36605319787E+02 -0.35948885929E+02 -0.12167255690E+02  0.52728682397E+02  0.00000000000E+00 0.  1.
         -3    1    1    2    0  502  0.11512246973E+02 -0.76494072255E+02 -0.28524636601E+03  0.29554925857E+03  0.00000000000E+00 0.  1.
<scales pt_clust_5="13000.00000" pt_clust_6="13000.00000" pt_clust_7="13000.00000" pt_clust_8="13000.00000" pt_clust_9="13000.00000"></scales>
<clustering>
<clus scale="   79.209">  5  6 -1 -1</clus>
<clus scale="   77.356">  5  9 -1 -1</clus>
<clus scale="   90.770">  7  8 -1 -1</clus>
<clus scale="  103.555">  1  7  2 -1</clus>
<clus scale="  217.054">  2  5  1 -1</clus>
</clustering>
</event>
<event>
 9    1  0.2728138E-005  0.1267514E+03  0.7546771E-02  0.1249521E+00
         -2   -1    0    0    0  501 -0.00000000000E+00  0.00000000000E+00  0.47501427743E+02  0.47501427743E+02  0.00000000000E+00 0.  1.
         21   -1    0    0  501  502  0.00000000000E+00 -0.00000000000E+00 -0.25241219984E+03  0.25241219984E+03  0.00000000000E+00 0.  1.
         23    2    1    2    0    0 -0.25780055279E+00 -0.32119183596E+00 -0.61885949017E+02  0.10880631451E+03  0.89491752509E+02 0.  0.
        -24    2    1    2    0    0 -0.35913338728E+02  0.88960315250E+01 -0.93937945468E+02  0.12953296170E+03  0.81151360388E+02 0.  0.
         13    1    4    4    0    0  0.14429894066E+02 -0.23819733782E+02 -0.19994501837E+02  0.34283839690E+02  0.00000000000E+00 0. -1.
        -14    1    4    4    0    0 -0.50343232794E+02  0.32715765307E+02 -0.73943443632E+02  0.95249122011E+02  0.00000000000E+00 0.  1.
        -13    1    3    3    0    0 -0.27135780496E+02  0.27439977538E+02 -0.34436376918E+01  0.38744826635E+02  0.00000000000E+00 0. -1.
         13    1    3    3    0    0  0.26877979943E+02 -0.27761169374E+02 -0.58442311325E+02  0.70061487879E+02  0.00000000000E+00 0.  1.
         -1    1    1    2    0  502  0.36171139281E+02 -0.85748396891E+01 -0.49086877609E+02  0.61574351364E+02  0.00000000000E+00 0.  1.
<scales pt_clust_5="13000.00000" pt_clust_6="13000.00000" pt_clust_7="13000.00000" pt_clust_8="13000.00000" pt_clust_9="13000.00000"></scales>
<clustering>
<clus scale="   81.151">  5  6 -1 -1</clus>
<clus scale="   37.174">  5  9 -1 -1</clus>
<clus scale="   89.492">  7  8 -1 -1</clus>
<clus scale="   89.493">  1  7  2 -1</clus>
<clus scale="  126.751">  2  5  1 -1</clus>
</clustering>
</event>
<event>
 9    1  0.2728138E-005  0.1720240E+03  0.7546771E-02  0.1203226E+00
         21   -1    0    0  501  502  0.00000000000E+00  0.00000000000E+00  0.47849383516E+02  0.47849383516E+02  0.00000000000E+00 0.  1.
          1   -1    0    0  502    0 -0.00000000000E+00 -0.00000000000E+00 -0.36898412767E+03  0.36898412767E+03  0.00000000000E+00 0. -1.
         23    2    1    2    0    0  0.15119194853E+02 -0.11804747585E+02 -0.11019221420E+03  0.14464054311E+03  0.91709435301E+02 0.  0.
        -24    2    1    2    0    0  0.20578977611E+02 -0.36528479980E+02 -0.18805237822E+03  0.20789351667E+03  0.78090928723E+02 0.  0.
         13    1    4    4    0    0 -0.54802634842E+01  0.22351114803E+02 -0.66020308020E+02  0.69916283453E+02  0.00000000000E+00 0. -1.
        -14    1    4    4    0    0  0.26059241095E+02 -0.58879594783E+02 -0.12203207020E+03  0.13797723322E+03  0.00000000000E+00 0.  1.
        -11    1    3    3    0    0 -0.90245788520E+01  0.36296693392E+02 -0.29449910760E+02  0.47604518887E+02  0.00000000000E+00 0.  1.
         11    1    3    3    0    0  0.24143773705E+02 -0.48101440978E+02 -0.80742303438E+02  0.97036024225E+02  0.00000000000E+00 0. -1.
          2    1    1    2  501    0 -0.35698172465E+02  0.48333227565E+02 -0.22890151729E+02  0.64299451400E+02  0.00000000000E+00 0. -1.
<scales pt_clust_5="13000.00000" pt_clust_6="13000.00000" pt_clust_7="13000.00000" pt_clust_8="13000.00000" pt_clust_9="13000.00000"></scales>
<clustering>
<clus scale="   78.091">  5  6 -1 -1</clus>
<clus scale="   60.087">  5  9 -1 -1</clus>
<clus scale="   91.709">  7  8 -1 -1</clus>
<clus scale="   93.694">  2  7  1 -1</clus>
<clus scale="  172.024">  1  5  2 -1</clus>
</clustering>
</event>
<event>
 9    1  0.2728138E-005  0.2713591E+03  0.7546771E-02  0.1124565E+00
         21   -1    0    0  501  502  0.00000000000E+00  0.00000000000E+00  0.18373227547E+03  0.18373227547E+03  0.00000000000E+00 0. -1.
          1   -1    0    0  502    0 -0.00000000000E+00 -0.00000000000E+00 -0.26690086479E+03  0.26690086479E+03  0.00000000000E+00 0. -1.
         23    2    1    2    0    0 -0.89713080387E+02 -0.74663068624E+02 -0.10096872211E+03  0.17869084243E+03  0.90070659562E+02 0.  0.
        -24    2    1    2    0    0  0.31500213044E+02 -0.56004506042E+02 -0.49023527200E+02  0.11405577362E+03  0.80477606563E+02 0.  0.
         11    1    4    4    0    0  0.19647930197E+02 -0.17835597435E+02 -0.65618310404E+02  0.70780734364E+02  0.00000000000E+00 0. -1.
        -12    1    4    4    0    0  0.11852282847E+02 -0.38168908608E+02  0.16594783204E+02  0.43275039256E+02  0.00000000000E+00 0.  1.
        -13    1    3    3    0    0 -0.58135562751E+02 -0.55466134780E+02 -0.11402992149E+03  0.13949573025E+03  0.00000000000E+00 0. -1.
         13    1    3    3    0    0 -0.31577517636E+02 -0.19196933845E+02  0.13061199381E+02  0.39195112175E+02  0.00000000000E+00 0.  1.
          2    1    1    2  501    0  0.58212867343E+02  0.13066757467E+03  0.66823659984E+02  0.15788652421E+03  0.00000000000E+00 0. -1.
<scales pt_clust_5="13000.00000" pt_clust_6="13000.00000" pt_clust_7="13000.00000" pt_clust_8="13000.00000" pt_clust_9="13000.00000"></scales>
<clustering>
<clus scale="   80.478">  5  6 -1 -1</clus>
<clus scale="   90.071">  7  8 -1 -1</clus>
<clus scale="  143.048">  5  9 -1 -1</clus>
<clus scale="  147.430">  2  7  1 -1</clus>
<clus scale="  271.359">  1  5  2 -1</clus>
</clustering>
</event>
<event>
 9    1  0.2728138E-005  0.1651099E+03  0.7546771E-02  0.1205439E+00
          1   -1    0    0  502    0 -0.00000000000E+00  0.00000000000E+00  0.12151131895E+03  0.12151131895E+03  0.00000000000E+00 0. -1.
         21   -1    0    0  501  502  0.00000000000E+00 -0.00000000000E+00 -0.14750075695E+03  0.14750075695E+03  0.00000000000E+00 0. -1.
         23    2    1    2    0    0 -0.21506727002E+02 -0.32987942637E+02  0.44229048717E+01  0.10112460401E+03  0.93036980723E+02 0.  0.
        -24    2    1    2    0    0 -0.13692241644E+02  0.70318066783E+02 -0.40190782209E+02  0.11565603080E+03  0.81418121371E+02 0.  0.
         11    1    4    4    0    0 -0.55658827215E+01  0.87962922682E+02 -0.38422153969E+02  0.96149449987E+02  0.00000000000E+00 0. -1.
        -12    1    4    4    0    0 -0.81263589227E+01 -0.17644855898E+02 -0.17686282405E+01  0.19506580809E+02  0.00000000000E+00 0.  1.
        -11    1    3    3    0    0 -0.49224561143E+02 -0.43571600823E+02  0.18489674089E+02  0.68289163606E+02  0.00000000000E+00 0.  1.
         11    1    3    3    0    0  0.27717834141E+02  0.10583658187E+02 -0.14066769217E+02  0.32835440400E+02  0.00000000000E+00 0. -1.
          2    1    1    2  501    0  0.35198968646E+02 -0.37330124146E+02  0.97784393411E+01  0.52231441091E+02  0.00000000000E+00 0. -1.
<scales pt_clust_5="13000.00000" pt_clust_6="13000.00000" pt_clust_7="13000.00000" pt_clust_8="13000.00000" pt_clust_9="13000.00000"></scales>
<clustering>
<clus scale="   81.418">  5  6 -1 -1</clus>
<clus scale="   51.308">  5  9 -1 -1</clus>
<clus scale="   93.037">  7  8 -1 -1</clus>
<clus scale="  101.028">  1  7  2 -1</clus>
<clus scale="  165.110">  2  5  1 -1</clus>
</clustering>
</event>
<event>
 9    1  0.2728138E-005  0.2698877E+03  0.7546771E-02  0.1127007E+00
          1   -1    0    0  502    0 -0.00000000000E+00  0.00000000000E+00  0.29552032978E+03  0.29552032978E+03  0.00000000000E+00 0. -1.
         21   -1    0    0  501  502  0.00000000000E+00 -0.00000000000E+00 -0.14294430366E+03  0.14294430366E+03  0.00000000000E+00 0.  1.
         23    2    1    2    0    0 -0.61898329694E+02 -0.93985427092E+02  0.47650109028E+02  0.14889802145E+03  0.85061296576E+02 0.  0.
        -24    2    1    2    0    0 -0.65335777011E+02 -0.87594934063E+01  0.44240246113E+02  0.11513098702E+03  0.83381366706E+02 0.  0.
         11    1    4    4    0    0 -0.24994675180E+01  0.24581578142E+02  0.35799115759E+02  0.43498023070E+02  0.00000000000E+00 0. -1.
        -12    1    4    4    0    0 -0.62836309493E+02 -0.33341071548E+02  0.84411303532E+01  0.71632963950E+02  0.00000000000E+00 0.  1.
        -13    1    3    3    0    0 -0.47802001711E+02 -0.22610420744E+02  0.54358066037E+02  0.75835755664E+02  0.00000000000E+00 0. -1.
         13    1    3    3    0    0 -0.14096327983E+02 -0.71375006348E+02 -0.67079570095E+01  0.73062265781E+02  0.00000000000E+00 0.  1.
          2    1    1    2  501    0  0.12723410671E+03  0.10274492050E+03  0.60685670983E+02  0.17443562497E+03  0.00000000000E+00 0. -1.
<scales pt_clust_5="13000.00000" pt_clust_6="13000.00000" pt_clust_7="13000.00000" pt_clust_8="13000.00000" pt_clust_9="13000.00000"></scales>
<clustering>
<clus scale="   83.381">  5  6 -1 -1</clus>
<clus scale="   85.061">  7  8 -1 -1</clus>
<clus scale="  141.068">  1  7  2 -1</clus>
<clus scale="  101.712">  5  9 -1 -1</clus>
<clus scale="  269.888">  2  5  1 -1</clus>
</clustering>
</event>
<event>
 9    1  0.2728138E-005  0.1887549E+03  0.7546771E-02  0.1167333E+00
         21   -1    0    0  501  502  0.00000000000E+00  0.00000000000E+00  0.16270600458E+03  0.16270600458E+03  0.00000000000E+00 0. -1.
          1   -1    0    0  502    0 -0.00000000000E+00 -0.00000000000E+00 -0.25307769919E+03  0.25307769919E+03  0.00000000000E+00 0. -1.
         23    2    1    2    0    0 -0.72489452521E+02  0.10563389844E+03 -0.15012362138E+03  0.21779708863E+03  0.92115302165E+02 0.  0.
        -24    2    1    2    0    0 -0.37598474339E+01 -0.36172829325E+02  0.18888592198E+02  0.87042449105E+02  0.76791920127E+02 0.  0.
         11    1    4    4    0    0 -0.33514306284E+02 -0.41122494255E+02  0.34603838533E+01  0.53162416385E+02  0.00000000000E+00 0. -1.
        -12    1    4    4    0    0  0.29754458850E+02  0.49496649297E+01  0.15428208345E+02  0.33880032720E+02  0.00000000000E+00 0.  1.
        -13    1    3    3    0    0 -0.42419854519E+02 -0.14181098315E+01 -0.65560476977E+02  0.78100135943E+02  0.00000000000E+00 0.  1.
         13    1    3    3    0    0 -0.30069598002E+02  0.10705200827E+03 -0.84563144404E+02  0.13969695268E+03  0.00000000000E+00 0. -1.
          2    1    1    2  501    0  0.76249299955E+02 -0.69461069110E+02  0.40863334571E+02  0.11094416604E+03  0.00000000000E+00 0. -1.
<scales pt_clust_5="13000.00000" pt_clust_6="13000.00000" pt_clust_7="13000.00000" pt_clust_8="13000.00000" pt_clust_9="13000.00000"></scales>
<clustering>
<clus scale="   76.792">  5  6 -1 -1</clus>
<clus scale="   92.115">  7  8 -1 -1</clus>
<clus scale="  103.145">  5  9 -1 -1</clus>
<clus scale="  157.792">  2  7  1 -1</clus>
<clus scale="  188.755">  1  5  2 -1</clus>
</clustering>
</event>
<event>
 9    1  0.2728138E-005  0.2313856E+03  0.7546771E-02  0.1160831E+00
         21   -1    0    0  501  502  0.00000000000E+00  0.00000000000E+00  0.84415791899E+02  0.84415791899E+02  0.00000000000E+00 0.  1.
         -2   -1    0    0    0  501 -0.00000000000E+00 -0.00000000000E+00 -0.32822782343E+03  0.32822782343E+03  0.00000000000E+00 0.  1.
         23    2    1    2    0    0  0.38867934341E+02  0.51934440490E+01 -0.94541566017E+02  0.13728758237E+03  0.91499095009E+02 0.  0.
        -24    2    1    2    0    0 -0.16538761203E+02  0.25046146781E+02  0.31071837689E+02  0.91137762553E+02  0.80248318207E+02 0.  0.
         11    1    4    4    0    0  0.95756949213E+01 -0.23737531572E+02 -0.35861852354E+01  0.25846180819E+02  0.00000000000E+00 0. -1.
        -12    1    4    4    0    0 -0.26114456124E+02  0.48783678353E+02  0.34658022924E+02  0.65291581734E+02  0.00000000000E+00 0.  1.
        -11    1    3    3    0    0  0.56861593106E+02 -0.14216743379E+02 -0.26586147525E+02  0.64359768513E+02  0.00000000000E+00 0.  1.
         11    1    3    3    0    0 -0.17993658765E+02  0.19410187428E+02 -0.67955418492E+02  0.72927813859E+02  0.00000000000E+00 0. -1.
         -1    1    1    2    0  502 -0.22329173139E+02 -0.30239590830E+02 -0.18034230320E+03  0.18421827040E+03  0.00000000000E+00 0.  1.
<scales pt_clust_5="13000.00000" pt_clust_6="13000.00000" pt_clust_7="13000.00000" pt_clust_8="13000.00000" pt_clust_9="13000.00000"></scales>
<clustering>
<clus scale="   80.248">  5  6 -1 -1</clus>
<clus scale="   37.590">  5  9 -1 -1</clus>
<clus scale="   91.499">  7  8 -1 -1</clus>
<clus scale="   99.548">  2  7  1 -1</clus>
<clus scale="  231.386">  1  5  2 -1</clus>
</clustering>
</event>
<event>
 9    1  0.2728138E-005  0.3962759E+03  0.7546771E-02  0.1091230E+00
         21   -1    0    0  501  502  0.00000000000E+00  0.00000000000E+00  0.58135116118E+03  0.58135116118E+03  0.00000000000E+00 0. -1.
          1   -1    0    0  502    0 -0.00000000000E+00 -0.00000000000E+00 -0.11792567447E+03  0.11792567447E+03  0.00000000000E+00 0. -1.
         23    2    1    2    0    0 -0.61338756466E+02 -0.29328604021E+01  0.18212658210E+03  0.21331011059E+03  0.92520628264E+02 0.  0.
        -24    2    1    2    0    0 -0.12168747203E+03  0.34946257141E+02  0.16535924556E+01  0.15022134758E+03  0.80837102641E+02 0.  0.
         11    1    4    4    0    0 -0.76799900063E+02  0.61207496205E+02  0.97848714772E+00  0.98211708459E+02  0.00000000000E+00 0. -1.
        -12    1    4    4    0    0 -0.44887571969E+02 -0.26261239064E+02  0.67510530787E+00  0.52009639122E+02  0.00000000000E+00 0.  1.
        -11    1    3    3    0    0 -0.26481687499E+02  0.12696156251E+02  0.17102636874E+03  0.17352951035E+03  0.00000000000E+00 0.  1.
         11    1    3    3    0    0 -0.34857068967E+02 -0.15629016653E+02  0.11100213359E+02  0.39780600236E+02  0.00000000000E+00 0. -1.
          2    1    1    2  501    0  0.18302622850E+03 -0.32013396739E+02  0.27964531215E+03  0.33574537748E+03  0.00000000000E+00 0. -1.
<scales pt_clust_5="13000.00000" pt_clust_6="13000.00000" pt_clust_7="13000.00000" pt_clust_8="13000.00000" pt_clust_9="13000.00000"></scales>
<clustering>
<clus scale="   80.837">  5  6 -1 -1</clus>
<clus scale="   92.521">  7  8 -1 -1</clus>
<clus scale="  111.046">  2  7  1 -1</clus>
<clus scale="  169.422">  5  9 -1 -1</clus>
<clus scale="  396.276">  1  5  2 -1</clus>
</clustering>
</event>
<event>
 9    1  0.2728138E-005  0.1650905E+03  0.7546771E-02  0.1208448E+00
         -2   -1    0    0    0  501 -0.00000000000E+00  0.00000000000E+00  0.48024639899E+03  0.48024639899E+03  0.00000000000E+00 0.  1.
         21   -1    0    0  501  502  0.00000000000E+00 -0.00000000000E+00 -0.53463532893E+02  0.53463532893E+02  0.00000000000E+00 0. -1.
         23    2    1    2    0    0 -0.23499324906E+02  0.28298647076E+02  0.32780606744E+03  0.34122280115E+03  0.87310654996E+02 0.  0.
        -24    2    1    2    0    0 -0.73769743941E+01  0.23202744550E+02  0.12257245056E+02  0.87007179206E+02  0.82627005701E+02 0.  0.
         11    1    4    4    0    0 -0.36678830955E+02  0.18273835541E+02 -0.17857928978E+02  0.44700954498E+02  0.00000000000E+00 0. -1.
        -12    1    4    4    0    0  0.29301856561E+02  0.49289090093E+01  0.30115174034E+02  0.42306224708E+02  0.00000000000E+00 0.  1.
        -11    1    3    3    0    0 -0.55428885966E+02  0.25789057918E+02  0.24294586842E+03  0.25051972355E+03  0.00000000000E+00 0.  1.
         11    1    3    3    0    0  0.31929561060E+02  0.25095891584E+01  0.84860199026E+02  0.90703077599E+02  0.00000000000E+00 0. -1.
         -1    1    1    2    0  502  0.30876299300E+02 -0.51501391626E+02  0.86719553605E+02  0.10547995153E+03  0.00000000000E+00 0.  1.
<scales pt_clust_5="13000.00000" pt_clust_6="13000.00000" pt_clust_7="13000.00000" pt_clust_8="13000.00000" pt_clust_9="13000.00000"></scales>
<clustering>
<clus scale="   82.627">  5  6 -1 -1</clus>
<clus scale="   60.048">  5  9 -1 -1</clus>
<clus scale="   87.311">  7  8 -1 -1</clus>
<clus scale="   94.743">  1  7  2 -1</clus>
<clus scale="  165.091">  2  5  1 -1</clus>
</clustering>
</event>
<event>
 9    1  0.2728138E-005  0.1260027E+03  0.7546771E-02  0.1245268E+00
          1   -1    0    0  502    0 -0.00000000000E+00  0.00000000000E+00  0.57350189993E+03  0.57350189993E+03  0.00000000000E+00 0. -1.
         21   -1    0    0  501  502  0.00000000000E+00 -0.00000000000E+00 -0.22140612409E+02  0.22140612409E+02  0.00000000000E+00 0. -1.
         23    2    1    2    0    0  0.11037863504E+02  0.35618686248E+02  0.23207405051E+03  0.25239183969E+03  0.91938841552E+02 0.  0.
        -24    2    1    2    0    0 -0.11174167978E+02 -0.56671366988E+02  0.20851304519E+03  0.23049360848E+03  0.79455066970E+02 0.  0.
         11    1    4    4    0    0  0.11169754539E+01 -0.25133050138E+02  0.69389002965E+01  0.26097244696E+02  0.00000000000E+00 0. -1.
        -12    1    4    4    0    0 -0.12291143432E+02 -0.31538316850E+02  0.20157414490E+03  0.20439636378E+03  0.00000000000E+00 0.  1.
        -13    1    3    3    0    0 -0.10498577012E+02 -0.27057875547E+02  0.10672922044E+03  0.11060504167E+03  0.00000000000E+00 0.  1.
         13    1    3    3    0    0  0.21536440516E+02  0.62676561795E+02  0.12534483007E+03  0.14178679802E+03  0.00000000000E+00 0. -1.
          2    1    1    2  501    0  0.13630447401E+00  0.21052680740E+02  0.11077419182E+03  0.11275706417E+03  0.00000000000E+00 0. -1.
<scales pt_clust_5="13000.00000" pt_clust_6="13000.00000" pt_clust_7="13000.00000" pt_clust_8="13000.00000" pt_clust_9="13000.00000"></scales>
<clustering>
<clus scale="   79.455">  5  6 -1 -1</clus>
<clus scale="   21.053">  5  9 -1 -1</clus>
<clus scale="   91.939">  7  8 -1 -1</clus>
<clus scale="   99.213">  1  7  2 -1</clus>
<clus scale="  126.003">  2  5  1 -1</clus>
</clustering>
</event>
<event>
 9    1  0.2728138E-005  0.2045957E+03  0.7546771E-02  0.1169235E+00
         21   -1    0    0  501  502  0.00000000000E+00  0.00000000000E+00  0.27712306694E+03  0.27712306694E+03  0.00000000000E+00 0.  1.
          1   -1    0    0  502    0 -0.00000000000E+00 -0.00000000000E+00 -0.14730376440E+03  0.14730376440E+03  0.00000000000E+00 0. -1.
         23    2    1    2    0    0 -0.28348947433E+02  0.71032633322E+02 -0.70590113117E+02  0.13802966679E+03  0.90663813211E+02 0.  0.
        -24    2    1    2    0    0 -0.13222045207E+02 -0.90284973104E+02  0.52868394637E+02  0.13190718786E+03  0.79235346975E+02 0.  0.
         13    1    4    4    0    0 -0.23745260587E+02 -0.35157160991E+02  0.61919090638E+02  0.75058891244E+02  0.00000000000E+00 0. -1.
        -14    1    4    4    0    0  0.10523215380E+02 -0.55127812112E+02 -0.90506960010E+01  0.56848296618E+02  0.00000000000E+00 0.  1.
        -11    1    3    3    0    0  0.21353912856E+02  0.10089017041E+02 -0.52159491581E+02  0.57257230296E+02  0.00000000000E+00 0.  1.
         11    1    3    3    0    0 -0.49702860289E+02  0.60943616281E+02 -0.18430621535E+02  0.80772436490E+02  0.00000000000E+00 0. -1.
          2    1    1    2  501    0  0.41570992640E+02  0.19252339782E+02  0.14754102102E+03  0.15448997669E+03  0.00000000000E+00 0. -1.
<scales pt_clust_5="13000.00000" pt_clust_6="13000.00000" pt_clust_7="13000.00000" pt_clust_8="13000.00000" pt_clust_9="13000.00000"></scales>
<clustering>
<clus scale="   79.235">  5  6 -1 -1</clus>
<clus scale="   45.813">  5  9 -1 -1</clus>
<clus scale="   90.664">  7  8 -1 -1</clus>
<clus scale="  118.614">  2  7  1 -1</clus>
<clus scale="  204.596">  1  5  2 -1</clus>
</clustering>
</event>
<event>
 9    1  0.2728138E-005  0.2758612E+03  0.7546771E-02  0.1101599E+00
         21   -1    0    0  501  502  0.00000000000E+00  0.00000000000E+00  0.24370809135E+03  0.24370809135E+03  0.00000000000E+00 0. -1.
          1   -1    0    0  502    0 -0.00000000000E+00 -0.00000000000E+00 -0.33192847413E+03  0.33192847413E+03  0.00000000000E+00 0. -1.
         23    2    1    2    0    0  0.22049265243E+02 -0.23309313194E+03 -0.15065349758E+03  0.29279863698E+03  0.90642083116E+02 0.  0.
        -24    2    1    2    0    0 -0.46953833304E+02  0.91824507118E+02  0.43557351908E+02  0.13815428638E+03  0.80950363626E+02 0.  0.
         11    1    4    4    0    0 -0.25970073368E+02  0.88463500973E+02  0.61094035091E+02  0.11060161318E+03  0.00000000000E+00 0. -1.
        -12    1    4    4    0    0 -0.20983759937E+02  0.33610061457E+01 -0.17536683183E+02  0.27552673199E+02  0.00000000000E+00 0.  1.
        -13    1    3    3    0    0  0.52472182690E+02 -0.15133037703E+03 -0.12071550582E+03  0.20056531682E+03  0.00000000000E+00 0.  1.
         13    1    3    3    0    0 -0.30422917447E+02 -0.81762754917E+02 -0.29937991755E+02  0.92233320161E+02  0.00000000000E+00 0. -1.
          2    1    1    2  501    0  0.24904568061E+02  0.14126862482E+03  0.18875762882E+02  0.14468364211E+03  0.00000000000E+00 0. -1.
<scales pt_clust_5="13000.00000" pt_clust_6="13000.00000" pt_clust_7="13000.00000" pt_clust_8="13000.00000" pt_clust_9="13000.00000"></scales>
<clustering>
<clus scale="   80.950">  5  6 -1 -1</clus>
<clus scale="   90.642">  7  8 -1 -1</clus>
<clus scale="  143.447">  5  9 -1 -1</clus>
<clus scale="  251.067">  2  7  1 -1</clus>
<clus scale="  275.861">  1  5  2 -1</clus>
</clustering>
</event>
<event>
 9    1  0.2728138E-005  0.3507779E+03  0.7546771E-02  0.1106735E+00
         21   -1    0    0  501  502  0.00000000000E+00  0.00000000000E+00  0.81083263849E+02  0.81083263849E+02  0.00000000000E+00 0.  1.
          1   -1    0    0  502    0 -0.00000000000E+00 -0.00000000000E+00 -0.67223401286E+03  0.67223401286E+03  0.00000000000E+00 0. -1.
         23    2    1    2    0    0  0.56069433733E+01 -0.58521187165E+02 -0.80941977498E+02  0.13415805374E+03  0.89390225974E+02 0.  0.
        -24    2    1    2    0    0  0.14573262742E+03 -0.29741001502E+02 -0.19150463740E+03  0.25547501280E+03  0.80442091914E+02 0.  0.
         13    1    4    4    0    0  0.63967743568E+02 -0.47172532429E+02 -0.12725315229E+03  0.15003494527E+03  0.00000000000E+00 0. -1.
        -14    1    4    4    0    0  0.81764883849E+02  0.17431530927E+02 -0.64251485110E+02  0.10544006753E+03  0.00000000000E+00 0.  1.
        -13    1    3    3    0    0 -0.21712547607E+02 -0.72564555163E+02 -0.51376778026E+02  0.91523891470E+02  0.00000000000E+00 0.  1.
         13    1    3    3    0    0  0.27319490981E+02  0.14043367998E+02 -0.29565199473E+02  0.42634162265E+02  0.00000000000E+00 0. -1.
          2    1    1    2  501    0 -0.15133957079E+03  0.88262188667E+02 -0.31870413411E+03  0.36368421018E+03  0.00000000000E+00 0. -1.
<scales pt_clust_5="13000.00000" pt_clust_6="13000.00000" pt_clust_7="13000.00000" pt_clust_8="13000.00000" pt_clust_9="13000.00000"></scales>
<clustering>
<clus scale="   80.442">  5  6 -1 -1</clus>
<clus scale="   89.390">  7  8 -1 -1</clus>
<clus scale="  106.990">  2  7  1 -1</clus>
<clus scale="  157.125">  5  9 -1 -1</clus>
<clus scale="  350.778">  1  5  2 -1</clus>
</clustering>
</event>
<event>
 9    1  0.2728138E-005  0.5554948E+03  0.7546771E-02  0.1038190E+00
          1   -1    0    0  502    0 -0.00000000000E+00  0.00000000000E+00  0.51828323594E+03  0.51828323594E+03  0.00000000000E+00 0. -1.
         21   -1    0    0  501  502  0.00000000000E+00 -0.00000000000E+00 -0.37967881662E+03  0.37967881662E+03  0.00000000000E+00 0.  1.
         23    2    1    2    0    0  0.14944715608E+03 -0.23760441530E+02  0.27467460861E+03  0.32604463284E+03  0.89218557209E+02 0.  0.
        -24    2    1    2    0    0  0.14321150409E+03 -0.21700307811E+02  0.99741586569E+02  0.19333722382E+03  0.80314754306E+02 0.  0.
         11    1    4    4    0    0  0.77269042462E+02 -0.16002124481E+02  0.99701046777E+02  0.12714901352E+03  0.00000000000E+00 0. -1.
        -12    1    4    4    0    0  0.65942461627E+02 -0.56981833298E+01  0.40539792165E-01  0.66188210296E+02  0.00000000000E+00 0.  1.
        -13    1    3    3    0    0  0.24172457633E+02 -0.15705599766E+01  0.10006614366E+01  0.24244085670E+02  0.00000000000E+00 0.  1.
         13    1    3    3    0    0  0.12527469844E+03 -0.22189881553E+02  0.27367394717E+03  0.30180054717E+03  0.00000000000E+00 0. -1.
          2    1    1    2  501    0 -0.29265866016E+03  0.45460749341E+02 -0.23581177585E+03  0.37858019590E+03  0.00000000000E+00 0. -1.
<scales pt_clust_5="13000.00000" pt_clust_6="13000.00000" pt_clust_7="13000.00000" pt_clust_8="13000.00000" pt_clust_9="13000.00000"></scales>
<clustering>
<clus scale="   80.315">  5  6 -1 -1</clus>
<clus scale="   89.219">  7  8 -1 -1</clus>
<clus scale="  175.667">  1  7  2 -1</clus>
<clus scale="  246.600">  5  9 -1 -1</clus>
<clus scale="  555.495">  2  5  1 -1</clus>
</clustering>
</event>
<event>
 9    1  0.2728138E-005  0.1622936E+03  0.7546771E-02  0.1210883E+00
         21   -1    0    0  501  502  0.00000000000E+00  0.00000000000E+00  0.11963851999E+03  0.11963851999E+03  0.00000000000E+00 0. -1.
          1   -1    0    0  502    0 -0.00000000000E+00 -0.00000000000E+00 -0.21462668207E+03  0.21462668207E+03  0.00000000000E+00 0. -1.
         23    2    1    2    0    0 -0.22300378566E+02  0.15354319947E+02 -0.13708827742E+03  0.16659992399E+03  0.90715361656E+02 0.  0.
        -24    2    1    2    0    0  0.85373703514E+01  0.47714056303E+02  0.27932313808E+02  0.10157619367E+03  0.84782021111E+02 0.  0.
         13    1    4    4    0    0  0.11216128546E+02  0.69906957966E+02  0.33814152391E+02  0.78461335787E+02  0.00000000000E+00 0. -1.
        -14    1    4    4    0    0 -0.26787581948E+01 -0.22192901663E+02 -0.58818385822E+01  0.23114857879E+02  0.00000000000E+00 0.  1.
        -13    1    3    3    0    0 -0.93961922678E+01 -0.33777608766E+02 -0.23604817241E+02  0.42265857143E+02  0.00000000000E+00 0.  1.
         13    1    3    3    0    0 -0.12904186299E+02  0.49131928713E+02 -0.11348346018E+03  0.12433406684E+03  0.00000000000E+00 0. -1.
          2    1    1    2  501    0  0.13763008215E+02 -0.63068376250E+02  0.14167801534E+02  0.66089084411E+02  0.00000000000E+00 0. -1.
<scales pt_clust_5="13000.00000" pt_clust_6="13000.00000" pt_clust_7="13000.00000" pt_clust_8="13000.00000" pt_clust_9="13000.00000"></scales>
<clustering>
<clus scale="   84.782">  5  6 -1 -1</clus>
<clus scale="   64.553">  5  9 -1 -1</clus>
<clus scale="   90.715">  7  8 -1 -1</clus>
<clus scale="   94.670">  2  7  1 -1</clus>
<clus scale="  162.294">  1  5  2 -1</clus>
</clustering>
</event>
<event>
 9    1  0.2728138E-005  0.1858894E+03  0.7546771E-02  0.1174287E+00
         21   -1    0    0  501  502  0.00000000000E+00  0.00000000000E+00  0.47546808712E+02  0.47546808712E+02  0.00000000000E+00 0.  1.
         -4   -1    0    0    0  501 -0.00000000000E+00 -0.00000000000E+00 -0.56523945432E+03  0.56523945432E+03  0.00000000000E+00 0.  1.
         23    2    1    2    0    0 -0.24980995875E+02 -0.10285040617E+03 -0.19925299680E+03  0.24406051258E+03  0.93067292127E+02 0.  0.
        -24    2    1    2    0    0 -0.37462513331E+02  0.66278958978E+02 -0.21433174281E+03  0.24193805908E+03  0.82459615249E+02 0.  0.
         11    1    4    4    0    0 -0.21263356489E+02 -0.14708951484E+02 -0.27941248257E+02  0.38068319336E+02  0.00000000000E+00 0. -1.
        -12    1    4    4    0    0 -0.16199156842E+02  0.80987910462E+02 -0.18639049455E+03  0.20386973975E+03  0.00000000000E+00 0.  1.
        -11    1    3    3    0    0  0.23318167076E+02 -0.22795001379E+02 -0.11026151717E+03  0.11498239505E+03  0.00000000000E+00 0. -1.
         11    1    3    3    0    0 -0.48299162951E+02 -0.80055404790E+02 -0.88991479629E+02  0.12907811753E+03  0.00000000000E+00 0.  1.
         -3    1    1    2    0  502  0.62443509206E+02  0.36571447191E+02 -0.10410790600E+03  0.12678769137E+03  0.00000000000E+00 0.  1.
<scales pt_clust_5="13000.00000" pt_clust_6="13000.00000" pt_clust_7="13000.00000" pt_clust_8="13000.00000" pt_clust_9="13000.00000"></scales>
<clustering>
<clus scale="   82.460">  5  6 -1 -1</clus>
<clus scale="   72.365">  5  9 -1 -1</clus>
<clus scale="   93.067">  7  8 -1 -1</clus>
<clus scale="  140.939">  2  7  1 -1</clus>
<clus scale="  185.889">  1  5  2 -1</clus>
</clustering>
</event>
<event>
 9    1  0.2728138E-005  0.3619773E+03  0.7546771E-02  0.1099149E+00
          1   -1    0    0  502    0 -0.00000000000E+00  0.00000000000E+00  0.49126264043E+03  0.49126264043E+03  0.00000000000E+00 0. -1.
         21   -1    0    0  501  502  0.00000000000E+00 -0.00000000000E+00 -0.12917597439E+03  0.12917597439E+03  0.00000000000E+00 0. -1.
         23    2    1    2    0    0 -0.59406636899E+01  0.75051203042E+02  0.15744441824E+02  0.11945908892E+03  0.91403566196E+02 0.  0.
        -24    2    1    2    0    0 -0.13836734330E+03  0.11913198361E+02  0.25105638863E+03  0.30741558697E+03  0.11039740421E+03 0.  0.
         11    1    4    4    0    0 -0.14128538113E+03 -0.15536866483E+00  0.15176323903E+03  0.20734913499E+03  0.00000000000E+00 0. -1.
        -12    1    4    4    0    0  0.29180378346E+01  0.12068567025E+02  0.99293149597E+02  0.10006645198E+03  0.00000000000E+00 0.  1.
        -11    1    3    3    0    0  0.41572046148E+02  0.23647362757E+02  0.54988138989E+00  0.47830274470E+02  0.00000000000E+00 0. -1.
         11    1    3    3    0    0 -0.47512709838E+02  0.51403840285E+02  0.15194560434E+02  0.71628814446E+02  0.00000000000E+00 0.  1.
          2    1    1    2  501    0  0.14430800699E+03 -0.86964401402E+02  0.95285835583E+02  0.19356393893E+03  0.00000000000E+00 0. -1.
<scales pt_clust_5="13000.00000" pt_clust_6="13000.00000" pt_clust_7="13000.00000" pt_clust_8="13000.00000" pt_clust_9="13000.00000"></scales>
<clustering>
<clus scale="   91.404">  7  8 -1 -1</clus>
<clus scale="  110.397">  5  6 -1 -1</clus>
<clus scale="  118.417">  1  7  2 -1</clus>
<clus scale="  154.958">  5  9 -1 -1</clus>
<clus scale="  361.977">  2  5  1 -1</clus>
</clustering>
</event>
<event>
 9    1  0.2728138E-005  0.1394292E+03  0.7546771E-02  0.1233393E+00
          1   -1    0    0  502    0 -0.00000000000E+00  0.00000000000E+00  0.32994509759E+02  0.32994509759E+02  0.00000000000E+00 0. -1.
         21   -1    0    0  501  502  0.00000000000E+00 -0.00000000000E+00 -0.45789190375E+03  0.45789190375E+03  0.00000000000E+00 0. -1.
         23    2    1    2    0    0  0.65441697797E+01 -0.12854502576E+02 -0.25253002072E+03  0.26918611863E+03  0.92096094949E+02 0.  0.
        -24    2    1    2    0    0  0.59385289171E+01 -0.29111351027E+02 -0.10674208481E+03  0.14281031376E+03  0.90100922093E+02 0.  0.
         11    1    4    4    0    0 -0.39038126148E+02 -0.11581152305E+02 -0.74056789495E+02  0.84513350734E+02  0.00000000000E+00 0. -1.
        -12    1    4    4    0    0  0.44976655065E+02 -0.17530198722E+02 -0.32685295310E+02  0.58296963022E+02  0.00000000000E+00 0.  1.
        -11    1    3    3    0    0 -0.15869630761E+02  0.30744670781E+02 -0.16750294961E+03  0.17103893735E+03  0.00000000000E+00 0.  1.
         11    1    3    3    0    0  0.22413800540E+02 -0.43599173357E+02 -0.85027071110E+02  0.98147181282E+02  0.00000000000E+00 0. -1.
          2    1    1    2  501    0 -0.12482698697E+02  0.41965853602E+02 -0.65625288473E+02  0.78889981129E+02  0.00000000000E+00 0. -1.
<scales pt_clust_5="13000.00000" pt_clust_6="13000.00000" pt_clust_7="13000.00000" pt_clust_8="13000.00000" pt_clust_9="13000.00000"></scales>
<clustering>
<clus scale="   90.101">  5  6 -1 -1</clus>
<clus scale="   43.783">  5  9 -1 -1</clus>
<clus scale="   92.096">  7  8 -1 -1</clus>
<clus scale="   93.219">  1  7  2 -1</clus>
<clus scale="  139.429">  2  5  1 -1</clus>
</clustering>
</event>
<event>
 9    1  0.2728138E-005  0.1674621E+03  0.7546771E-02  0.1197421E+00
         21   -1    0    0  501  502  0.00000000000E+00  0.00000000000E+00  0.42532292296E+02  0.42532292296E+02  0.00000000000E+00 0.  1.
          1   -1    0    0  502    0 -0.00000000000E+00 -0.00000000000E+00 -0.58676572398E+03  0.58676572398E+03  0.00000000000E+00 0. -1.
         23    2    1    2    0    0 -0.25598783984E+02  0.64771018258E+02 -0.93202144860E+02  0.14818183877E+03  0.91764017935E+02 0.  0.
        -24    2    1    2    0    0  0.59479273007E+02 -0.40014074543E+02 -0.40680710082E+03  0.42015247990E+03  0.76793092172E+02 0.  0.
         11    1    4    4    0    0  0.71792743721E+02 -0.50017766507E+02 -0.36731741883E+03  0.37759510218E+03  0.00000000000E+00 0. -1.
        -12    1    4    4    0    0 -0.12313470715E+02  0.10003691965E+02 -0.39489681991E+02  0.42557377712E+02  0.00000000000E+00 0.  1.
        -11    1    3    3    0    0 -0.55821347437E+02  0.63777444092E+02 -0.64714886075E+02  0.10663771230E+03  0.00000000000E+00 0.  1.
         11    1    3    3    0    0  0.30222563453E+02  0.99357416541E+00 -0.28487258785E+02  0.41544126472E+02  0.00000000000E+00 0. -1.
          2    1    1    2  501    0 -0.33880489023E+02 -0.24756943715E+02 -0.44224186000E+02  0.60963697607E+02  0.00000000000E+00 0. -1.
<scales pt_clust_5="13000.00000" pt_clust_6="13000.00000" pt_clust_7="13000.00000" pt_clust_8="13000.00000" pt_clust_9="13000.00000"></scales>
<clustering>
<clus scale="   76.793">  5  6 -1 -1</clus>
<clus scale="   41.962">  5  9 -1 -1</clus>
<clus scale="   91.764">  7  8 -1 -1</clus>
<clus scale="  115.201">  2  7  1 -1</clus>
<clus scale="  167.462">  1  5  2 -1</clus>
</clustering>
</event>
<event>
 9    1  0.2728138E-005  0.1325974E+03  0.7546771E-02  0.1236409E+00
          1   -1    0    0  502    0 -0.00000000000E+00  0.00000000000E+00  0.47582064934E+03  0.47582064934E+03  0.00000000000E+00 0. -1.
         21   -1    0    0  501  502  0.00000000000E+00 -0.00000000000E+00 -0.92076777087E+02  0.92076777087E+02  0.00000000000E+00 0. -1.
         23    2    1    2    0    0 -0.44264012761E+02 -0.16317020854E+02  0.41857791878E+03  0.43080077697E+03  0.90312166132E+02 0.  0.
        -24    2    1    2    0    0  0.25457887309E+02  0.61022468094E+01 -0.38041473253E+02  0.11545641958E+03  0.10581913670E+03 0.  0.
         11    1    4    4    0    0  0.14128289703E+02  0.35769420144E+02 -0.63847971116E+02  0.74536054383E+02  0.00000000000E+00 0. -1.
        -12    1    4    4    0    0  0.11329597606E+02 -0.29667173334E+02  0.25806497863E+02  0.40920365193E+02  0.00000000000E+00 0.  1.
        -13    1    3    3    0    0 -0.66592083168E+02 -0.32681085840E+02  0.30937719548E+03  0.31814589105E+03  0.00000000000E+00 0. -1.
         13    1    3    3    0    0  0.22328070407E+02  0.16364064986E+02  0.10920072330E+03  0.11265488592E+03  0.00000000000E+00 0.  1.
          2    1    1    2  501    0  0.18806125452E+02  0.10214774044E+02  0.32074267296E+01  0.21640229886E+02  0.00000000000E+00 0. -1.
<scales pt_clust_5="13000.00000" pt_clust_6="13000.00000" pt_clust_7="13000.00000" pt_clust_8="13000.00000" pt_clust_9="13000.00000"></scales>
<clustering>
<clus scale="   90.312">  7  8 -1 -1</clus>
<clus scale="  101.891">  1  7  2 -1</clus>
<clus scale="  105.819">  5  6 -1 -1</clus>
<clus scale="   10.192">  5  9 -1 -1</clus>
<clus scale="  132.597">  2  5  1 -1</clus>
</clustering>
</event>
<event>
 9    1  0.2728138E-005  0.1830944E+03  0.7546771E-02  0.1193901E+00
         -2   -1    0    0    0  501 -0.00000000000E+00  0.00000000000E+00  0.80079934054E+02  0.80079934054E+02  0.00000000000E+00 0.  1.
         21   -1    0    0  501  502  0.00000000000E+00 -0.00000000000E+00 -0.25300676834E+03  0.25300676834E+03  0.00000000000E+00 0.  1.
         23    2    1    2    0    0 -0.17911658084E+02  0.17633914230E+02 -0.26996184761E+02  0.98951431448E+02  0.91819438942E+02 0.  0.
        -24    2    1    2    0    0 -0.50034057260E+02  0.32054650239E+02 -0.65789558340E+02  0.11791062567E+03  0.77741508682E+02 0.  0.
         11    1    4    4    0    0 -0.17166763791E+02  0.45302512029E+02 -0.66729785052E+02  0.82461382406E+02  0.00000000000E+00 0. -1.
        -12    1    4    4    0    0 -0.32867293469E+02 -0.13247861790E+02  0.94022671148E+00  0.35449243267E+02  0.00000000000E+00 0.  1.
        -11    1    3    3    0    0 -0.23056035869E+02  0.38660521709E+02  0.18422912080E+02  0.48637644046E+02  0.00000000000E+00 0.  1.
         11    1    3    3    0    0  0.51443777854E+01 -0.21026607479E+02 -0.45419096841E+02  0.50313787402E+02  0.00000000000E+00 0. -1.
         -1    1    1    2    0  502  0.67945715344E+02 -0.49688564469E+02 -0.80141091184E+02  0.11622464527E+03  0.00000000000E+00 0.  1.
<scales pt_clust_5="13000.00000" pt_clust_6="13000.00000" pt_clust_7="13000.00000" pt_clust_8="13000.00000" pt_clust_9="13000.00000"></scales>
<clustering>
<clus scale="   77.742">  5  6 -1 -1</clus>
<clus scale="   84.176">  5  9 -1 -1</clus>
<clus scale="   91.819">  7  8 -1 -1</clus>
<clus scale="   95.198">  1  7  2 -1</clus>
<clus scale="  183.094">  2  5  1 -1</clus>
</clustering>
</event>
<event>
 9    1  0.2728138E-005  0.1915920E+03  0.7546771E-02  0.1162290E+00
         21   -1    0    0  501  502  0.00000000000E+00  0.00000000000E+00  0.86502246395E+02  0.86502246395E+02  0.00000000000E+00 0. -1.
          1   -1    0    0  502    0 -0.00000000000E+00 -0.00000000000E+00 -0.43168697067E+03  0.43168697067E+03  0.00000000000E+00 0. -1.
         23    2    1    2    0    0  0.10631323400E+03  0.96278417851E+02 -0.25556440230E+03  0.30667256669E+03  0.90348558185E+02 0.  0.
        -24    2    1    2    0    0 -0.28576360972E+02 -0.67859327919E+02 -0.41873422639E+02  0.11596335375E+03  0.79199868035E+02 0.  0.
         11    1    4    4    0    0 -0.25099247882E+02 -0.47848245713E+02  0.14582520432E+02  0.55964960146E+02  0.00000000000E+00 0. -1.
        -12    1    4    4    0    0 -0.34771130893E+01 -0.20011082206E+02 -0.56455943072E+02  0.59998393600E+02  0.00000000000E+00 0.  1.
        -11    1    3    3    0    0 -0.79961419230E+01  0.24530743309E+02 -0.12537032934E+02  0.28685760365E+02  0.00000000000E+00 0.  1.
         11    1    3    3    0    0  0.11430937593E+03  0.71747674542E+02 -0.24302736937E+03  0.27798680632E+03  0.00000000000E+00 0. -1.
          2    1    1    2  501    0 -0.77736873033E+02 -0.28419089932E+02 -0.47746899339E+02  0.95553296636E+02  0.00000000000E+00 0. -1.
<scales pt_clust_5="13000.00000" pt_clust_6="13000.00000" pt_clust_7="13000.00000" pt_clust_8="13000.00000" pt_clust_9="13000.00000"></scales>
<clustering>
<clus scale="   79.200">  5  6 -1 -1</clus>
<clus scale="   82.769">  5  9 -1 -1</clus>
<clus scale="   90.349">  7  8 -1 -1</clus>
<clus scale="  169.514">  2  7  1 -1</clus>
<clus scale="  191.592">  1  5  2 -1</clus>
</clustering>
</event>
<event>
 9    1  0.2728138E-005  0.4095225E+03  0.7546771E-02  0.1054593E+00
         21   -1    0    0  501  502  0.00000000000E+00  0.00000000000E+00  0.30917021885E+03  0.30917021885E+03  0.00000000000E+00 0. -1.
          1   -1    0    0  502    0 -0.00000000000E+00 -0.00000000000E+00 -0.41859720999E+03  0.41859720999E+03  0.00000000000E+00 0. -1.
         23    2    1    2    0    0  0.98175602771E+02  0.23912656739E+03 -0.15700328032E+03  0.31549059998E+03  0.89801583703E+02 0.  0.
        -24    2    1    2    0    0 -0.14512530898E+03 -0.23465745089E+03  0.13179195763E+03  0.31575467219E+03  0.78780824736E+02 0.  0.
         11    1    4    4    0    0 -0.92122376648E+02 -0.19585992194E+03  0.12442326250E+03  0.24965734428E+03  0.00000000000E+00 0. -1.
        -12    1    4    4    0    0 -0.53002932336E+02 -0.38797528950E+02  0.73686951361E+01  0.66097327910E+02  0.00000000000E+00 0.  1.
        -11    1    3    3    0    0  0.40453221704E+02  0.57546430316E+02 -0.28399873522E+01  0.70399718156E+02  0.00000000000E+00 0.  1.
         11    1    3    3    0    0  0.57722381068E+02  0.18158013707E+03 -0.15416329297E+03  0.24509088183E+03  0.00000000000E+00 0. -1.
          2    1    1    2  501    0  0.46949706212E+02 -0.44691164957E+01 -0.84215668443E+02  0.96522156664E+02  0.00000000000E+00 0. -1.
<scales pt_clust_5="13000.00000" pt_clust_6="13000.00000" pt_clust_7="13000.00000" pt_clust_8="13000.00000" pt_clust_9="13000.00000"></scales>
<clustering>
<clus scale="   78.781">  5  6 -1 -1</clus>
<clus scale="   47.162">  5  9 -1 -1</clus>
<clus scale="   89.802">  7  8 -1 -1</clus>
<clus scale="  273.650">  2  7  1 -1</clus>
<clus scale="  409.523">  1  5  2 -1</clus>
</clustering>
</event>
<event>
 9    1  0.2728138E-005  0.1931922E+03  0.7546771E-02  0.1170492E+00
         21   -1    0    0  501  502  0.00000000000E+00  0.00000000000E+00  0.27662874190E+03  0.27662874190E+03  0.00000000000E+00 0. -1.
          1   -1    0    0  502    0 -0.00000000000E+00 -0.00000000000E+00 -0.98988215710E+02  0.98988215710E+02  0.00000000000E+00 0. -1.
         23    2    1    2    0    0  0.69326847082E+02  0.64442286739E+02  0.87190467400E+02  0.16229922494E+03  0.98893077428E+02 0.  0.
        -24    2    1    2    0    0  0.24678769636E+02 -0.37329695670E+02  0.63386753764E+02  0.11180629958E+03  0.80499815054E+02 0.  0.
         13    1    4    4    0    0 -0.21479714366E+02 -0.51132334284E+01  0.48943324529E+02  0.53693317101E+02  0.00000000000E+00 0. -1.
        -14    1    4    4    0    0  0.46158484002E+02 -0.32216462242E+02  0.14443429235E+02  0.58112982481E+02  0.00000000000E+00 0.  1.
        -11    1    3    3    0    0  0.74115678990E+01  0.36618990158E+02  0.86711406414E+02  0.94417952642E+02  0.00000000000E+00 0.  1.
         11    1    3    3    0    0  0.61915279183E+02  0.27823296581E+02  0.47906098647E+00  0.67881272295E+02  0.00000000000E+00 0. -1.
          2    1    1    2  501    0 -0.94005616718E+02 -0.27112591069E+02  0.27063305023E+02  0.10151143309E+03  0.00000000000E+00 0. -1.
<scales pt_clust_5="13000.00000" pt_clust_6="13000.00000" pt_clust_7="13000.00000" pt_clust_8="13000.00000" pt_clust_9="13000.00000"></scales>
<clustering>
<clus scale="   80.500">  5  6 -1 -1</clus>
<clus scale="   97.837">  5  9 -1 -1</clus>
<clus scale="   98.893">  7  8 -1 -1</clus>
<clus scale="  136.890">  2  7  1 -1</clus>
<clus scale="  193.192">  1  5  2 -1</clus>
</clustering>
</event>
<event>
 9    1  0.2728138E-005  0.1327531E+03  0.7546771E-02  0.1232030E+00
         21   -1    0    0  501  502  0.00000000000E+00  0.00000000000E+00  0.24535232271E+02  0.24535232271E+02  0.00000000000E+00 0. -1.
          1   -1    0    0  502    0 -0.00000000000E+00 -0.00000000000E+00 -0.66891446655E+03  0.66891446655E+03  0.00000000000E+00 0. -1.
         23    2    1    2    0    0  0.32460901692E+02  0.52758542999E+02 -0.40239476235E+03  0.41744266777E+03  0.92193612116E+02 0.  0.
        -24    2    1    2    0    0 -0.15504473962E+02 -0.64258352583E+02 -0.15677878467E+03  0.18837270442E+03  0.80840360329E+02 0.  0.
         13    1    4    4    0    0 -0.29307981109E+02 -0.77725035037E+02 -0.11052897847E+03  0.13826349450E+03  0.00000000000E+00 0. -1.
        -14    1    4    4    0    0  0.13803507147E+02  0.13466682453E+02 -0.46249806194E+02  0.50109209920E+02  0.00000000000E+00 0.  1.
        -11    1    3    3    0    0  0.56850401254E+02  0.60262100495E+02 -0.26328136344E+03  0.27600827019E+03  0.00000000000E+00 0. -1.
         11    1    3    3    0    0 -0.24389499562E+02 -0.75035574957E+01 -0.13911339891E+03  0.14143439758E+03  0.00000000000E+00 0.  1.
          2    1    1    2  501    0 -0.16956427730E+02  0.11499809584E+02 -0.85205687260E+02  0.87634326626E+02  0.00000000000E+00 0. -1.
<scales pt_clust_5="13000.00000" pt_clust_6="13000.00000" pt_clust_7="13000.00000" pt_clust_8="13000.00000" pt_clust_9="13000.00000"></scales>
<clustering>
<clus scale="   80.840">  5  6 -1 -1</clus>
<clus scale="   20.488">  5  9 -1 -1</clus>
<clus scale="   92.194">  7  8 -1 -1</clus>
<clus scale="  111.071">  2  7  1 -1</clus>
<clus scale="  132.753">  1  5  2 -1</clus>
</clustering>
</event>
<event>
 9    1  0.2728138E-005  0.9396532E+03  0.7546771E-02  0.9841928E-01
          1   -1    0    0  502    0 -0.00000000000E+00  0.00000000000E+00  0.13836863412E+04  0.13836863412E+04  0.00000000000E+00 0. -1.
         21   -1    0    0  501  502  0.00000000000E+00 -0.00000000000E+00 -0.23146285918E+03  0.23146285918E+03  0.00000000000E+00 0. -1.
         23    2    1    2    0    0 -0.99993107487E+02  0.13599627883E+03  0.17970481395E+03  0.26283982365E+03  0.91089754295E+02 0.  0.
        -24    2    1    2    0    0 -0.28397513499E+03  0.22858699960E+03  0.59323964460E+03  0.70099903919E+03  0.81070853786E+02 0.  0.
         11    1    4    4    0    0 -0.20807716918E+03  0.15931325698E+03  0.48798451202E+03  0.55390044787E+03  0.00000000000E+00 0. -1.
        -12    1    4    4    0    0 -0.75897965815E+02  0.69273742624E+02  0.10525513258E+03  0.14709859131E+03  0.00000000000E+00 0.  1.
        -11    1    3    3    0    0 -0.11274287915E+03  0.98512635803E+02  0.12345856662E+03  0.19405595555E+03  0.00000000000E+00 0. -1.
         11    1    3    3    0    0  0.12749771663E+02  0.37483643024E+02  0.56246247325E+02  0.68783868094E+02  0.00000000000E+00 0.  1.
          2    1    1    2  501    0  0.38396824248E+03 -0.36458327843E+03  0.37927902344E+03  0.65131033752E+03  0.00000000000E+00 0. -1.
<scales pt_clust_5="13000.00000" pt_clust_6="13000.00000" pt_clust_7="13000.00000" pt_clust_8="13000.00000" pt_clust_9="13000.00000"></scales>
<clustering>
<clus scale="   81.071">  5  6 -1 -1</clus>
<clus scale="   91.090">  7  8 -1 -1</clus>
<clus scale="  191.810">  1  7  2 -1</clus>
<clus scale="  456.019">  5  9 -1 -1</clus>
<clus scale="  939.653">  2  5  1 -1</clus>
</clustering>
</event>
<event>
 9    1  0.2728138E-005  0.1527730E+03  0.7546771E-02  0.1206926E+00
         21   -1    0    0  501  502  0.00000000000E+00  0.00000000000E+00  0.17577104869E+03  0.17577104869E+03  0.00000000000E+00 0. -1.
          1   -1    0    0  502    0 -0.00000000000E+00 -0.00000000000E+00 -0.30789274972E+03  0.30789274972E+03  0.00000000000E+00 0. -1.
         23    2    1    2    0    0 -0.34222037694E+02 -0.75670933502E+02 -0.25778384993E+03  0.28584934794E+03  0.91433573660E+02 0.  0.
        -24    2    1    2    0    0  0.42756013374E+02  0.34629161355E+02  0.42519354918E+02  0.10470172314E+03  0.78277070650E+02 0.  0.
         11    1    4    4    0    0  0.64261369271E+02  0.15781364964E+02  0.36163676493E+02  0.75408133237E+02  0.00000000000E+00 0. -1.
        -12    1    4    4    0    0 -0.21505355897E+02  0.18847796391E+02  0.63556784242E+01  0.29293589901E+02  0.00000000000E+00 0.  1.
        -13    1    3    3    0    0 -0.59944860407E+02 -0.64463776031E+02 -0.14501000906E+03  0.16963745882E+03  0.00000000000E+00 0. -1.
         13    1    3    3    0    0  0.25722822712E+02 -0.11207157471E+02 -0.11277384087E+03  0.11621188912E+03  0.00000000000E+00 0.  1.
          2    1    1    2  501    0 -0.85339756797E+01  0.41041772147E+02  0.83142793981E+02  0.93112727341E+02  0.00000000000E+00 0. -1.
<scales pt_clust_5="13000.00000" pt_clust_6="13000.00000" pt_clust_7="13000.00000" pt_clust_8="13000.00000" pt_clust_9="13000.00000"></scales>
<clustering>
<clus scale="   78.277">  5  6 -1 -1</clus>
<clus scale="   41.920">  5  9 -1 -1</clus>
<clus scale="   91.434">  7  8 -1 -1</clus>
<clus scale="  123.521">  2  7  1 -1</clus>
<clus scale="  152.773">  1  5  2 -1</clus>
</clustering>
</event>
<event>
 9    1  0.2728138E-005  0.1946394E+03  0.7546771E-02  0.1171552E+00
          1   -1    0    0  502    0 -0.00000000000E+00  0.00000000000E+00  0.29661672009E+02  0.29661672009E+02  0.00000000000E+00 0. -1.
         21   -1    0    0  501  502  0.00000000000E+00 -0.00000000000E+00 -0.94209003812E+03  0.94209003812E+03  0.00000000000E+00 0. -1.
         23    2    1    2    0    0  0.55428810063E+02  0.75731682365E+02 -0.26117081788E+03  0.29203051072E+03  0.90906448489E+02 0.  0.
        -24    2    1    2    0    0 -0.87257336653E+02 -0.54714892503E+02 -0.60797257660E+03  0.62202935137E+03  0.81745322887E+02 0.  0.
         11    1    4    4    0    0 -0.89736625295E+02 -0.49577181932E+02 -0.36868365093E+03  0.38267243610E+03  0.00000000000E+00 0. -1.
        -12    1    4    4    0    0  0.24792886421E+01 -0.51377105714E+01 -0.23928892566E+03  0.23935691527E+03  0.00000000000E+00 0.  1.
        -13    1    3    3    0    0  0.34202270382E+02  0.34354845265E+02 -0.23227617672E+03  0.23728100000E+03  0.00000000000E+00 0. -1.
         13    1    3    3    0    0  0.21226539681E+02  0.41376837100E+02 -0.28894641167E+02  0.54749510714E+02  0.00000000000E+00 0.  1.
          2    1    1    2  501    0  0.31828526590E+02 -0.21016789861E+02 -0.43284971627E+02  0.57691848035E+02  0.00000000000E+00 0. -1.
<scales pt_clust_5="13000.00000" pt_clust_6="13000.00000" pt_clust_7="13000.00000" pt_clust_8="13000.00000" pt_clust_9="13000.00000"></scales>
<clustering>
<clus scale="   81.745">  5  6 -1 -1</clus>
<clus scale="   38.141">  5  9 -1 -1</clus>
<clus scale="   90.906">  7  8 -1 -1</clus>
<clus scale="  130.658">  1  7  2 -1</clus>
<clus scale="  194.639">  2  5  1 -1</clus>
</clustering>
</event>
<event>
 9    1  0.2728138E-005  0.2015517E+03  0.7546771E-02  0.1175511E+00
         21   -1    0    0  501  502  0.00000000000E+00  0.00000000000E+00  0.11636059837E+03  0.11636059837E+03  0.00000000000E+00 0.  1.
         -2   -1    0    0    0  501 -0.00000000000E+00 -0.00000000000E+00 -0.23979647547E+03  0.23979647547E+03  0.00000000000E+00 0.  1.
         23    2    1    2    0    0 -0.55741660769E+02 -0.63354740599E+01 -0.11049605137E+03  0.15419045239E+03  0.91749916962E+02 0.  0.
        -24    2    1    2    0    0 -0.39173208241E+02  0.33060948242E+02 -0.34397660120E+02  0.10105318337E+03  0.80006126672E+02 0.  0.
         11    1    4    4    0    0  0.24883267693E+02  0.78581573369E+01 -0.11410658717E+02  0.28480357795E+02  0.00000000000E+00 0. -1.
        -12    1    4    4    0    0 -0.64056475934E+02  0.25202790905E+02 -0.22987001403E+02  0.72572825575E+02  0.00000000000E+00 0.  1.
        -13    1    3    3    0    0 -0.63124592322E+02  0.28474175529E+02 -0.88437479356E+02  0.11232399825E+03  0.00000000000E+00 0.  1.
         13    1    3    3    0    0  0.73829315523E+01 -0.34809649589E+02 -0.22058572012E+02  0.41866454137E+02  0.00000000000E+00 0. -1.
         -1    1    1    2    0  502  0.94914869010E+02 -0.26725474182E+02  0.21457834385E+02  0.10091343808E+03  0.00000000000E+00 0.  1.
<scales pt_clust_5="13000.00000" pt_clust_6="13000.00000" pt_clust_7="13000.00000" pt_clust_8="13000.00000" pt_clust_9="13000.00000"></scales>
<clustering>
<clus scale="   80.006">  5  6 -1 -1</clus>
<clus scale="   91.750">  7  8 -1 -1</clus>
<clus scale="   98.606">  5  9 -1 -1</clus>
<clus scale="  107.542">  2  7  1 -1</clus>
<clus scale="  201.552">  1  5  2 -1</clus>
</clustering>
</event>
<event>
 9    1  0.2728138E-005  0.3047459E+03  0.7546771E-02  0.1105603E+00
         21   -1    0    0  501  502  0.00000000000E+00  0.00000000000E+00  0.84278381930E+03  0.84278381930E+03  0.00000000000E+00 0.  1.
         -2   -1    0    0    0  501 -0.00000000000E+00 -0.00000000000E+00 -0.74260439207E+02  0.74260439207E+02  0.00000000000E+00 0.  1.
         23    2    1    2    0    0 -0.42278522281E+02 -0.13399562083E+03  0.42955034552E+03  0.46122328971E+03  0.92038708082E+02 0.  0.
        -24    2    1    2    0    0 -0.19323309648E+02 -0.12385638692E+02  0.86648692034E+01  0.89316203557E+02  0.85880788993E+02 0.  0.
         11    1    4    4    0    0 -0.92482458873E+01  0.36977307013E+02  0.79181547334E+01  0.38930045727E+02  0.00000000000E+00 0. -1.
        -12    1    4    4    0    0 -0.10075063761E+02 -0.49362945705E+02  0.74671446992E+00  0.50386157831E+02  0.00000000000E+00 0.  1.
        -13    1    3    3    0    0 -0.54892649347E+02 -0.28777188119E+02  0.16180487309E+03  0.17326900029E+03  0.00000000000E+00 0.  1.
         13    1    3    3    0    0  0.12614127066E+02 -0.10521843271E+03  0.26774547243E+03  0.28795428941E+03  0.00000000000E+00 0. -1.
         -1    1    1    2    0  502  0.61601831930E+02  0.14638125952E+03  0.33030816537E+03  0.36650476524E+03  0.00000000000E+00 0.  1.
<scales pt_clust_5="13000.00000" pt_clust_6="13000.00000" pt_clust_7="13000.00000" pt_clust_8="13000.00000" pt_clust_9="13000.00000"></scales>
<clustering>
<clus scale="   85.881">  5  6 -1 -1</clus>
<clus scale="   92.039">  7  8 -1 -1</clus>
<clus scale="  158.815">  5  9 -1 -1</clus>
<clus scale="  167.969">  2  7  1 -1</clus>
<clus scale="  304.746">  1  5  2 -1</clus>
</clustering>
</event>
<event>
 9    1  0.2728138E-005  0.6184265E+03  0.7546771E-02  0.1019777E+00
          1   -1    0    0  502    0 -0.00000000000E+00  0.00000000000E+00  0.38915229725E+03  0.38915229725E+03  0.00000000000E+00 0. -1.
         21   -1    0    0  501  502  0.00000000000E+00 -0.00000000000E+00 -0.47510788901E+03  0.47510788901E+03  0.00000000000E+00 0. -1.
         23    2    1    2    0    0  0.14010907174E+03  0.14506674598E+03 -0.10853975194E+03  0.24542144604E+03  0.88181039085E+02 0.  0.
        -24    2    1    2    0    0  0.14817913259E+03  0.83463065713E+02  0.13727829646E+03  0.23349381877E+03  0.82163824479E+02 0.  0.
         13    1    4    4    0    0  0.14389258452E+03  0.79198929666E+02  0.92890317539E+02  0.18869593910E+03  0.00000000000E+00 0. -1.
        -14    1    4    4    0    0  0.42865480692E+01  0.42641360474E+01  0.44387978920E+02  0.44797879672E+02  0.00000000000E+00 0.  1.
        -13    1    3    3    0    0  0.12166240426E+03  0.71020453048E+02 -0.89058530834E+02  0.16666453515E+03  0.00000000000E+00 0. -1.
         13    1    3    3    0    0  0.18446667474E+02  0.74046292930E+02 -0.19481221110E+02  0.78756910893E+02  0.00000000000E+00 0.  1.
          2    1    1    2  501    0 -0.28828820433E+03 -0.22852981169E+03 -0.11469413627E+03  0.38534492144E+03  0.00000000000E+00 0. -1.
<scales pt_clust_5="13000.00000" pt_clust_6="13000.00000" pt_clust_7="13000.00000" pt_clust_8="13000.00000" pt_clust_9="13000.00000"></scales>
<clustering>
<clus scale="   82.164">  5  6 -1 -1</clus>
<clus scale="   88.181">  7  8 -1 -1</clus>
<clus scale="  220.116">  1  7  2 -1</clus>
<clus scale="  283.750">  5  9 -1 -1</clus>
<clus scale="  618.427">  2  5  1 -1</clus>
</clustering>
</event>
<event>
 9    1  0.2728138E-005  0.2188041E+03  0.7546771E-02  0.1168576E+00
          1   -1    0    0  502    0 -0.00000000000E+00  0.00000000000E+00  0.75118271060E+03  0.75118271060E+03  0.00000000000E+00 0. -1.
         21   -1    0    0  501  502  0.00000000000E+00 -0.00000000000E+00 -0.34972605507E+02  0.34972605507E+02  0.00000000000E+00 0.  1.
         23    2    1    2    0    0 -0.38084059430E+02  0.73602023502E+01  0.30294906906E+03  0.31854444126E+03  0.90486763959E+02 0.  0.
        -24    2    1    2    0    0 -0.10332903669E+02 -0.13073632942E+02  0.39885912626E+02  0.91066284681E+02  0.80152937582E+02 0.  0.
         13    1    4    4    0    0 -0.32988625679E+02 -0.33541849118E+02  0.38000006748E+02  0.60475661049E+02  0.00000000000E+00 0. -1.
        -14    1    4    4    0    0  0.22655722010E+02  0.20468216176E+02  0.18859058772E+01  0.30590623632E+02  0.00000000000E+00 0.  1.
        -11    1    3    3    0    0 -0.61922092256E+02  0.26980811672E+02  0.21158496531E+03  0.22210472137E+03  0.00000000000E+00 0. -1.
         11    1    3    3    0    0  0.23838032826E+02 -0.19620609321E+02  0.91364103743E+02  0.96439719887E+02  0.00000000000E+00 0.  1.
          2    1    1    2  501    0  0.48416963099E+02  0.57134305918E+01  0.37337512341E+03  0.37654459017E+03  0.00000000000E+00 0. -1.
<scales pt_clust_5="13000.00000" pt_clust_6="13000.00000" pt_clust_7="13000.00000" pt_clust_8="13000.00000" pt_clust_9="13000.00000"></scales>
<clustering>
<clus scale="   80.153">  5  6 -1 -1</clus>
<clus scale="   48.753">  5  9 -1 -1</clus>
<clus scale="   90.487">  7  8 -1 -1</clus>
<clus scale="   98.450">  1  7  2 -1</clus>
<clus scale="  218.804">  2  5  1 -1</clus>
</clustering>
</event>
<event>
 9    1  0.2728138E-005  0.2061729E+03  0.7546771E-02  0.1166997E+00
         21   -1    0    0  501  502  0.00000000000E+00  0.00000000000E+00  0.36116088335E+03  0.36116088335E+03  0.00000000000E+00 0. -1.
          3   -1    0    0  502    0 -0.00000000000E+00 -0.00000000000E+00 -0.77790551366E+02  0.77790551366E+02  0.00000000000E+00 0. -1.
         23    2    1    2    0    0 -0.61835246194E+02 -0.50433743297E+02  0.63567786962E+02  0.13758714570E+03  0.92315756979E+02 0.  0.
        -24    2    1    2    0    0 -0.53796654259E+01 -0.29429794203E+02  0.39924621915E+02  0.93392905923E+02  0.78950654556E+02 0.  0.
         13    1    4    4    0    0 -0.25803634046E+02 -0.18596072723E+02  0.56574320620E+02  0.64902197222E+02  0.00000000000E+00 0. -1.
        -14    1    4    4    0    0  0.20423968620E+02 -0.10833721480E+02 -0.16649698705E+02  0.28490708701E+02  0.00000000000E+00 0.  1.
        -13    1    3    3    0    0 -0.47831458277E+02 -0.67574189015E+02  0.14896048322E+02  0.84119032790E+02  0.00000000000E+00 0. -1.
         13    1    3    3    0    0 -0.14003787917E+02  0.17140445718E+02  0.48671738640E+02  0.53468112905E+02  0.00000000000E+00 0.  1.
          4    1    1    2  501    0  0.67214911620E+02  0.79863537500E+02  0.17987792310E+03  0.20797138309E+03  0.00000000000E+00 0. -1.
<scales pt_clust_5="13000.00000" pt_clust_6="13000.00000" pt_clust_7="13000.00000" pt_clust_8="13000.00000" pt_clust_9="13000.00000"></scales>
<clustering>
<clus scale="   78.951">  5  6 -1 -1</clus>
<clus scale="   92.316">  7  8 -1 -1</clus>
<clus scale="  104.384">  5  9 -1 -1</clus>
<clus scale="  122.022">  2  7  1 -1</clus>
<clus scale="  206.173">  1  5  2 -1</clus>
</clustering>
</event>
<event>
 9    1  0.2728138E-005  0.2335247E+03  0.7546771E-02  0.1140665E+00
         21   -1    0    0  501  502  0.00000000000E+00  0.00000000000E+00  0.29448815801E+02  0.29448815801E+02  0.00000000000E+00 0. -1.
          1   -1    0    0  502    0 -0.00000000000E+00 -0.00000000000E+00 -0.13667505588E+04  0.13667505588E+04  0.00000000000E+00 0. -1.
         23    2    1    2    0    0  0.10856002755E+03 -0.64925419233E+02 -0.37941633555E+03  0.41025910419E+03  0.91406713335E+02 0.  0.
        -24    2    1    2    0    0 -0.68085809829E+02 -0.37354220556E+02 -0.32459948966E+03  0.34317255133E+03  0.79822027097E+02 0.  0.
         11    1    4    4    0    0 -0.62764099492E+02 -0.27206763622E+02 -0.11905194273E+03  0.13730588203E+03  0.00000000000E+00 0. -1.
        -12    1    4    4    0    0 -0.53217103363E+01 -0.10147456934E+02 -0.20554754692E+03  0.20586666930E+03  0.00000000000E+00 0.  1.
        -13    1    3    3    0    0  0.10416876948E+03 -0.27553510436E+02 -0.20247626460E+03  0.22936208535E+03  0.00000000000E+00 0.  1.
         13    1    3    3    0    0  0.43912580709E+01 -0.37371908797E+02 -0.17694007095E+03  0.18089701884E+03  0.00000000000E+00 0. -1.
          2    1    1    2  501    0 -0.40474217723E+02  0.10227963979E+03 -0.63328591780E+03  0.64276771909E+03  0.00000000000E+00 0. -1.
<scales pt_clust_5="13000.00000" pt_clust_6="13000.00000" pt_clust_7="13000.00000" pt_clust_8="13000.00000" pt_clust_9="13000.00000"></scales>
<clustering>
<clus scale="   79.822">  5  6 -1 -1</clus>
<clus scale="   91.407">  7  8 -1 -1</clus>
<clus scale="  109.997">  5  9 -1 -1</clus>
<clus scale="  156.063">  2  7  1 -1</clus>
<clus scale="  233.525">  1  5  2 -1</clus>
</clustering>
</event>
<event>
 9    1  0.2728138E-005  0.2398907E+03  0.7546771E-02  0.1134242E+00
         21   -1    0    0  501  502  0.00000000000E+00  0.00000000000E+00  0.10207494791E+03  0.10207494791E+03  0.00000000000E+00 0. -1.
          1   -1    0    0  502    0 -0.00000000000E+00 -0.00000000000E+00 -0.41628132339E+03  0.41628132339E+03  0.00000000000E+00 0. -1.
         23    2    1    2    0    0 -0.12512051114E+03 -0.65657699413E+02 -0.16627353509E+03  0.23652000255E+03  0.91261970913E+02 0.  0.
        -24    2    1    2    0    0  0.73000533647E+02  0.92814314336E+02 -0.24892105355E+02  0.14548013114E+03  0.81248241752E+02 0.  0.
         11    1    4    4    0    0  0.71915200877E+02  0.98378613480E+02 -0.19801937194E+01  0.12187726972E+03  0.00000000000E+00 0. -1.
        -12    1    4    4    0    0  0.10853327696E+01 -0.55642991436E+01 -0.22911911635E+02  0.23602861415E+02  0.00000000000E+00 0.  1.
        -13    1    3    3    0    0  0.84308053840E+01 -0.20030270859E+02 -0.51635038779E+01  0.22337233545E+02  0.00000000000E+00 0.  1.
         13    1    3    3    0    0 -0.13355131653E+03 -0.45627428554E+02 -0.16111003121E+03  0.21418276900E+03  0.00000000000E+00 0. -1.
          2    1    1    2  501    0  0.52119977496E+02 -0.27156614923E+02 -0.12304073503E+03  0.13635613762E+03  0.00000000000E+00 0. -1.
<scales pt_clust_5="13000.00000" pt_clust_6="13000.00000" pt_clust_7="13000.00000" pt_clust_8="13000.00000" pt_clust_9="13000.00000"></scales>
<clustering>
<clus scale="   81.248">  5  6 -1 -1</clus>
<clus scale="   58.771">  5  9 -1 -1</clus>
<clus scale="   91.262">  7  8 -1 -1</clus>
<clus scale="  168.211">  2  7  1 -1</clus>
<clus scale="  239.891">  1  5  2 -1</clus>
</clustering>
</event>
<event>
 9    1  0.2728138E-005  0.4352507E+03  0.7546771E-02  0.1076176E+00
         21   -1    0    0  501  502  0.00000000000E+00  0.00000000000E+00  0.35837702816E+03  0.35837702816E+03  0.00000000000E+00 0. -1.
          1   -1    0    0  502    0 -0.00000000000E+00 -0.00000000000E+00 -0.27325394427E+03  0.27325394427E+03  0.00000000000E+00 0. -1.
         23    2    1    2    0    0 -0.81101989424E+01  0.85139065605E+02  0.14567181939E+03  0.19218892087E+03  0.91661696040E+02 0.  0.
        -24    2    1    2    0    0 -0.42772000521E+02 -0.28158775570E+02 -0.23279466566E+03  0.25101590654E+03  0.78697320816E+02 0.  0.
         13    1    4    4    0    0 -0.14163648718E+02 -0.32679642251E+02 -0.31195706534E+02  0.47347017528E+02  0.00000000000E+00 0. -1.
        -14    1    4    4    0    0 -0.28608351803E+02  0.45208666810E+01 -0.20159895913E+03  0.20366888901E+03  0.00000000000E+00 0.  1.
        -13    1    3    3    0    0  0.34186456257E+02  0.47528273476E+01  0.41431148080E+02  0.53924421095E+02  0.00000000000E+00 0.  1.
         13    1    3    3    0    0 -0.42296655200E+02  0.80386238257E+02  0.10424067131E+03  0.13826449977E+03  0.00000000000E+00 0. -1.
          2    1    1    2  501    0  0.50882199464E+02 -0.56980290034E+02  0.17224593016E+03  0.18842614503E+03  0.00000000000E+00 0. -1.
<scales pt_clust_5="13000.00000" pt_clust_6="13000.00000" pt_clust_7="13000.00000" pt_clust_8="13000.00000" pt_clust_9="13000.00000"></scales>
<clustering>
<clus scale="   78.697">  5  6 -1 -1</clus>
<clus scale="   76.392">  5  9 -1 -1</clus>
<clus scale="   91.662">  7  8 -1 -1</clus>
<clus scale="  125.365">  2  7  1 -1</clus>
<clus scale="  435.251">  1  5  2 -1</clus>
</clustering>
</event>
<event>
 9    1  0.2728138E-005  0.1604033E+03  0.7546771E-02  0.1205925E+00
         21   -1    0    0  501  502  0.00000000000E+00  0.00000000000E+00  0.30471733927E+03  0.30471733927E+03  0.00000000000E+00 0. -1.
          1   -1    0    0  502    0 -0.00000000000E+00 -0.00000000000E+00 -0.93796970493E+02  0.93796970493E+02  0.00000000000E+00 0. -1.
         23    2    1    2    0    0  0.57073897134E+02 -0.20886024865E+02 -0.26289685168E+02  0.11216169104E+03  0.90528678453E+02 0.  0.
        -24    2    1    2    0    0 -0.84125688716E+02  0.37278904738E+02  0.17989618006E+03  0.22088960567E+03  0.89234152943E+02 0.  0.
         13    1    4    4    0    0 -0.58248651158E+02 -0.14196476921E+02  0.13544601619E+03  0.14812180333E+03  0.00000000000E+00 0. -1.
        -14    1    4    4    0    0 -0.25877037558E+02  0.51475381659E+02  0.44450163871E+02  0.72767802343E+02  0.00000000000E+00 0.  1.
        -11    1    3    3    0    0  0.11786042268E+02  0.34318865371E+02 -0.64528601418E+00  0.36292033654E+02  0.00000000000E+00 0.  1.
         11    1    3    3    0    0  0.45287854866E+02 -0.55204890235E+02 -0.25644399153E+02  0.75869657388E+02  0.00000000000E+00 0. -1.
          2    1    1    2  501    0  0.27051791582E+02 -0.16392879873E+02  0.57313873887E+02  0.65463013055E+02  0.00000000000E+00 0. -1.
<scales pt_clust_5="13000.00000" pt_clust_6="13000.00000" pt_clust_7="13000.00000" pt_clust_8="13000.00000" pt_clust_9="13000.00000"></scales>
<clustering>
<clus scale="   89.234">  5  6 -1 -1</clus>
<clus scale="   31.631">  5  9 -1 -1</clus>
<clus scale="   90.529">  7  8 -1 -1</clus>
<clus scale="  109.037">  2  7  1 -1</clus>
<clus scale="  160.403">  1  5  2 -1</clus>
</clustering>
</event>
<event>
 9    1  0.2728138E-005  0.4894131E+03  0.7546771E-02  0.1059785E+00
         21   -1    0    0  501  502  0.00000000000E+00  0.00000000000E+00  0.95395447074E+02  0.95395447074E+02  0.00000000000E+00 0. -1.
          1   -1    0    0  502    0 -0.00000000000E+00 -0.00000000000E+00 -0.10424082416E+04  0.10424082416E+04  0.00000000000E+00 0. -1.
         23    2    1    2    0    0 -0.33523756894E+01  0.10622343877E+03 -0.16722307388E+03  0.21715328660E+03  0.88866957183E+02 0.  0.
        -24    2    1    2    0    0  0.17712939060E+03 -0.14903831466E+03 -0.66386789605E+03  0.70741477203E+03  0.78280495767E+02 0.  0.
         13    1    4    4    0    0  0.11285548608E+03 -0.96598985707E+02 -0.52543775701E+03  0.54603347999E+03  0.00000000000E+00 0. -1.
        -14    1    4    4    0    0  0.64273904524E+02 -0.52439328952E+02 -0.13843013905E+03  0.16138129204E+03  0.00000000000E+00 0.  1.
        -11    1    3    3    0    0  0.30632801612E+02  0.73564595220E+02 -0.59125551354E+02  0.99226755603E+02  0.00000000000E+00 0. -1.
         11    1    3    3    0    0 -0.33985177302E+02  0.32658843551E+02 -0.10809752252E+03  0.11792653100E+03  0.00000000000E+00 0.  1.
          2    1    1    2  501    0 -0.17377701491E+03  0.42814875888E+02 -0.11592182462E+03  0.21323563007E+03  0.00000000000E+00 0. -1.
<scales pt_clust_5="13000.00000" pt_clust_6="13000.00000" pt_clust_7="13000.00000" pt_clust_8="13000.00000" pt_clust_9="13000.00000"></scales>
<clustering>
<clus scale="   78.280">  5  6 -1 -1</clus>
<clus scale="   88.867">  7  8 -1 -1</clus>
<clus scale="  138.535">  2  7  1 -1</clus>
<clus scale="  185.583">  5  9 -1 -1</clus>
<clus scale="  489.413">  1  5  2 -1</clus>
</clustering>
</event>
<event>
 9    1  0.2728138E-005  0.1196254E+03  0.7546771E-02  0.1257502E+00
          1   -1    0    0  502    0 -0.00000000000E+00  0.00000000000E+00  0.34158005905E+03  0.34158005905E+03  0.00000000000E+00 0. -1.
         21   -1    0    0  501  502  0.00000000000E+00 -0.00000000000E+00 -0.36487186313E+02  0.36487186313E+02  0.00000000000E+00 0. -1.
         23    2    1    2    0    0 -0.19548523115E+02 -0.43812952247E+01  0.19657877916E+03  0.21655706935E+03  0.88613810242E+02 0.  0.
        -24    2    1    2    0    0  0.36443564911E+02 -0.14127462488E+02  0.10389774218E+03  0.13602827558E+03  0.78620813450E+02 0.  0.
         13    1    4    4    0    0  0.45367754622E+02 -0.10395013085E+02  0.18501448239E+02  0.50085856721E+02  0.00000000000E+00 0. -1.
        -14    1    4    4    0    0 -0.89241897114E+01 -0.37324494027E+01  0.85396293942E+02  0.85942418861E+02  0.00000000000E+00 0.  1.
        -13    1    3    3    0    0 -0.41802471553E+02  0.19490214589E+02  0.57563113368E+02  0.73761962510E+02  0.00000000000E+00 0.  1.
         13    1    3    3    0    0  0.22253948438E+02 -0.23871509814E+02  0.13901566579E+03  0.14279510684E+03  0.00000000000E+00 0. -1.
          2    1    1    2  501    0 -0.16895041796E+02  0.18508757712E+02  0.46163513948E+01  0.25481900430E+02  0.00000000000E+00 0. -1.
<scales pt_clust_5="13000.00000" pt_clust_6="13000.00000" pt_clust_7="13000.00000" pt_clust_8="13000.00000" pt_clust_9="13000.00000"></scales>
<clustering>
<clus scale="   78.621">  5  6 -1 -1</clus>
<clus scale="   25.060">  5  9 -1 -1</clus>
<clus scale="   88.614">  7  8 -1 -1</clus>
<clus scale="   90.850">  1  7  2 -1</clus>
<clus scale="  119.625">  2  5  1 -1</clus>
</clustering>
</event>
<event>
 9    1  0.2728138E-005  0.1558574E+03  0.7546771E-02  0.1217197E+00
         21   -1    0    0  501  502  0.00000000000E+00  0.00000000000E+00  0.13909116687E+03  0.13909116687E+03  0.00000000000E+00 0. -1.
          1   -1    0    0  502    0 -0.00000000000E+00 -0.00000000000E+00 -0.13919328247E+03  0.13919328247E+03  0.00000000000E+00 0. -1.
         23    2    1    2    0    0  0.11761206823E+01 -0.15675400234E+01 -0.60249736771E+02  0.11122378702E+03  0.93471169759E+02 0.  0.
        -24    2    1    2    0    0 -0.46923128102E+02  0.33555712068E+02  0.44130604119E+02  0.10898677254E+03  0.81257864887E+02 0.  0.
         11    1    4    4    0    0  0.11742746244E+02  0.38422196705E+02  0.23858059434E+02  0.46726483807E+02  0.00000000000E+00 0. -1.
        -12    1    4    4    0    0 -0.58665874345E+02 -0.48664846365E+01  0.20272544685E+02  0.62260288735E+02  0.00000000000E+00 0.  1.
        -13    1    3    3    0    0 -0.38287587038E+02 -0.25037809124E+02 -0.41017157403E+02  0.61442968746E+02  0.00000000000E+00 0.  1.
         13    1    3    3    0    0  0.39463707721E+02  0.23470269100E+02 -0.19232579368E+02  0.49780818272E+02  0.00000000000E+00 0. -1.
          2    1    1    2  501    0  0.45747007419E+02 -0.31988172045E+02  0.16017017050E+02  0.58073889776E+02  0.00000000000E+00 0. -1.
<scales pt_clust_5="13000.00000" pt_clust_6="13000.00000" pt_clust_7="13000.00000" pt_clust_8="13000.00000" pt_clust_9="13000.00000"></scales>
<clustering>
<clus scale="   81.258">  5  6 -1 -1</clus>
<clus scale="   55.821">  5  9 -1 -1</clus>
<clus scale="   93.471">  7  8 -1 -1</clus>
<clus scale="   93.492">  2  7  1 -1</clus>
<clus scale="  155.857">  1  5  2 -1</clus>
</clustering>
</event>
<event>
 9    1  0.2728138E-005  0.2738740E+03  0.7546771E-02  0.1127884E+00
          1   -1    0    0  502    0 -0.00000000000E+00  0.00000000000E+00  0.10154142008E+04  0.10154142008E+04  0.00000000000E+00 0. -1.
         21   -1    0    0  501  502  0.00000000000E+00 -0.00000000000E+00 -0.40631144790E+02  0.40631144790E+02  0.00000000000E+00 0.  1.
         23    2    1    2    0    0  0.75441664558E+02  0.57899241434E+02  0.33511973868E+03  0.36021769631E+03  0.91693961462E+02 0.  0.
        -24    2    1    2    0    0  0.73953960246E+02 -0.22815917116E+01  0.19248641346E+03  0.22108607850E+03  0.79709728670E+02 0.  0.
         13    1    4    4    0    0  0.89419135898E+01  0.25286558376E+02  0.16572591088E+02  0.31528060970E+02  0.00000000000E+00 0. -1.
        -14    1    4    4    0    0  0.65012046656E+02 -0.27568150088E+02  0.17591382237E+03  0.18955801753E+03  0.00000000000E+00 0.  1.
        -13    1    3    3    0    0  0.95476403379E+02  0.42264641374E+02  0.29272790477E+03  0.31079200399E+03  0.00000000000E+00 0. -1.
         13    1    3    3    0    0 -0.20034738821E+02  0.15634600061E+02  0.42391833911E+02  0.49425692317E+02  0.00000000000E+00 0.  1.
          2    1    1    2  501    0 -0.14939562480E+03 -0.55617649723E+02  0.44717690386E+03  0.47474157077E+03  0.00000000000E+00 0. -1.
<scales pt_clust_5="13000.00000" pt_clust_6="13000.00000" pt_clust_7="13000.00000" pt_clust_8="13000.00000" pt_clust_9="13000.00000"></scales>
<clustering>
<clus scale="   79.710">  5  6 -1 -1</clus>
<clus scale="   91.694">  7  8 -1 -1</clus>
<clus scale="  132.104">  1  7  2 -1</clus>
<clus scale="   98.567">  5  9 -1 -1</clus>
<clus scale="  273.874">  2  5  1 -1</clus>
</clustering>
</event>
<event>
 9    1  0.2728138E-005  0.1913279E+03  0.7546771E-02  0.1188430E+00
          3   -1    0    0  502    0 -0.00000000000E+00  0.00000000000E+00  0.59742800668E+02  0.59742800668E+02  0.00000000000E+00 0. -1.
         21   -1    0    0  501  502  0.00000000000E+00 -0.00000000000E+00 -0.41619515757E+03  0.41619515757E+03  0.00000000000E+00 0. -1.
         23    2    1    2    0    0  0.23752487907E+02  0.67915112118E+01 -0.32266826964E+02  0.99503894930E+02  0.90827152755E+02 0.  0.
        -24    2    1    2    0    0  0.18921372355E+02  0.62397912846E+02 -0.12810671701E+03  0.16417211281E+03  0.79307211663E+02 0.  0.
         11    1    4    4    0    0  0.82020402341E+01  0.80659311314E+02 -0.95248218312E+02  0.12508165756E+03  0.00000000000E+00 0. -1.
        -12    1    4    4    0    0  0.10719332121E+02 -0.18261398467E+02 -0.32858498701E+02  0.39090455254E+02  0.00000000000E+00 0.  1.
        -13    1    3    3    0    0  0.39779809176E+02 -0.21379506736E+02 -0.45854743761E+02  0.64359723832E+02  0.00000000000E+00 0. -1.
         13    1    3    3    0    0 -0.16027321269E+02  0.28171017947E+02  0.13587916797E+02  0.35144171097E+02  0.00000000000E+00 0.  1.
          4    1    1    2  501    0 -0.42673860262E+02 -0.69189424058E+02 -0.19607881293E+03  0.21226195050E+03  0.00000000000E+00 0. -1.
<scales pt_clust_5="13000.00000" pt_clust_6="13000.00000" pt_clust_7="13000.00000" pt_clust_8="13000.00000" pt_clust_9="13000.00000"></scales>
<clustering>
<clus scale="   79.307">  5  6 -1 -1</clus>
<clus scale="   81.291">  5  9 -1 -1</clus>
<clus scale="   90.827">  7  8 -1 -1</clus>
<clus scale="   94.127">  1  7  2 -1</clus>
<clus scale="  191.328">  2  5  1 -1</clus>
</clustering>
</event>
<event>
 9    1  0.2728138E-005  0.1550423E+03  0.7546771E-02  0.1218338E+00
          1   -1    0    0  502    0 -0.00000000000E+00  0.00000000000E+00  0.40741601226E+02  0.40741601226E+02  0.00000000000E+00 0. -1.
         21   -1    0    0  501  502  0.00000000000E+00 -0.00000000000E+00 -0.38091871331E+03  0.38091871331E+03  0.00000000000E+00 0. -1.
         23    2    1    2    0    0 -0.13632573874E+02 -0.49046994254E+01 -0.10623859738E+03  0.14100869546E+03  0.91580071381E+02 0.  0.
        -24    2    1    2    0    0 -0.35638575169E+01  0.23340376821E+02 -0.24024866249E+03  0.25466297889E+03  0.81094628168E+02 0.  0.
         13    1    4    4    0    0 -0.26111230106E+02  0.38946424474E+02 -0.20337779709E+03  0.20871307738E+03  0.00000000000E+00 0. -1.
        -14    1    4    4    0    0  0.22547372589E+02 -0.15606047652E+02 -0.36870865397E+02  0.45949901514E+02  0.00000000000E+00 0.  1.
        -13    1    3    3    0    0 -0.50755558793E+02  0.11156570807E+02 -0.54043432155E+02  0.74975251781E+02  0.00000000000E+00 0. -1.
         13    1    3    3    0    0  0.37122984919E+02 -0.16061270233E+02 -0.52195165226E+02  0.66033443676E+02  0.00000000000E+00 0.  1.
          2    1    1    2  501    0  0.17196431391E+02 -0.18435677396E+02  0.63101477905E+01  0.25988640187E+02  0.00000000000E+00 0. -1.
<scales pt_clust_5="13000.00000" pt_clust_6="13000.00000" pt_clust_7="13000.00000" pt_clust_8="13000.00000" pt_clust_9="13000.00000"></scales>
<clustering>
<clus scale="   81.095">  5  6 -1 -1</clus>
<clus scale="   25.211">  5  9 -1 -1</clus>
<clus scale="   91.580">  7  8 -1 -1</clus>
<clus scale="   92.719">  1  7  2 -1</clus>
<clus scale="  155.042">  2  5  1 -1</clus>
</clustering>
</event>
<event>
 9    1  0.2728138E-005  0.4660197E+03  0.7546771E-02  0.1033528E+00
         21   -1    0    0  501  502  0.00000000000E+00  0.00000000000E+00  0.18983266706E+03  0.18983266706E+03  0.00000000000E+00 0.  1.
          1   -1    0    0  502    0 -0.00000000000E+00 -0.00000000000E+00 -0.98339164844E+03  0.98339164844E+03  0.00000000000E+00 0. -1.
         23    2    1    2    0    0  0.24433742731E+03  0.21688428859E+03 -0.13591774405E+03  0.36720547048E+03  0.98115500216E+02 0.  0.
        -24    2    1    2    0    0  0.27123855464E+02 -0.13841869091E+03 -0.13284316084E+03  0.20998101135E+03  0.80927635688E+02 0.  0.
         13    1    4    4    0    0 -0.26398095344E+02 -0.75099931641E+02 -0.61298367269E+02  0.10047063750E+03  0.00000000000E+00 0. -1.
        -14    1    4    4    0    0  0.53521950808E+02 -0.63318759271E+02 -0.71544793574E+02  0.10951037385E+03  0.00000000000E+00 0.  1.
        -11    1    3    3    0    0  0.17458897150E+03  0.90250816188E+02 -0.80136033998E+02  0.21224585446E+03  0.00000000000E+00 0. -1.
         11    1    3    3    0    0  0.69748455812E+02  0.12663347240E+03 -0.55781710048E+02  0.15495961602E+03  0.00000000000E+00 0.  1.
          2    1    1    2  501    0 -0.27146128278E+03 -0.78465597677E+02 -0.52479807649E+03  0.59603783366E+03  0.00000000000E+00 0. -1.
<scales pt_clust_5="13000.00000" pt_clust_6="13000.00000" pt_clust_7="13000.00000" pt_clust_8="13000.00000" pt_clust_9="13000.00000"></scales>
<clustering>
<clus scale="   80.928">  5  6 -1 -1</clus>
<clus scale="   98.116">  7  8 -1 -1</clus>
<clus scale="  282.574">  5  9 -1 -1</clus>
<clus scale="  341.125">  2  7  1 -1</clus>
<clus scale="  466.020">  1  5  2 -1</clus>
</clustering>
</event>
<event>
 9    1  0.6486638E-005  0.5037606E+03  0.7546771E-02  0.1068081E+00
         21   -1    0    0  501  502  0.00000000000E+00  0.00000000000E+00  0.34679386241E+03  0.34679386241E+03  0.00000000000E+00 0.  1.
         -4   -1    0    0    0  501 -0.00000000000E+00 -0.00000000000E+00 -0.49124115210E+03  0.49124115210E+03  0.00000000000E+00 0.  1.
         23    2    1    2    0    0 -0.43356131790E+02  0.22943999764E+01 -0.29539231444E+03  0.31214609750E+03  0.91068920718E+02 0.  0.
        -24    2    1    2    0    0 -0.78169519343E+02 -0.12738293866E+03 -0.11741783863E+03  0.20583540142E+03  0.79021369468E+02 0.  0.
         11    1    4    4    0    0 -0.11609702945E+02 -0.31609658382E+02 -0.74148791853E+02  0.81437086384E+02  0.00000000000E+00 0. -1.
        -12    1    4    4    0    0 -0.66559816398E+02 -0.95773280281E+02 -0.43269046776E+02  0.12439831504E+03  0.00000000000E+00 0.  1.
        -11    1    3    3    0    0  0.26106686025E+02 -0.13448135048E+02 -0.75699041366E+02  0.81195789640E+02  0.00000000000E+00 0. -1.
         11    1    3    3    0    0 -0.69462817815E+02  0.15742535025E+02 -0.21969327308E+03  0.23095030786E+03  0.00000000000E+00 0.  1.
         -3    1    1    2    0  502  0.12152565113E+03  0.12508853869E+03  0.26836286338E+03  0.32005351558E+03  0.00000000000E+00 0.  1.
<scales pt_clust_5="13000.00000" pt_clust_6="13000.00000" pt_clust_7="13000.00000" pt_clust_8="13000.00000" pt_clust_9="13000.00000"></scales>
<clustering>
<clus scale="   79.021">  5  6 -1 -1</clus>
<clus scale="   91.069">  7  8 -1 -1</clus>
<clus scale="  100.889">  2  7  1 -1</clus>
<clus scale="  170.522">  5  9 -1 -1</clus>
<clus scale="  503.761">  1  5  2 -1</clus>
</clustering>
</event>
<event>
 9    1  0.2728138E-005  0.2774084E+03  0.7546771E-02  0.1119285E+00
          1   -1    0    0  502    0 -0.00000000000E+00  0.00000000000E+00  0.88441416458E+03  0.88441416458E+03  0.00000000000E+00 0. -1.
         21   -1    0    0  501  502  0.00000000000E+00 -0.00000000000E+00 -0.81376977250E+02  0.81376977250E+02  0.00000000000E+00 0.  1.
         23    2    1    2    0    0 -0.10298274037E+03 -0.66976651577E+02  0.60450325568E+03  0.62465897674E+03  0.98403935027E+02 0.  0.
        -24    2    1    2    0    0  0.21625244727E+01  0.67671464309E+02 -0.13671980051E+02  0.10619270978E+03  0.80658942335E+02 0.  0.
         13    1    4    4    0    0  0.35856160797E+02  0.93948875102E+01  0.18420531322E+01  0.37112280153E+02  0.00000000000E+00 0. -1.
        -14    1    4    4    0    0 -0.33693636324E+02  0.58276576799E+02 -0.15514033183E+02  0.69080429629E+02  0.00000000000E+00 0.  1.
        -11    1    3    3    0    0  0.19010360255E+01 -0.51178185983E+02  0.18560518277E+03  0.19254117619E+03  0.00000000000E+00 0. -1.
         11    1    3    3    0    0 -0.10488377639E+03 -0.15798465594E+02  0.41889807291E+03  0.43211780056E+03  0.00000000000E+00 0.  1.
          2    1    1    2  501    0  0.10082021589E+03 -0.69481273233E+00  0.21220591170E+03  0.23493945531E+03  0.00000000000E+00 0. -1.
<scales pt_clust_5="13000.00000" pt_clust_6="13000.00000" pt_clust_7="13000.00000" pt_clust_8="13000.00000" pt_clust_9="13000.00000"></scales>
<clustering>
<clus scale="   80.659">  5  6 -1 -1</clus>
<clus scale="   98.404">  7  8 -1 -1</clus>
<clus scale="  100.823">  5  9 -1 -1</clus>
<clus scale="  157.400">  1  7  2 -1</clus>
<clus scale="  277.408">  2  5  1 -1</clus>
</clustering>
</event>
<event>
 9    1  0.2728138E-005  0.2730091E+03  0.7546771E-02  0.1139176E+00
          1   -1    0    0  502    0 -0.00000000000E+00  0.00000000000E+00  0.27700306515E+03  0.27700306515E+03  0.00000000000E+00 0. -1.
         21   -1    0    0  501  502  0.00000000000E+00 -0.00000000000E+00 -0.14836611707E+03  0.14836611707E+03  0.00000000000E+00 0. -1.
         23    2    1    2    0    0 -0.44131572757E+02  0.86333583981E+00  0.11327920256E+03  0.15192844201E+03  0.91113844703E+02 0.  0.
        -24    2    1    2    0    0  0.12538596694E+03  0.65483702566E+02  0.13143233084E+01  0.16760396121E+03  0.89886619477E+02 0.  0.
         13    1    4    4    0    0  0.12840237866E+03  0.34885696047E+02 -0.12996533933E+02  0.13369028584E+03  0.00000000000E+00 0. -1.
        -14    1    4    4    0    0 -0.30164117126E+01  0.30598006519E+02  0.14310857241E+02  0.33913675376E+02  0.00000000000E+00 0.  1.
        -13    1    3    3    0    0 -0.57871969119E+02 -0.29630781552E+02  0.90611911119E+02  0.11152428642E+03  0.00000000000E+00 0. -1.
         13    1    3    3    0    0  0.13740396362E+02  0.30494117392E+02  0.22667291443E+02  0.40404155591E+02  0.00000000000E+00 0.  1.
          2    1    1    2  501    0 -0.81254394187E+02 -0.66347038406E+02  0.14043422212E+02  0.10583677899E+03  0.00000000000E+00 0. -1.
<scales pt_clust_5="13000.00000" pt_clust_6="13000.00000" pt_clust_7="13000.00000" pt_clust_8="13000.00000" pt_clust_9="13000.00000"></scales>
<clustering>
<clus scale="   89.887">  5  6 -1 -1</clus>
<clus scale="   91.114">  7  8 -1 -1</clus>
<clus scale="  101.243">  1  7  2 -1</clus>
<clus scale="  119.455">  5  9 -1 -1</clus>
<clus scale="  273.009">  2  5  1 -1</clus>
</clustering>
</event>
<event>
 9    1  0.2728138E-005  0.2330487E+03  0.7546771E-02  0.1159001E+00
          1   -1    0    0  502    0 -0.00000000000E+00  0.00000000000E+00  0.38134682827E+03  0.38134682827E+03  0.00000000000E+00 0. -1.
         21   -1    0    0  501  502  0.00000000000E+00 -0.00000000000E+00 -0.76803433120E+02  0.76803433120E+02  0.00000000000E+00 0. -1.
         23    2    1    2    0    0 -0.35866894263E+02 -0.14631708183E+02  0.13932229459E+03  0.17247613094E+03  0.94004217915E+02 0.  0.
        -24    2    1    2    0    0 -0.54060035233E+02 -0.38688052633E+02  0.16231001368E+02  0.10366341868E+03  0.77867876180E+02 0.  0.
         11    1    4    4    0    0 -0.67004584549E+02 -0.44516610437E+02 -0.21073891395E+01  0.80472256365E+02  0.00000000000E+00 0. -1.
        -12    1    4    4    0    0  0.12944549316E+02  0.58285578042E+01  0.18338390507E+02  0.23191162314E+02  0.00000000000E+00 0.  1.
        -13    1    3    3    0    0  0.39800235299E+01 -0.45832263322E+02  0.93500321149E+02  0.10420531178E+03  0.00000000000E+00 0.  1.
         13    1    3    3    0    0 -0.39846917793E+02  0.31200555139E+02  0.45821973444E+02  0.68270819161E+02  0.00000000000E+00 0. -1.
          2    1    1    2  501    0  0.89926929496E+02  0.53319760816E+02  0.14899009918E+03  0.18201071176E+03  0.00000000000E+00 0. -1.
<scales pt_clust_5="13000.00000" pt_clust_6="13000.00000" pt_clust_7="13000.00000" pt_clust_8="13000.00000" pt_clust_9="13000.00000"></scales>
<clustering>
<clus scale="   77.868">  5  6 -1 -1</clus>
<clus scale="   94.004">  7  8 -1 -1</clus>
<clus scale="  101.673">  1  7  2 -1</clus>
<clus scale="   76.535">  5  9 -1 -1</clus>
<clus scale="  233.049">  2  5  1 -1</clus>
</clustering>
</event>
<event>
 9    1  0.2728138E-005  0.2567437E+03  0.7546771E-02  0.1131138E+00
          1   -1    0    0  502    0 -0.00000000000E+00  0.00000000000E+00  0.14672396770E+03  0.14672396770E+03  0.00000000000E+00 0. -1.
         21   -1    0    0  501  502  0.00000000000E+00 -0.00000000000E+00 -0.57608598552E+03  0.57608598552E+03  0.00000000000E+00 0. -1.
         23    2    1    2    0    0 -0.31365209992E+02  0.11022241474E+03  0.68147938655E+02  0.16295865376E+03  0.93694312441E+02 0.  0.
        -24    2    1    2    0    0  0.79599929002E+02 -0.20448766014E+01 -0.34896894302E+03  0.36986866722E+03  0.93183569260E+02 0.  0.
         13    1    4    4    0    0  0.39707334834E+01 -0.33987357589E+02 -0.16348759406E+03  0.16703023861E+03  0.00000000000E+00 0. -1.
        -14    1    4    4    0    0  0.75629195518E+02  0.31942480987E+02 -0.18548134896E+03  0.20283842861E+03  0.00000000000E+00 0.  1.
        -13    1    3    3    0    0  0.22362352779E+01  0.50841913792E+02 -0.17174686222E+02  0.53710993224E+02  0.00000000000E+00 0.  1.
         13    1    3    3    0    0 -0.33601445270E+02  0.59380500951E+02  0.85322624877E+02  0.10924766054E+03  0.00000000000E+00 0. -1.
          2    1    1    2  501    0 -0.48234719009E+02 -0.10817753814E+03 -0.14854101345E+03  0.18998263224E+03  0.00000000000E+00 0. -1.
<scales pt_clust_5="13000.00000" pt_clust_6="13000.00000" pt_clust_7="13000.00000" pt_clust_8="13000.00000" pt_clust_9="13000.00000"></scales>
<clustering>
<clus scale="   93.184">  5  6 -1 -1</clus>
<clus scale="   93.694">  7  8 -1 -1</clus>
<clus scale="  118.444">  5  9 -1 -1</clus>
<clus scale="  148.025">  1  7  2 -1</clus>
<clus scale="  256.744">  2  5  1 -1</clus>
</clustering>
</event>
<event>
 9    1  0.2728138E-005  0.1763847E+03  0.7546771E-02  0.1200641E+00
          1   -1    0    0  502    0 -0.00000000000E+00  0.00000000000E+00  0.11937276162E+04  0.11937276162E+04  0.00000000000E+00 0. -1.
         21   -1    0    0  501  502  0.00000000000E+00 -0.00000000000E+00 -0.15134674036E+02  0.15134674036E+02  0.00000000000E+00 0. -1.
         23    2    1    2    0    0 -0.15680144028E+02  0.80486725081E+01  0.44027450991E+03  0.44976700173E+03  0.90211217246E+02 0.  0.
        -24    2    1    2    0    0 -0.55881175611E+02  0.19640413534E+02  0.46953051630E+03  0.47956952634E+03  0.77585908684E+02 0.  0.
         13    1    4    4    0    0 -0.24724846067E+02 -0.26858623340E+02  0.11521568889E+03  0.12086090611E+03  0.00000000000E+00 0. -1.
        -14    1    4    4    0    0 -0.31156329543E+02  0.46499036874E+02  0.35431482742E+03  0.35870862023E+03  0.00000000000E+00 0.  1.
        -13    1    3    3    0    0  0.81905613018E+01 -0.37772391588E+02  0.23087152687E+03  0.23408438816E+03  0.00000000000E+00 0.  1.
         13    1    3    3    0    0 -0.23870705330E+02  0.45821064096E+02  0.20940298305E+03  0.21568261357E+03  0.00000000000E+00 0. -1.
          2    1    1    2  501    0  0.71561319639E+02 -0.27689086042E+02  0.26878791592E+03  0.27952576214E+03  0.00000000000E+00 0. -1.
<scales pt_clust_5="13000.00000" pt_clust_6="13000.00000" pt_clust_7="13000.00000" pt_clust_8="13000.00000" pt_clust_9="13000.00000"></scales>
<clustering>
<clus scale="   77.586">  5  6 -1 -1</clus>
<clus scale="   76.731">  5  9 -1 -1</clus>
<clus scale="   90.211">  7  8 -1 -1</clus>
<clus scale="   91.917">  1  7  2 -1</clus>
<clus scale="  176.385">  2  5  1 -1</clus>
</clustering>
</event>
<event>
 9    1  0.2728138E-005  0.4521093E+03  0.7546771E-02  0.1044681E+00
         21   -1    0    0  501  502  0.00000000000E+00  0.00000000000E+00  0.97675891529E+02  0.97675891529E+02  0.00000000000E+00 0. -1.
          1   -1    0    0  502    0 -0.00000000000E+00 -0.00000000000E+00 -0.14212394813E+04  0.14212394813E+04  0.00000000000E+00 0. -1.
         23    2    1    2    0    0 -0.16707282946E+02  0.25434764002E+03 -0.32285597626E+03  0.42081766880E+03  0.88767526068E+02 0.  0.
        -24    2    1    2    0    0 -0.57791874753E+02  0.61952003499E+02 -0.18025476771E+03  0.21563611213E+03  0.82638974134E+02 0.  0.
         13    1    4    4    0    0 -0.44078265420E+02 -0.90066461381E+01 -0.83755916334E+02  0.95074006322E+02  0.00000000000E+00 0. -1.
        -14    1    4    4    0    0 -0.13713609333E+02  0.70958649637E+02 -0.96498851375E+02  0.12056210580E+03  0.00000000000E+00 0.  1.
        -13    1    3    3    0    0 -0.50728255985E+01  0.22014298871E+03 -0.21778212707E+03  0.30970586676E+03  0.00000000000E+00 0. -1.
         13    1    3    3    0    0 -0.11634457347E+02  0.34204651311E+02 -0.10507384919E+03  0.11111180204E+03  0.00000000000E+00 0.  1.
          2    1    1    2  501    0  0.74499157699E+02 -0.31629964352E+03 -0.82045284577E+03  0.88246159186E+03  0.00000000000E+00 0. -1.
<scales pt_clust_5="13000.00000" pt_clust_6="13000.00000" pt_clust_7="13000.00000" pt_clust_8="13000.00000" pt_clust_9="13000.00000"></scales>
<clustering>
<clus scale="   82.639">  5  6 -1 -1</clus>
<clus scale="   88.768">  7  8 -1 -1</clus>
<clus scale="  269.910">  2  7  1 -1</clus>
<clus scale="  125.692">  5  9 -1 -1</clus>
<clus scale="  452.109">  1  5  2 -1</clus>
</clustering>
</event>
<event>
 9    1  0.2728138E-005  0.3130947E+03  0.7546771E-02  0.1101042E+00
          1   -1    0    0  502    0 -0.00000000000E+00  0.00000000000E+00  0.45519615799E+03  0.45519615799E+03  0.00000000000E+00 0. -1.
         21   -1    0    0  501  502  0.00000000000E+00 -0.00000000000E+00 -0.13671716987E+03  0.13671716987E+03  0.00000000000E+00 0. -1.
         23    2    1    2    0    0  0.11605905511E+03  0.92605729612E+02  0.17693342296E+03  0.24830970378E+03  0.91141359457E+02 0.  0.
        -24    2    1    2    0    0  0.46950152171E+02 -0.94541377788E+02  0.11911686646E+03  0.17904726620E+03  0.82016502942E+02 0.  0.
         13    1    4    4    0    0  0.34760530790E+02 -0.61786579577E+02  0.19572135267E+02  0.73545526006E+02  0.00000000000E+00 0. -1.
        -14    1    4    4    0    0  0.12189621381E+02 -0.32754798212E+02  0.99544731194E+02  0.10550174019E+03  0.00000000000E+00 0.  1.
        -11    1    3    3    0    0  0.37718478197E+02  0.55324633578E+02  0.21542011303E+02  0.70338872105E+02  0.00000000000E+00 0.  1.
         11    1    3    3    0    0  0.78340576913E+02  0.37281096035E+02  0.15539141165E+03  0.17797083168E+03  0.00000000000E+00 0. -1.
          2    1    1    2  501    0 -0.16300920728E+03  0.19356481760E+01  0.22428698704E+02  0.16455635788E+03  0.00000000000E+00 0. -1.
<scales pt_clust_5="13000.00000" pt_clust_6="13000.00000" pt_clust_7="13000.00000" pt_clust_8="13000.00000" pt_clust_9="13000.00000"></scales>
<clustering>
<clus scale="   82.017">  5  6 -1 -1</clus>
<clus scale="   91.141">  7  8 -1 -1</clus>
<clus scale="  163.021">  5  9 -1 -1</clus>
<clus scale="  174.219">  1  7  2 -1</clus>
<clus scale="  313.095">  2  5  1 -1</clus>
</clustering>
</event>
<event>
 9    1  0.2728138E-005  0.1822639E+03  0.7546771E-02  0.1192531E+00
         21   -1    0    0  501  502  0.00000000000E+00  0.00000000000E+00  0.37538992960E+02  0.37538992960E+02  0.00000000000E+00 0. -1.
          3   -1    0    0  502    0 -0.00000000000E+00 -0.00000000000E+00 -0.79352390966E+03  0.79352390966E+03  0.00000000000E+00 0. -1.
         23    2    1    2    0    0 -0.25221836025E+02  0.37039748981E+02 -0.53709121809E+03  0.54622159245E+03  0.88786077078E+02 0.  0.
        -24    2    1    2    0    0 -0.24129157237E+02  0.91552309415E+01 -0.19608353065E+03  0.21349847264E+03  0.80416492972E+02 0.  0.
         13    1    4    4    0    0 -0.10623789505E+02  0.31424235825E+02 -0.27999764283E+02  0.43408919596E+02  0.00000000000E+00 0. -1.
        -14    1    4    4    0    0 -0.13505367733E+02 -0.22269004883E+02 -0.16808376637E+03  0.17008955304E+03  0.00000000000E+00 0.  1.
        -11    1    3    3    0    0 -0.56991054129E+02  0.10473891694E+02 -0.30135397229E+03  0.30687440309E+03  0.00000000000E+00 0. -1.
         11    1    3    3    0    0  0.31769218104E+02  0.26565857286E+02 -0.23573724580E+03  0.23934718935E+03  0.00000000000E+00 0.  1.
          4    1    1    2  501    0  0.49350993262E+02 -0.46194979922E+02 -0.22810167953E+02  0.71342837538E+02  0.00000000000E+00 0. -1.
<scales pt_clust_5="13000.00000" pt_clust_6="13000.00000" pt_clust_7="13000.00000" pt_clust_8="13000.00000" pt_clust_9="13000.00000"></scales>
<clustering>
<clus scale="   80.416">  5  6 -1 -1</clus>
<clus scale="   67.598">  5  9 -1 -1</clus>
<clus scale="   88.786">  7  8 -1 -1</clus>
<clus scale="   99.454">  2  7  1 -1</clus>
<clus scale="  182.264">  1  5  2 -1</clus>
</clustering>
</event>
<event>
 9    1  0.2728138E-005  0.1375798E+04  0.7546771E-02  0.9565756E-01
          1   -1    0    0  502    0 -0.00000000000E+00  0.00000000000E+00  0.61571919970E+03  0.61571919970E+03  0.00000000000E+00 0. -1.
         21   -1    0    0  501  502  0.00000000000E+00 -0.00000000000E+00 -0.97881467436E+03  0.97881467436E+03  0.00000000000E+00 0. -1.
         23    2    1    2    0    0 -0.86607561265E+02 -0.86613628019E+02  0.42941040628E+02  0.16006993981E+03  0.93678505727E+02 0.  0.
        -24    2    1    2    0    0  0.23840633103E+03 -0.43689924939E+03 -0.66198522108E+03  0.83228593787E+03  0.82200466190E+02 0.  0.
         13    1    4    4    0    0  0.22574574628E+03 -0.43613188000E+03 -0.65131830791E+03  0.81571299912E+03  0.00000000000E+00 0. -1.
        -14    1    4    4    0    0  0.12660584747E+02 -0.76736938935E+00 -0.10666913173E+02  0.16572938743E+02  0.00000000000E+00 0.  1.
        -11    1    3    3    0    0 -0.56355670699E+01 -0.42641589558E+02 -0.21050656728E+02  0.47887314864E+02  0.00000000000E+00 0.  1.
         11    1    3    3    0    0 -0.80971994195E+02 -0.43972038461E+02  0.63991697356E+02  0.11218262495E+03  0.00000000000E+00 0. -1.
          2    1    1    2  501    0 -0.15179876977E+03  0.52351287741E+03  0.25594870580E+03  0.60217799638E+03  0.00000000000E+00 0. -1.
<scales pt_clust_5="13000.00000" pt_clust_6="13000.00000" pt_clust_7="13000.00000" pt_clust_8="13000.00000" pt_clust_9="13000.00000"></scales>
<clustering>
<clus scale="   82.200">  5  6 -1 -1</clus>
<clus scale="   93.679">  7  8 -1 -1</clus>
<clus scale="  154.203">  1  7  2 -1</clus>
<clus scale="  503.810">  5  9 -1 -1</clus>
<clus scale=" 1375.798">  2  5  1 -1</clus>
</clustering>
</event>
<event>
 9    1  0.2728138E-005  0.3349200E+03  0.7546771E-02  0.1092992E+00
         21   -1    0    0  501  502  0.00000000000E+00  0.00000000000E+00  0.26883615223E+03  0.26883615223E+03  0.00000000000E+00 0.  1.
          1   -1    0    0  502    0 -0.00000000000E+00 -0.00000000000E+00 -0.26047504448E+03  0.26047504448E+03  0.00000000000E+00 0. -1.
         23    2    1    2    0    0 -0.15100170765E+03  0.12977479024E+02  0.69510369944E+02  0.18885471062E+03  0.88681900736E+02 0.  0.
        -24    2    1    2    0    0 -0.47784128475E+02  0.19833818297E+02 -0.10115930602E+03  0.13504666773E+03  0.72991054169E+02 0.  0.
         11    1    4    4    0    0 -0.40017575607E+02  0.45414731638E+02 -0.83004825078E+02  0.10273122794E+03  0.00000000000E+00 0. -1.
        -12    1    4    4    0    0 -0.77665528686E+01 -0.25580913341E+02 -0.18154480939E+02  0.32315439793E+02  0.00000000000E+00 0.  1.
        -13    1    3    3    0    0 -0.53970331365E+02 -0.34750753003E+02  0.86522208884E+01  0.64770922707E+02  0.00000000000E+00 0. -1.
         13    1    3    3    0    0 -0.97031376283E+02  0.47728232028E+02  0.60858149056E+02  0.12408378791E+03  0.00000000000E+00 0.  1.
          2    1    1    2  501    0  0.19878583612E+03 -0.32811297321E+02  0.40010043823E+02  0.20540981837E+03  0.00000000000E+00 0. -1.
<scales pt_clust_5="13000.00000" pt_clust_6="13000.00000" pt_clust_7="13000.00000" pt_clust_8="13000.00000" pt_clust_9="13000.00000"></scales>
<clustering>
<clus scale="   72.991">  5  6 -1 -1</clus>
<clus scale="   88.682">  7  8 -1 -1</clus>
<clus scale="  175.597">  2  7  1 -1</clus>
<clus scale="  139.331">  5  9 -1 -1</clus>
<clus scale="  334.920">  1  5  2 -1</clus>
</clustering>
</event>
<event>
 9    1  0.2728138E-005  0.3076410E+03  0.7546771E-02  0.1094799E+00
          1   -1    0    0  502    0 -0.00000000000E+00  0.00000000000E+00  0.52919345385E+03  0.52919345385E+03  0.00000000000E+00 0. -1.
         21   -1    0    0  501  502  0.00000000000E+00 -0.00000000000E+00 -0.13596886851E+03  0.13596886851E+03  0.00000000000E+00 0. -1.
         23    2    1    2    0    0 -0.19273198796E+03  0.34666605861E+02  0.23490330234E+03  0.31917303580E+03  0.91348084733E+02 0.  0.
        -24    2    1    2    0    0 -0.28278089787E+01 -0.35850128578E+02  0.11752888047E+03  0.14621677841E+03  0.79202779764E+02 0.  0.
         13    1    4    4    0    0  0.22509736733E+02 -0.49795191696E+02  0.56080573300E+02  0.78302490800E+02  0.00000000000E+00 0. -1.
        -14    1    4    4    0    0 -0.25337545712E+02  0.13945063118E+02  0.61448307165E+02  0.67914287610E+02  0.00000000000E+00 0.  1.
        -11    1    3    3    0    0 -0.13200646284E+03  0.43729898181E+01  0.91961689471E+02  0.16094030447E+03  0.00000000000E+00 0. -1.
         11    1    3    3    0    0 -0.60725525121E+02  0.30293616043E+02  0.14294161287E+03  0.15823273133E+03  0.00000000000E+00 0.  1.
          2    1    1    2  501    0  0.19555979694E+03  0.11835227170E+01  0.40792402526E+02  0.19977250815E+03  0.00000000000E+00 0. -1.
<scales pt_clust_5="13000.00000" pt_clust_6="13000.00000" pt_clust_7="13000.00000" pt_clust_8="13000.00000" pt_clust_9="13000.00000"></scales>
<clustering>
<clus scale="   79.203">  5  6 -1 -1</clus>
<clus scale="   91.348">  7  8 -1 -1</clus>
<clus scale="  195.563">  5  9 -1 -1</clus>
<clus scale="  216.083">  1  7  2 -1</clus>
<clus scale="  307.641">  2  5  1 -1</clus>
</clustering>
</event>
<event>
 9    1  0.2728138E-005  0.2378927E+03  0.7546771E-02  0.1155686E+00
         21   -1    0    0  501  502  0.00000000000E+00  0.00000000000E+00  0.95523322980E+02  0.95523322980E+02  0.00000000000E+00 0. -1.
          3   -1    0    0  502    0 -0.00000000000E+00 -0.00000000000E+00 -0.33374620518E+03  0.33374620518E+03  0.00000000000E+00 0. -1.
         23    2    1    2    0    0 -0.30038216477E+02 -0.41752383220E+02 -0.13490827644E+03  0.16991099528E+03  0.89576488615E+02 0.  0.
        -24    2    1    2    0    0  0.37675779792E+02 -0.53738759653E+02 -0.12306809486E+03  0.16154702501E+03  0.81512984520E+02 0.  0.
         13    1    4    4    0    0  0.80427070268E+01 -0.47177268570E+02 -0.12214068980E+03  0.13118204112E+03  0.00000000000E+00 0. -1.
        -14    1    4    4    0    0  0.29633072765E+02 -0.65614910831E+01 -0.92740505690E+00  0.30364983894E+02  0.00000000000E+00 0.  1.
        -11    1    3    3    0    0  0.31819657490E+02 -0.11622833901E+02 -0.36089542503E+02  0.49497837818E+02  0.00000000000E+00 0. -1.
         11    1    3    3    0    0 -0.61857873967E+02 -0.30129549320E+02 -0.98818733937E+02  0.12041315747E+03  0.00000000000E+00 0.  1.
          4    1    1    2  501    0 -0.76375633149E+01  0.95491142873E+02  0.19753489095E+02  0.97811507871E+02  0.00000000000E+00 0. -1.
<scales pt_clust_5="13000.00000" pt_clust_6="13000.00000" pt_clust_7="13000.00000" pt_clust_8="13000.00000" pt_clust_9="13000.00000"></scales>
<clustering>
<clus scale="   81.513">  5  6 -1 -1</clus>
<clus scale="   89.576">  7  8 -1 -1</clus>
<clus scale="   95.796">  5  9 -1 -1</clus>
<clus scale="  103.293">  2  7  1 -1</clus>
<clus scale="  237.893">  1  5  2 -1</clus>
</clustering>
</event>
<event>
 9    1  0.2728138E-005  0.2042213E+03  0.7546771E-02  0.1171754E+00
         21   -1    0    0  501  502  0.00000000000E+00  0.00000000000E+00  0.53243780039E+03  0.53243780039E+03  0.00000000000E+00 0. -1.
          1   -1    0    0  502    0 -0.00000000000E+00 -0.00000000000E+00 -0.13829459309E+03  0.13829459309E+03  0.00000000000E+00 0. -1.
         23    2    1    2    0    0  0.56715694570E+02 -0.24374331501E+02 -0.90732480278E+02  0.14460429360E+03  0.94166027328E+02 0.  0.
        -24    2    1    2    0    0  0.24604185207E+02  0.39980401694E+02  0.12118936531E+03  0.15313451646E+03  0.80990860084E+02 0.  0.
         13    1    4    4    0    0  0.48040172777E+02  0.40300766920E+02  0.11118937119E+03  0.12765220829E+03  0.00000000000E+00 0. -1.
        -14    1    4    4    0    0 -0.23435987570E+02 -0.32036522624E+00  0.99999941176E+01  0.25482308169E+02  0.00000000000E+00 0.  1.
        -13    1    3    3    0    0  0.63771508171E+02  0.88999723406E+01 -0.22224737668E+02  0.68117205803E+02  0.00000000000E+00 0.  1.
         13    1    3    3    0    0 -0.70558136007E+01 -0.33274303842E+02 -0.68507742610E+02  0.76487087794E+02  0.00000000000E+00 0. -1.
          2    1    1    2  501    0 -0.81319879776E+02 -0.15606070193E+02  0.36368632227E+03  0.37299358343E+03  0.00000000000E+00 0. -1.
<scales pt_clust_5="13000.00000" pt_clust_6="13000.00000" pt_clust_7="13000.00000" pt_clust_8="13000.00000" pt_clust_9="13000.00000"></scales>
<clustering>
<clus scale="   80.991">  5  6 -1 -1</clus>
<clus scale="   82.804">  5  9 -1 -1</clus>
<clus scale="   94.166">  7  8 -1 -1</clus>
<clus scale="  112.597">  2  7  1 -1</clus>
<clus scale="  204.221">  1  5  2 -1</clus>
</clustering>
</event>
<event>
 9    1  0.2728138E-005  0.3023763E+03  0.7546771E-02  0.1095981E+00
         21   -1    0    0  501  502  0.00000000000E+00  0.00000000000E+00  0.15271129326E+04  0.15271129326E+04  0.00000000000E+00 0. -1.
         -2   -1    0    0    0  501 -0.00000000000E+00 -0.00000000000E+00 -0.46616053096E+02  0.46616053096E+02  0.00000000000E+00 0.  1.
         23    2    1    2    0    0 -0.10494417847E+03  0.16943622860E+03  0.47479521216E+03  0.52355410262E+03  0.94638727395E+02 0.  0.
        -24    2    1    2    0    0  0.22435644384E+02  0.34212867960E+00  0.57129991427E+03  0.57653236823E+03  0.74178867477E+02 0.  0.
         13    1    4    4    0    0  0.20267375951E+02  0.33484676766E+02  0.20307500044E+03  0.20681258644E+03  0.00000000000E+00 0. -1.
        -14    1    4    4    0    0  0.21682684333E+01 -0.33142548087E+02  0.36822491382E+03  0.36971978178E+03  0.00000000000E+00 0.  1.
        -11    1    3    3    0    0 -0.59316949430E+02  0.16424985804E+03  0.37017796457E+03  0.40930214000E+03  0.00000000000E+00 0.  1.
         11    1    3    3    0    0 -0.45627229036E+02  0.51863705633E+01  0.10461724759E+03  0.11425196262E+03  0.00000000000E+00 0. -1.
         -1    1    1    2    0  502  0.82508534082E+02 -0.16977835728E+03  0.43440175309E+03  0.47364251487E+03  0.00000000000E+00 0.  1.
<scales pt_clust_5="13000.00000" pt_clust_6="13000.00000" pt_clust_7="13000.00000" pt_clust_8="13000.00000" pt_clust_9="13000.00000"></scales>
<clustering>
<clus scale="   74.179">  5  6 -1 -1</clus>
<clus scale="   94.639">  7  8 -1 -1</clus>
<clus scale="  188.765">  5  9 -1 -1</clus>
<clus scale="  220.632">  2  7  1 -1</clus>
<clus scale="  302.376">  1  5  2 -1</clus>
</clustering>
</event>
<event>
 9    1  0.2728138E-005  0.2977815E+03  0.7546771E-02  0.1126108E+00
          3   -1    0    0  502    0 -0.00000000000E+00  0.00000000000E+00  0.46658016002E+03  0.46658016002E+03  0.00000000000E+00 0. -1.
         21   -1    0    0  501  502  0.00000000000E+00 -0.00000000000E+00 -0.88396613124E+02  0.88396613124E+02  0.00000000000E+00 0. -1.
         23    2    1    2    0    0  0.11669060000E+02 -0.55348620839E+02  0.11795496698E+03  0.15951157698E+03  0.91273940235E+02 0.  0.
        -24    2    1    2    0    0  0.57167709087E+02 -0.90155407793E+02  0.86553564421E+02  0.15866795350E+03  0.79295998868E+02 0.  0.
         11    1    4    4    0    0  0.64334269404E+02 -0.77648959989E+02  0.97731921547E+02  0.14042716153E+03  0.00000000000E+00 0. -1.
        -12    1    4    4    0    0 -0.71665603168E+01 -0.12506447804E+02 -0.11178357126E+02  0.18240791964E+02  0.00000000000E+00 0.  1.
        -13    1    3    3    0    0 -0.95326364074E+01  0.22036971042E+02  0.45289184572E+02  0.51260213507E+02  0.00000000000E+00 0.  1.
         13    1    3    3    0    0  0.21201696407E+02 -0.77385591881E+02  0.72665782411E+02  0.10825136348E+03  0.00000000000E+00 0. -1.
          4    1    1    2  501    0 -0.68836769087E+02  0.14550402863E+03  0.17367501549E+03  0.23679724266E+03  0.00000000000E+00 0. -1.
<scales pt_clust_5="13000.00000" pt_clust_6="13000.00000" pt_clust_7="13000.00000" pt_clust_8="13000.00000" pt_clust_9="13000.00000"></scales>
<clustering>
<clus scale="   79.296">  5  6 -1 -1</clus>
<clus scale="   91.274">  7  8 -1 -1</clus>
<clus scale="  107.380">  1  7  2 -1</clus>
<clus scale="  126.787">  5  9 -1 -1</clus>
<clus scale="  297.781">  2  5  1 -1</clus>
</clustering>
</event>
<event>
 9    1  0.2728138E-005  0.1577504E+03  0.7546771E-02  0.1205443E+00
          1   -1    0    0  502    0 -0.00000000000E+00  0.00000000000E+00  0.53628168568E+03  0.53628168568E+03  0.00000000000E+00 0. -1.
         21   -1    0    0  501  502  0.00000000000E+00 -0.00000000000E+00 -0.49320697884E+02  0.49320697884E+02  0.00000000000E+00 0. -1.
         23    2    1    2    0    0  0.40737347108E+02 -0.55669234981E+02  0.37414310007E+03  0.39166148432E+03  0.93043343652E+02 0.  0.
        -24    2    1    2    0    0 -0.55174005257E+02 -0.36376214471E+01  0.78129659693E+02  0.12373410839E+03  0.78412261220E+02 0.  0.
         11    1    4    4    0    0 -0.65431234203E+02  0.15042445006E+02  0.35200369427E+02  0.75806250196E+02  0.00000000000E+00 0. -1.
        -12    1    4    4    0    0  0.10257228946E+02 -0.18680066453E+02  0.42929290266E+02  0.47927858194E+02  0.00000000000E+00 0.  1.
        -13    1    3    3    0    0 -0.22200908497E+02 -0.15071113638E+02  0.33703303818E+02  0.43080523356E+02  0.00000000000E+00 0.  1.
         13    1    3    3    0    0  0.62938255606E+02 -0.40598121343E+02  0.34043979625E+03  0.34858096096E+03  0.00000000000E+00 0. -1.
          2    1    1    2  501    0  0.14436658148E+02  0.59306856428E+02  0.34688228036E+02  0.70206790855E+02  0.00000000000E+00 0. -1.
<scales pt_clust_5="13000.00000" pt_clust_6="13000.00000" pt_clust_7="13000.00000" pt_clust_8="13000.00000" pt_clust_9="13000.00000"></scales>
<clustering>
<clus scale="   78.412">  5  6 -1 -1</clus>
<clus scale="   61.039">  5  9 -1 -1</clus>
<clus scale="   93.043">  7  8 -1 -1</clus>
<clus scale="  115.826">  1  7  2 -1</clus>
<clus scale="  157.750">  2  5  1 -1</clus>
</clustering>
</event>
<event>
 9    1  0.2728138E-005  0.6832438E+03  0.7546771E-02  0.1020623E+00
          1   -1    0    0  502    0 -0.00000000000E+00  0.00000000000E+00  0.28471594423E+03  0.28471594423E+03  0.00000000000E+00 0. -1.
         21   -1    0    0  501  502  0.00000000000E+00 -0.00000000000E+00 -0.62371166701E+03  0.62371166701E+03  0.00000000000E+00 0. -1.
         23    2    1    2    0    0 -0.13207733379E+03  0.15531025649E+02 -0.52378194852E+02  0.16750136141E+03  0.87336108906E+02 0.  0.
        -24    2    1    2    0    0  0.38651243753E+03 -0.79051374506E+02 -0.25546811537E+03  0.47683849427E+03  0.80436356658E+02 0.  0.
         11    1    4    4    0    0  0.22201931336E+03 -0.49020355986E+02 -0.19334557688E+03  0.29845951636E+03  0.00000000000E+00 0. -1.
        -12    1    4    4    0    0  0.16449312417E+03 -0.30031018521E+02 -0.62122538484E+02  0.17837897791E+03  0.00000000000E+00 0.  1.
        -13    1    3    3    0    0 -0.10022378088E+03  0.48902705306E+02 -0.47136770872E+02  0.12107087184E+03  0.00000000000E+00 0. -1.
         13    1    3    3    0    0 -0.31853552912E+02 -0.33371679657E+02 -0.52414239796E+01  0.46430489569E+02  0.00000000000E+00 0.  1.
          2    1    1    2  501    0 -0.25443510374E+03  0.63520348857E+02 -0.31149412561E+02  0.26408775556E+03  0.00000000000E+00 0. -1.
<scales pt_clust_5="13000.00000" pt_clust_6="13000.00000" pt_clust_7="13000.00000" pt_clust_8="13000.00000" pt_clust_9="13000.00000"></scales>
<clustering>
<clus scale="   80.436">  5  6 -1 -1</clus>
<clus scale="   87.336">  7  8 -1 -1</clus>
<clus scale="  159.101">  1  7  2 -1</clus>
<clus scale="  329.991">  5  9 -1 -1</clus>
<clus scale="  683.244">  2  5  1 -1</clus>
</clustering>
</event>
<event>
 9    1  0.2728138E-005  0.1434725E+03  0.7546771E-02  0.1216957E+00
         21   -1    0    0  501  502  0.00000000000E+00  0.00000000000E+00  0.64903121470E+02  0.64903121470E+02  0.00000000000E+00 0. -1.
          1   -1    0    0  502    0 -0.00000000000E+00 -0.00000000000E+00 -0.66941304096E+03  0.66941304096E+03  0.00000000000E+00 0. -1.
         23    2    1    2    0    0  0.88319092270E+00  0.53404428007E+02 -0.79259543918E+01  0.12072283217E+03  0.10797392508E+03 0.  0.
        -24    2    1    2    0    0  0.11537994605E+02  0.28007620434E+01 -0.28036666603E+03  0.29217975017E+03  0.81379170564E+02 0.  0.
         13    1    4    4    0    0  0.25511743298E+02 -0.33218000266E+02 -0.11588987200E+03  0.12322640553E+03  0.00000000000E+00 0. -1.
        -14    1    4    4    0    0 -0.13973748692E+02  0.36018762309E+02 -0.16447679403E+03  0.16895334464E+03  0.00000000000E+00 0.  1.
        -13    1    3    3    0    0  0.43776040235E+02 -0.88736974037E+01 -0.60997140890E+01  0.45080935175E+02  0.00000000000E+00 0.  1.
         13    1    3    3    0    0 -0.42892849312E+02  0.62278125411E+02 -0.18262403029E+01  0.75641896991E+02  0.00000000000E+00 0. -1.
          2    1    1    2  501    0 -0.12421185528E+02 -0.56205190050E+02 -0.31621729907E+03  0.32141358009E+03  0.00000000000E+00 0. -1.
<scales pt_clust_5="13000.00000" pt_clust_6="13000.00000" pt_clust_7="13000.00000" pt_clust_8="13000.00000" pt_clust_9="13000.00000"></scales>
<clustering>
<clus scale="   81.379">  5  6 -1 -1</clus>
<clus scale="   57.561">  5  9 -1 -1</clus>
<clus scale="  107.974">  7  8 -1 -1</clus>
<clus scale="  120.462">  2  7  1 -1</clus>
<clus scale="  143.472">  1  5  2 -1</clus>
</clustering>
</event>
<event>
 9    1  0.2728138E-005  0.2126647E+03  0.7546771E-02  0.1157583E+00
          1   -1    0    0  502    0 -0.00000000000E+00  0.00000000000E+00  0.13442199179E+03  0.13442199179E+03  0.00000000000E+00 0. -1.
         21   -1    0    0  501  502  0.00000000000E+00 -0.00000000000E+00 -0.26691424152E+03  0.26691424152E+03  0.00000000000E+00 0. -1.
         23    2    1    2    0    0 -0.54101504866E+02 -0.86362801396E+02 -0.12826946406E+03  0.18862961628E+03  0.93501713543E+02 0.  0.
        -24    2    1    2    0    0  0.21662465467E+02  0.33434373073E+02  0.69673989230E+02  0.11619525425E+03  0.84022334074E+02 0.  0.
         11    1    4    4    0    0  0.22355729780E+01  0.59464198764E+02  0.52992645183E+02  0.79681924955E+02  0.00000000000E+00 0. -1.
        -12    1    4    4    0    0  0.19426892489E+02 -0.26029825691E+02  0.16681344047E+02  0.36513329299E+02  0.00000000000E+00 0.  1.
        -11    1    3    3    0    0  0.26527167660E+02 -0.24247599534E+02 -0.41348335763E+02  0.54784318720E+02  0.00000000000E+00 0.  1.
         11    1    3    3    0    0 -0.80628672526E+02 -0.62115201862E+02 -0.86921128297E+02  0.13384529756E+03  0.00000000000E+00 0. -1.
          2    1    1    2  501    0  0.32439039399E+02  0.52928428324E+02 -0.73896774909E+02  0.96511362771E+02  0.00000000000E+00 0. -1.
<scales pt_clust_5="13000.00000" pt_clust_6="13000.00000" pt_clust_7="13000.00000" pt_clust_8="13000.00000" pt_clust_9="13000.00000"></scales>
<clustering>
<clus scale="   84.022">  5  6 -1 -1</clus>
<clus scale="   62.078">  5  9 -1 -1</clus>
<clus scale="   93.502">  7  8 -1 -1</clus>
<clus scale="  138.304">  1  7  2 -1</clus>
<clus scale="  212.665">  2  5  1 -1</clus>
</clustering>
</event>
<event>
 9    1  0.2728138E-005  0.1532810E+03  0.7546771E-02  0.1208980E+00
          1   -1    0    0  502    0 -0.00000000000E+00  0.00000000000E+00  0.14633759502E+03  0.14633759502E+03  0.00000000000E+00 0. -1.
         21   -1    0    0  501  502  0.00000000000E+00 -0.00000000000E+00 -0.23003467686E+03  0.23003467686E+03  0.00000000000E+00 0. -1.
         23    2    1    2    0    0  0.62285467673E+02  0.88150505509E+01  0.87839731136E+02  0.14632891141E+03  0.98687118451E+02 0.  0.
        -24    2    1    2    0    0 -0.65398488873E+02  0.30009826654E+02 -0.14709013899E+03  0.18405747286E+03  0.84048154560E+02 0.  0.
         11    1    4    4    0    0 -0.70008700446E+02  0.18864834877E+02 -0.15395899933E+03  0.17017777061E+03  0.00000000000E+00 0. -1.
        -12    1    4    4    0    0  0.46102115728E+01  0.11144991777E+02  0.68688603367E+01  0.13879702259E+02  0.00000000000E+00 0.  1.
        -13    1    3    3    0    0 -0.21986373893E+02 -0.13171613398E+02  0.49643461849E+01  0.26106259202E+02  0.00000000000E+00 0.  1.
         13    1    3    3    0    0  0.84271841566E+02  0.21986663949E+02  0.82875384952E+02  0.12022265221E+03  0.00000000000E+00 0. -1.
          2    1    1    2  501    0  0.31130212003E+01 -0.38824877205E+02 -0.24446673979E+02  0.45985887613E+02  0.00000000000E+00 0. -1.
<scales pt_clust_5="13000.00000" pt_clust_6="13000.00000" pt_clust_7="13000.00000" pt_clust_8="13000.00000" pt_clust_9="13000.00000"></scales>
<clustering>
<clus scale="   84.048">  5  6 -1 -1</clus>
<clus scale="   38.949">  5  9 -1 -1</clus>
<clus scale="   98.687">  7  8 -1 -1</clus>
<clus scale="  117.031">  1  7  2 -1</clus>
<clus scale="  153.281">  2  5  1 -1</clus>
</clustering>
</event>
<event>
 9    1  0.2728138E-005  0.1920105E+03  0.7546771E-02  0.1170216E+00
         21   -1    0    0  501  502  0.00000000000E+00  0.00000000000E+00  0.52618993427E+03  0.52618993427E+03  0.00000000000E+00 0.  1.
          3   -1    0    0  502    0 -0.00000000000E+00 -0.00000000000E+00 -0.60058698461E+02  0.60058698461E+02  0.00000000000E+00 0. -1.
         23    2    1    2    0    0  0.32650170451E+02 -0.98096887829E+02  0.98313519955E+02  0.17132946378E+03  0.94864134016E+02 0.  0.
        -24    2    1    2    0    0  0.37631305782E+02  0.76745747267E+02  0.24141485938E+03  0.26872395962E+03  0.81396604637E+02 0.  0.
         13    1    4    4    0    0  0.13403747301E+02  0.80994673104E+02  0.12368002366E+03  0.14844711437E+03  0.00000000000E+00 0. -1.
        -14    1    4    4    0    0  0.24227558481E+02 -0.42489258373E+01  0.11773483573E+03  0.12027684525E+03  0.00000000000E+00 0.  1.
        -13    1    3    3    0    0  0.33741322059E+02 -0.68085937889E+02  0.11434193764E+03  0.13728893057E+03  0.00000000000E+00 0.  1.
         13    1    3    3    0    0 -0.10911516087E+01 -0.30010949939E+02 -0.16028417688E+02  0.34040533216E+02  0.00000000000E+00 0. -1.
          4    1    1    2  501    0 -0.70281476233E+02  0.21351140562E+02  0.12640285647E+03  0.14619520932E+03  0.00000000000E+00 0. -1.
<scales pt_clust_5="13000.00000" pt_clust_6="13000.00000" pt_clust_7="13000.00000" pt_clust_8="13000.00000" pt_clust_9="13000.00000"></scales>
<clustering>
<clus scale="   81.397">  5  6 -1 -1</clus>
<clus scale="   73.453">  5  9 -1 -1</clus>
<clus scale="   94.864">  7  8 -1 -1</clus>
<clus scale="  140.315">  2  7  1 -1</clus>
<clus scale="  192.011">  1  5  2 -1</clus>
</clustering>
</event>
<event>
 9    1  0.2728138E-005  0.1539372E+03  0.7546771E-02  0.1212084E+00
          1   -1    0    0  502    0 -0.00000000000E+00  0.00000000000E+00  0.34059805411E+03  0.34059805411E+03  0.00000000000E+00 0. -1.
         21   -1    0    0  501  502  0.00000000000E+00 -0.00000000000E+00 -0.53575628516E+02  0.53575628516E+02  0.00000000000E+00 0.  1.
         23    2    1    2    0    0  0.36466223287E+02 -0.30210859345E+02  0.72720372067E+02  0.13031383189E+03  0.97216052195E+02 0.  0.
        -24    2    1    2    0    0  0.27031819910E+02  0.49047157781E+01  0.11694539017E+03  0.14490304223E+03  0.81030190912E+02 0.  0.
         13    1    4    4    0    0  0.55024251185E+02  0.12632463249E+02  0.79882836815E+02  0.97818786354E+02  0.00000000000E+00 0. -1.
        -14    1    4    4    0    0 -0.27992431275E+02 -0.77277474705E+01  0.37062553356E+02  0.47084255871E+02  0.00000000000E+00 0.  1.
        -13    1    3    3    0    0 -0.23210792064E+02  0.12399224370E+02  0.44588918528E+02  0.51775025724E+02  0.00000000000E+00 0. -1.
         13    1    3    3    0    0  0.59677015350E+02 -0.42610083716E+02  0.28131453539E+02  0.78538806163E+02  0.00000000000E+00 0.  1.
          2    1    1    2  501    0 -0.63498043197E+02  0.25306143567E+02  0.97356663357E+02  0.11895680852E+03  0.00000000000E+00 0. -1.
<scales pt_clust_5="13000.00000" pt_clust_6="13000.00000" pt_clust_7="13000.00000" pt_clust_8="13000.00000" pt_clust_9="13000.00000"></scales>
<clustering>
<clus scale="   81.030">  5  6 -1 -1</clus>
<clus scale="   68.355">  5  9 -1 -1</clus>
<clus scale="   97.216">  7  8 -1 -1</clus>
<clus scale="  108.136">  1  7  2 -1</clus>
<clus scale="  153.937">  2  5  1 -1</clus>
</clustering>
</event>
<event>
 9    1  0.2728138E-005  0.1477754E+03  0.7546771E-02  0.1228821E+00
          1   -1    0    0  502    0 -0.00000000000E+00  0.00000000000E+00  0.11601789011E+03  0.11601789011E+03  0.00000000000E+00 0. -1.
         21   -1    0    0  501  502  0.00000000000E+00 -0.00000000000E+00 -0.15618514420E+03  0.15618514420E+03  0.00000000000E+00 0. -1.
         23    2    1    2    0    0 -0.21231558728E+02 -0.28646339138E+02  0.49589070676E+02  0.99304876819E+02  0.78300643659E+02 0.  0.
        -24    2    1    2    0    0 -0.25118337317E+02 -0.26883071912E+01 -0.77796633303E+02  0.11568620818E+03  0.81809686128E+02 0.  0.
         11    1    4    4    0    0 -0.11586248029E+02 -0.20591895424E+02 -0.87939467290E+02  0.91058317620E+02  0.00000000000E+00 0. -1.
        -12    1    4    4    0    0 -0.13532089288E+02  0.17903588233E+02  0.10142833987E+02  0.24627890559E+02  0.00000000000E+00 0.  1.
        -13    1    3    3    0    0 -0.41206759289E+02 -0.12506099299E+02  0.58038630274E+02  0.72269510409E+02  0.00000000000E+00 0. -1.
         13    1    3    3    0    0  0.19975200561E+02 -0.16140239839E+02 -0.84495595978E+01  0.27035366410E+02  0.00000000000E+00 0.  1.
          2    1    1    2  501    0  0.46349896045E+02  0.31334646330E+02 -0.11959691472E+02  0.57211949312E+02  0.00000000000E+00 0. -1.
<scales pt_clust_5="13000.00000" pt_clust_6="13000.00000" pt_clust_7="13000.00000" pt_clust_8="13000.00000" pt_clust_9="13000.00000"></scales>
<clustering>
<clus scale="   78.301">  7  8 -1 -1</clus>
<clus scale="   81.810">  5  6 -1 -1</clus>
<clus scale="   55.948">  5  9 -1 -1</clus>
<clus scale="   86.037">  1  7  2 -1</clus>
<clus scale="  147.775">  2  5  1 -1</clus>
</clustering>
</event>
